Title
55513
    1DOPE     N    1   3.160   5.201  17.495  0.3988 -0.0196  0.3982
    1DOPE   HN1    2   3.237   5.152  17.445  1.5711  0.3254  1.7939
    1DOPE   HN2    3   3.190   5.296  17.525 -0.3073  0.5681 -0.6732
    1DOPE   HN3    4   3.138   5.141  17.577 -0.2923 -0.3142  0.0095
    1DOPE   C12    5   3.036   5.216  17.410  0.0765  0.1438 -0.2687
    1DOPE  H12A    6   3.064   5.286  17.329  1.2886 -0.5592 -0.4812
    1DOPE  H12B    7   2.949   5.237  17.476  1.1586  0.2564  1.1857
    1DOPE   C11    8   3.000   5.078  17.355 -0.3652  0.3338 -0.4012
    1DOPE  H11A    9   3.079   5.043  17.285 -1.7257  0.1172 -1.9009
    1DOPE  H11B   10   2.906   5.096  17.298 -0.7736 -1.1118 -0.2175
    1DOPE     P   11   2.947   4.839  17.425 -0.0968  0.2048 -0.1965
    1DOPE   O13   12   2.839   4.776  17.501  0.3345 -0.3660  0.1675
    1DOPE   O14   13   3.085   4.776  17.437  1.0846  0.0112 -0.2477
    1DOPE   O11   14   2.898   4.833  17.279 -0.0866  0.6609  0.0245
    1DOPE   O12   15   2.961   4.992  17.459 -0.0529 -0.7056  0.3858
    1DOPE    C1   16   2.786   4.752  17.228  0.0150  0.5745  0.1644
    1DOPE    HA   17   2.691   4.806  17.247  0.1743  0.6498  0.7627
    1DOPE    HB   18   2.774   4.657  17.284  1.5172  1.2549  1.7300
    1DOPE    C2   19   2.806   4.716  17.077  0.1420  0.4136  0.1105
    1DOPE    HS   20   2.904   4.665  17.063  1.2158  2.0760  1.2521
    1DOPE   O21   21   2.796   4.838  17.007 -0.2947  0.2212 -0.1993
    1DOPE   C21   22   2.918   4.895  16.978 -0.2362 -0.4543  0.4983
    1DOPE   O22   23   3.024   4.841  17.008  0.0796 -0.2924  0.1181
    1DOPE   C22   24   2.898   5.024  16.909  0.5939 -0.3591 -0.1219
    1DOPE   H2R   25   2.871   5.110  16.975  0.7370  0.7620 -1.4819
    1DOPE   H2S   26   2.799   5.016  16.860 -0.6681  3.4912  1.3464
    1DOPE    C3   27   2.689   4.629  17.031  0.8329  0.2842 -0.6767
    1DOPE    HX   28   2.587   4.670  17.044  0.5325 -0.7508  0.4212
    1DOPE    HY   29   2.687   4.539  17.096 -2.4362  1.4864  1.0897
    1DOPE   O31   30   2.701   4.592  16.892  0.3934 -0.4649 -0.1914
    1DOPE   C31   31   2.798   4.510  16.863 -0.3292  0.0404  0.5966
    1DOPE   O32   32   2.889   4.467  16.934  0.4421 -0.3871 -0.1560
    1DOPE   C32   33   2.787   4.490  16.708 -0.0034 -0.8477 -0.3500
    1DOPE   H2X   34   2.855   4.406  16.681  1.3353  0.0712  0.0795
    1DOPE   H2Y   35   2.683   4.471  16.673 -0.4603 -1.4446  1.2681
    1DOPE   C23   36   2.997   5.082  16.815 -0.6860 -0.1571  0.5838
    1DOPE   H3R   37   3.099   5.081  16.859 -0.5443 -1.4528  0.2530
    1DOPE   H3S   38   2.978   5.190  16.796 -0.4377 -0.0724  0.8277
    1DOPE   C24   39   3.006   5.011  16.676  0.0274  0.1083  0.4193
    1DOPE   H4R   40   2.995   4.901  16.685 -0.2447  0.0733 -0.2968
    1DOPE   H4S   41   3.103   5.024  16.624 -0.8736 -1.6354 -1.8874
    1DOPE   C25   42   2.885   5.058  16.585  1.1640  0.0857 -0.3703
    1DOPE   H5R   43   2.854   5.161  16.611 -0.4268 -0.5907  0.5284
    1DOPE   H5S   44   2.792   5.001  16.608 -0.0701  2.7477  1.6932
    1DOPE   C26   45   2.905   5.028  16.442 -0.1572 -0.0579  0.1616
    1DOPE   H6R   46   2.935   4.924  16.415  0.1763  0.3476 -1.0892
    1DOPE   H6S   47   2.981   5.102  16.408 -0.2355 -0.8662 -1.9034
    1DOPE   C27   48   2.778   5.051  16.357  0.4070 -0.1863  0.5199
    1DOPE   H7R   49   2.735   5.148  16.387 -0.4631  0.3436 -2.1180
    1DOPE   H7S   50   2.704   4.972  16.382 -1.7984  1.4372 -0.5233
    1DOPE   C28   51   2.792   5.046  16.201  0.2910  0.4612  0.7829
    1DOPE   H8R   52   2.879   5.111  16.176  0.4324 -0.7255 -2.1958
    1DOPE   H8S   53   2.697   5.086  16.159 -0.6670 -0.5771  1.8694
    1DOPE   C29   54   2.808   4.904  16.138  0.3922 -0.0502  0.1014
    1DOPE   H9R   55   2.871   4.836  16.198 -0.7962 -0.2228  1.1958
    1DOPE  C210   56   2.749   4.861  16.028 -0.3822 -0.5874  0.3268
    1DOPE  H10R   57   2.758   4.754  16.004 -0.7228 -0.4149 -0.6042
    1DOPE  C211   58   2.673   4.954  15.933 -0.3538 -0.1959  1.0737
    1DOPE  H11R   59   2.679   5.062  15.959  3.0410  0.0704 -0.1814
    1DOPE  H11S   60   2.565   4.931  15.934 -0.4519  0.0619 -0.5624
    1DOPE  C212   61   2.711   4.942  15.783  0.0773  0.3528 -0.4038
    1DOPE  H12R   62   2.649   5.018  15.731 -2.1288 -2.9336 -3.0314
    1DOPE  H12S   63   2.670   4.844  15.750  0.9551 -0.4449  0.7855
    1DOPE  C213   64   2.859   4.949  15.754  0.6071  0.3608  0.1057
    1DOPE  H13R   65   2.905   4.859  15.799  2.4614  0.6170 -1.1484
    1DOPE  H13S   66   2.884   5.037  15.818  1.1481 -0.0826  0.5153
    1DOPE  C214   67   2.883   4.941  15.603  1.0183 -0.6258 -0.4000
    1DOPE  H14R   68   2.994   4.941  15.589  1.1876  0.2874  0.7889
    1DOPE  H14S   69   2.855   5.042  15.565  3.2373  0.2152  0.0289
    1DOPE  C215   70   2.822   4.832  15.519  0.0312  0.7302  0.2767
    1DOPE  H15R   71   2.713   4.851  15.510 -0.2511 -0.3008  1.2695
    1DOPE  H15S   72   2.835   4.735  15.573  1.7328  0.5469 -0.4091
    1DOPE  C216   73   2.881   4.825  15.378 -0.0838  0.1721 -0.0514
    1DOPE  H16R   74   2.985   4.793  15.403 -0.5479 -0.2081  1.4919
    1DOPE  H16S   75   2.882   4.926  15.332  0.6262  0.0848 -0.2511
    1DOPE  C217   76   2.819   4.719  15.289 -0.3310 -0.6634  0.3630
    1DOPE  H17R   77   2.804   4.634  15.358  2.3436  0.3551  2.3722
    1DOPE  H17S   78   2.892   4.687  15.211  0.6378 -1.6477  1.6358
    1DOPE  C218   79   2.695   4.766  15.215 -0.2536  1.1545 -0.2810
    1DOPE  H18R   80   2.722   4.834  15.131 -0.3592  1.0445 -0.4037
    1DOPE  H18S   81   2.619   4.810  15.283 -1.3229  0.3077 -0.8895
    1DOPE  H18T   82   2.643   4.676  15.177  0.4153  0.5792  0.1410
    1DOPE   C33   83   2.833   4.617  16.640  0.0461  0.0303 -0.8580
    1DOPE   H3X   84   2.925   4.660  16.684 -0.5660 -0.3481  0.8747
    1DOPE   H3Y   85   2.754   4.695  16.644  1.7400  1.8231  2.5714
    1DOPE   C34   86   2.869   4.580  16.501  0.2936 -0.8830 -0.2917
    1DOPE   H4X   87   2.930   4.663  16.459  0.8397 -1.1493 -0.0372
    1DOPE   H4Y   88   2.938   4.494  16.511  1.3304 -0.1145 -0.6085
    1DOPE   C35   89   2.757   4.546  16.405 -0.0844  0.1339  0.1466
    1DOPE   H5X   90   2.730   4.649  16.374  2.8550  1.7303  2.3409
    1DOPE   H5Y   91   2.657   4.516  16.444 -0.1477  0.5279  0.2983
    1DOPE   C36   92   2.804   4.466  16.288  0.3231  0.4554 -0.8088
    1DOPE   H6X   93   2.880   4.521  16.230 -0.5423  1.2491 -1.2144
    1DOPE   H6Y   94   2.711   4.454  16.228  1.3974  1.4669 -2.7566
    1DOPE   C37   95   2.859   4.326  16.327 -0.8367  0.0524  0.4816
    1DOPE   H7X   96   2.955   4.353  16.375 -0.9187  2.3545 -0.5375
    1DOPE   H7Y   97   2.794   4.276  16.402 -0.1131 -0.9118  0.4812
    1DOPE   C38   98   2.875   4.220  16.215 -0.5896  0.3461  0.0873
    1DOPE   H8X   99   2.774   4.218  16.168 -1.6244  1.2972  2.1529
    1DOPE   H8Y  100   2.875   4.116  16.255 -2.8618  0.4630  0.5425
    1DOPE   C39  101   2.979   4.246  16.109 -0.5477  0.1793  0.3971
    1DOPE   H9X  102   3.083   4.262  16.143 -0.1570 -1.6029  0.1450
    1DOPE  C310  103   2.961   4.233  15.977  0.9323 -0.1509  0.5442
    1DOPE  H10X  104   3.040   4.266  15.908  1.1233 -2.4943 -0.4508
    1DOPE  C311  105   2.827   4.202  15.906 -0.4043  0.0601  0.0221
    1DOPE  H11X  106   2.862   4.136  15.823  2.2075 -0.7531  1.6581
    1DOPE  H11Y  107   2.775   4.129  15.973  0.5599 -2.3463 -1.6824
    1DOPE  C312  108   2.752   4.332  15.881  0.3703 -0.3404 -0.2045
    1DOPE  H12X  109   2.731   4.371  15.983  2.9596  2.2041 -0.5254
    1DOPE  H12Y  110   2.650   4.304  15.847 -0.7166  1.6347  1.2298
    1DOPE  C313  111   2.811   4.442  15.788 -0.4280  0.3076 -0.4833
    1DOPE  H13X  112   2.774   4.538  15.830  2.8713  1.4647  0.0609
    1DOPE  H13Y  113   2.920   4.442  15.808 -0.6909 -0.6941  1.1659
    1DOPE  C314  114   2.779   4.421  15.645 -1.1094 -0.1282  0.6488
    1DOPE  H14X  115   2.781   4.522  15.601 -3.7688  0.2316  1.1831
    1DOPE  H14Y  116   2.678   4.378  15.633 -0.8335 -0.4343 -0.7530
    1DOPE  C315  117   2.877   4.327  15.574 -0.5214  0.5359  0.3904
    1DOPE  H15X  118   2.863   4.220  15.599  2.3149  0.1619  0.6597
    1DOPE  H15Y  119   2.981   4.362  15.589 -0.4952  0.3491  0.6458
    1DOPE  C316  120   2.863   4.328  15.416 -0.3656  0.3298 -0.3815
    1DOPE  H16X  121   2.895   4.428  15.382  1.7494 -0.5795 -1.2664
    1DOPE  H16Y  122   2.756   4.315  15.387 -0.4073  2.6817 -1.4951
    1DOPE  C317  123   2.954   4.231  15.342 -0.3154  0.3973 -0.5313
    1DOPE  H17X  124   2.951   4.226  15.231 -0.3993 -1.3920 -0.4699
    1DOPE  H17Y  125   3.055   4.262  15.377  0.4329 -1.8841 -0.5071
    1DOPE  C318  126   2.948   4.083  15.386  0.4773 -0.2172  0.8254
    1DOPE  H18X  127   3.022   4.018  15.334 -1.0998  0.5925 -2.7915
    1DOPE  H18Y  128   2.952   4.061  15.494 -0.3552 -0.0152  0.9036
    1DOPE  H18Z  129   2.849   4.050  15.347  0.1843 -0.5663  1.8406
    2DOPE     N  130   3.157   4.690  17.191 -0.4288 -0.0253 -0.0878
    2DOPE   HN1  131   3.162   4.739  17.282 -0.4399  1.0471 -0.6497
    2DOPE   HN2  132   3.104   4.759  17.134  2.8212  1.5961 -1.3936
    2DOPE   HN3  133   3.111   4.598  17.208 -0.5809  0.5294  2.9835
    2DOPE   C12  134   3.287   4.698  17.112 -0.1946  0.2132 -0.1497
    2DOPE  H12A  135   3.297   4.635  17.021  1.3311 -0.1850  0.2761
    2DOPE  H12B  136   3.356   4.649  17.183  0.8609  2.1447  0.2420
    2DOPE   C11  137   3.352   4.835  17.107  0.4015 -0.3755  0.4717
    2DOPE  H11A  138   3.285   4.892  17.039  0.2117 -2.3963 -1.1249
    2DOPE  H11B  139   3.450   4.837  17.054  0.6700 -2.5910  0.7878
    2DOPE     P  140   3.428   5.036  17.260  0.3661  0.1003  0.3020
    2DOPE   O13  141   3.573   5.006  17.272 -0.4252 -0.0821  0.4250
    2DOPE   O14  142   3.363   5.104  17.374 -0.2809  0.6602  0.1488
    2DOPE   O11  143   3.412   5.118  17.128  0.3951 -0.1472  0.1395
    2DOPE   O12  144   3.338   4.907  17.228  0.1654 -0.0819 -0.3487
    2DOPE    C1  145   3.307   5.216  17.108  0.4735 -0.1592 -0.2153
    2DOPE    HA  146   3.295   5.284  17.195 -2.1416  0.0968 -0.7027
    2DOPE    HB  147   3.208   5.166  17.102 -0.0477  0.5082  1.9213
    2DOPE    C2  148   3.319   5.301  16.981 -0.9372 -0.0864 -0.7309
    2DOPE    HS  149   3.234   5.373  16.988 -0.8656 -0.1433  2.4561
    2DOPE   O21  150   3.322   5.220  16.864  0.5061  0.7338  0.4678
    2DOPE   C21  151   3.300   5.288  16.752 -0.0489 -0.1867  0.2523
    2DOPE   O22  152   3.241   5.393  16.747  0.4790 -0.3142  0.2484
    2DOPE   C22  153   3.359   5.223  16.632  0.9149  0.4994 -0.0965
    2DOPE   H2R  154   3.335   5.115  16.642 -0.5671  0.7893 -0.2759
    2DOPE   H2S  155   3.469   5.241  16.635  0.9806  0.2783 -0.8342
    2DOPE    C3  156   3.454   5.379  16.993  0.2364 -0.7029 -0.9142
    2DOPE    HX  157   3.536   5.308  16.972  2.0573  0.3281  1.9938
    2DOPE    HY  158   3.473   5.416  17.097  0.0718 -0.9532 -0.7938
    2DOPE   O31  159   3.465   5.486  16.899 -0.3092  0.5292 -0.0830
    2DOPE   C31  160   3.557   5.576  16.930  0.1375  0.9554 -0.9117
    2DOPE   O32  161   3.615   5.581  17.035 -0.0297 -0.8582 -0.2705
    2DOPE   C32  162   3.587   5.672  16.820 -0.1018 -0.2111  0.5614
    2DOPE   H2X  163   3.501   5.743  16.819 -0.2357 -0.3766  0.0106
    2DOPE   H2Y  164   3.678   5.728  16.850  0.7636 -0.9546 -0.5809
    2DOPE   C23  165   3.284   5.285  16.518  0.1572 -0.5380  0.2995
    2DOPE   H3R  166   3.336   5.380  16.495 -1.6301  0.5796  0.6648
    2DOPE   H3S  167   3.177   5.309  16.537 -0.1653  0.2682 -2.1602
    2DOPE   C24  168   3.266   5.190  16.394 -0.5690  0.1231 -0.1767
    2DOPE   H4R  169   3.198   5.109  16.429 -1.4955  0.9161 -0.0980
    2DOPE   H4S  170   3.371   5.160  16.377  0.8257  3.9068  0.6226
    2DOPE   C25  171   3.211   5.264  16.274  0.4959 -0.0825  0.1001
    2DOPE   H5R  172   3.277   5.352  16.255 -0.9550  0.9363 -0.4237
    2DOPE   H5S  173   3.111   5.306  16.297  0.5402  0.0031  0.1391
    2DOPE   C26  174   3.207   5.187  16.147  0.1696  0.1829  0.0540
    2DOPE   H6R  175   3.127   5.111  16.156 -0.3155  0.9104  2.7060
    2DOPE   H6S  176   3.300   5.126  16.146 -1.0857 -1.8350 -0.9966
    2DOPE   C27  177   3.177   5.270  16.027 -1.0121  0.7895  0.9018
    2DOPE   H7R  178   3.267   5.319  15.985 -1.2629  0.4777 -0.0241
    2DOPE   H7S  179   3.102   5.350  16.044 -1.8780 -0.4061  3.2431
    2DOPE   C28  180   3.103   5.184  15.915  0.3503  0.2780  0.2336
    2DOPE   H8R  181   3.069   5.249  15.832 -1.1575 -0.2844  0.3917
    2DOPE   H8S  182   3.027   5.128  15.973 -0.3259  2.4096  1.5099
    2DOPE   C29  183   3.196   5.081  15.852 -0.0216 -0.1206 -0.5393
    2DOPE   H9R  184   3.173   4.979  15.888 -1.3942 -0.1751 -1.4880
    2DOPE  C210  185   3.288   5.103  15.759  0.3950 -0.3165 -0.1160
    2DOPE  H10R  186   3.350   5.028  15.707  0.8345 -0.3733  0.4691
    2DOPE  C211  187   3.323   5.239  15.705 -0.4308 -0.3792 -1.3046
    2DOPE  H11R  188   3.425   5.250  15.747 -1.6437  0.8371  1.6190
    2DOPE  H11S  189   3.257   5.321  15.740 -1.4530 -1.1447 -1.3697
    2DOPE  C212  190   3.332   5.234  15.556  0.3928  0.3561 -0.1239
    2DOPE  H12R  191   3.235   5.201  15.515 -0.1432 -1.0024  2.0442
    2DOPE  H12S  192   3.413   5.164  15.524 -0.1808 -0.9544  1.1658
    2DOPE  C213  193   3.371   5.368  15.488  0.3430 -0.0536  0.0004
    2DOPE  H13R  194   3.437   5.419  15.562  0.4499  0.5588 -0.5105
    2DOPE  H13S  195   3.276   5.423  15.476  0.0817 -0.9535 -2.5366
    2DOPE  C214  196   3.438   5.346  15.354  0.0465 -0.3921  0.0661
    2DOPE  H14R  197   3.361   5.314  15.281  0.8622 -1.5201 -0.3219
    2DOPE  H14S  198   3.516   5.267  15.362  0.5444  0.1123  0.2831
    2DOPE  C215  199   3.504   5.479  15.315 -0.5889  0.2556 -0.4623
    2DOPE  H15R  200   3.565   5.512  15.402  0.0673  1.2357 -1.2631
    2DOPE  H15S  201   3.419   5.549  15.306  0.4670  1.6400  0.0834
    2DOPE  C216  202   3.594   5.474  15.196 -0.2709  0.1985 -0.4109
    2DOPE  H16R  203   3.548   5.417  15.113 -2.1624  0.9631  0.0564
    2DOPE  H16S  204   3.693   5.428  15.215 -0.1400  0.9540  0.8942
    2DOPE  C217  205   3.623   5.614  15.142 -0.1890  0.6539  0.5077
    2DOPE  H17R  206   3.645   5.673  15.233 -1.6435  1.1379  0.5720
    2DOPE  H17S  207   3.530   5.665  15.108  0.6560  2.2878  0.5563
    2DOPE  C218  208   3.732   5.620  15.031  0.3962 -0.3057  0.7158
    2DOPE  H18R  209   3.695   5.587  14.931  0.4240  0.2327  0.5221
    2DOPE  H18S  210   3.823   5.563  15.060  2.8424  1.9737 -1.8156
    2DOPE  H18T  211   3.760   5.726  15.012 -0.3842 -0.2933 -0.4924
    2DOPE   C33  212   3.616   5.613  16.679  0.4796 -0.1098  0.1036
    2DOPE   H3X  213   3.527   5.564  16.634 -0.9975  1.5739  1.0376
    2DOPE   H3Y  214   3.697   5.538  16.685  0.7947  0.2069 -0.1333
    2DOPE   C34  215   3.682   5.717  16.592  0.2526 -0.9938  0.3569
    2DOPE   H4X  216   3.619   5.801  16.557  3.4720  2.4396  2.0410
    2DOPE   H4Y  217   3.766   5.761  16.650 -0.0803 -0.4251  0.4147
    2DOPE   C35  218   3.752   5.658  16.463 -0.1728 -0.3267 -1.1766
    2DOPE   H5X  219   3.676   5.586  16.428 -2.4939  1.3348  0.1722
    2DOPE   H5Y  220   3.845   5.604  16.493 -1.3888 -1.6861  0.3547
    2DOPE   C36  221   3.745   5.763  16.351 -0.0450  0.1411  0.0606
    2DOPE   H6X  222   3.803   5.849  16.391 -0.9231  1.4916 -1.4678
    2DOPE   H6Y  223   3.641   5.804  16.352 -0.3441 -0.6041  0.3867
    2DOPE   C37  224   3.785   5.713  16.212 -0.5290 -0.6574  0.6347
    2DOPE   H7X  225   3.891   5.681  16.214 -0.5910 -0.8523  0.7296
    2DOPE   H7Y  226   3.732   5.619  16.188  2.0533 -1.9605 -0.2377
    2DOPE   C38  227   3.792   5.817  16.098  0.7560 -0.2512 -0.3691
    2DOPE   H8X  228   3.820   5.758  16.008 -0.5675 -0.5996 -0.5795
    2DOPE   H8Y  229   3.885   5.873  16.121  0.5519  0.7997 -1.9695
    2DOPE   C39  230   3.683   5.911  16.064 -0.1953  0.5047  0.0385
    2DOPE   H9X  231   3.642   5.966  16.150 -0.8727  0.1446 -0.0477
    2DOPE  C310  232   3.612   5.921  15.949  0.6132  0.2436  0.3016
    2DOPE  H10X  233   3.532   5.997  15.945 -2.0265 -2.2305  1.9244
    2DOPE  C311  234   3.629   5.857  15.812  0.3095  0.4052  0.0276
    2DOPE  H11X  235   3.680   5.760  15.827  0.4559  0.4638 -0.0972
    2DOPE  H11Y  236   3.531   5.845  15.762  0.7930  0.9781 -1.0975
    2DOPE  C312  237   3.686   5.954  15.709 -0.5610  0.0203  0.8807
    2DOPE  H12X  238   3.797   5.951  15.706 -0.5903 -1.2616  0.6986
    2DOPE  H12Y  239   3.658   6.058  15.736  2.0823  0.9048  0.5309
    2DOPE  C313  240   3.636   5.915  15.568 -0.2320 -0.3535 -0.2262
    2DOPE  H13X  241   3.653   5.806  15.563 -1.9782 -0.6350 -0.7268
    2DOPE  H13Y  242   3.525   5.920  15.565 -0.2295 -0.2047 -0.0519
    2DOPE  C314  243   3.680   6.007  15.450 -0.4080 -0.7461 -0.2074
    2DOPE  H14X  244   3.791   6.017  15.449 -0.4814  0.1302 -1.2496
    2DOPE  H14Y  245   3.634   6.105  15.476 -0.1277 -0.2917 -1.3700
    2DOPE  C315  246   3.634   5.957  15.309  0.1063  0.4124  0.3141
    2DOPE  H15X  247   3.536   5.903  15.311  0.2481  0.0904 -0.9676
    2DOPE  H15Y  248   3.719   5.896  15.273 -1.9799 -0.5024 -3.5288
    2DOPE  C316  249   3.620   6.074  15.212 -0.5434 -0.4323 -0.1073
    2DOPE  H16X  250   3.719   6.121  15.197 -0.0322 -1.4601 -0.0209
    2DOPE  H16Y  251   3.543   6.150  15.239  0.6191  0.0476  2.0199
    2DOPE  C317  252   3.590   6.015  15.070  0.2908  0.2123 -0.1719
    2DOPE  H17X  253   3.621   6.088  14.992  3.6709 -2.6527 -1.7934
    2DOPE  H17Y  254   3.651   5.923  15.061 -0.6611 -0.3336 -1.3551
    2DOPE  C318  255   3.442   5.986  15.047  0.1856 -0.1678  0.0537
    2DOPE  H18X  256   3.420   5.904  15.119 -0.3161 -0.9984 -1.0230
    2DOPE  H18Y  257   3.371   6.069  15.072 -0.3760 -1.0409  1.4782
    2DOPE  H18Z  258   3.413   5.954  14.945 -0.5642  1.0552 -0.1496
    3DOPE     N  259   2.100   6.005  16.910 -0.1184  0.3528 -0.1507
    3DOPE   HN1  260   2.023   6.075  16.904 -0.9764 -0.2891  2.2749
    3DOPE   HN2  261   2.066   5.923  16.964  1.0437 -1.5704 -2.1677
    3DOPE   HN3  262   2.184   6.042  16.958  0.7705 -1.9144  0.1613
    3DOPE   C12  263   2.116   5.950  16.769  0.3471 -0.0893  0.1246
    3DOPE  H12A  264   2.075   5.847  16.766 -0.7180  0.3472 -0.9316
    3DOPE  H12B  265   2.224   5.925  16.762 -0.1253 -2.0458 -1.0869
    3DOPE   C11  266   2.049   6.039  16.663  0.1516 -0.0650  0.8256
    3DOPE  H11A  267   2.064   5.995  16.562  1.9470 -0.3577  1.1906
    3DOPE  H11B  268   2.100   6.137  16.651 -1.3822  0.5020 -1.6130
    3DOPE     P  269   1.841   6.198  16.631  0.0610 -0.3688 -0.5714
    3DOPE   O13  270   1.919   6.318  16.678  0.8132  0.1381 -0.4734
    3DOPE   O14  271   1.697   6.198  16.656  0.6210 -0.2012 -0.0349
    3DOPE   O11  272   1.870   6.180  16.479 -0.3276  0.2091  0.3552
    3DOPE   O12  273   1.911   6.066  16.691  0.1236 -0.3959 -1.2102
    3DOPE    C1  274   1.773   6.116  16.394 -0.1348  0.4846  0.0823
    3DOPE    HA  275   1.814   6.128  16.291  0.0876  2.9549  0.4146
    3DOPE    HB  276   1.666   6.140  16.408 -0.9726 -1.9200 -1.4755
    3DOPE    C2  277   1.758   5.963  16.404 -0.1842  0.4131  0.9190
    3DOPE    HS  278   1.735   5.940  16.510 -0.0938 -1.2809  0.6099
    3DOPE   O21  279   1.882   5.908  16.357  0.0541  0.6698  0.1358
    3DOPE   C21  280   1.925   5.804  16.423 -0.4403 -0.3211 -0.7653
    3DOPE   O22  281   1.880   5.754  16.525 -0.1179  0.0602 -0.0566
    3DOPE   C22  282   2.061   5.760  16.350 -0.3934 -0.4912 -0.1889
    3DOPE   H2R  283   2.116   5.703  16.428  0.7710 -0.7095 -1.1474
    3DOPE   H2S  284   2.118   5.850  16.320  0.5535 -1.0740 -0.1937
    3DOPE    C3  285   1.643   5.903  16.310  0.4980 -0.0463 -0.2669
    3DOPE    HX  286   1.547   5.951  16.337  1.1386  0.8754  0.4202
    3DOPE    HY  287   1.648   5.793  16.325  0.8007 -0.1204 -0.8713
    3DOPE   O31  288   1.672   5.929  16.171 -0.0281  0.1322  0.0025
    3DOPE   C31  289   1.588   5.864  16.095 -0.1904  0.2336  0.4415
    3DOPE   O32  290   1.484   5.809  16.126  0.0936  0.0507  0.4288
    3DOPE   C32  291   1.639   5.861  15.945 -0.1068  0.3663  0.0556
    3DOPE   H2X  292   1.742   5.900  15.938 -0.9673  2.5845 -1.4215
    3DOPE   H2Y  293   1.616   5.757  15.912  1.0243  0.2032 -0.2552
    3DOPE   C23  294   2.029   5.669  16.234  0.3933  0.9588 -0.3016
    3DOPE   H3R  295   1.958   5.709  16.158 -1.6762  1.2265  1.6471
    3DOPE   H3S  296   1.976   5.575  16.261  0.4568 -0.0032 -3.2135
    3DOPE   C24  297   2.154   5.625  16.152 -0.1350  0.0976 -0.2943
    3DOPE   H4R  298   2.231   5.602  16.229 -0.0172  3.1094  0.6172
    3DOPE   H4S  299   2.190   5.696  16.073  0.1371 -0.0301 -0.2856
    3DOPE   C25  300   2.119   5.492  16.081 -0.7921  0.4634  0.5075
    3DOPE   H5R  301   2.079   5.429  16.164  2.6757 -1.0760  1.1851
    3DOPE   H5S  302   2.211   5.455  16.030 -0.9766  2.1261 -1.0997
    3DOPE   C26  303   2.009   5.489  15.983 -0.5719 -0.6047  0.1291
    3DOPE   H6R  304   1.922   5.512  16.049  1.1438  0.4855  2.1164
    3DOPE   H6S  305   2.007   5.389  15.935  3.6820 -1.6518  1.7291
    3DOPE   C27  306   2.010   5.594  15.864 -0.3134 -0.2128  0.4105
    3DOPE   H7R  307   2.094   5.575  15.794 -0.0854 -0.9891  0.8825
    3DOPE   H7S  308   2.028   5.694  15.907  1.5036 -0.5720  0.5559
    3DOPE   C28  309   1.873   5.604  15.781  0.1518  0.3402  0.5012
    3DOPE   H8R  310   1.876   5.693  15.715 -1.1172 -1.4485 -2.1375
    3DOPE   H8S  311   1.795   5.622  15.857  0.5200  3.4613  0.2442
    3DOPE   C29  312   1.839   5.478  15.704  0.0295  0.0358  0.5983
    3DOPE   H9R  313   1.794   5.397  15.763 -0.4811  1.1002  1.7228
    3DOPE  C210  314   1.870   5.459  15.576  0.5546  0.2016 -0.1688
    3DOPE  H10R  315   1.869   5.358  15.531  1.1012 -1.5524  3.4410
    3DOPE  C211  316   1.939   5.560  15.489 -0.3874 -0.3145  0.7038
    3DOPE  H11R  317   2.008   5.618  15.554 -1.3852 -1.4216  2.8171
    3DOPE  H11S  318   1.857   5.625  15.450  0.6242  0.6295  0.0658
    3DOPE  C212  319   2.014   5.496  15.360 -0.0011 -0.4011 -0.1119
    3DOPE  H12R  320   1.937   5.431  15.314 -2.6704  0.2229  3.0357
    3DOPE  H12S  321   2.098   5.428  15.387  0.8110 -0.4235 -2.4889
    3DOPE  C213  322   2.068   5.598  15.261  0.2403  0.2446 -0.4863
    3DOPE  H13R  323   2.139   5.668  15.309  1.7435 -0.9748 -0.8671
    3DOPE  H13S  324   1.982   5.664  15.235  0.4865  1.1266  0.8485
    3DOPE  C214  325   2.150   5.541  15.145  0.2486  0.2633  0.4225
    3DOPE  H14R  326   2.238   5.484  15.181  1.1465 -0.2030 -2.2715
    3DOPE  H14S  327   2.197   5.634  15.106  0.8052  0.1427  0.8076
    3DOPE  C215  328   2.071   5.458  15.045 -0.8469 -0.8185 -0.5964
    3DOPE  H15R  329   2.004   5.535  15.003  0.2869 -0.4796 -1.8571
    3DOPE  H15S  330   2.013   5.378  15.096  0.5172 -1.7669 -0.4721
    3DOPE  C216  331   2.150   5.396  14.931 -1.3527  0.2929  1.3844
    3DOPE  H16R  332   2.221   5.324  14.978  0.3028  2.4302  2.3736
    3DOPE  H16S  333   2.199   5.479  14.876 -3.8044 -0.3180 -2.0094
    3DOPE  C217  334   2.065   5.343  14.821 -0.2107 -0.4178  0.4262
    3DOPE  H17R  335   2.117   5.347  14.723 -0.0872  1.9951  0.5390
    3DOPE  H17S  336   1.989   5.423  14.813 -0.3191 -0.6799 -1.6374
    3DOPE  C218  337   1.992   5.215  14.868  0.0861 -0.3028  0.1869
    3DOPE  H18R  338   2.061   5.139  14.910  2.0247  1.4463  0.3540
    3DOPE  H18S  339   1.933   5.182  14.781  1.1266 -0.7917 -0.3473
    3DOPE  H18T  340   1.921   5.240  14.950 -1.3680  0.7882 -1.3579
    3DOPE   C33  341   1.562   5.955  15.849  0.3441 -0.2049 -0.3998
    3DOPE   H3X  342   1.562   6.062  15.882 -0.5334 -1.1232  3.0270
    3DOPE   H3Y  343   1.461   5.909  15.844  0.2855 -0.4602  1.7964
    3DOPE   C34  344   1.623   5.943  15.712  0.1790 -0.3716  0.6902
    3DOPE   H4X  345   1.598   6.029  15.647 -3.5260 -3.8178 -3.0409
    3DOPE   H4Y  346   1.733   5.941  15.729 -0.0275 -0.0722  2.1952
    3DOPE   C35  347   1.594   5.812  15.640  0.3632  0.0128  0.2392
    3DOPE   H5X  348   1.484   5.808  15.621 -0.0407  2.2113  1.7786
    3DOPE   H5Y  349   1.621   5.728  15.708  0.4704 -1.6918 -1.8055
    3DOPE   C36  350   1.675   5.782  15.510  0.2946  0.6636  0.0173
    3DOPE   H6X  351   1.661   5.674  15.489  0.8629  0.3968  0.9203
    3DOPE   H6Y  352   1.780   5.789  15.548 -0.3745  0.3281  2.0565
    3DOPE   C37  353   1.641   5.882  15.399 -0.3418 -0.0064  0.4148
    3DOPE   H7X  354   1.533   5.873  15.373 -0.6345  4.5016 -0.7936
    3DOPE   H7Y  355   1.668   5.984  15.432 -0.5777  0.0951  0.2958
    3DOPE   C38  356   1.720   5.859  15.270  0.9515  0.6601  0.7737
    3DOPE   H8X  357   1.827   5.877  15.294  1.1413  0.1823  0.3050
    3DOPE   H8Y  358   1.679   5.926  15.192 -5.5179 -3.0890  0.2738
    3DOPE   C39  359   1.707   5.715  15.220 -0.6112  0.0442  0.2401
    3DOPE   H9X  360   1.667   5.635  15.285  1.2786 -1.5047 -0.3780
    3DOPE  C310  361   1.720   5.686  15.091  0.4176 -0.8406 -0.6979
    3DOPE  H10X  362   1.734   5.587  15.046  0.9746 -0.9451 -0.2984
    3DOPE  C311  363   1.776   5.781  14.990  0.2761  0.0755  1.7541
    3DOPE  H11X  364   1.833   5.870  15.027  1.5963 -0.0455  0.1273
    3DOPE  H11Y  365   1.839   5.719  14.923 -1.2873 -0.4633  0.7413
    3DOPE  C312  366   1.651   5.845  14.925  0.4949  0.4382 -0.3513
    3DOPE  H12X  367   1.575   5.881  14.997  1.9058  0.8128  1.0174
    3DOPE  H12Y  368   1.600   5.770  14.860  1.1954  0.9729 -1.5617
    3DOPE  C313  369   1.698   5.956  14.837 -0.0650  0.3860 -0.2556
    3DOPE  H13X  370   1.735   6.038  14.902  0.3736 -0.3448  0.4333
    3DOPE  H13Y  371   1.788   5.925  14.781 -0.2032 -1.7943  0.6317
    3DOPE  C314  372   1.587   6.021  14.744  0.3588 -0.1377 -0.2425
    3DOPE  H14X  373   1.611   6.130  14.739  1.7540 -0.3403  1.4252
    3DOPE  H14Y  374   1.490   6.027  14.798  0.7932 -0.5883  0.5937
    3DOPE  C315  375   1.590   5.951  14.607 -0.1258 -0.0156  0.0093
    3DOPE  H15X  376   1.566   5.843  14.610  1.0313 -0.3751 -1.7019
    3DOPE  H15Y  377   1.689   5.960  14.556  0.2187 -2.8679  0.0356
    3DOPE  C316  378   1.484   6.009  14.511 -0.2044 -0.5027 -0.2794
    3DOPE  H16X  379   1.512   6.115  14.492  0.8742 -0.7812 -0.3255
    3DOPE  H16Y  380   1.390   6.009  14.571  0.7072 -2.5857  1.2724
    3DOPE  C317  381   1.474   5.943  14.373  0.7121  0.0395 -0.1565
    3DOPE  H17X  382   1.570   5.931  14.319  0.9112 -2.0680  0.5812
    3DOPE  H17Y  383   1.443   5.838  14.389  0.9165  0.1836  1.3963
    3DOPE  C318  384   1.372   6.026  14.288 -0.3863 -0.0524 -0.0320
    3DOPE  H18X  385   1.273   6.034  14.339 -0.3043 -0.3235  0.1688
    3DOPE  H18Y  386   1.409   6.127  14.262 -2.0693  0.2051 -1.6523
    3DOPE  H18Z  387   1.345   5.989  14.186  0.5752  0.6405 -0.5552
    4DOPE     N  388   4.825   3.435  16.921 -0.0415  0.4392  0.3360
    4DOPE   HN1  389   4.776   3.443  17.012  0.4342 -0.5497  0.6832
    4DOPE   HN2  390   4.846   3.529  16.880 -0.4261 -0.3493 -1.7822
    4DOPE   HN3  391   4.751   3.387  16.865  1.5961 -0.7526 -0.8694
    4DOPE   C12  392   4.951   3.361  16.947 -0.2481 -0.1181  0.5842
    4DOPE  H12A  393   5.017   3.432  17.002 -0.4238  1.7837 -1.4936
    4DOPE  H12B  394   4.988   3.336  16.845 -1.7455 -0.2569  0.0654
    4DOPE   C11  395   4.924   3.231  17.023  0.3823  0.0595 -0.0590
    4DOPE  H11A  396   5.021   3.182  17.045  0.1238 -1.4823 -1.9457
    4DOPE  H11B  397   4.871   3.160  16.954  0.8836  0.2801 -0.6756
    4DOPE     P  398   4.707   3.179  17.167 -0.0549 -0.0238  0.1434
    4DOPE   O13  399   4.616   3.269  17.242 -0.3252 -0.9513 -0.0621
    4DOPE   O14  400   4.729   3.041  17.214  0.3036  0.0184 -0.0527
    4DOPE   O11  401   4.651   3.171  17.020  0.9405 -0.6850  0.3489
    4DOPE   O12  402   4.845   3.250  17.134 -0.1248  0.1626 -0.4616
    4DOPE    C1  403   4.608   3.047  16.958  0.0445  0.0437  0.0721
    4DOPE    HA  404   4.523   3.003  17.016  0.4018  0.1056  0.6506
    4DOPE    HB  405   4.694   2.977  16.950  0.3239  0.0680  2.3024
    4DOPE    C2  406   4.567   3.066  16.815  0.5231 -0.0316 -0.4036
    4DOPE    HS  407   4.656   3.063  16.748  1.8236 -2.2539  1.2685
    4DOPE   O21  408   4.482   3.182  16.792  0.0264  0.0884 -0.7013
    4DOPE   C21  409   4.541   3.294  16.763  0.3011  0.3160  0.0264
    4DOPE   O22  410   4.663   3.304  16.761 -0.2253 -0.5067 -0.1857
    4DOPE   C22  411   4.442   3.404  16.731  0.8567 -0.0641  0.0167
    4DOPE   H2R  412   4.389   3.431  16.825  1.6603  1.9852 -0.0611
    4DOPE   H2S  413   4.368   3.376  16.652 -0.2373  1.9177  0.2634
    4DOPE    C3  414   4.489   2.942  16.764 -0.2408  0.7620  0.1901
    4DOPE    HX  415   4.407   2.919  16.836  0.5717 -2.4725  0.2465
    4DOPE    HY  416   4.548   2.848  16.761  0.1886  1.0637 -1.4309
    4DOPE   O31  417   4.433   2.976  16.636 -0.3717 -0.7736  0.1887
    4DOPE   C31  418   4.503   2.937  16.526 -0.1661  0.1354 -1.0071
    4DOPE   O32  419   4.607   2.872  16.533 -0.1837  0.7114  0.2633
    4DOPE   C32  420   4.431   2.986  16.404 -0.2001 -0.1445  0.3135
    4DOPE   H2X  421   4.359   2.908  16.371  0.8100 -1.4878  1.1573
    4DOPE   H2Y  422   4.371   3.074  16.436 -2.4035 -1.1898 -0.6940
    4DOPE   C23  423   4.518   3.534  16.691  0.4431 -0.0346 -0.2691
    4DOPE   H3R  424   4.615   3.546  16.743  1.0916 -0.0214 -1.4595
    4DOPE   H3S  425   4.456   3.624  16.714 -2.5395 -1.7510 -1.1286
    4DOPE   C24  426   4.551   3.531  16.533  0.1689  0.3037 -0.2191
    4DOPE   H4R  427   4.465   3.521  16.464  1.9331  3.1116 -3.1177
    4DOPE   H4S  428   4.619   3.445  16.517 -0.8732 -0.8910  1.4754
    4DOPE   C25  429   4.620   3.663  16.490  0.1382 -0.3494 -0.7252
    4DOPE   H5R  430   4.696   3.694  16.565 -0.4812  2.4681 -1.1687
    4DOPE   H5S  431   4.547   3.744  16.473  0.5156 -0.0441 -0.9028
    4DOPE   C26  432   4.680   3.654  16.351  0.5598  0.1915  0.3270
    4DOPE   H6R  433   4.710   3.548  16.344 -1.6609 -0.7355  3.0632
    4DOPE   H6S  434   4.773   3.714  16.343 -1.9318  4.2333 -1.4772
    4DOPE   C27  435   4.574   3.685  16.242 -0.8598 -0.5505 -0.3126
    4DOPE   H7R  436   4.476   3.713  16.286 -0.6197 -0.9052  0.4633
    4DOPE   H7S  437   4.543   3.592  16.190  1.3544 -0.6419 -1.5937
    4DOPE   C28  438   4.622   3.782  16.117  0.1475  0.1707  0.0138
    4DOPE   H8R  439   4.645   3.882  16.161  0.5160  1.6317 -3.2300
    4DOPE   H8S  440   4.536   3.795  16.048  0.2538  0.0170 -0.1449
    4DOPE   C29  441   4.751   3.737  16.052 -0.0982  0.0749 -0.0802
    4DOPE   H9R  442   4.821   3.677  16.112 -0.4462 -0.2639 -0.0025
    4DOPE  C210  443   4.775   3.734  15.922 -0.6210  0.6330 -0.5665
    4DOPE  H10R  444   4.876   3.701  15.894 -0.5371  0.8370 -0.5085
    4DOPE  C211  445   4.691   3.776  15.804  0.0108 -0.2635 -0.1439
    4DOPE  H11R  446   4.635   3.869  15.827 -0.2591 -0.1669 -1.1475
    4DOPE  H11S  447   4.611   3.701  15.784 -1.1213  0.5503  1.1511
    4DOPE  C212  448   4.760   3.823  15.663  0.2489  0.3777  0.3606
    4DOPE  H12R  449   4.839   3.746  15.647 -0.6552 -0.0026 -2.8323
    4DOPE  H12S  450   4.803   3.926  15.664  1.6979 -0.2064  0.7076
    4DOPE  C213  451   4.665   3.825  15.542  0.5330 -0.3995 -0.5360
    4DOPE  H13R  452   4.587   3.902  15.561  1.8792  0.1490  3.6871
    4DOPE  H13S  453   4.621   3.723  15.535  2.2315 -1.1568 -0.5506
    4DOPE  C214  454   4.742   3.859  15.412  0.5108  0.7697  0.5591
    4DOPE  H14R  455   4.820   3.781  15.417 -0.2507  0.0344  1.4571
    4DOPE  H14S  456   4.784   3.962  15.416  0.2051  0.8604  2.0934
    4DOPE  C215  457   4.648   3.840  15.287  0.0036 -0.0178  0.0005
    4DOPE  H15R  458   4.561   3.910  15.287  0.2767  0.3285 -0.2413
    4DOPE  H15S  459   4.615   3.734  15.288  1.5779 -0.5460  2.7260
    4DOPE  C216  460   4.739   3.861  15.165  0.4832 -0.1864  0.6488
    4DOPE  H16R  461   4.828   3.796  15.171  0.0994 -0.7007  0.7942
    4DOPE  H16S  462   4.778   3.965  15.162 -1.4758  0.6129  1.1956
    4DOPE  C217  463   4.677   3.833  15.029 -0.1182  0.2458  0.0767
    4DOPE  H17R  464   4.588   3.898  15.019  0.5992  1.4890  1.3846
    4DOPE  H17S  465   4.646   3.727  15.014 -2.2355  0.7375  0.6135
    4DOPE  C218  466   4.781   3.863  14.922  0.4652 -0.5963  0.4420
    4DOPE  H18R  467   4.750   3.833  14.820  2.0850  0.0643 -0.2722
    4DOPE  H18S  468   4.871   3.800  14.932  0.0428 -1.4249 -0.7825
    4DOPE  H18T  469   4.800   3.973  14.914 -0.6637 -0.4946 -1.2895
    4DOPE   C33  470   4.522   3.013  16.279 -0.2811 -0.1286  0.1516
    4DOPE   H3X  471   4.457   3.001  16.190  0.8346 -3.6084 -0.3482
    4DOPE   H3Y  472   4.593   2.927  16.282  0.2951  0.3201 -0.3182
    4DOPE   C34  473   4.590   3.157  16.278  0.0651  0.1653 -0.3799
    4DOPE   H4X  474   4.645   3.179  16.372 -0.7037  1.6395 -0.2547
    4DOPE   H4Y  475   4.671   3.162  16.202 -0.0967  0.6631 -0.5225
    4DOPE   C35  476   4.484   3.263  16.237 -0.0878 -0.7752 -0.2101
    4DOPE   H5X  477   4.454   3.331  16.320  1.1696  0.0679 -0.4195
    4DOPE   H5Y  478   4.387   3.213  16.217 -0.0511 -1.1319  0.4585
    4DOPE   C36  479   4.527   3.346  16.116  0.0164 -0.6454 -0.9916
    4DOPE   H6X  480   4.615   3.403  16.152 -1.3266  0.9324 -0.0204
    4DOPE   H6Y  481   4.442   3.416  16.107 -0.2796 -1.0961 -1.7760
    4DOPE   C37  482   4.550   3.268  15.987  0.3923 -0.6580 -1.2186
    4DOPE   H7X  483   4.643   3.207  15.993  0.2148 -0.8148  0.3105
    4DOPE   H7Y  484   4.472   3.189  15.983 -1.3721  0.8278  1.0581
    4DOPE   C38  485   4.567   3.362  15.863  0.3606  0.7536  0.3344
    4DOPE   H8X  486   4.610   3.294  15.786  1.5348  1.0979  0.6539
    4DOPE   H8Y  487   4.651   3.432  15.885  0.4389  0.5357  0.7408
    4DOPE   C39  488   4.444   3.431  15.810 -0.1919  0.1544 -0.1259
    4DOPE   H9X  489   4.389   3.495  15.881 -0.0751 -1.2335  1.2442
    4DOPE  C310  490   4.390   3.423  15.684  0.1943 -0.4835 -1.0426
    4DOPE  H10X  491   4.300   3.486  15.669 -0.1255  0.0997  2.5336
    4DOPE  C311  492   4.442   3.351  15.561  0.0659  0.2369  0.4573
    4DOPE  H11X  493   4.546   3.313  15.565  0.8308  2.3106  2.5991
    4DOPE  H11Y  494   4.371   3.267  15.548 -0.6257  0.8241  0.3309
    4DOPE  C312  495   4.426   3.445  15.440 -0.1461  0.9659 -0.0166
    4DOPE  H12X  496   4.477   3.542  15.454  1.2851  0.0394  1.5548
    4DOPE  H12Y  497   4.318   3.467  15.427  0.0633  1.6640 -0.6382
    4DOPE  C313  498   4.493   3.380  15.316  0.3823 -0.5120 -0.1309
    4DOPE  H13X  499   4.604   3.386  15.316  0.4011  0.8353 -3.0764
    4DOPE  H13Y  500   4.468   3.272  15.316 -1.4295 -0.1264  0.0876
    4DOPE  C314  501   4.434   3.435  15.188 -0.3187  0.7294  0.3341
    4DOPE  H14X  502   4.454   3.544  15.180 -0.5899  0.6983 -1.0658
    4DOPE  H14Y  503   4.323   3.433  15.185 -0.3161  1.2361 -2.0067
    4DOPE  C315  504   4.483   3.353  15.064  0.2162  0.2366  0.0681
    4DOPE  H15X  505   4.461   3.245  15.079  0.6887  0.1265 -0.0150
    4DOPE  H15Y  506   4.594   3.352  15.061  0.2670  0.0064  1.4236
    4DOPE  C316  507   4.427   3.399  14.922  0.0071  0.5366  0.0794
    4DOPE  H16X  508   4.321   3.429  14.936 -0.5085 -0.8879 -0.6471
    4DOPE  H16Y  509   4.425   3.316  14.848  0.6664 -0.0750  0.7278
    4DOPE  C317  510   4.501   3.523  14.870  0.4658 -0.6614  0.4316
    4DOPE  H17X  511   4.463   3.612  14.924 -0.8469 -0.7005 -0.3777
    4DOPE  H17Y  512   4.610   3.511  14.889  0.6689 -0.1320 -0.3738
    4DOPE  C318  513   4.483   3.558  14.717 -0.1769 -0.8361  0.0136
    4DOPE  H18X  514   4.542   3.481  14.664  1.5884  0.7279 -0.3941
    4DOPE  H18Y  515   4.374   3.553  14.697 -0.7005  1.8284  1.5750
    4DOPE  H18Z  516   4.524   3.656  14.685  1.6906 -2.6059 -3.4990
    5DOPE     N  517   2.221   5.516  17.387 -0.0128  0.0475 -0.0734
    5DOPE   HN1  518   2.127   5.558  17.399 -0.4565  0.5076 -3.8190
    5DOPE   HN2  519   2.277   5.511  17.474  1.1864  0.0075 -0.8262
    5DOPE   HN3  520   2.266   5.575  17.314 -4.0671 -0.1382 -3.0753
    5DOPE   C12  521   2.230   5.368  17.350  0.3647  0.2215 -0.1591
    5DOPE  H12A  522   2.173   5.316  17.430 -0.4363  0.4730 -0.5483
    5DOPE  H12B  523   2.335   5.337  17.334  0.5804  1.0718 -0.4432
    5DOPE   C11  524   2.139   5.341  17.224 -0.0346  0.5146  0.6162
    5DOPE  H11A  525   2.141   5.233  17.200 -0.4601  0.4576  0.8256
    5DOPE  H11B  526   2.194   5.390  17.140 -0.1032 -0.0234  0.2538
    5DOPE     P  527   1.916   5.471  17.160 -0.5346 -0.0590 -0.0921
    5DOPE   O13  528   1.909   5.609  17.220 -0.3958 -0.4756  0.1691
    5DOPE   O14  529   1.783   5.414  17.130 -0.0287 -0.0702  0.2018
    5DOPE   O11  530   2.002   5.470  17.029 -0.5209 -0.2997 -0.4364
    5DOPE   O12  531   1.998   5.378  17.254 -0.9042  0.1781 -0.3853
    5DOPE    C1  532   1.946   5.412  16.909 -0.0161  0.3635 -0.3501
    5DOPE    HA  533   1.852   5.463  16.877 -1.0276 -1.3013 -0.1322
    5DOPE    HB  534   1.916   5.307  16.925 -1.6842  1.0032  1.0639
    5DOPE    C2  535   2.038   5.422  16.790 -0.3480  0.2381 -0.3091
    5DOPE    HS  536   1.979   5.459  16.704 -2.0771 -3.2841 -0.8016
    5DOPE   O21  537   2.097   5.294  16.757  0.1413 -0.1122 -0.8372
    5DOPE   C21  538   2.018   5.215  16.692  0.0575  0.3416  0.6483
    5DOPE   O22  539   1.906   5.243  16.645 -0.2679  0.2512  0.5751
    5DOPE   C22  540   2.093   5.083  16.672 -0.1102  0.2083  0.3004
    5DOPE   H2R  541   2.084   5.032  16.770 -2.0541  0.8732  0.5105
    5DOPE   H2S  542   2.195   5.122  16.655 -0.6538  1.5746  0.0285
    5DOPE    C3  543   2.155   5.523  16.817  0.3704 -0.1864  0.2996
    5DOPE    HX  544   2.220   5.469  16.890 -0.9397 -1.3911  0.6306
    5DOPE    HY  545   2.104   5.614  16.854 -0.1637 -0.4771  0.2902
    5DOPE   O31  546   2.219   5.555  16.693  0.3227 -0.1881 -0.2793
    5DOPE   C31  547   2.317   5.469  16.655 -0.9370  0.6960  0.6029
    5DOPE   O32  548   2.367   5.385  16.729  0.1436 -0.3049  0.1608
    5DOPE   C32  549   2.333   5.477  16.503 -0.3168 -0.0725 -0.7161
    5DOPE   H2X  550   2.237   5.513  16.459  0.3407  1.7888 -0.7188
    5DOPE   H2Y  551   2.390   5.567  16.470 -0.4559  0.1027 -0.4829
    5DOPE   C23  552   2.037   4.994  16.560 -0.2343 -0.9248  0.1354
    5DOPE   H3R  553   1.927   4.987  16.557 -0.4800  2.0489 -0.8202
    5DOPE   H3S  554   2.084   4.893  16.562  1.2771 -0.2771 -0.6375
    5DOPE   C24  555   2.080   5.064  16.426 -0.1939  0.1227  0.4180
    5DOPE   H4R  556   2.189   5.089  16.421 -0.2296  0.0299 -1.5125
    5DOPE   H4S  557   2.033   5.162  16.403 -0.8226 -0.5245 -1.1925
    5DOPE   C25  558   2.040   4.961  16.320 -0.1808  0.1029 -0.2862
    5DOPE   H5R  559   1.929   4.962  16.319 -0.2139  1.0673  0.8613
    5DOPE   H5S  560   2.068   4.859  16.355  0.7275  1.1294  2.2187
    5DOPE   C26  561   2.094   4.998  16.180  0.4169  0.5125  0.1913
    5DOPE   H6R  562   2.078   4.904  16.123  2.9800  1.0414 -1.5670
    5DOPE   H6S  563   2.203   5.012  16.193  0.5189 -1.1817  1.4274
    5DOPE   C27  564   2.018   5.110  16.105  0.0731 -0.1601  0.4807
    5DOPE   H7R  565   2.061   5.123  16.004  0.3565  2.5341  0.8558
    5DOPE   H7S  566   2.042   5.200  16.167 -2.3759  3.8289 -3.7458
    5DOPE   C28  567   1.866   5.098  16.089 -0.5963 -0.6854  1.3478
    5DOPE   H8R  568   1.844   5.192  16.033  1.9454 -0.7988  0.0397
    5DOPE   H8S  569   1.808   5.116  16.182 -2.0512  4.0509 -0.1730
    5DOPE   C29  570   1.823   4.989  15.994  0.1470 -0.0948 -0.1709
    5DOPE   H9R  571   1.835   4.887  16.033 -2.6089 -0.9444 -1.2963
    5DOPE  C210  572   1.771   4.990  15.872  0.2134  0.1093  0.1540
    5DOPE  H10R  573   1.755   4.894  15.821  1.9030 -0.4374  0.6055
    5DOPE  C211  574   1.734   5.112  15.792  0.0177 -0.3149 -0.1282
    5DOPE  H11R  575   1.822   5.177  15.773 -0.4275  0.3307  0.0103
    5DOPE  H11S  576   1.656   5.176  15.837  0.8913  0.6792  0.0156
    5DOPE  C212  577   1.678   5.077  15.652  0.0246  0.3497 -0.3274
    5DOPE  H12R  578   1.625   5.165  15.610  0.1673 -0.3479 -2.0837
    5DOPE  H12S  579   1.602   4.996  15.655  2.1892 -1.8381 -0.8460
    5DOPE  C213  580   1.787   5.046  15.552  0.1048 -0.0306 -0.6916
    5DOPE  H13R  581   1.827   4.948  15.587  0.6521 -0.6952 -2.9538
    5DOPE  H13S  582   1.864   5.126  15.552 -0.1214  0.2080  0.9878
    5DOPE  C214  583   1.715   5.016  15.413 -0.3477 -0.0502 -0.5237
    5DOPE  H14R  584   1.617   4.968  15.434 -1.1566  1.1916 -1.3293
    5DOPE  H14S  585   1.783   4.955  15.351  0.5505  0.5528 -0.1423
    5DOPE  C215  586   1.677   5.143  15.335  0.0750  0.2395 -0.4676
    5DOPE  H15R  587   1.774   5.196  15.330  0.7818 -1.0249 -0.6152
    5DOPE  H15S  588   1.602   5.205  15.388  0.4558  0.7898 -0.5699
    5DOPE  C216  589   1.615   5.114  15.198  0.6571  0.0789 -0.0236
    5DOPE  H16R  590   1.513   5.069  15.197  0.4714  0.4909 -0.7648
    5DOPE  H16S  591   1.684   5.046  15.145  1.6860  0.0117  1.3536
    5DOPE  C217  592   1.599   5.244  15.117  0.3107  0.2153  0.1465
    5DOPE  H17R  593   1.701   5.288  15.119  0.5991 -0.2424 -1.9796
    5DOPE  H17S  594   1.535   5.315  15.174  2.3674  0.0386  2.8391
    5DOPE  C218  595   1.553   5.221  14.969  0.0199 -0.0320 -0.6695
    5DOPE  H18R  596   1.545   5.317  14.914 -1.6886  0.1912 -0.0773
    5DOPE  H18S  597   1.452   5.176  14.967  0.1304 -0.2812 -1.6974
    5DOPE  H18T  598   1.623   5.158  14.909  0.3667 -2.8290  2.4024
    5DOPE   C33  599   2.380   5.348  16.438 -0.4679  0.3439  0.5740
    5DOPE   H3X  600   2.302   5.273  16.461  1.9055 -1.8982  1.8563
    5DOPE   H3Y  601   2.481   5.311  16.467  0.8376  2.2051 -1.2888
    5DOPE   C34  602   2.385   5.362  16.281  0.3471  0.1131  0.2173
    5DOPE   H4X  603   2.283   5.365  16.238 -0.4770  3.6406  2.0219
    5DOPE   H4Y  604   2.428   5.462  16.258  1.2007  0.2304  2.0978
    5DOPE   C35  605   2.471   5.255  16.218  0.6524 -0.4099  0.4317
    5DOPE   H5X  606   2.439   5.151  16.239  1.7634 -0.3398  2.9369
    5DOPE   H5Y  607   2.578   5.258  16.251  0.7846  0.2152 -0.0281
    5DOPE   C36  608   2.476   5.267  16.061  0.1154  0.2159  0.3255
    5DOPE   H6X  609   2.580   5.243  16.030  1.1330  1.8159  2.2517
    5DOPE   H6Y  610   2.442   5.368  16.030 -0.1180  0.0568  0.0591
    5DOPE   C37  611   2.371   5.189  15.978 -0.0714  0.3653  0.2211
    5DOPE   H7X  612   2.377   5.082  16.007 -0.1746 -0.1970 -1.7129
    5DOPE   H7Y  613   2.272   5.218  16.019 -1.2431 -2.9957  0.1045
    5DOPE   C38  614   2.389   5.215  15.827 -0.0656  0.3685  0.3540
    5DOPE   H8X  615   2.390   5.121  15.769  1.7069  0.3092  0.4132
    5DOPE   H8Y  616   2.492   5.257  15.817  0.5908 -1.0854  0.7607
    5DOPE   C39  617   2.279   5.299  15.775  0.0873 -0.1628 -0.1135
    5DOPE   H9X  618   2.267   5.403  15.809 -1.7003 -0.8305  1.5013
    5DOPE  C310  619   2.179   5.241  15.699 -0.2825 -0.0942  0.2278
    5DOPE  H10X  620   2.096   5.303  15.664  0.6681  0.9555 -0.1998
    5DOPE  C311  621   2.176   5.107  15.633  0.5517  0.2511  0.5361
    5DOPE  H11X  622   2.263   5.040  15.651  1.0271  0.7936  0.2785
    5DOPE  H11Y  623   2.094   5.040  15.666  0.1097 -1.4265 -3.4076
    5DOPE  C312  624   2.164   5.120  15.474 -0.7785 -1.1470 -0.1762
    5DOPE  H12X  625   2.081   5.190  15.449  0.0442  0.0499  0.3943
    5DOPE  H12Y  626   2.155   5.018  15.430 -0.3244 -1.3719  0.2411
    5DOPE  C313  627   2.297   5.170  15.416  0.5273  0.2601 -0.1845
    5DOPE  H13X  628   2.273   5.208  15.315 -2.2232  0.5939  0.5065
    5DOPE  H13Y  629   2.343   5.252  15.474  0.7016 -0.4493  0.7085
    5DOPE  C314  630   2.391   5.058  15.411 -0.3089 -0.5152 -0.5988
    5DOPE  H14X  631   2.345   4.968  15.364 -1.1193 -0.2782 -0.2774
    5DOPE  H14Y  632   2.418   5.020  15.512 -1.3492 -0.2669 -0.2118
    5DOPE  C315  633   2.531   5.094  15.340  0.4146 -0.2169  0.5205
    5DOPE  H15X  634   2.614   5.050  15.399  1.2702  2.2800  1.2890
    5DOPE  H15Y  635   2.552   5.202  15.352 -0.0451 -0.0190 -0.3925
    5DOPE  C316  636   2.531   5.073  15.187  0.2112 -0.6016 -1.3275
    5DOPE  H16X  637   2.463   4.993  15.151  0.6772 -1.4406 -0.4013
    5DOPE  H16Y  638   2.628   5.024  15.164  0.7814  0.0806 -0.4566
    5DOPE  C317  639   2.512   5.200  15.112 -0.4806  0.2948 -0.3620
    5DOPE  H17X  640   2.425   5.262  15.142 -0.7317  1.0851 -2.5435
    5DOPE  H17Y  641   2.600   5.264  15.135  0.4678 -0.5213 -1.5660
    5DOPE  C318  642   2.514   5.171  14.964 -0.1066 -0.2903  0.5586
    5DOPE  H18X  643   2.535   5.264  14.907 -1.8335 -0.8713 -1.1144
    5DOPE  H18Y  644   2.583   5.090  14.932 -1.4373 -1.5773  0.8890
    5DOPE  H18Z  645   2.414   5.133  14.935  0.4900 -2.9602  1.7008
    6DOPE     N  646   1.343   6.556  16.636  0.3722  0.3125 -0.2212
    6DOPE   HN1  647   1.317   6.631  16.569 -1.2187 -0.6405 -0.7219
    6DOPE   HN2  648   1.391   6.601  16.716 -1.5474  3.3484 -0.6013
    6DOPE   HN3  649   1.412   6.491  16.593 -0.9346 -2.1674  1.2396
    6DOPE   C12  650   1.227   6.496  16.709  0.2630 -0.6098 -0.1500
    6DOPE  H12A  651   1.158   6.462  16.629 -0.4241  1.3812 -0.4387
    6DOPE  H12B  652   1.168   6.578  16.755 -2.2808 -1.1675 -2.1759
    6DOPE   C11  653   1.261   6.382  16.800  0.0220  0.2509  0.2975
    6DOPE  H11A  654   1.168   6.355  16.854  0.8585 -1.6764  0.8845
    6DOPE  H11B  655   1.334   6.411  16.880  1.6266  1.1153 -1.3867
    6DOPE     P  656   1.222   6.156  16.674  0.1552 -0.0173 -0.2185
    6DOPE   O13  657   1.080   6.198  16.688 -0.1596 -0.9482  0.3155
    6DOPE   O14  658   1.257   6.023  16.736  0.6925 -0.3478  0.2978
    6DOPE   O11  659   1.260   6.144  16.526  0.0285  0.1618 -0.2358
    6DOPE   O12  660   1.320   6.271  16.728  0.1402 -0.4789 -0.5781
    6DOPE    C1  661   1.369   6.208  16.464  0.0603  0.2375  0.8873
    6DOPE    HA  662   1.465   6.167  16.502  1.5598  0.0281 -2.7236
    6DOPE    HB  663   1.374   6.316  16.488 -0.0333  0.0442  1.8193
    6DOPE    C2  664   1.361   6.202  16.308 -0.5899  0.1359 -0.2637
    6DOPE    HS  665   1.384   6.100  16.272  0.1248  0.2822 -0.2394
    6DOPE   O21  666   1.459   6.299  16.256 -0.0124  0.1205  0.5017
    6DOPE   C21  667   1.518   6.271  16.147 -0.3903 -0.1149  0.2267
    6DOPE   O22  668   1.494   6.174  16.077  0.1091  0.1930 -0.1166
    6DOPE   C22  669   1.633   6.369  16.127  0.1976  0.2934 -0.0997
    6DOPE   H2R  670   1.694   6.366  16.220 -0.0881 -3.3769  0.1380
    6DOPE   H2S  671   1.584   6.467  16.109 -1.5791 -0.5970 -0.3729
    6DOPE    C3  672   1.217   6.235  16.266  0.1507 -0.3985  1.1050
    6DOPE    HX  673   1.191   6.339  16.295 -0.3216  0.1287 -1.0403
    6DOPE    HY  674   1.149   6.161  16.312 -0.7234  0.0558  0.5773
    6DOPE   O31  675   1.194   6.235  16.123  0.2339 -0.1145  0.0683
    6DOPE   C31  676   1.186   6.120  16.054 -0.1166  0.3316 -0.2316
    6DOPE   O32  677   1.194   6.009  16.099 -0.4801  0.2521  0.4425
    6DOPE   C32  678   1.167   6.155  15.902 -0.9520  0.2645 -0.1423
    6DOPE   H2X  679   1.072   6.210  15.884 -1.4710 -0.9785 -1.3920
    6DOPE   H2Y  680   1.253   6.222  15.882  1.5987 -2.1014  2.0295
    6DOPE   C23  681   1.711   6.323  16.001 -0.0130  0.5034  0.1681
    6DOPE   H3R  682   1.745   6.218  16.016 -2.6557 -0.4462  0.0165
    6DOPE   H3S  683   1.805   6.383  16.003 -0.0770  0.7343 -1.8162
    6DOPE   C24  684   1.645   6.349  15.867  0.2494 -0.6134 -0.1353
    6DOPE   H4R  685   1.619   6.457  15.872  1.0540 -0.4903  3.2977
    6DOPE   H4S  686   1.555   6.286  15.850 -0.6390  0.4421  0.5101
    6DOPE   C25  687   1.744   6.316  15.746 -0.4013 -0.3354  0.2866
    6DOPE   H5R  688   1.750   6.205  15.750  0.5486 -0.3179 -0.4015
    6DOPE   H5S  689   1.835   6.373  15.772  0.2058  0.5469 -3.2312
    6DOPE   C26  690   1.698   6.346  15.604  0.0838 -0.5116  0.7638
    6DOPE   H6R  691   1.688   6.457  15.599 -0.3878 -0.5960 -1.8182
    6DOPE   H6S  692   1.596   6.305  15.590 -0.3101  0.2451  1.3266
    6DOPE   C27  693   1.785   6.282  15.500 -0.7204  0.1731 -1.2469
    6DOPE   H7R  694   1.798   6.179  15.540 -0.1955  1.5506  2.5409
    6DOPE   H7S  695   1.884   6.332  15.506 -0.3561 -0.7104  1.2295
    6DOPE   C28  696   1.724   6.285  15.356 -0.0358  0.7709 -0.6979
    6DOPE   H8R  697   1.704   6.388  15.319 -2.3896 -0.0983 -2.0589
    6DOPE   H8S  698   1.620   6.247  15.366  0.3346 -0.4773 -1.4014
    6DOPE   C29  699   1.782   6.210  15.243  0.4936 -0.0990 -0.6450
    6DOPE   H9R  700   1.833   6.118  15.276  3.2908  1.0873 -1.2908
    6DOPE  C210  701   1.789   6.235  15.108  0.1640  0.7110 -0.2694
    6DOPE  H10R  702   1.834   6.156  15.045 -0.0666 -0.0284  0.4761
    6DOPE  C211  703   1.727   6.351  15.036  0.5268 -0.2175  0.2597
    6DOPE  H11R  704   1.779   6.360  14.938 -0.3274 -1.7021 -0.3705
    6DOPE  H11S  705   1.737   6.441  15.101 -2.2104  0.2560  0.1391
    6DOPE  C212  706   1.573   6.327  15.016  0.3329  0.4892  0.1771
    6DOPE  H12R  707   1.525   6.296  15.111 -0.9114  0.9641 -0.2783
    6DOPE  H12S  708   1.570   6.241  14.947  0.5118  0.3631  0.3249
    6DOPE  C213  709   1.516   6.454  14.953  0.6486  0.4780  0.1264
    6DOPE  H13R  710   1.558   6.542  15.005  0.1710  1.4609 -1.0908
    6DOPE  H13S  711   1.408   6.457  14.980  0.5724  0.0334 -0.1214
    6DOPE  C214  712   1.534   6.454  14.799  0.8473  0.6975 -0.0256
    6DOPE  H14R  713   1.507   6.351  14.766  1.5834 -0.2044  2.0124
    6DOPE  H14S  714   1.639   6.469  14.767  0.0917  2.4339 -1.8680
    6DOPE  C215  715   1.447   6.560  14.749  0.2913 -0.0194  0.1588
    6DOPE  H15R  716   1.447   6.657  14.804 -0.4616  0.6589 -1.0003
    6DOPE  H15S  717   1.344   6.523  14.766  1.0113 -1.4514  1.6423
    6DOPE  C216  718   1.452   6.576  14.600  0.0754  0.0274  0.8858
    6DOPE  H16R  719   1.355   6.545  14.556 -0.3266  0.8259  1.1739
    6DOPE  H16S  720   1.523   6.494  14.577  2.6109  2.0154  1.1711
    6DOPE  C217  721   1.487   6.708  14.538 -0.7791 -1.3995  0.4618
    6DOPE  H17R  722   1.597   6.721  14.530 -0.9999  0.9876  0.7847
    6DOPE  H17S  723   1.451   6.793  14.599  0.6618 -0.5499  0.1708
    6DOPE  C218  724   1.439   6.713  14.394  0.4471  0.1356  0.1250
    6DOPE  H18R  725   1.468   6.816  14.362  1.9305 -0.4388 -0.4564
    6DOPE  H18S  726   1.328   6.716  14.390  0.3436 -2.4794 -0.6978
    6DOPE  H18T  727   1.476   6.643  14.316 -1.0842  0.3680 -0.8398
    6DOPE   C33  728   1.186   6.032  15.818  0.1130 -0.2839 -0.2676
    6DOPE   H3X  729   1.081   5.997  15.806  0.5062 -1.1536 -1.2734
    6DOPE   H3Y  730   1.239   5.952  15.873  0.0760  0.1665  0.4310
    6DOPE   C34  731   1.247   6.061  15.685 -0.2676 -0.0478 -0.8871
    6DOPE   H4X  732   1.346   6.110  15.691  0.3273 -1.1948 -1.0282
    6DOPE   H4Y  733   1.267   5.959  15.645  0.3436  0.6761 -2.5103
    6DOPE   C35  734   1.153   6.132  15.588 -0.0451  0.1722 -0.0794
    6DOPE   H5X  735   1.130   6.229  15.637  2.1236  0.5086  0.3803
    6DOPE   H5Y  736   1.058   6.076  15.572 -0.0992  0.0689  0.5727
    6DOPE   C36  737   1.216   6.174  15.454  0.7508 -0.9338 -0.5395
    6DOPE   H6X  738   1.301   6.240  15.483  0.0451  0.6839 -1.9227
    6DOPE   H6Y  739   1.139   6.237  15.403 -1.8359 -2.6682  1.0147
    6DOPE   C37  740   1.267   6.053  15.367  0.5322 -0.1856 -0.4177
    6DOPE   H7X  741   1.360   6.015  15.415  1.0756  0.4679 -0.9338
    6DOPE   H7Y  742   1.182   5.982  15.359 -1.5123  2.3416 -3.7619
    6DOPE   C38  743   1.314   6.101  15.226 -0.3375  0.2476  0.1656
    6DOPE   H8X  744   1.412   6.153  15.241  0.0444 -0.4437  0.1138
    6DOPE   H8Y  745   1.233   6.163  15.183  0.5072  1.1880 -0.0917
    6DOPE   C39  746   1.326   5.979  15.141  0.3803 -0.1197 -0.0181
    6DOPE   H9X  747   1.379   5.901  15.199  0.5922  0.0930  0.0776
    6DOPE  C310  748   1.287   5.962  15.011 -0.3917  0.0153 -0.3763
    6DOPE  H10X  749   1.306   5.858  14.979 -3.8412 -0.7154 -0.4233
    6DOPE  C311  750   1.215   6.064  14.921 -0.0668  0.7480 -0.3706
    6DOPE  H11X  751   1.231   6.170  14.950 -0.2153  0.2668  1.5810
    6DOPE  H11Y  752   1.255   6.053  14.818 -1.4843 -1.2522 -0.7720
    6DOPE  C312  753   1.061   6.034  14.923  0.1468 -0.2946  0.2961
    6DOPE  H12X  754   1.007   6.042  15.020 -0.4682 -0.1730 -0.0489
    6DOPE  H12Y  755   1.060   5.928  14.889 -0.1274 -0.1829 -0.0585
    6DOPE  C313  756   0.979   6.113  14.821  0.4721 -0.2688  0.1019
    6DOPE  H13X  757   1.038   6.108  14.727  0.8467 -1.4466  0.3935
    6DOPE  H13Y  758   0.882   6.059  14.819 -2.0309  3.7300  1.1029
    6DOPE  C314  759   0.944   6.256  14.859  0.2561 -0.2943 -0.6919
    6DOPE  H14X  760   1.028   6.306  14.912  0.1080 -1.0692  0.3177
    6DOPE  H14Y  761   0.866   6.249  14.938  0.4295  0.7736 -0.4174
    6DOPE  C315  762   0.890   6.343  14.742 -0.7079 -0.3604 -0.2538
    6DOPE  H15X  763   0.904   6.445  14.783  1.3524 -0.7752  0.1859
    6DOPE  H15Y  764   0.783   6.335  14.714 -1.0298  0.6573  0.6180
    6DOPE  C316  765   0.970   6.343  14.602  0.6335  0.9262  0.5077
    6DOPE  H16X  766   0.932   6.426  14.538 -0.7871  0.5135  0.7609
    6DOPE  H16Y  767   0.942   6.246  14.555 -1.6431  2.0774 -0.7064
    6DOPE  C317  768   1.120   6.355  14.620  0.0857 -0.7694  0.5794
    6DOPE  H17X  769   1.138   6.449  14.677 -3.2154 -0.0496  0.6100
    6DOPE  H17Y  770   1.160   6.268  14.677  0.9911 -0.8108 -0.0785
    6DOPE  C318  771   1.190   6.359  14.484 -0.6963 -0.0949 -0.2254
    6DOPE  H18X  772   1.299   6.366  14.502 -1.1717  1.6365  2.6138
    6DOPE  H18Y  773   1.162   6.267  14.427  1.5986 -1.9192  1.3858
    6DOPE  H18Z  774   1.147   6.448  14.434 -0.0113  0.3442 -0.0461
    7DOPE     N  775   2.604   0.790  17.126  0.2562  0.3992 -0.5809
    7DOPE   HN1  776   2.601   0.862  17.051 -0.1538  0.8009 -0.1864
    7DOPE   HN2  777   2.538   0.818  17.202 -0.1359  1.9063 -1.4205
    7DOPE   HN3  778   2.702   0.796  17.161  1.1380 -0.4169 -2.7660
    7DOPE   C12  779   2.583   0.654  17.077  0.0073 -0.3651 -0.9501
    7DOPE  H12A  780   2.475   0.645  17.057  0.1264 -1.1401 -1.2902
    7DOPE  H12B  781   2.602   0.588  17.164 -0.1317  0.2165 -0.4718
    7DOPE   C11  782   2.671   0.630  16.957 -0.1988  0.7632  0.0331
    7DOPE  H11A  783   2.650   0.703  16.876  0.7852  0.3336 -0.6250
    7DOPE  H11B  784   2.655   0.529  16.915  0.7932  0.1321  1.0863
    7DOPE     P  785   2.926   0.696  16.883 -0.0367  0.0728 -0.4253
    7DOPE   O13  786   3.054   0.626  16.916 -0.2149  0.0028  0.1761
    7DOPE   O14  787   2.916   0.846  16.889  0.3291  0.2762 -0.1217
    7DOPE   O11  788   2.865   0.635  16.750 -0.0791  0.1475 -0.2680
    7DOPE   O12  789   2.809   0.636  16.985 -0.1360 -0.2542  0.0131
    7DOPE    C1  790   2.870   0.495  16.715  0.2645 -0.1095  0.0379
    7DOPE    HA  791   2.767   0.471  16.681 -0.6456  0.6373  2.0767
    7DOPE    HB  792   2.904   0.430  16.798  0.4632 -1.6661 -1.2186
    7DOPE    C2  793   2.971   0.480  16.594 -0.1444  0.0893  0.2668
    7DOPE    HS  794   3.070   0.515  16.628 -0.4550 -0.1059  1.3994
    7DOPE   O21  795   2.929   0.553  16.480 -0.2538  0.1879  1.1186
    7DOPE   C21  796   3.002   0.648  16.425 -0.4014 -0.1607 -0.3637
    7DOPE   O22  797   3.117   0.682  16.460  0.9131 -0.0232 -0.6346
    7DOPE   C22  798   2.924   0.705  16.304  0.3823 -0.4810  0.6710
    7DOPE   H2R  799   2.886   0.805  16.334  0.4022 -0.2700  0.0152
    7DOPE   H2S  800   2.840   0.638  16.278  1.5142 -1.3507 -0.8977
    7DOPE    C3  801   2.986   0.334  16.551  0.9292 -0.5205  0.1969
    7DOPE    HX  802   2.888   0.302  16.511  1.4052  0.7285 -2.1172
    7DOPE    HY  803   3.012   0.264  16.633 -1.4593 -2.1238 -0.3147
    7DOPE   O31  804   3.065   0.316  16.438 -0.3456  0.7130  0.0172
    7DOPE   C31  805   3.193   0.351  16.449 -0.4702 -0.8054 -0.3018
    7DOPE   O32  806   3.250   0.387  16.550  0.0456 -0.6089 -0.3220
    7DOPE   C32  807   3.267   0.343  16.316  0.4489 -0.0723 -0.1766
    7DOPE   H2X  808   3.305   0.444  16.289  1.3485 -0.4052 -0.1639
    7DOPE   H2Y  809   3.350   0.270  16.319  2.1537  1.7634 -0.9248
    7DOPE   C23  810   3.025   0.707  16.179  0.5466  0.2679 -0.3961
    7DOPE   H3R  811   3.079   0.610  16.189  0.3289  0.1394 -0.4754
    7DOPE   H3S  812   3.086   0.800  16.183 -1.4915  1.6277  2.6132
    7DOPE   C24  813   2.945   0.679  16.046 -0.0017 -0.4967 -0.3614
    7DOPE   H4R  814   2.868   0.755  16.021 -0.0976 -0.6024 -0.3874
    7DOPE   H4S  815   2.890   0.583  16.059  1.7396 -1.4810  0.0500
    7DOPE   C25  816   3.041   0.677  15.930  0.1208 -0.0780 -0.1205
    7DOPE   H5R  817   3.110   0.589  15.927 -0.6225 -0.7753  1.7013
    7DOPE   H5S  818   3.098   0.772  15.922 -1.8936  1.2876  0.8933
    7DOPE   C26  819   2.958   0.667  15.798 -0.3907 -0.3317  0.2694
    7DOPE   H6R  820   2.897   0.758  15.779 -0.1029 -0.0847  0.5247
    7DOPE   H6S  821   2.897   0.575  15.812  0.3490 -0.7360  0.9581
    7DOPE   C27  822   3.047   0.644  15.673 -0.5220 -0.8182 -0.8844
    7DOPE   H7R  823   3.099   0.546  15.679  0.4979 -0.3361 -1.5887
    7DOPE   H7S  824   3.113   0.732  15.655 -1.7915  0.1726 -0.8677
    7DOPE   C28  825   2.963   0.641  15.542  0.1594  0.3467  0.3730
    7DOPE   H8R  826   2.917   0.741  15.524 -0.4659 -0.4734 -3.4733
    7DOPE   H8S  827   2.874   0.576  15.556  0.6412 -0.4987 -0.4064
    7DOPE   C29  828   3.057   0.596  15.431  0.2841  0.3723  1.3655
    7DOPE   H9R  829   3.137   0.522  15.449 -0.7921 -1.1535  0.2185
    7DOPE  C210  830   3.052   0.637  15.304  0.5092 -0.5742  0.0424
    7DOPE  H10R  831   3.117   0.588  15.230  0.9129 -0.8405  0.5601
    7DOPE  C211  832   2.935   0.710  15.245 -0.4773 -0.4112  0.6886
    7DOPE  H11R  833   2.905   0.793  15.312 -0.7485  1.9496 -2.1511
    7DOPE  H11S  834   2.842   0.650  15.231 -0.3785 -1.0990  2.7395
    7DOPE  C212  835   2.978   0.765  15.106  0.3171  0.2163 -0.6248
    7DOPE  H12R  836   3.058   0.840  15.125 -0.1665  0.5108  0.3628
    7DOPE  H12S  837   2.892   0.814  15.056 -0.0348  2.3060  1.8206
    7DOPE  C213  838   3.027   0.668  14.991 -0.1459 -0.1807 -0.7233
    7DOPE  H13R  839   2.961   0.579  14.984 -2.1317  1.3563 -3.7226
    7DOPE  H13S  840   3.122   0.622  15.024  1.4274  1.8861 -2.1222
    7DOPE  C214  841   3.023   0.731  14.858 -0.1202 -0.2938 -0.4827
    7DOPE  H14R  842   3.080   0.826  14.843  1.0522 -0.8092  0.5091
    7DOPE  H14S  843   2.918   0.758  14.835  0.3749 -0.2010 -2.8315
    7DOPE  C215  844   3.089   0.633  14.750 -0.4133 -0.0407  0.1140
    7DOPE  H15R  845   3.031   0.539  14.746 -1.6153  0.6694  0.3861
    7DOPE  H15S  846   3.192   0.607  14.783 -1.1755  0.0964  2.8496
    7DOPE  C216  847   3.098   0.695  14.609 -0.0702  0.9103 -0.9518
    7DOPE  H16R  848   3.119   0.804  14.611  0.8225  0.7885  1.8932
    7DOPE  H16S  849   3.011   0.683  14.542 -0.6088 -0.7835 -0.0244
    7DOPE  C217  850   3.205   0.621  14.523  0.0921 -0.8949  0.1448
    7DOPE  H17R  851   3.180   0.513  14.522 -0.6951 -0.7199 -0.7834
    7DOPE  H17S  852   3.307   0.645  14.561  0.2012  3.6138 -2.3011
    7DOPE  C218  853   3.198   0.676  14.381 -0.0103  0.4974 -0.1071
    7DOPE  H18R  854   3.113   0.635  14.322 -1.2624  0.9596  1.3243
    7DOPE  H18S  855   3.295   0.652  14.331 -0.3458  1.9380 -1.5422
    7DOPE  H18T  856   3.207   0.787  14.377  2.4762  0.3600  0.0158
    7DOPE   C33  857   3.170   0.306  16.196 -0.3668 -0.1080 -0.1982
    7DOPE   H3X  858   3.102   0.392  16.173  0.6618  0.9645  0.6533
    7DOPE   H3Y  859   3.107   0.216  16.211  0.2272 -0.7466 -1.4367
    7DOPE   C34  860   3.256   0.286  16.068  0.3686 -0.7308 -0.5926
    7DOPE   H4X  861   3.316   0.380  16.065  0.9996 -1.0972  0.1555
    7DOPE   H4Y  862   3.330   0.206  16.089 -0.0294 -0.8878  0.2715
    7DOPE   C35  863   3.170   0.251  15.950 -0.5117  0.2688 -0.1159
    7DOPE   H5X  864   3.109   0.341  15.931  0.0840  0.7421  0.1712
    7DOPE   H5Y  865   3.105   0.162  15.965  0.5007 -0.9390 -2.4084
    7DOPE   C36  866   3.251   0.232  15.826 -0.3059  0.5761  0.3773
    7DOPE   H6X  867   3.316   0.144  15.843  0.9318  1.3792 -0.0407
    7DOPE   H6Y  868   3.327   0.313  15.821  1.6628 -1.1526  1.0323
    7DOPE   C37  869   3.169   0.231  15.694  0.1904 -0.2284 -0.9517
    7DOPE   H7X  870   3.078   0.175  15.726  0.0012  0.9060  0.5907
    7DOPE   H7Y  871   3.136   0.327  15.649  1.0311  0.9940  0.9330
    7DOPE   C38  872   3.238   0.155  15.581 -0.1162 -0.1261  0.5543
    7DOPE   H8X  873   3.167   0.114  15.507 -0.8135  0.8406  0.6663
    7DOPE   H8Y  874   3.300   0.071  15.618  1.8488  1.2982  0.6706
    7DOPE   C39  875   3.337   0.230  15.501  0.8332  0.3041  0.2265
    7DOPE   H9X  876   3.428   0.262  15.554  0.9091  0.9633 -0.2885
    7DOPE  C310  877   3.316   0.295  15.388  0.3986 -0.7506 -0.2263
    7DOPE  H10X  878   3.401   0.351  15.347  0.8443 -0.7405  0.6971
    7DOPE  C311  879   3.208   0.293  15.288  0.1631 -0.3231  0.2093
    7DOPE  H11X  880   3.119   0.240  15.330  0.5755 -2.1252 -1.0704
    7DOPE  H11Y  881   3.175   0.395  15.259  2.0217 -0.0033 -0.9110
    7DOPE  C312  882   3.251   0.221  15.162 -0.4135 -0.2956  0.2302
    7DOPE  H12X  883   3.299   0.123  15.185 -1.8500 -0.7940  1.2386
    7DOPE  H12Y  884   3.323   0.291  15.114 -0.5242 -0.3324  0.0088
    7DOPE  C313  885   3.133   0.193  15.075  0.3112 -0.8063 -0.5267
    7DOPE  H13X  886   3.063   0.126  15.130  0.7072 -0.6841  0.1336
    7DOPE  H13Y  887   3.066   0.279  15.054 -1.9296 -2.5185 -0.8880
    7DOPE  C314  888   3.167   0.134  14.935 -0.3615  0.4727 -0.2771
    7DOPE  H14X  889   3.085   0.074  14.891 -1.4785  0.3991  1.7633
    7DOPE  H14Y  890   3.246   0.059  14.952 -0.1374  1.0106  1.2482
    7DOPE  C315  891   3.224   0.235  14.825  0.5396  0.0132  0.2671
    7DOPE  H15X  892   3.297   0.304  14.872  0.6021 -0.8788  1.5448
    7DOPE  H15Y  893   3.148   0.306  14.787  1.9707  0.7020 -1.4527
    7DOPE  C316  894   3.282   0.164  14.695  0.4143 -0.1743 -0.6969
    7DOPE  H16X  895   3.301   0.237  14.613  0.4115  2.2080  1.2818
    7DOPE  H16Y  896   3.204   0.091  14.668  1.3280 -0.4717 -2.7299
    7DOPE  C317  897   3.410   0.083  14.721  0.2747 -0.5252  0.8778
    7DOPE  H17X  898   3.408   0.011  14.806 -2.3678 -1.5336  0.0703
    7DOPE  H17Y  899   3.426   0.014  14.635  0.1470  0.1227  0.3304
    7DOPE  C318  900   3.534   0.171  14.722 -0.1637 -0.4198  0.2177
    7DOPE  H18X  901   3.565   0.228  14.631 -1.2587 -0.4225 -0.1619
    7DOPE  H18Y  902   3.518   0.246  14.803  1.6392  0.4734 -0.1980
    7DOPE  H18Z  903   3.622   0.113  14.757  1.8728  1.1320 -1.9711
    8DOPE     N  904   5.810   0.508  16.805  0.7109 -0.2782  0.0631
    8DOPE   HN1  905   5.790   0.472  16.900  1.4857 -0.9283 -0.0113
    8DOPE   HN2  906   5.875   0.587  16.822 -0.0942  0.0284  2.0276
    8DOPE   HN3  907   5.716   0.535  16.768  0.8507 -0.4093 -0.3966
    8DOPE   C12  908   5.844   0.396  16.709 -0.4059  0.0140 -0.2695
    8DOPE  H12A  909   5.759   0.326  16.722  0.2835 -0.6131  1.0849
    8DOPE  H12B  910   5.929   0.341  16.754  0.2121  2.0911  1.2617
    8DOPE   C11  911   5.854   0.441  16.563  0.1189  0.3459  0.0713
    8DOPE  H11A  912   5.769   0.510  16.543 -0.8453 -0.7756  0.1926
    8DOPE  H11B  913   5.860   0.351  16.498  3.1575 -1.0508  2.0289
    8DOPE     P  914   6.012   0.655  16.518  0.2109 -0.1249  0.2504
    8DOPE   O13  915   6.153   0.682  16.547  0.3363 -0.8283  0.2405
    8DOPE   O14  916   5.929   0.747  16.598  0.0322 -0.2465  0.4078
    8DOPE   O11  917   5.978   0.687  16.365  0.6594  0.1088 -0.3295
    8DOPE   O12  918   5.981   0.503  16.558  0.5296 -0.4263 -0.4538
    8DOPE    C1  919   5.882   0.606  16.292  0.0698  0.1958 -0.5423
    8DOPE    HA  920   5.775   0.621  16.316  0.2140 -1.3425  1.3085
    8DOPE    HB  921   5.903   0.499  16.308 -1.5724  0.0694  1.0271
    8DOPE    C2  922   5.904   0.621  16.142 -0.1723  0.4619  0.2978
    8DOPE    HS  923   6.013   0.633  16.130  0.0551 -0.4946  1.2661
    8DOPE   O21  924   5.829   0.738  16.100  0.0804  0.1074 -0.2265
    8DOPE   C21  925   5.888   0.813  15.999 -0.3496  0.0570  0.2960
    8DOPE   O22  926   6.007   0.801  15.965  0.1403  0.1283 -0.3276
    8DOPE   C22  927   5.789   0.923  15.960 -0.7023 -0.2002 -0.4478
    8DOPE   H2R  928   5.780   0.980  16.055  0.4073  0.7307 -0.8853
    8DOPE   H2S  929   5.687   0.884  15.941 -0.9224  0.6766 -1.1250
    8DOPE    C3  930   5.855   0.491  16.068 -0.6727 -0.3189  0.7722
    8DOPE    HX  931   5.751   0.462  16.094 -1.2264 -0.5780 -1.5030
    8DOPE    HY  932   5.931   0.415  16.095  1.1467  0.7683 -0.9517
    8DOPE   O31  933   5.849   0.510  15.925 -0.6021  1.1622 -0.1198
    8DOPE   C31  934   5.940   0.458  15.849  0.4553  0.7224  0.0315
    8DOPE   O32  935   6.033   0.385  15.884 -0.1928  0.3919 -0.0207
    8DOPE   C32  936   5.894   0.481  15.703 -0.7233  0.0823 -0.4964
    8DOPE   H2X  937   5.796   0.434  15.677 -1.0019 -1.0959  2.3599
    8DOPE   H2Y  938   5.874   0.590  15.690  0.1313  0.5731  1.9155
    8DOPE   C23  939   5.843   1.013  15.848  0.5897  0.0945  0.1440
    8DOPE   H3R  940   5.953   1.011  15.837  0.5089  1.7761 -1.6396
    8DOPE   H3S  941   5.817   1.116  15.879 -0.1644 -0.8704  3.0006
    8DOPE   C24  942   5.762   0.978  15.718 -0.5090 -0.3618  0.3908
    8DOPE   H4R  943   5.664   1.029  15.733  0.5859  1.3892  1.9830
    8DOPE   H4S  944   5.747   0.869  15.701 -1.6737  0.1334 -2.2751
    8DOPE   C25  945   5.827   1.035  15.588 -0.4960 -0.6333  0.0447
    8DOPE   H5R  946   5.936   1.015  15.594 -0.3106  0.0051 -0.9894
    8DOPE   H5S  947   5.802   1.143  15.591 -3.1362 -1.1536 -0.2402
    8DOPE   C26  948   5.760   0.983  15.462  0.2350 -0.1056 -0.4111
    8DOPE   H6R  949   5.664   1.037  15.453 -0.3423 -0.9115  0.6960
    8DOPE   H6S  950   5.743   0.873  15.469 -0.5050 -0.0430 -1.1585
    8DOPE   C27  951   5.838   1.011  15.335  0.0344  0.4667  0.1423
    8DOPE   H7R  952   5.943   0.982  15.360  0.5699  0.0447 -2.3410
    8DOPE   H7S  953   5.845   1.112  15.290  0.5682 -0.0400 -0.9374
    8DOPE   C28  954   5.809   0.919  15.223 -0.6142  0.6035  0.7422
    8DOPE   H8R  955   5.709   0.939  15.180  0.0596  0.3559 -1.0596
    8DOPE   H8S  956   5.809   0.816  15.266 -2.6621 -0.3197 -1.2590
    8DOPE   C29  957   5.912   0.925  15.116 -0.3656  0.3268  0.7092
    8DOPE   H9R  958   5.995   0.852  15.115  0.2091  0.9559 -0.3550
    8DOPE  C210  959   5.899   1.001  15.004 -0.6652  0.2342 -0.0240
    8DOPE  H10R  960   5.990   0.996  14.943  0.3848 -3.2339  1.5840
    8DOPE  C211  961   5.787   1.090  14.964 -0.1250 -0.3845  0.1310
    8DOPE  H11R  962   5.824   1.192  14.986  0.8689 -1.3507  3.5356
    8DOPE  H11S  963   5.698   1.078  15.029  0.5025 -0.3068  1.0286
    8DOPE  C212  964   5.746   1.073  14.818 -0.6923 -0.2599  1.1693
    8DOPE  H12R  965   5.671   1.152  14.797  2.4556  2.9545  1.1470
    8DOPE  H12S  966   5.686   0.985  14.786 -0.8613  0.0766  0.5278
    8DOPE  C213  967   5.856   1.083  14.711 -0.3778 -0.5493 -1.0992
    8DOPE  H13R  968   5.930   1.002  14.723  0.0996 -0.2194 -1.7737
    8DOPE  H13S  969   5.918   1.174  14.724  3.0951 -2.7459 -1.0531
    8DOPE  C214  970   5.806   1.086  14.570 -0.2963 -1.2396  0.4067
    8DOPE  H14R  971   5.765   1.186  14.546 -1.5580 -1.7292  0.4549
    8DOPE  H14S  972   5.714   1.023  14.569 -1.3178  0.0816  2.7202
    8DOPE  C215  973   5.925   1.059  14.474 -1.1195  0.0786  0.0765
    8DOPE  H15R  974   5.948   0.952  14.497 -0.6701 -0.4325 -2.5092
    8DOPE  H15S  975   6.014   1.124  14.488  0.7342 -1.9507 -1.4974
    8DOPE  C216  976   5.879   1.073  14.331 -0.2482  0.0886 -0.0502
    8DOPE  H16R  977   5.955   1.034  14.260 -0.5446 -1.2816  0.3491
    8DOPE  H16S  978   5.846   1.178  14.315  0.1025  0.0172 -1.4251
    8DOPE  C217  979   5.763   0.987  14.296  0.0984 -0.3116 -0.0466
    8DOPE  H17R  980   5.673   0.991  14.361 -0.9233  1.6926 -1.4806
    8DOPE  H17S  981   5.795   0.880  14.296 -1.3298 -0.8224 -2.3251
    8DOPE  C218  982   5.711   1.029  14.158 -0.5296  0.0575  0.2383
    8DOPE  H18R  983   5.681   1.135  14.170  1.1762  0.3530  2.8041
    8DOPE  H18S  984   5.634   0.963  14.114  0.4625 -1.5668  0.8315
    8DOPE  H18T  985   5.799   1.029  14.090 -0.4375 -0.9722  0.3379
    8DOPE   C33  986   5.989   0.422  15.602 -1.4379 -0.2389 -0.4353
    8DOPE   H3X  987   5.974   0.313  15.595 -1.4682 -0.1574 -1.9830
    8DOPE   H3Y  988   6.094   0.446  15.629 -2.0078  1.2470  0.6101
    8DOPE   C34  989   5.955   0.492  15.473 -0.2321  0.2440  0.4415
    8DOPE   H4X  990   5.859   0.459  15.428  1.3050 -2.6111 -1.0082
    8DOPE   H4Y  991   5.955   0.602  15.492  1.2115  0.0195  2.0428
    8DOPE   C35  992   6.061   0.479  15.369 -0.1265  0.3403 -0.0715
    8DOPE   H5X  993   6.092   0.372  15.364 -0.5324  0.2261 -0.2400
    8DOPE   H5Y  994   6.152   0.536  15.395 -0.4650  0.3500  1.1737
    8DOPE   C36  995   5.997   0.525  15.238 -0.0685 -0.2958  0.5812
    8DOPE   H6X  996   5.946   0.620  15.263 -1.4309 -0.6276 -0.7974
    8DOPE   H6Y  997   5.928   0.446  15.202 -0.2372 -0.0874  0.4531
    8DOPE   C37  998   6.101   0.557  15.127 -0.4907 -0.0488  0.5725
    8DOPE   H7X  999   6.158   0.642  15.170 -0.6173  0.3229  0.0190
    8DOPE   H7Y 1000   6.173   0.472  15.119 -0.8411 -0.6273  2.8724
    8DOPE   C38 1001   6.029   0.574  14.999 -0.4796  0.1336  0.3655
    8DOPE   H8X 1002   5.949   0.649  15.015 -1.7376 -0.7573 -1.4020
    8DOPE   H8Y 1003   5.986   0.475  14.970  2.1160 -0.5587 -1.5376
    8DOPE   C39 1004   6.126   0.627  14.889  0.4699 -0.5876  0.2189
    8DOPE   H9X 1005   6.188   0.712  14.922 -0.9980  0.0558  1.4223
    8DOPE  C310 1006   6.137   0.597  14.764 -0.8330  0.1715  0.0724
    8DOPE  H10X 1007   6.221   0.639  14.707 -0.5909  0.1743  0.4274
    8DOPE  C311 1008   6.059   0.489  14.697 -0.3425  0.3983 -0.4814
    8DOPE  H11X 1009   6.106   0.449  14.604 -2.5522 -1.7536 -0.7674
    8DOPE  H11Y 1010   6.060   0.397  14.759  0.4179  0.1571 -0.8286
    8DOPE  C312 1011   5.913   0.517  14.668  0.0810  0.2783 -0.0071
    8DOPE  H12X 1012   5.880   0.615  14.710  0.7980 -0.2388  1.8985
    8DOPE  H12Y 1013   5.860   0.432  14.717  0.5452  0.2832  0.5103
    8DOPE  C313 1014   5.869   0.499  14.525 -0.7332 -0.0554  0.1151
    8DOPE  H13X 1015   5.921   0.579  14.468 -1.0348 -0.1161 -0.2479
    8DOPE  H13Y 1016   5.906   0.404  14.483  0.1253  0.5987 -0.6418
    8DOPE  C314 1017   5.726   0.531  14.501  0.0438  0.4416 -0.0074
    8DOPE  H14X 1018   5.712   0.626  14.557  0.2014 -0.5698  1.8509
    8DOPE  H14Y 1019   5.662   0.453  14.548 -1.2102  1.6783  0.4172
    8DOPE  C315 1020   5.701   0.555  14.354 -0.1561 -0.2827 -0.8891
    8DOPE  H15X 1021   5.764   0.641  14.324  1.2231 -0.9569 -0.0253
    8DOPE  H15Y 1022   5.598   0.598  14.356 -1.3334 -2.9049 -0.7236
    8DOPE  C316 1023   5.708   0.424  14.277 -0.6237  0.0545  0.1090
    8DOPE  H16X 1024   5.647   0.350  14.333 -1.3129  1.1949  0.9242
    8DOPE  H16Y 1025   5.812   0.385  14.275  0.2100  2.1623 -0.3427
    8DOPE  C317 1026   5.651   0.446  14.131 -0.6651 -0.4557  0.5369
    8DOPE  H17X 1027   5.663   0.342  14.092  1.3072  0.1354 -0.5486
    8DOPE  H17Y 1028   5.546   0.484  14.129 -0.5298 -0.0518  0.9841
    8DOPE  C318 1029   5.744   0.549  14.058  0.0046  0.1401 -0.4311
    8DOPE  H18X 1030   5.852   0.526  14.050  0.1414  0.7476 -0.3532
    8DOPE  H18Y 1031   5.747   0.651  14.102  0.7050 -0.7851  1.8069
    8DOPE  H18Z 1032   5.711   0.563  13.953 -1.6332 -1.4849 -0.1937
    9DOPE     N 1033   1.636   5.232  17.011 -0.0394 -0.3374 -0.3317
    9DOPE   HN1 1034   1.640   5.206  16.911 -2.4785 -0.0500 -0.5583
    9DOPE   HN2 1035   1.707   5.307  17.025  0.1097 -0.4979 -0.2160
    9DOPE   HN3 1036   1.658   5.145  17.064  0.0773  0.9889  1.9519
    9DOPE   C12 1037   1.492   5.277  17.030 -1.1723 -0.2365  0.4087
    9DOPE  H12A 1038   1.488   5.307  17.137 -0.6794  1.3623  0.0095
    9DOPE  H12B 1039   1.433   5.187  17.005  1.9559 -2.1418 -0.6715
    9DOPE   C11 1040   1.461   5.398  16.940  0.0762 -0.1297 -0.3305
    9DOPE  H11A 1041   1.363   5.434  16.978 -0.9566 -2.5172 -0.5717
    9DOPE  H11B 1042   1.447   5.368  16.834 -3.5951 -0.0307  0.0166
    9DOPE     P 1043   1.524   5.652  16.886 -0.0347 -0.3440  0.2446
    9DOPE   O13 1044   1.633   5.749  16.912 -0.2796 -0.1969 -0.3228
    9DOPE   O14 1045   1.391   5.680  16.937 -0.3054  0.0640 -0.0722
    9DOPE   O11 1046   1.514   5.627  16.728 -0.4095 -0.1071 -0.0282
    9DOPE   O12 1047   1.559   5.506  16.947 -0.1060  0.3640 -0.3660
    9DOPE    C1 1048   1.602   5.532  16.662  0.1491 -0.0242 -0.2106
    9DOPE    HA 1049   1.641   5.452  16.729  0.3142 -1.3219 -1.7835
    9DOPE    HB 1050   1.697   5.578  16.629  1.2634 -2.7748 -1.1029
    9DOPE    C2 1051   1.535   5.474  16.530  0.0667  0.4318 -0.1145
    9DOPE    HS 1052   1.496   5.571  16.491  1.6309  1.3983  0.6221
    9DOPE   O21 1053   1.429   5.384  16.561 -0.1017 -0.3181  0.0352
    9DOPE   C21 1054   1.333   5.370  16.476 -0.6593  0.3229  0.2974
    9DOPE   O22 1055   1.328   5.436  16.371  0.4217  0.2523  0.1984
    9DOPE   C22 1056   1.232   5.262  16.517 -0.2901 -0.3621 -0.4809
    9DOPE   H2R 1057   1.147   5.311  16.569  0.3490 -0.4218  0.6592
    9DOPE   H2S 1058   1.285   5.196  16.588  1.5213  2.6929  1.2152
    9DOPE    C3 1059   1.647   5.413  16.441  0.7185  0.4963 -0.1553
    9DOPE    HX 1060   1.686   5.327  16.501 -0.0121  1.6040  1.9962
    9DOPE    HY 1061   1.738   5.476  16.427  0.2659  0.8840 -1.4470
    9DOPE   O31 1062   1.606   5.369  16.308  0.2793  0.3026  0.0430
    9DOPE   C31 1063   1.655   5.433  16.204  0.3233  0.4666 -0.4417
    9DOPE   O32 1064   1.724   5.532  16.209 -0.3754  0.3201 -0.2051
    9DOPE   C32 1065   1.591   5.356  16.084 -0.3620  0.1793 -0.6978
    9DOPE   H2X 1066   1.673   5.322  16.018 -1.8501 -1.5356 -1.7356
    9DOPE   H2Y 1067   1.534   5.268  16.120 -2.0057  1.5477  0.2012
    9DOPE   C23 1068   1.189   5.171  16.395  0.6608 -0.0961 -0.4019
    9DOPE   H3R 1069   1.153   5.233  16.311  0.2668 -0.2601 -0.3558
    9DOPE   H3S 1070   1.105   5.111  16.436 -1.1431  3.0034  0.7358
    9DOPE   C24 1071   1.304   5.092  16.332  0.9531 -1.0106 -0.8638
    9DOPE   H4R 1072   1.329   5.014  16.406 -0.0611 -0.5409 -0.0064
    9DOPE   H4S 1073   1.403   5.133  16.302  1.2757 -1.4987 -0.4894
    9DOPE   C25 1074   1.246   5.023  16.199 -0.2969  0.3411 -0.0148
    9DOPE   H5R 1075   1.136   5.034  16.207 -0.0844  1.3725  2.9351
    9DOPE   H5S 1076   1.272   4.914  16.202  2.7661  0.9340 -0.9082
    9DOPE   C26 1077   1.287   5.079  16.064  0.0685  0.3609 -0.0131
    9DOPE   H6R 1078   1.394   5.107  16.064  0.3029 -0.4746 -1.1017
    9DOPE   H6S 1079   1.230   5.174  16.054 -0.8408 -0.3605 -2.1347
    9DOPE   C27 1080   1.254   4.989  15.947  0.4861 -0.3179 -0.2403
    9DOPE   H7R 1081   1.278   4.885  15.981  1.2944  0.2863  1.1270
    9DOPE   H7S 1082   1.322   5.016  15.863 -1.8918 -1.8363 -2.8045
    9DOPE   C28 1083   1.106   4.997  15.883 -0.7553  0.1108  0.2183
    9DOPE   H8R 1084   1.106   5.105  15.859  2.7469  0.5968  1.6815
    9DOPE   H8S 1085   1.033   4.989  15.966  1.1771  0.1537  1.9956
    9DOPE   C29 1086   1.076   4.901  15.769 -0.1652 -0.0748 -0.1016
    9DOPE   H9R 1087   1.029   4.804  15.793 -0.1056  0.1014  0.7536
    9DOPE  C210 1088   1.098   4.924  15.638  0.2750 -0.9500 -0.4559
    9DOPE  H10R 1089   1.075   4.845  15.565  1.2659  0.2832 -2.1745
    9DOPE  C211 1090   1.148   5.050  15.577  0.1516 -0.0876  0.4501
    9DOPE  H11R 1091   1.155   5.132  15.652 -0.6638  0.1932  0.2308
    9DOPE  H11S 1092   1.071   5.079  15.503  0.1535 -1.3916 -0.0922
    9DOPE  C212 1093   1.297   5.025  15.512 -0.3522  0.0966  0.2995
    9DOPE  H12R 1094   1.366   4.979  15.586 -0.5170  0.7961  0.8891
    9DOPE  H12S 1095   1.333   5.124  15.477 -0.3384 -0.1872 -0.5169
    9DOPE  C213 1096   1.285   4.939  15.381 -0.5643 -0.6738  0.1963
    9DOPE  H13R 1097   1.230   4.849  15.416  2.3648 -2.2621  1.0460
    9DOPE  H13S 1098   1.389   4.915  15.350 -0.0231  1.7337 -0.0805
    9DOPE  C214 1099   1.212   5.012  15.269 -0.3962 -0.2539 -0.5445
    9DOPE  H14R 1100   1.244   5.118  15.256  0.0762 -0.4415 -0.9516
    9DOPE  H14S 1101   1.104   5.002  15.295 -0.1277 -1.2676  0.2103
    9DOPE  C215 1102   1.236   4.950  15.134 -0.0435  0.3700  0.5386
    9DOPE  H15R 1103   1.196   4.846  15.141 -2.3601  1.2517  1.4073
    9DOPE  H15S 1104   1.346   4.949  15.118  0.0404  1.6384  0.9469
    9DOPE  C216 1105   1.158   5.025  15.029  0.2603  0.5454  0.3145
    9DOPE  H16R 1106   1.182   5.134  15.036 -0.9805  0.9536 -1.3058
    9DOPE  H16S 1107   1.048   5.012  15.028  0.5103 -3.4566 -3.5339
    9DOPE  C217 1108   1.207   4.987  14.887 -0.5349  0.2141  0.2096
    9DOPE  H17R 1109   1.315   5.010  14.898 -0.5479 -0.4824  2.1242
    9DOPE  H17S 1110   1.166   5.067  14.821  0.1508  0.4528  0.0708
    9DOPE  C218 1111   1.197   4.839  14.830 -0.1771  0.4699  0.3335
    9DOPE  H18R 1112   1.195   4.852  14.719 -3.5313 -2.2396 -0.0986
    9DOPE  H18S 1113   1.109   4.778  14.861  1.0973 -1.3060  0.6000
    9DOPE  H18T 1114   1.285   4.777  14.853 -1.9321 -2.7372 -0.9500
    9DOPE   C33 1115   1.488   5.439  16.003  0.0564 -0.4000 -0.2752
    9DOPE   H3X 1116   1.531   5.536  15.971 -1.6293  0.5394  0.1645
    9DOPE   H3Y 1117   1.401   5.456  16.070  0.3225 -1.8453  0.4821
    9DOPE   C34 1118   1.422   5.361  15.885 -0.8427  0.4457  0.5277
    9DOPE   H4X 1119   1.505   5.336  15.815  0.0151 -1.4319  2.1045
    9DOPE   H4Y 1120   1.368   5.270  15.921  1.1735  0.1907  3.2057
    9DOPE   C35 1121   1.321   5.465  15.832  0.3603 -0.9691 -0.1438
    9DOPE   H5X 1122   1.364   5.566  15.849 -2.6538  0.4773 -0.6172
    9DOPE   H5Y 1123   1.221   5.445  15.876  0.7065 -2.0549  0.1931
    9DOPE   C36 1124   1.297   5.472  15.682  0.2274  0.0579 -0.1624
    9DOPE   H6X 1125   1.236   5.561  15.657  2.3250  1.4215 -0.6492
    9DOPE   H6Y 1126   1.246   5.381  15.643 -0.0004  0.5379 -1.0154
    9DOPE   C37 1127   1.429   5.481  15.598 -0.0431  0.0789 -0.8786
    9DOPE   H7X 1128   1.495   5.560  15.639 -0.5378  1.7345 -3.0642
    9DOPE   H7Y 1129   1.478   5.381  15.599  0.3437  0.2628  0.8419
    9DOPE   C38 1130   1.390   5.524  15.456 -1.1423 -0.1525  0.4203
    9DOPE   H8X 1131   1.486   5.546  15.405 -0.9937 -0.0043  0.7551
    9DOPE   H8Y 1132   1.351   5.628  15.462 -0.6021  0.2715 -2.1694
    9DOPE   C39 1133   1.304   5.438  15.367  0.1022 -0.5530  0.3104
    9DOPE   H9X 1134   1.262   5.354  15.424  1.8573 -1.3157  0.5532
    9DOPE  C310 1135   1.280   5.454  15.235  0.4412  0.2976 -0.2407
    9DOPE  H10X 1136   1.209   5.385  15.189  1.4326 -1.0807  0.2351
    9DOPE  C311 1137   1.351   5.553  15.142  0.1934  0.7070 -1.2484
    9DOPE  H11X 1138   1.286   5.644  15.135 -0.8020  0.3051  1.3569
    9DOPE  H11Y 1139   1.453   5.577  15.180 -0.5926 -0.4993  1.9405
    9DOPE  C312 1140   1.358   5.492  14.997 -0.0496 -0.6210  0.0089
    9DOPE  H12X 1141   1.369   5.381  14.999  1.0649 -0.5180  0.3128
    9DOPE  H12Y 1142   1.441   5.537  14.939 -0.9133  1.7112  0.4582
    9DOPE  C313 1143   1.219   5.529  14.939  0.0922  0.3466  0.9814
    9DOPE  H13X 1144   1.134   5.530  15.010 -1.1936  1.0768 -0.5028
    9DOPE  H13Y 1145   1.212   5.624  14.881 -0.2019 -0.1186  0.2281
    9DOPE  C314 1146   1.163   5.428  14.835  0.1306  0.4423 -0.0922
    9DOPE  H14X 1147   1.058   5.452  14.810 -0.6027 -1.6805  0.7834
    9DOPE  H14Y 1148   1.146   5.340  14.900  2.4821  0.5077  0.7071
    9DOPE  C315 1149   1.253   5.389  14.721  0.5725 -0.1537 -0.7677
    9DOPE  H15X 1150   1.318   5.303  14.747 -0.7087 -0.8067  0.4130
    9DOPE  H15Y 1151   1.306   5.475  14.676 -0.8296  0.6142 -1.0161
    9DOPE  C316 1152   1.156   5.350  14.609  0.0563  0.4636 -0.2172
    9DOPE  H16X 1153   1.095   5.437  14.577 -2.0520 -0.9279 -0.2318
    9DOPE  H16Y 1154   1.091   5.265  14.641  2.3939 -2.3571 -2.4661
    9DOPE  C317 1155   1.239   5.298  14.491 -0.3187 -0.9826 -0.4132
    9DOPE  H17X 1156   1.163   5.282  14.412 -2.5432  1.3596  1.0922
    9DOPE  H17Y 1157   1.298   5.383  14.451  1.1747 -0.9572  1.6844
    9DOPE  C318 1158   1.333   5.178  14.520  0.3594 -0.3492  0.1281
    9DOPE  H18X 1159   1.368   5.126  14.429 -1.1085 -1.7347  0.3084
    9DOPE  H18Y 1160   1.415   5.211  14.587 -1.6624  2.4983  1.4309
    9DOPE  H18Z 1161   1.278   5.100  14.577  0.2189  1.1181  2.1062
   10DOPE     N 1162   0.564   0.276  16.702  0.3794  0.1136 -0.1246
   10DOPE   HN1 1163   0.480   0.324  16.740  1.5263  0.6225  1.8647
   10DOPE   HN2 1164   0.567   0.175  16.726 -1.9638  0.3718  1.5020
   10DOPE   HN3 1165   0.648   0.331  16.730 -0.1547  0.8576  0.0435
   10DOPE   C12 1166   0.561   0.304  16.557  0.5240  0.5432  0.1684
   10DOPE  H12A 1167   0.561   0.414  16.541  0.4433  0.2313 -2.2340
   10DOPE  H12B 1168   0.467   0.265  16.513  1.1970 -0.8524 -0.0839
   10DOPE   C11 1169   0.662   0.242  16.475 -0.3752 -0.0282 -0.1905
   10DOPE  H11A 1170   0.655   0.274  16.369  1.3498  1.8307  0.1902
   10DOPE  H11B 1171   0.645   0.132  16.483 -0.8353 -0.0294 -1.1290
   10DOPE     P 1172   0.915   0.195  16.509  0.2002 -0.2575  0.2102
   10DOPE   O13 1173   0.889   0.054  16.555 -0.4372 -0.3259  0.1707
   10DOPE   O14 1174   1.033   0.262  16.569 -0.3908  0.6967 -0.5325
   10DOPE   O11 1175   0.924   0.194  16.354  0.2259 -0.0868  0.1534
   10DOPE   O12 1176   0.785   0.281  16.538 -0.3374 -0.1378  0.1055
   10DOPE    C1 1177   0.878   0.089  16.265 -0.2453  0.2930  0.3720
   10DOPE    HA 1178   0.873   0.123  16.159 -2.5682 -1.1167 -0.0409
   10DOPE    HB 1179   0.777   0.053  16.293 -0.1965 -2.4086 -2.3641
   10DOPE    C2 1180   0.976  -0.031  16.275 -0.1848  1.0112 -0.9324
   10DOPE    HS 1181   0.967  -0.064  16.380 -0.5108  2.7414 -0.3950
   10DOPE   O21 1182   1.108   0.018  16.245  0.8826  0.0715  0.1805
   10DOPE   C21 1183   1.208  -0.049  16.294 -0.4406  0.7731 -0.4527
   10DOPE   O22 1184   1.204  -0.126  16.392  0.2071  0.1503  0.2164
   10DOPE   C22 1185   1.335  -0.012  16.215  0.2933  0.3630  0.5535
   10DOPE   H2R 1186   1.417  -0.085  16.232 -0.6891 -0.6043  1.3091
   10DOPE   H2S 1187   1.372   0.084  16.257  0.3985  0.4442  0.2775
   10DOPE    C3 1188   0.925  -0.152  16.188 -0.6493 -0.7333 -0.3254
   10DOPE    HX 1189   0.833  -0.202  16.225  0.3694 -2.3455  0.1477
   10DOPE    HY 1190   1.003  -0.231  16.197 -0.7756 -0.8540 -0.2893
   10DOPE   O31 1191   0.902  -0.115  16.052 -0.5784 -0.1104 -0.6981
   10DOPE   C31 1192   0.848  -0.223  15.978  0.2629 -0.0085 -0.6704
   10DOPE   O32 1193   0.809  -0.327  16.024 -0.3483  0.2017  0.3482
   10DOPE   C32 1194   0.838  -0.180  15.828  0.0009  0.1796  0.0982
   10DOPE   H2X 1195   0.754  -0.108  15.817  0.6419  1.8047  3.9912
   10DOPE   H2Y 1196   0.932  -0.127  15.802 -1.0259  0.4702 -3.5803
   10DOPE   C23 1197   1.325  -0.011  16.054  0.1388  0.0251  0.2185
   10DOPE   H3R 1198   1.419   0.033  16.015 -0.9919  2.6028  0.1542
   10DOPE   H3S 1199   1.241   0.060  16.035  0.7030  0.5424 -0.3968
   10DOPE   C24 1200   1.290  -0.150  15.993 -0.6414  0.4085  0.1283
   10DOPE   H4R 1201   1.210  -0.189  16.060  0.5267 -0.6088  0.9806
   10DOPE   H4S 1202   1.379  -0.217  15.990 -1.1771 -0.3288  0.3821
   10DOPE   C25 1203   1.236  -0.151  15.849  0.2684 -0.0195 -0.1563
   10DOPE   H5R 1204   1.185  -0.053  15.842  2.3474  1.1030 -0.4244
   10DOPE   H5S 1205   1.172  -0.241  15.836  0.8103 -0.3998 -0.2327
   10DOPE   C26 1206   1.350  -0.152  15.748 -0.2766 -0.0080  0.2171
   10DOPE   H6R 1207   1.405  -0.247  15.731 -0.2142  0.2982 -1.4609
   10DOPE   H6S 1208   1.420  -0.079  15.795  0.8749 -0.7807 -0.2352
   10DOPE   C27 1209   1.308  -0.085  15.614 -0.2934  0.1060 -0.7412
   10DOPE   H7R 1210   1.287   0.023  15.633 -0.4224 -0.2639  1.5226
   10DOPE   H7S 1211   1.212  -0.133  15.588 -0.1524 -0.1870 -0.7319
   10DOPE   C28 1212   1.404  -0.104  15.490  0.6951 -0.1840 -0.1463
   10DOPE   H8R 1213   1.355  -0.067  15.397  0.1151  2.9220  1.2728
   10DOPE   H8S 1214   1.438  -0.208  15.475  1.6755  0.0796  0.1340
   10DOPE   C29 1215   1.532  -0.015  15.503 -0.0195 -0.2439 -0.2647
   10DOPE   H9R 1216   1.610  -0.048  15.573 -0.7210  0.8933  1.0947
   10DOPE  C210 1217   1.538   0.111  15.461 -0.5237 -0.2880 -0.3365
   10DOPE  H10R 1218   1.629   0.170  15.477  0.5105 -1.7814 -0.4694
   10DOPE  C211 1219   1.442   0.184  15.369  0.0533  0.0470 -1.2189
   10DOPE  H11R 1220   1.413   0.280  15.418  1.8020 -0.7704  1.6616
   10DOPE  H11S 1221   1.344   0.132  15.360  0.3101 -1.1558  1.8606
   10DOPE  C212 1222   1.497   0.208  15.225 -0.6558  0.0787 -0.1103
   10DOPE  H12R 1223   1.519   0.110  15.177 -1.2677 -0.5114  0.7651
   10DOPE  H12S 1224   1.599   0.250  15.233  0.2894 -1.4375 -2.9867
   10DOPE  C213 1225   1.408   0.287  15.136  0.0203 -0.3425 -0.1573
   10DOPE  H13R 1226   1.382   0.384  15.185  0.7152 -1.6773  3.0998
   10DOPE  H13S 1227   1.312   0.237  15.114  0.1141 -0.9358  0.7141
   10DOPE  C214 1228   1.476   0.337  15.012  0.0689 -0.7110  0.1454
   10DOPE  H14R 1229   1.509   0.255  14.944  0.5288 -1.2849  1.0276
   10DOPE  H14S 1230   1.567   0.391  15.047  1.3581 -3.3829  1.2508
   10DOPE  C215 1231   1.389   0.436  14.940 -1.4283 -0.1421 -0.1182
   10DOPE  H15R 1232   1.348   0.502  15.019  1.1832  1.5508 -0.0515
   10DOPE  H15S 1233   1.305   0.379  14.893 -2.1665  0.4071  0.5025
   10DOPE  C216 1234   1.461   0.521  14.840  0.2042  0.2194 -0.3191
   10DOPE  H16R 1235   1.557   0.561  14.878  0.5438  0.2721 -1.1904
   10DOPE  H16S 1236   1.393   0.606  14.821 -0.0202  0.1186  0.0295
   10DOPE  C217 1237   1.486   0.434  14.716  0.1409  0.3227 -0.9772
   10DOPE  H17R 1238   1.387   0.388  14.695 -0.1063  0.9030 -1.1089
   10DOPE  H17S 1239   1.562   0.355  14.729  2.0421  2.0451 -1.1509
   10DOPE  C218 1240   1.527   0.518  14.586  0.4048  0.4899 -0.2098
   10DOPE  H18R 1241   1.626   0.565  14.604 -0.6471  2.7081 -0.0163
   10DOPE  H18S 1242   1.448   0.591  14.558 -0.7775 -0.1219  1.3856
   10DOPE  H18T 1243   1.534   0.445  14.502  2.2911 -0.1923  0.4755
   10DOPE   C33 1244   0.826  -0.303  15.733 -0.6299  0.4586  0.6589
   10DOPE   H3X 1245   0.755  -0.376  15.778 -1.8107  0.2903 -1.3831
   10DOPE   H3Y 1246   0.927  -0.350  15.735 -0.3990  0.9108 -0.0865
   10DOPE   C34 1247   0.782  -0.255  15.595 -0.1514  0.4621  0.2797
   10DOPE   H4X 1248   0.674  -0.241  15.577  0.1996  1.2787 -1.3522
   10DOPE   H4Y 1249   0.828  -0.157  15.572  0.6009  0.0336 -0.1027
   10DOPE   C35 1250   0.813  -0.357  15.483 -0.3008  0.9459  0.3776
   10DOPE   H5X 1251   0.722  -0.421  15.488 -1.5961  2.7485  0.6643
   10DOPE   H5Y 1252   0.895  -0.423  15.518 -1.3841  0.5431  2.3237
   10DOPE   C36 1253   0.829  -0.308  15.339  0.4925  0.0250 -0.3075
   10DOPE   H6X 1254   0.729  -0.265  15.316  0.7523 -0.0575 -1.6368
   10DOPE   H6Y 1255   0.834  -0.399  15.275  2.7936 -0.2035  0.1203
   10DOPE   C37 1256   0.948  -0.216  15.315 -0.3431 -0.2573  0.5296
   10DOPE   H7X 1257   0.920  -0.115  15.352 -0.1741 -0.3233  0.8457
   10DOPE   H7Y 1258   1.033  -0.253  15.378 -0.1692 -1.2010 -0.2311
   10DOPE   C38 1259   0.991  -0.232  15.163 -0.0968 -0.1615  0.5668
   10DOPE   H8X 1260   0.924  -0.182  15.090  0.1955 -1.6536 -0.7946
   10DOPE   H8Y 1261   0.983  -0.337  15.129  2.0261 -0.2890  0.2873
   10DOPE   C39 1262   1.130  -0.185  15.134 -0.3746 -0.0578 -0.2775
   10DOPE   H9X 1263   1.204  -0.243  15.192 -1.0193  1.1332  1.8467
   10DOPE  C310 1264   1.177  -0.080  15.068 -0.3057 -0.5573 -0.1833
   10DOPE  H10X 1265   1.286  -0.071  15.056 -0.4088  0.5113 -0.4161
   10DOPE  C311 1266   1.103   0.020  14.986  0.0277  0.9928 -0.1755
   10DOPE  H11X 1267   1.000  -0.019  14.972  1.4441 -2.5525 -1.6544
   10DOPE  H11Y 1268   1.092   0.121  15.033 -1.2148  1.4412 -1.3733
   10DOPE  C312 1269   1.157   0.038  14.840 -0.5928  1.0149 -0.0573
   10DOPE  H12X 1270   1.163  -0.061  14.791  1.6054  0.4157  1.3220
   10DOPE  H12Y 1271   1.262   0.072  14.849 -0.3360 -0.2654  2.2389
   10DOPE  C313 1272   1.080   0.143  14.770 -0.3913 -0.3009  0.3911
   10DOPE  H13X 1273   0.971   0.121  14.777 -0.0520 -2.2414  0.0777
   10DOPE  H13Y 1274   1.094   0.236  14.828 -0.9887  0.0374  0.0029
   10DOPE  C314 1275   1.125   0.153  14.623 -0.0903 -0.0719  0.1845
   10DOPE  H14X 1276   1.122   0.046  14.594  0.8632  0.3244 -1.5293
   10DOPE  H14Y 1277   1.233   0.179  14.612 -0.4591  1.4895  0.0872
   10DOPE  C315 1278   1.036   0.248  14.542 -0.4386  0.1379  0.3860
   10DOPE  H15X 1279   1.031   0.345  14.596  0.0426  0.0253  0.6345
   10DOPE  H15Y 1280   0.942   0.192  14.523  0.5852 -2.0061  1.2896
   10DOPE  C316 1281   1.096   0.282  14.400 -0.7733  0.6443 -0.0468
   10DOPE  H16X 1282   1.021   0.328  14.332  0.6344  2.3567 -0.5216
   10DOPE  H16Y 1283   1.124   0.184  14.356 -0.8703  0.2698  0.7063
   10DOPE  C317 1284   1.223   0.370  14.410  0.5006 -0.1051  0.5484
   10DOPE  H17X 1285   1.192   0.474  14.433  0.1194  0.1986 -1.2242
   10DOPE  H17Y 1286   1.284   0.339  14.498 -1.6599 -1.5253  1.6127
   10DOPE  C318 1287   1.308   0.362  14.279  0.5777 -0.6526  0.2986
   10DOPE  H18X 1288   1.324   0.253  14.262 -0.8940 -0.3805 -4.1424
   10DOPE  H18Y 1289   1.252   0.395  14.189  0.0962 -1.4740  0.2856
   10DOPE  H18Z 1290   1.407   0.411  14.270 -0.5322  2.2014  2.2233
   11DOPE     N 1291   1.887   3.573  17.450  0.1265 -0.5645  0.1295
   11DOPE   HN1 1292   1.835   3.483  17.460  0.6866 -1.0645 -1.2933
   11DOPE   HN2 1293   1.906   3.627  17.537 -1.8905  0.5638 -0.0631
   11DOPE   HN3 1294   1.840   3.632  17.378  2.0570 -0.3509 -1.0080
   11DOPE   C12 1295   2.009   3.533  17.384 -0.4356  0.5740 -0.6967
   11DOPE  H12A 1296   2.037   3.435  17.429  0.7636  1.4211  0.5194
   11DOPE  H12B 1297   2.084   3.611  17.410  3.1497 -2.1275 -2.0050
   11DOPE   C11 1298   2.002   3.528  17.228  0.2805 -0.3792 -0.0461
   11DOPE  H11A 1299   2.100   3.505  17.182 -1.2617 -1.1070 -3.1892
   11DOPE  H11B 1300   1.985   3.631  17.189 -1.9771 -0.6322  0.1311
   11DOPE     P 1301   1.877   3.420  17.026 -0.1733  0.4673  0.0532
   11DOPE   O13 1302   1.731   3.427  17.003 -0.0231  0.4247 -0.1855
   11DOPE   O14 1303   1.955   3.308  16.977 -0.1716  0.0894  0.1174
   11DOPE   O11 1304   1.946   3.543  16.954 -0.0268 -0.8927  0.3222
   11DOPE   O12 1305   1.905   3.442  17.179  0.2713 -0.0195 -0.8998
   11DOPE    C1 1306   1.870   3.665  16.920  0.5035  0.0054 -0.2335
   11DOPE    HA 1307   1.948   3.741  16.900  3.0022 -1.8019  2.0304
   11DOPE    HB 1308   1.814   3.701  17.009  2.0749  0.6600  0.5117
   11DOPE    C2 1309   1.788   3.638  16.787 -0.4456  0.7658  0.8326
   11DOPE    HS 1310   1.727   3.547  16.809 -0.0361  0.2321 -0.1619
   11DOPE   O21 1311   1.885   3.615  16.683 -0.5029 -0.4878 -0.5068
   11DOPE   C21 1312   1.840   3.568  16.569 -0.1749  0.0241 -0.1953
   11DOPE   O22 1313   1.732   3.513  16.556  0.4287  0.2814 -0.0225
   11DOPE   C22 1314   1.942   3.584  16.456  0.0622 -0.0399  0.0037
   11DOPE   H2R 1315   2.041   3.616  16.498 -0.1302 -0.6301  0.9523
   11DOPE   H2S 1316   1.896   3.669  16.403  1.7026  0.7125 -0.2816
   11DOPE    C3 1317   1.697   3.751  16.767 -0.0576 -0.0839  1.0349
   11DOPE    HX 1318   1.744   3.846  16.799  1.4839 -0.7337  0.7749
   11DOPE    HY 1319   1.605   3.720  16.822  0.1326 -2.7070  0.0245
   11DOPE   O31 1320   1.656   3.788  16.635 -0.1825 -0.6081 -0.2530
   11DOPE   C31 1321   1.545   3.738  16.587  0.2897  0.4819 -0.7715
   11DOPE   O32 1322   1.461   3.676  16.646  0.1390  0.1937  0.0241
   11DOPE   C32 1323   1.517   3.792  16.447 -0.4652 -0.3236 -0.9897
   11DOPE   H2X 1324   1.407   3.803  16.447 -0.3662  0.8760  0.3372
   11DOPE   H2Y 1325   1.569   3.888  16.430 -0.3984 -0.2362 -0.3241
   11DOPE   C23 1326   1.952   3.461  16.365  0.6746 -0.0032 -0.5508
   11DOPE   H3R 1327   1.856   3.422  16.326 -0.8256  1.4596  1.5120
   11DOPE   H3S 1328   2.003   3.380  16.422  2.3419  0.8112 -0.8202
   11DOPE   C24 1329   2.042   3.496  16.244  0.9793  0.0861 -0.0789
   11DOPE   H4R 1330   2.148   3.465  16.255  1.0404  0.8546  1.7552
   11DOPE   H4S 1331   2.041   3.606  16.230 -0.6546  0.2601  1.0574
   11DOPE   C25 1332   1.989   3.418  16.123  0.0307 -0.9954  0.6179
   11DOPE   H5R 1333   1.885   3.452  16.104  0.8693  0.6943 -1.2926
   11DOPE   H5S 1334   1.994   3.310  16.151  1.0906 -0.2849  3.4860
   11DOPE   C26 1335   2.065   3.454  15.991 -0.0829  0.3249 -0.0284
   11DOPE   H6R 1336   2.174   3.448  16.009 -0.2563  1.3609  1.5426
   11DOPE   H6S 1337   2.046   3.561  15.967  0.4509  0.4684  0.1609
   11DOPE   C27 1338   2.010   3.357  15.883  0.0097  0.2626 -0.5854
   11DOPE   H7R 1339   1.901   3.375  15.876 -0.1329 -0.4101 -0.0919
   11DOPE   H7S 1340   2.014   3.256  15.929 -1.1987  0.2874 -0.3930
   11DOPE   C28 1341   2.067   3.375  15.740 -0.9389  0.2000  0.3860
   11DOPE   H8R 1342   2.042   3.478  15.709 -0.5359  0.5253  1.1125
   11DOPE   H8S 1343   2.018   3.305  15.670 -2.7954  2.0619 -0.2699
   11DOPE   C29 1344   2.215   3.350  15.736 -0.3446  0.0547 -0.0150
   11DOPE   H9R 1345   2.247   3.298  15.827 -2.4935 -2.6545 -0.6804
   11DOPE  C210 1346   2.303   3.409  15.654 -1.0743  0.1791 -0.2096
   11DOPE  H10R 1347   2.412   3.397  15.657 -1.1048  0.0202  0.3676
   11DOPE  C211 1348   2.269   3.485  15.531  0.1555 -0.5840 -0.7966
   11DOPE  H11R 1349   2.361   3.514  15.476  0.1530  1.6420  0.2690
   11DOPE  H11S 1350   2.216   3.577  15.561  2.9761  1.0896 -0.5639
   11DOPE  C212 1351   2.195   3.407  15.424  0.5504 -0.0128 -0.2946
   11DOPE  H12R 1352   2.098   3.369  15.463  0.5791 -0.6644 -0.8331
   11DOPE  H12S 1353   2.251   3.313  15.406  1.1475  0.7438 -2.8088
   11DOPE  C213 1354   2.176   3.477  15.290 -0.5452  0.1679 -0.0174
   11DOPE  H13R 1355   2.153   3.585  15.298  0.8093  0.5558 -1.0550
   11DOPE  H13S 1356   2.093   3.423  15.239 -0.0959 -0.6236  0.0730
   11DOPE  C214 1357   2.303   3.475  15.207 -0.2998 -0.3331 -0.6123
   11DOPE  H14R 1358   2.314   3.366  15.186  1.6770  0.1276 -2.3497
   11DOPE  H14S 1359   2.390   3.512  15.264 -1.0071  1.7809 -0.8152
   11DOPE  C215 1360   2.295   3.530  15.056  0.9661  0.7140  0.0716
   11DOPE  H15R 1361   2.389   3.488  15.016  1.0910  0.7022  0.3782
   11DOPE  H15S 1362   2.295   3.641  15.047 -1.9027  0.9741  1.8216
   11DOPE  C216 1363   2.171   3.469  14.984 -0.0881  0.0037 -0.2449
   11DOPE  H16R 1364   2.079   3.529  15.001  1.6109  2.5819  0.3156
   11DOPE  H16S 1365   2.164   3.363  15.019  0.6620 -0.7146 -2.1505
   11DOPE  C217 1366   2.176   3.449  14.832  0.0767 -0.5528  0.3234
   11DOPE  H17R 1367   2.254   3.373  14.812  0.2635 -0.6880  1.5287
   11DOPE  H17S 1368   2.201   3.550  14.793 -0.4015  0.6194  2.8765
   11DOPE  C218 1369   2.039   3.406  14.771  0.1676 -0.2871  0.4013
   11DOPE  H18R 1370   2.043   3.380  14.663  1.0147 -0.0446  0.3722
   11DOPE  H18S 1371   1.963   3.486  14.786 -0.5212 -0.8220 -0.1659
   11DOPE  H18T 1372   2.012   3.311  14.822  0.4292 -0.9816 -0.7213
   11DOPE   C33 1373   1.560   3.694  16.340 -0.0680  0.1605  0.4360
   11DOPE   H3X 1374   1.492   3.606  16.331  0.7262 -0.3335 -1.1084
   11DOPE   H3Y 1375   1.659   3.659  16.377  1.1331  3.6272  0.8577
   11DOPE   C34 1376   1.584   3.747  16.197 -0.6589  0.0408 -0.1773
   11DOPE   H4X 1377   1.492   3.786  16.148 -1.0820  1.4408  1.6384
   11DOPE   H4Y 1378   1.649   3.837  16.208 -0.7376  0.4980 -2.7359
   11DOPE   C35 1379   1.667   3.631  16.127 -0.0950  0.3663 -0.7479
   11DOPE   H5X 1380   1.618   3.536  16.155  1.7642 -0.9752 -1.8330
   11DOPE   H5Y 1381   1.771   3.627  16.164  0.4481  1.4287 -2.0902
   11DOPE   C36 1382   1.673   3.646  15.976 -0.4041 -0.5232 -0.0036
   11DOPE   H6X 1383   1.756   3.581  15.940  1.9696  1.2980  1.8068
   11DOPE   H6Y 1384   1.711   3.750  15.967 -1.4026  0.0684  2.0641
   11DOPE   C37 1385   1.555   3.623  15.887  0.8095 -0.0587  0.1744
   11DOPE   H7X 1386   1.524   3.517  15.896 -0.8888  0.4371  0.5670
   11DOPE   H7Y 1387   1.463   3.666  15.930 -0.1528  0.3790 -2.1625
   11DOPE   C38 1388   1.557   3.659  15.740 -0.9857  0.3771 -0.0713
   11DOPE   H8X 1389   1.637   3.595  15.696 -1.3023 -0.9299  1.1588
   11DOPE   H8Y 1390   1.593   3.763  15.726  1.8595 -0.2672  1.6282
   11DOPE   C39 1391   1.421   3.646  15.669 -0.2052 -0.3388 -0.2410
   11DOPE   H9X 1392   1.337   3.649  15.741 -0.2730  0.3500 -0.3482
   11DOPE  C310 1393   1.403   3.629  15.535 -0.6087  1.1085 -0.2059
   11DOPE  H10X 1394   1.301   3.639  15.495 -0.7838 -0.1483 -0.1039
   11DOPE  C311 1395   1.514   3.596  15.434 -0.5907 -0.0154  0.0810
   11DOPE  H11X 1396   1.534   3.698  15.394 -1.2101  0.2911  0.5329
   11DOPE  H11Y 1397   1.607   3.551  15.475  0.6908  0.8592 -1.7131
   11DOPE  C312 1398   1.460   3.496  15.326 -0.1700 -0.4451  0.1753
   11DOPE  H12X 1399   1.448   3.395  15.370 -1.2171 -0.2980  0.2328
   11DOPE  H12Y 1400   1.551   3.501  15.261  1.5053  4.4791  2.3830
   11DOPE  C313 1401   1.344   3.550  15.244  0.2587  0.5378 -0.0744
   11DOPE  H13X 1402   1.252   3.515  15.296  0.3863  0.5323  0.1474
   11DOPE  H13Y 1403   1.345   3.661  15.239 -2.1272  0.5940 -0.3339
   11DOPE  C314 1404   1.336   3.503  15.097  0.1382 -0.3982  0.2935
   11DOPE  H14X 1405   1.316   3.394  15.105 -1.0599 -0.2725 -0.5413
   11DOPE  H14Y 1406   1.428   3.513  15.036 -0.4004 -0.6901 -0.5927
   11DOPE  C315 1407   1.228   3.575  15.017  0.2354  0.5384 -0.3038
   11DOPE  H15X 1408   1.135   3.595  15.074  0.5767  0.6822  0.2063
   11DOPE  H15Y 1409   1.203   3.512  14.929 -0.2877  2.4318 -1.5772
   11DOPE  C316 1410   1.286   3.705  14.959 -0.2200  0.1070  0.1161
   11DOPE  H16X 1411   1.386   3.687  14.913 -1.5076 -0.4827 -2.7009
   11DOPE  H16Y 1412   1.299   3.771  15.047  1.2460 -1.3676  1.0767
   11DOPE  C317 1413   1.197   3.781  14.858 -0.6743 -0.5696  0.4990
   11DOPE  H17X 1414   1.090   3.781  14.885 -0.8282  0.1434 -0.0753
   11DOPE  H17Y 1415   1.236   3.886  14.864  1.6998 -1.3496 -0.0895
   11DOPE  C318 1416   1.213   3.734  14.714 -0.2917 -0.4313 -0.2394
   11DOPE  H18X 1417   1.161   3.636  14.717  3.3167 -2.5346 -0.2669
   11DOPE  H18Y 1418   1.159   3.801  14.644 -1.4737  0.0762  1.0932
   11DOPE  H18Z 1419   1.320   3.719  14.691  0.2502  1.7143  0.5982
   12DOPE     N 1420   2.939   1.071  16.739 -0.4373  0.5150 -0.0218
   12DOPE   HN1 1421   2.905   0.992  16.798 -2.4809  0.5317 -1.0636
   12DOPE   HN2 1422   3.036   1.063  16.704 -0.0651  0.3318  1.0458
   12DOPE   HN3 1423   2.932   1.156  16.798 -1.2200  1.8731 -1.9366
   12DOPE   C12 1424   2.853   1.086  16.618  0.3743 -0.9958 -0.0321
   12DOPE  H12A 1425   2.870   1.010  16.539  0.6131  2.4360 -3.5914
   12DOPE  H12B 1426   2.885   1.184  16.575 -0.3326  0.1310  1.8942
   12DOPE   C11 1427   2.699   1.102  16.652 -0.0847  0.1039  0.4711
   12DOPE  H11A 1428   2.655   1.132  16.555  0.0187  1.7508  0.9180
   12DOPE  H11B 1429   2.687   1.184  16.725  1.7507 -0.1238  1.0779
   12DOPE     P 1430   2.513   0.991  16.780 -0.1230  0.1342 -0.2268
   12DOPE   O13 1431   2.438   1.114  16.756  0.0377  0.4459  0.1111
   12DOPE   O14 1432   2.558   0.974  16.926 -0.0418  1.2311 -0.4630
   12DOPE   O11 1433   2.423   0.880  16.727 -0.3861 -0.1446  0.1637
   12DOPE   O12 1434   2.643   0.967  16.694 -0.4957  0.3169  0.3316
   12DOPE    C1 1435   2.453   0.774  16.627  0.0722 -0.3941 -0.6131
   12DOPE    HA 1436   2.367   0.704  16.617  0.5671 -1.4199  1.7165
   12DOPE    HB 1437   2.547   0.723  16.654  0.7476  0.8689 -0.5283
   12DOPE    C2 1438   2.470   0.832  16.483 -0.1316  0.1959 -0.1539
   12DOPE    HS 1439   2.570   0.879  16.488 -1.2513  2.6253  0.7549
   12DOPE   O21 1440   2.372   0.930  16.451  0.3123 -0.2165 -0.2858
   12DOPE   C21 1441   2.428   1.037  16.390  0.4311 -0.1415  0.5418
   12DOPE   O22 1442   2.541   1.047  16.347  0.5071 -0.1714  0.2806
   12DOPE   C22 1443   2.318   1.134  16.372  0.6642 -0.3523  0.0616
   12DOPE   H2R 1444   2.353   1.233  16.336  0.0958 -0.4618 -0.8343
   12DOPE   H2S 1445   2.264   1.149  16.468 -1.5897 -2.7576 -0.6903
   12DOPE    C3 1446   2.454   0.708  16.390  0.0924  0.2626 -0.3148
   12DOPE    HX 1447   2.353   0.664  16.395  0.3485 -0.2434  0.7488
   12DOPE    HY 1448   2.524   0.632  16.431 -1.4632 -2.1750 -1.9448
   12DOPE   O31 1449   2.497   0.730  16.255 -0.0502 -0.4024  0.4629
   12DOPE   C31 1450   2.405   0.737  16.162 -0.3042  0.0526 -0.7377
   12DOPE   O32 1451   2.284   0.734  16.189  0.4163  0.1767 -0.2809
   12DOPE   C32 1452   2.458   0.755  16.022 -0.7042 -0.2405  0.1521
   12DOPE   H2X 1453   2.370   0.768  15.955 -1.6849  2.5428  1.8231
   12DOPE   H2Y 1454   2.529   0.842  16.023 -0.0741 -0.7493  1.1155
   12DOPE   C23 1455   2.210   1.080  16.267 -0.2658 -0.2446 -0.7324
   12DOPE   H3R 1456   2.120   1.142  16.286  0.9609  0.8493  2.0396
   12DOPE   H3S 1457   2.177   0.978  16.297  1.0524 -0.1357  1.2727
   12DOPE   C24 1458   2.254   1.090  16.125 -0.7690  0.3821  0.0297
   12DOPE   H4R 1459   2.327   1.007  16.108  0.7899  1.5698  0.6418
   12DOPE   H4S 1460   2.312   1.185  16.118 -0.3199  0.2511  1.7019
   12DOPE   C25 1461   2.150   1.080  16.015  0.1015 -0.1405 -1.2183
   12DOPE   H5R 1462   2.077   1.164  16.020 -0.0293 -0.2701  3.5190
   12DOPE   H5S 1463   2.078   0.997  16.031 -2.4691  2.3061  1.2341
   12DOPE   C26 1464   2.213   1.070  15.883  0.4896 -0.2543  0.3328
   12DOPE   H6R 1465   2.278   0.979  15.886 -1.0725 -1.3932  2.3370
   12DOPE   H6S 1466   2.288   1.150  15.864 -0.0254  0.1646  0.0629
   12DOPE   C27 1467   2.115   1.078  15.774  0.7845  0.1949  0.4914
   12DOPE   H7R 1468   2.082   1.183  15.758 -0.2974 -0.3125 -0.8720
   12DOPE   H7S 1469   2.025   1.017  15.794  1.1875 -0.4770  0.2646
   12DOPE   C28 1470   2.175   1.032  15.635 -0.2427  0.2586 -0.3486
   12DOPE   H8R 1471   2.103   1.040  15.551  1.6451  0.0683 -2.0661
   12DOPE   H8S 1472   2.201   0.925  15.649  1.5490  0.4318 -1.8960
   12DOPE   C29 1473   2.302   1.104  15.607 -0.3822 -0.0956  0.4688
   12DOPE   H9R 1474   2.397   1.076  15.655 -0.0876  2.1288  1.2862
   12DOPE  C210 1475   2.316   1.207  15.520 -0.0765 -0.4213  0.2352
   12DOPE  H10R 1476   2.412   1.258  15.507 -0.6397  0.7162  0.4474
   12DOPE  C211 1477   2.210   1.293  15.451  0.5982 -0.0522  0.4085
   12DOPE  H11R 1478   2.242   1.399  15.456  0.5191 -0.0161  0.1718
   12DOPE  H11S 1479   2.114   1.294  15.507 -0.8217  3.9322 -1.6747
   12DOPE  C212 1480   2.176   1.240  15.312  0.1256 -0.3154 -0.0509
   12DOPE  H12R 1481   2.102   1.306  15.262  1.2108 -0.8623 -2.5674
   12DOPE  H12S 1482   2.134   1.137  15.311 -0.2277 -0.1870 -1.4930
   12DOPE  C213 1483   2.301   1.238  15.221 -0.6582  0.2348 -0.0493
   12DOPE  H13R 1484   2.378   1.163  15.249 -1.3750 -1.2579 -1.8829
   12DOPE  H13S 1485   2.343   1.341  15.218 -1.5261  0.5808 -1.0825
   12DOPE  C214 1486   2.265   1.203  15.074 -0.2191 -0.5755 -0.9332
   12DOPE  H14R 1487   2.209   1.287  15.027 -2.3592 -0.7686  1.0965
   12DOPE  H14S 1488   2.219   1.104  15.052  2.6473 -1.6489 -2.6169
   12DOPE  C215 1489   2.388   1.189  14.981  0.1663 -0.5839 -0.3662
   12DOPE  H15R 1490   2.348   1.136  14.891 -1.8066 -0.6461  0.5064
   12DOPE  H15S 1491   2.446   1.110  15.033 -0.8941 -0.9871  0.2294
   12DOPE  C216 1492   2.468   1.314  14.949 -0.0423 -0.2449 -0.6874
   12DOPE  H16R 1493   2.556   1.329  15.016 -0.6248  2.1761 -0.3805
   12DOPE  H16S 1494   2.416   1.412  14.947  1.7599  0.7329 -2.4209
   12DOPE  C217 1495   2.538   1.294  14.816  0.0020  0.6612 -0.2118
   12DOPE  H17R 1496   2.582   1.192  14.821  1.1089  1.1507  0.3973
   12DOPE  H17S 1497   2.625   1.363  14.803  1.6482 -0.9798  1.4417
   12DOPE  C218 1498   2.448   1.313  14.690 -0.6161  0.4834 -0.3775
   12DOPE  H18R 1499   2.390   1.407  14.678 -0.3493  0.5118 -1.5509
   12DOPE  H18S 1500   2.382   1.224  14.693  0.9535 -0.6916  0.8235
   12DOPE  H18T 1501   2.511   1.294  14.600 -0.6063  1.0589 -0.5024
   12DOPE   C33 1502   2.520   0.630  15.960 -1.0665  0.1329  0.2958
   12DOPE   H3X 1503   2.443   0.550  15.952  0.6789 -1.8898  2.3841
   12DOPE   H3Y 1504   2.598   0.596  16.031 -1.4049  0.0035  0.6109
   12DOPE   C34 1505   2.588   0.656  15.830  0.3288  0.0774  0.1676
   12DOPE   H4X 1506   2.668   0.733  15.829 -0.3272  0.7805  0.2970
   12DOPE   H4Y 1507   2.632   0.556  15.811  0.8014  0.3663 -0.2733
   12DOPE   C35 1508   2.483   0.685  15.716  0.1004  0.4354  0.1679
   12DOPE   H5X 1509   2.425   0.776  15.740 -1.6879 -0.6997  0.3264
   12DOPE   H5Y 1510   2.403   0.608  15.718 -0.7686  1.2595 -1.1033
   12DOPE   C36 1511   2.542   0.696  15.572 -0.4646 -0.7308  0.4182
   12DOPE   H6X 1512   2.590   0.600  15.544 -0.0133 -0.5930  0.6960
   12DOPE   H6Y 1513   2.617   0.777  15.585  0.5739 -1.7811  1.1706
   12DOPE   C37 1514   2.435   0.734  15.472 -0.6158 -0.8464  0.5373
   12DOPE   H7X 1515   2.379   0.645  15.435 -2.2689  0.7247 -0.9544
   12DOPE   H7Y 1516   2.368   0.800  15.532  0.8202  0.9064  0.3096
   12DOPE   C38 1517   2.490   0.817  15.348  0.7169 -0.5028  0.1736
   12DOPE   H8X 1518   2.568   0.748  15.311 -0.4218 -0.8299 -1.7511
   12DOPE   H8Y 1519   2.535   0.907  15.395  1.0671 -0.5521 -0.0664
   12DOPE   C39 1520   2.386   0.842  15.245  0.0865 -0.4366  0.5297
   12DOPE   H9X 1521   2.304   0.912  15.269 -0.8560 -0.8107 -1.3992
   12DOPE  C310 1522   2.392   0.813  15.115 -1.1596 -0.2362  0.0207
   12DOPE  H10X 1523   2.309   0.840  15.049  1.1565  1.0899 -2.5732
   12DOPE  C311 1524   2.500   0.735  15.046 -0.4617 -0.0636 -0.1006
   12DOPE  H11X 1525   2.600   0.740  15.094 -0.3908 -2.1255  0.0427
   12DOPE  H11Y 1526   2.480   0.627  15.038  3.7377 -0.9722 -1.0621
   12DOPE  C312 1527   2.501   0.801  14.907  0.8450 -0.1425 -0.4179
   12DOPE  H12X 1528   2.514   0.912  14.910 -2.8882  0.3768  1.9711
   12DOPE  H12Y 1529   2.406   0.793  14.850  0.3257 -0.3564  0.4636
   12DOPE  C313 1530   2.625   0.744  14.840  0.1799  0.3764  0.3894
   12DOPE  H13X 1531   2.711   0.785  14.897 -0.3635  2.8159 -0.4117
   12DOPE  H13Y 1532   2.628   0.633  14.837 -1.8549  0.2802 -2.5156
   12DOPE  C314 1533   2.631   0.807  14.701 -0.3446 -0.5415 -0.0068
   12DOPE  H14X 1534   2.660   0.914  14.704  0.0473 -0.6334 -0.4277
   12DOPE  H14Y 1535   2.538   0.775  14.647 -0.2842 -0.3262 -0.2409
   12DOPE  C315 1536   2.740   0.744  14.604  0.4772  0.0828 -1.0871
   12DOPE  H15X 1537   2.762   0.639  14.633  0.4966  0.0567 -1.1974
   12DOPE  H15Y 1538   2.831   0.808  14.604  0.1425  0.5657 -2.1107
   12DOPE  C316 1539   2.683   0.743  14.459  0.0367  0.3750 -0.1338
   12DOPE  H16X 1540   2.666   0.849  14.430 -0.6171  1.1929  2.8354
   12DOPE  H16Y 1541   2.589   0.684  14.450  0.2927  0.0543 -0.7460
   12DOPE  C317 1542   2.783   0.672  14.360 -0.0483  0.7606  0.5939
   12DOPE  H17X 1543   2.863   0.745  14.334 -1.8099  2.3994 -0.5027
   12DOPE  H17Y 1544   2.821   0.573  14.392 -0.4043  0.4438  0.0564
   12DOPE  C318 1545   2.714   0.642  14.221 -0.7199  0.1970 -0.0396
   12DOPE  H18X 1546   2.674   0.730  14.164 -1.0977  0.9275  1.3051
   12DOPE  H18Y 1547   2.791   0.591  14.159 -0.9098  0.3727 -0.4290
   12DOPE  H18Z 1548   2.626   0.575  14.229 -0.4003 -0.2151 -0.0046
   13DOPE     N 1549   1.678   3.178  16.869 -0.2697 -0.0933  0.1905
   13DOPE   HN1 1550   1.714   3.272  16.895  3.2965 -1.1880 -0.2552
   13DOPE   HN2 1551   1.753   3.121  16.826  0.6300  2.4723 -1.9670
   13DOPE   HN3 1552   1.619   3.198  16.785  0.8594 -1.7046 -1.0458
   13DOPE   C12 1553   1.594   3.122  16.982 -0.7452 -0.6353  0.5143
   13DOPE  H12A 1554   1.531   3.039  16.946  0.7982 -0.6889 -2.3345
   13DOPE  H12B 1555   1.536   3.205  17.028  0.2607  0.9095 -0.9071
   13DOPE   C11 1556   1.697   3.060  17.085 -0.5895  0.0007  0.0651
   13DOPE  H11A 1557   1.651   3.046  17.186 -0.0983 -2.6545 -0.0010
   13DOPE  H11B 1558   1.786   3.124  17.098  0.3481 -1.4009  0.8178
   13DOPE     P 1559   1.842   2.877  16.950  0.3916  0.0529 -0.3185
   13DOPE   O13 1560   1.865   2.730  16.964 -0.3135 -0.0009 -0.1917
   13DOPE   O14 1561   1.956   2.965  16.965 -0.1235  0.2814 -0.3922
   13DOPE   O11 1562   1.768   2.913  16.815  0.0647 -0.4040  0.0241
   13DOPE   O12 1563   1.739   2.930  17.055  0.5193 -0.4834 -0.1631
   13DOPE    C1 1564   1.673   2.831  16.752  0.1321 -0.2859 -0.2933
   13DOPE    HA 1565   1.570   2.858  16.784  0.0883  2.3427 -2.3535
   13DOPE    HB 1566   1.691   2.723  16.770  1.4484  0.1580  1.4182
   13DOPE    C2 1567   1.690   2.837  16.596  0.1777 -0.4271 -0.2034
   13DOPE    HS 1568   1.796   2.815  16.570 -0.2929 -0.7798 -2.0149
   13DOPE   O21 1569   1.645   2.970  16.554  0.2030  0.6618 -0.3554
   13DOPE   C21 1570   1.703   3.007  16.442 -0.8477  0.6528 -0.0812
   13DOPE   O22 1571   1.779   2.940  16.372  0.4575  0.4167 -0.1483
   13DOPE   C22 1572   1.653   3.142  16.400 -0.5129 -0.9979 -0.3822
   13DOPE   H2R 1573   1.676   3.210  16.485 -1.6847 -0.2218 -0.6689
   13DOPE   H2S 1574   1.546   3.140  16.371 -0.1314  0.0942 -1.9904
   13DOPE    C3 1575   1.603   2.729  16.529 -0.7498 -0.3369 -0.2805
   13DOPE    HX 1576   1.500   2.749  16.566 -0.2316  0.3053  0.8454
   13DOPE    HY 1577   1.638   2.632  16.570  1.1580  0.3183 -0.2737
   13DOPE   O31 1578   1.599   2.728  16.388  0.5098 -0.3123 -0.2946
   13DOPE   C31 1579   1.701   2.667  16.330  0.1646  0.9158 -0.9163
   13DOPE   O32 1580   1.789   2.607  16.389  0.2614 -0.1249 -0.1877
   13DOPE   C32 1581   1.696   2.687  16.173  0.2817  0.1268 -0.5135
   13DOPE   H2X 1582   1.608   2.633  16.133  0.4791 -0.3277 -0.3440
   13DOPE   H2Y 1583   1.682   2.797  16.160 -0.5090  0.4359  2.2268
   13DOPE   C23 1584   1.725   3.197  16.270 -1.1961  0.0128  0.2721
   13DOPE   H3R 1585   1.835   3.183  16.282 -1.2539  0.4565  1.4557
   13DOPE   H3S 1586   1.703   3.305  16.252  1.3568  1.1410  3.0208
   13DOPE   C24 1587   1.679   3.119  16.151 -0.2761  0.3564  0.4708
   13DOPE   H4R 1588   1.570   3.098  16.142  0.0441 -4.1458  3.6214
   13DOPE   H4S 1589   1.711   3.014  16.167 -2.1029 -0.7834 -2.4843
   13DOPE   C25 1590   1.746   3.174  16.018  0.0443 -0.3316 -0.2612
   13DOPE   H5R 1591   1.856   3.156  16.014 -0.2364 -2.4301  0.3450
   13DOPE   H5S 1592   1.732   3.284  16.010  3.0692  0.0808 -1.2281
   13DOPE   C26 1593   1.686   3.110  15.888 -0.0272  0.2806  0.9248
   13DOPE   H6R 1594   1.581   3.144  15.873 -0.4848 -1.1580  0.7063
   13DOPE   H6S 1595   1.687   3.000  15.903 -0.4305 -0.0518 -1.1594
   13DOPE   C27 1596   1.774   3.131  15.765 -0.2776  0.0669 -0.7800
   13DOPE   H7R 1597   1.871   3.079  15.783  1.1561  2.9205  0.3112
   13DOPE   H7S 1598   1.793   3.240  15.760 -1.4739  0.6906  3.8026
   13DOPE   C28 1599   1.720   3.079  15.630 -0.0165 -0.4052 -0.0247
   13DOPE   H8R 1600   1.644   3.153  15.598  0.6620  0.7948  1.0271
   13DOPE   H8S 1601   1.662   2.986  15.649 -2.0220  0.8294  0.2863
   13DOPE   C29 1602   1.824   3.048  15.521  0.2388 -0.1078  0.4518
   13DOPE   H9R 1603   1.900   2.971  15.541  2.7356  1.8069 -0.9744
   13DOPE  C210 1604   1.832   3.107  15.403 -0.0251 -0.6054 -0.1264
   13DOPE  H10R 1605   1.912   3.091  15.330  2.1724  2.4328  1.3714
   13DOPE  C211 1606   1.758   3.239  15.364 -0.3554  0.5507 -0.7375
   13DOPE  H11R 1607   1.786   3.328  15.424 -0.0888 -0.1518  0.2161
   13DOPE  H11S 1608   1.652   3.220  15.395  0.5479 -0.1820  2.2298
   13DOPE  C212 1609   1.772   3.282  15.219 -0.0795 -0.6715  0.8558
   13DOPE  H12R 1610   1.877   3.273  15.184  0.1997  3.4482  0.1934
   13DOPE  H12S 1611   1.755   3.391  15.226 -3.0421 -1.0917  1.9523
   13DOPE  C213 1612   1.681   3.224  15.119  0.6127  0.3898 -0.2024
   13DOPE  H13R 1613   1.579   3.233  15.161 -0.2758  0.8906 -2.3233
   13DOPE  H13S 1614   1.706   3.123  15.079 -0.7198  0.4367 -1.2513
   13DOPE  C214 1615   1.672   3.303  14.990  0.1184 -0.1574  0.8214
   13DOPE  H14R 1616   1.764   3.281  14.932  0.5118 -0.7174  1.6253
   13DOPE  H14S 1617   1.671   3.413  15.004 -0.3440 -0.0502 -0.0217
   13DOPE  C215 1618   1.559   3.273  14.890  0.1042  0.3100  0.0675
   13DOPE  H15R 1619   1.467   3.312  14.937  0.3095  0.5591  0.2646
   13DOPE  H15S 1620   1.552   3.162  14.885 -2.7318  0.3536  1.3914
   13DOPE  C216 1621   1.595   3.312  14.745  0.2592  0.0802 -0.1063
   13DOPE  H16R 1622   1.690   3.260  14.723  2.2007  2.2292  2.3605
   13DOPE  H16S 1623   1.610   3.422  14.745 -0.4946  0.1916 -0.2241
   13DOPE  C217 1624   1.499   3.274  14.640  0.0517  0.1262 -0.5152
   13DOPE  H17R 1625   1.529   3.325  14.546  3.8793  3.6206  2.2728
   13DOPE  H17S 1626   1.408   3.331  14.670  1.4439  2.6116 -0.7607
   13DOPE  C218 1627   1.464   3.125  14.622 -0.2695  0.3643 -0.0716
   13DOPE  H18R 1628   1.558   3.068  14.606  1.9381  3.5668  0.3504
   13DOPE  H18S 1629   1.419   3.111  14.521  2.3815  3.9997 -2.0321
   13DOPE  H18T 1630   1.414   3.090  14.714  1.1770  0.2796  0.7118
   13DOPE   C33 1631   1.827   2.646  16.098  0.2981 -0.1983  0.0753
   13DOPE   H3X 1632   1.848   2.539  16.120  0.6221 -0.0723  0.3884
   13DOPE   H3Y 1633   1.916   2.694  16.144  0.6096 -1.9563  1.4362
   13DOPE   C34 1634   1.824   2.670  15.939 -0.1720  0.1351  0.3183
   13DOPE   H4X 1635   1.777   2.770  15.926  0.0475 -0.1310 -3.6572
   13DOPE   H4Y 1636   1.932   2.672  15.914 -0.2719  1.1440 -0.0743
   13DOPE   C35 1637   1.755   2.557  15.863  0.3760  0.5498  0.0355
   13DOPE   H5X 1638   1.650   2.564  15.898  0.9467  0.2002  1.9348
   13DOPE   H5Y 1639   1.799   2.461  15.899  1.1356  0.7753 -0.2670
   13DOPE   C36 1640   1.751   2.580  15.712  0.8144  0.0718  1.1117
   13DOPE   H6X 1641   1.728   2.687  15.691  1.5172  0.0919  0.3756
   13DOPE   H6Y 1642   1.659   2.530  15.674  0.0942  1.6032  0.7395
   13DOPE   C37 1643   1.883   2.540  15.637 -0.0552  0.8028 -0.6510
   13DOPE   H7X 1644   1.962   2.604  15.681  0.7084  0.0856 -0.9665
   13DOPE   H7Y 1645   1.907   2.440  15.677  1.0663  1.3612  0.1235
   13DOPE   C38 1646   1.867   2.541  15.491 -0.3040  0.4484  0.2140
   13DOPE   H8X 1647   1.794   2.459  15.472 -0.1690  0.4858 -0.5018
   13DOPE   H8Y 1648   1.961   2.512  15.440 -0.6432  0.3585 -0.3756
   13DOPE   C39 1649   1.816   2.675  15.444 -0.6712  0.5444 -0.6805
   13DOPE   H9X 1650   1.831   2.762  15.510 -0.9843 -2.0563  3.1427
   13DOPE  C310 1651   1.743   2.695  15.338 -0.3994  0.3441  0.1683
   13DOPE  H10X 1652   1.701   2.795  15.318  0.2224  0.7767  0.9574
   13DOPE  C311 1653   1.705   2.586  15.248 -0.0043  0.4368 -0.0920
   13DOPE  H11X 1654   1.701   2.486  15.295  1.7641 -0.3258 -1.4251
   13DOPE  H11Y 1655   1.614   2.613  15.191 -0.4252 -0.3518  0.1919
   13DOPE  C312 1656   1.825   2.563  15.154  0.4283  0.4496 -0.4545
   13DOPE  H12X 1657   1.917   2.536  15.209 -0.0783  0.2985  0.3277
   13DOPE  H12Y 1658   1.856   2.660  15.111  3.2744 -0.1635  0.0629
   13DOPE  C313 1659   1.808   2.478  15.032 -0.4475 -0.4464  0.1927
   13DOPE  H13X 1660   1.770   2.379  15.067  0.6917 -1.1244 -0.4497
   13DOPE  H13Y 1661   1.743   2.530  14.959 -0.7190  0.2975  0.9415
   13DOPE  C314 1662   1.939   2.477  14.951 -0.1840 -0.4470 -0.6857
   13DOPE  H14X 1663   2.027   2.469  15.019 -1.1151 -0.2497  0.5804
   13DOPE  H14Y 1664   1.949   2.575  14.899  0.2652  0.5791  1.2529
   13DOPE  C315 1665   1.951   2.359  14.855 -0.8034 -0.0527  0.2108
   13DOPE  H15X 1666   1.932   2.268  14.917 -0.0381  1.4842  2.8483
   13DOPE  H15Y 1667   2.059   2.348  14.834 -0.3572 -1.2741  2.7025
   13DOPE  C316 1668   1.859   2.368  14.732  1.2859  0.0581  0.3902
   13DOPE  H16X 1669   1.884   2.464  14.682  0.5999 -0.1912 -0.4517
   13DOPE  H16Y 1670   1.754   2.378  14.767  2.0548 -0.9609  3.2930
   13DOPE  C317 1671   1.866   2.262  14.624  0.3805  0.5558 -0.1720
   13DOPE  H17X 1672   1.812   2.175  14.668  1.4764  1.0334  2.2763
   13DOPE  H17Y 1673   1.815   2.285  14.528 -2.1980 -1.1538  0.6695
   13DOPE  C318 1674   2.007   2.199  14.593 -0.5653 -0.4364  0.2900
   13DOPE  H18X 1675   2.073   2.260  14.528  0.9452 -4.0926 -1.8698
   13DOPE  H18Y 1676   2.067   2.197  14.687 -0.0286  1.1299  0.0198
   13DOPE  H18Z 1677   1.999   2.104  14.536 -0.5410  0.2933 -0.9677
   14DOPE     N 1678   5.318   4.996  16.635 -0.2535  0.7495 -0.3879
   14DOPE   HN1 1679   5.249   5.044  16.697  1.5711  2.0084  0.7480
   14DOPE   HN2 1680   5.308   5.029  16.537 -0.8735 -2.2366 -1.4355
   14DOPE   HN3 1681   5.300   4.894  16.640  2.4640  0.2014 -0.2616
   14DOPE   C12 1682   5.449   5.024  16.699  0.2948 -0.5137  0.7382
   14DOPE  H12A 1683   5.530   4.957  16.662  0.3400  0.7465 -1.6630
   14DOPE  H12B 1684   5.427   5.022  16.808 -0.4062  0.6223  0.6370
   14DOPE   C11 1685   5.501   5.168  16.655 -0.3590  0.0872 -0.0738
   14DOPE  H11A 1686   5.514   5.157  16.546  0.5117 -0.9031  0.1139
   14DOPE  H11B 1687   5.599   5.172  16.707 -1.0682  1.0892  1.2650
   14DOPE     P 1688   5.462   5.426  16.665  0.1324  0.3982  0.0637
   14DOPE   O13 1689   5.607   5.431  16.703 -0.4454 -0.0522 -0.1253
   14DOPE   O14 1690   5.369   5.510  16.739  1.1162  0.1933  0.2130
   14DOPE   O11 1691   5.439   5.436  16.507  0.3974 -0.0821 -0.1407
   14DOPE   O12 1692   5.412   5.274  16.693 -0.5013 -0.4793 -0.5743
   14DOPE    C1 1693   5.308   5.425  16.458 -0.6403  0.5681 -0.4742
   14DOPE    HA 1694   5.231   5.467  16.526 -0.3368 -1.9340  1.5840
   14DOPE    HB 1695   5.278   5.319  16.445 -0.7730  0.6559 -0.8803
   14DOPE    C2 1696   5.299   5.495  16.322 -0.1720  0.4535 -0.5067
   14DOPE    HS 1697   5.196   5.474  16.286 -0.6187 -1.3984  1.6325
   14DOPE   O21 1698   5.405   5.447  16.240  0.0645 -0.1509 -0.0885
   14DOPE   C21 1699   5.388   5.324  16.185  0.0629 -0.1178  0.3376
   14DOPE   O22 1700   5.294   5.250  16.197  0.5721  0.3008 -0.2345
   14DOPE   C22 1701   5.516   5.290  16.109  0.7663  0.3217  0.1193
   14DOPE   H2R 1702   5.505   5.215  16.028 -0.3534  1.2412 -0.6189
   14DOPE   H2S 1703   5.565   5.233  16.191 -1.7559 -1.2079  0.6540
   14DOPE    C3 1704   5.311   5.651  16.320  0.4981  0.2447 -0.0758
   14DOPE    HX 1705   5.416   5.669  16.352  0.1788  0.7333  0.7380
   14DOPE    HY 1706   5.245   5.706  16.391  0.3940  0.3867 -0.2816
   14DOPE   O31 1707   5.302   5.715  16.185 -0.4421  0.4084 -0.3156
   14DOPE   C31 1708   5.183   5.723  16.120  0.5490  0.3333  0.0687
   14DOPE   O32 1709   5.079   5.700  16.178 -0.2798  0.4271 -0.0932
   14DOPE   C32 1710   5.199   5.762  15.974 -0.5767 -0.0155 -0.0423
   14DOPE   H2X 1711   5.272   5.845  15.983  0.5102 -0.9865  0.4014
   14DOPE   H2Y 1712   5.258   5.679  15.930 -0.0452 -0.2422  1.0720
   14DOPE   C23 1713   5.604   5.411  16.067 -0.3588  0.6629  0.1647
   14DOPE   H3R 1714   5.703   5.370  16.038  0.5068  1.8254  1.3446
   14DOPE   H3S 1715   5.636   5.478  16.149  0.4726 -0.2360  0.5973
   14DOPE   C24 1716   5.551   5.490  15.951  0.2991  0.2534 -0.1204
   14DOPE   H4R 1717   5.630   5.560  15.914  0.6508  0.2676  0.6446
   14DOPE   H4S 1718   5.474   5.556  15.996  2.0791  0.4788  2.8528
   14DOPE   C25 1719   5.511   5.401  15.834 -0.2143  0.1885  0.1647
   14DOPE   H5R 1720   5.418   5.349  15.864  0.7220 -0.6627  1.7664
   14DOPE   H5S 1721   5.591   5.326  15.820 -0.1136  0.3118  0.0810
   14DOPE   C26 1722   5.492   5.483  15.701  0.5035 -0.2248  0.3024
   14DOPE   H6R 1723   5.592   5.524  15.673  0.7674 -0.3887  0.9800
   14DOPE   H6S 1724   5.423   5.564  15.733 -2.0488 -1.9296 -0.5911
   14DOPE   C27 1725   5.419   5.402  15.593 -0.1996  0.2417 -0.5406
   14DOPE   H7R 1726   5.314   5.376  15.619  0.1492 -1.9160 -1.0798
   14DOPE   H7S 1727   5.463   5.302  15.573 -1.1348 -0.2387 -0.2611
   14DOPE   C28 1728   5.404   5.475  15.453 -0.3663 -0.2644 -0.7228
   14DOPE   H8R 1729   5.509   5.481  15.416 -0.2762  0.3373 -0.3906
   14DOPE   H8S 1730   5.370   5.579  15.469  0.9513 -0.2607  3.1042
   14DOPE   C29 1731   5.329   5.387  15.359  0.2318 -0.7394 -0.6465
   14DOPE   H9R 1732   5.348   5.280  15.375  2.3016 -0.5824 -1.7361
   14DOPE  C210 1733   5.260   5.418  15.245 -0.0187  1.3186  0.0177
   14DOPE  H10R 1734   5.191   5.348  15.196  1.5718 -0.1784 -0.1966
   14DOPE  C211 1735   5.245   5.562  15.199  0.3124 -0.0740  0.7958
   14DOPE  H11R 1736   5.275   5.640  15.273  1.7405  0.8567 -0.7034
   14DOPE  H11S 1737   5.137   5.582  15.183  0.4066 -0.8228 -0.9840
   14DOPE  C212 1738   5.326   5.595  15.074 -0.6060 -0.0840  0.5229
   14DOPE  H12R 1739   5.434   5.583  15.098 -0.1165 -0.3725 -1.5868
   14DOPE  H12S 1740   5.321   5.705  15.058 -2.8695 -0.4925 -2.6246
   14DOPE  C213 1741   5.295   5.512  14.945 -0.1391 -0.1226 -0.1864
   14DOPE  H13R 1742   5.185   5.513  14.926 -0.8436 -1.2762  3.1115
   14DOPE  H13S 1743   5.327   5.407  14.957  0.5358  0.1690  0.6359
   14DOPE  C214 1744   5.371   5.560  14.826 -0.0440  0.1742  0.6928
   14DOPE  H14R 1745   5.477   5.571  14.857 -0.5315  1.5073  2.0340
   14DOPE  H14S 1746   5.339   5.665  14.806 -3.0301 -0.7582  0.0623
   14DOPE  C215 1747   5.343   5.474  14.699 -0.0387 -0.3377  0.8777
   14DOPE  H15R 1748   5.348   5.368  14.729 -0.4752 -0.0533  2.0250
   14DOPE  H15S 1749   5.433   5.478  14.634  1.2969 -1.1087  2.6133
   14DOPE  C216 1750   5.208   5.511  14.620 -0.2715  0.3753 -0.5977
   14DOPE  H16R 1751   5.126   5.512  14.695  0.8900 -1.8045  0.8195
   14DOPE  H16S 1752   5.185   5.430  14.548  3.5338 -1.4156 -0.0088
   14DOPE  C217 1753   5.233   5.633  14.537 -0.7625  0.6080 -0.1201
   14DOPE  H17R 1754   5.254   5.724  14.598  0.2538  1.5562 -1.8053
   14DOPE  H17S 1755   5.134   5.654  14.490 -1.1049  1.7375  1.0405
   14DOPE  C218 1756   5.344   5.623  14.433 -0.5773  0.0244  0.1616
   14DOPE  H18R 1757   5.315   5.555  14.350  0.4599  0.4924 -0.5972
   14DOPE  H18S 1758   5.437   5.608  14.491  0.1235  1.6580 -0.4801
   14DOPE  H18T 1759   5.358   5.724  14.391  2.2730 -0.2103  0.3865
   14DOPE   C33 1760   5.075   5.814  15.907  0.7609  0.4936 -0.3337
   14DOPE   H3X 1761   5.033   5.907  15.951 -1.7749 -0.1235 -1.2563
   14DOPE   H3Y 1762   4.996   5.737  15.916  1.5901 -0.1580  2.0053
   14DOPE   C34 1763   5.090   5.834  15.756 -0.0874  0.1833 -0.7698
   14DOPE   H4X 1764   5.181   5.894  15.738 -0.1433  0.9111  1.0804
   14DOPE   H4Y 1765   5.101   5.733  15.713  0.4717 -0.5372  0.9801
   14DOPE   C35 1766   4.966   5.902  15.693  0.3709  0.1695  0.1802
   14DOPE   H5X 1767   4.952   6.010  15.715  2.3875  0.1357  1.9857
   14DOPE   H5Y 1768   4.877   5.846  15.730 -0.1582 -0.8401 -2.4376
   14DOPE   C36 1769   4.973   5.886  15.541 -0.7338  0.4301 -0.7670
   14DOPE   H6X 1770   4.957   5.776  15.538 -1.9008  0.5491  0.0812
   14DOPE   H6Y 1771   5.075   5.920  15.513 -1.2008  0.6500 -2.2796
   14DOPE   C37 1772   4.865   5.942  15.452 -0.0641 -0.2762  0.5322
   14DOPE   H7X 1773   4.765   5.931  15.499 -0.2353  0.3960  0.3389
   14DOPE   H7Y 1774   4.887   6.050  15.441 -0.9532 -0.2854 -2.0692
   14DOPE   C38 1775   4.851   5.878  15.312  0.2738  0.4449  0.7155
   14DOPE   H8X 1776   4.765   5.935  15.270  0.3754 -0.8347 -1.3892
   14DOPE   H8Y 1777   4.832   5.768  15.308 -2.5029  0.7944  1.7042
   14DOPE   C39 1778   4.971   5.899  15.226  0.0948  0.6397 -0.5182
   14DOPE   H9X 1779   5.049   5.956  15.278  0.6559 -1.4611  1.0817
   14DOPE  C310 1780   4.984   5.866  15.096  0.5186  0.0764 -0.4670
   14DOPE  H10X 1781   5.084   5.872  15.050  0.6505  0.2508 -0.1570
   14DOPE  C311 1782   4.895   5.792  15.002  0.0582 -0.5868 -0.2296
   14DOPE  H11X 1783   4.960   5.704  14.980 -0.1716 -0.9169  0.3904
   14DOPE  H11Y 1784   4.809   5.751  15.059  0.9992  0.3364  1.9790
   14DOPE  C312 1785   4.852   5.868  14.877 -0.4859  0.6114 -0.1552
   14DOPE  H12X 1786   4.939   5.926  14.839 -1.1564  0.0606 -2.6651
   14DOPE  H12Y 1787   4.777   5.947  14.900 -0.5460  1.5202 -3.0871
   14DOPE  C313 1788   4.807   5.766  14.764  0.5967  0.2090  0.2013
   14DOPE  H13X 1789   4.884   5.687  14.746 -0.7059 -1.0797  0.1484
   14DOPE  H13Y 1790   4.719   5.709  14.801 -0.5523  0.9735 -1.2632
   14DOPE  C314 1791   4.771   5.844  14.642  0.3846 -0.0830 -0.6380
   14DOPE  H14X 1792   4.693   5.916  14.677  2.0819  0.7147  1.8348
   14DOPE  H14Y 1793   4.728   5.766  14.576 -0.6054 -0.0592 -0.0364
   14DOPE  C315 1794   4.887   5.916  14.569  0.8418 -0.1527 -0.3260
   14DOPE  H15X 1795   4.962   5.834  14.565 -1.2413 -2.2715  1.0100
   14DOPE  H15Y 1796   4.926   5.998  14.632 -1.7474  0.1071  1.0674
   14DOPE  C316 1797   4.845   5.963  14.432 -0.5271 -0.0441  0.5015
   14DOPE  H16X 1798   4.782   6.053  14.448  0.7255  0.7312  1.2566
   14DOPE  H16Y 1799   4.779   5.894  14.375  0.8876 -1.8291  0.9442
   14DOPE  C317 1800   4.972   6.013  14.350  0.3599  0.5686 -0.6116
   14DOPE  H17X 1801   5.032   5.919  14.342  1.7208  1.3413  0.0371
   14DOPE  H17Y 1802   4.946   6.048  14.248  0.2094 -2.3093 -1.6574
   14DOPE  C318 1803   5.053   6.120  14.429 -0.3171 -0.8781 -0.0337
   14DOPE  H18X 1804   5.133   6.158  14.363 -0.9178 -0.4047 -0.5016
   14DOPE  H18Y 1805   4.989   6.209  14.445  0.4293 -0.4802  0.8297
   14DOPE  H18Z 1806   5.104   6.070  14.515  0.0939 -2.7840 -1.3257
   15DOPE     N 1807   6.449   3.889  16.984  0.0777  0.2839  0.1927
   15DOPE   HN1 1808   6.428   3.989  17.000 -1.5487 -0.1833  1.1888
   15DOPE   HN2 1809   6.362   3.832  16.979  0.9653 -1.0302 -1.6366
   15DOPE   HN3 1810   6.516   3.856  17.056 -0.2738  3.6322  2.2212
   15DOPE   C12 1811   6.515   3.876  16.845 -0.0352  0.5982  0.2135
   15DOPE  H12A 1812   6.441   3.887  16.763 -0.9679 -1.8564  0.6115
   15DOPE  H12B 1813   6.551   3.771  16.856  1.7036  0.9234 -1.7550
   15DOPE   C11 1814   6.630   3.974  16.833  0.4407 -0.2163 -0.2154
   15DOPE  H11A 1815   6.589   4.076  16.850  0.4125 -0.3012  0.2327
   15DOPE  H11B 1816   6.663   3.989  16.728 -0.9005  2.7244 -0.3181
   15DOPE     P 1817   6.884   3.988  16.895 -0.1847  0.1995 -0.2109
   15DOPE   O13 1818   6.961   3.897  16.976  0.4363 -0.0856  0.2396
   15DOPE   O14 1819   6.907   4.137  16.911  0.7474  0.2062 -0.0369
   15DOPE   O11 1820   6.905   3.946  16.742  0.3156  0.4629  0.0446
   15DOPE   O12 1821   6.737   3.943  16.919  0.6898 -0.1223 -0.0258
   15DOPE    C1 1822   6.924   3.806  16.717  0.5513  0.2800  0.0250
   15DOPE    HA 1823   6.848   3.744  16.768 -1.5037  1.0202 -1.9664
   15DOPE    HB 1824   7.024   3.769  16.748  0.0724  0.9305  2.5380
   15DOPE    C2 1825   6.910   3.778  16.560  0.7181  0.2898  0.6716
   15DOPE    HS 1826   6.910   3.667  16.547 -1.7840  0.2447  0.5762
   15DOPE   O21 1827   7.024   3.823  16.482  0.5241  0.2786  0.1929
   15DOPE   C21 1828   7.136   3.750  16.494 -0.1940 -0.3185  0.1585
   15DOPE   O22 1829   7.153   3.649  16.565 -0.0935 -0.8311  0.4943
   15DOPE   C22 1830   7.244   3.804  16.401  0.4491  0.0309 -0.0285
   15DOPE   H2R 1831   7.330   3.816  16.471 -0.9610  1.2197  1.5564
   15DOPE   H2S 1832   7.208   3.900  16.360  1.5880 -1.0083 -3.9250
   15DOPE    C3 1833   6.774   3.832  16.501 -0.7542 -0.0542  0.4520
   15DOPE    HX 1834   6.767   3.938  16.533  2.9643 -0.0307  1.5349
   15DOPE    HY 1835   6.703   3.758  16.545 -0.9497 -1.3686 -1.8834
   15DOPE   O31 1836   6.751   3.824  16.360 -0.2511 -0.1515 -0.3408
   15DOPE   C31 1837   6.811   3.924  16.278  0.0691 -0.7323 -0.2023
   15DOPE   O32 1838   6.861   4.027  16.317 -0.1411  0.2395 -0.7046
   15DOPE   C32 1839   6.791   3.876  16.138  0.5961 -0.2221  0.2270
   15DOPE   H2X 1840   6.862   3.793  16.116 -3.4605 -3.8802 -0.5124
   15DOPE   H2Y 1841   6.693   3.823  16.137  0.1290  0.5348  1.8228
   15DOPE   C23 1842   7.275   3.709  16.282 -0.3918  0.8367 -0.4756
   15DOPE   H3R 1843   7.277   3.606  16.324 -0.5938  0.3674 -1.5729
   15DOPE   H3S 1844   7.376   3.718  16.237  0.0707 -1.9502 -0.2112
   15DOPE   C24 1845   7.173   3.732  16.175 -0.6252 -0.3786 -0.1432
   15DOPE   H4R 1846   7.181   3.836  16.136 -0.0665 -0.5245 -0.4247
   15DOPE   H4S 1847   7.071   3.709  16.213 -0.7906  0.4934 -0.0340
   15DOPE   C25 1848   7.214   3.649  16.051 -0.2408  0.1920  0.3001
   15DOPE   H5R 1849   7.212   3.538  16.060 -1.0060 -0.3388 -4.1266
   15DOPE   H5S 1850   7.310   3.682  16.007 -1.5786  0.1412 -2.9201
   15DOPE   C26 1851   7.115   3.674  15.935  0.6578 -0.3286 -0.4418
   15DOPE   H6R 1852   7.135   3.780  15.907  1.6697 -0.8465 -1.7424
   15DOPE   H6S 1853   7.016   3.656  15.983  0.9496  1.5334  1.0043
   15DOPE   C27 1854   7.128   3.584  15.821 -0.2003 -0.2525  0.2293
   15DOPE   H7R 1855   7.094   3.480  15.843 -1.5134  0.1123 -0.0078
   15DOPE   H7S 1856   7.234   3.588  15.787 -0.8747 -0.1506 -2.0053
   15DOPE   C28 1857   7.038   3.634  15.704  0.1234  0.2605  0.0687
   15DOPE   H8R 1858   7.049   3.744  15.711  1.2086  0.2609 -1.1574
   15DOPE   H8S 1859   6.933   3.600  15.713  0.5584 -0.7716  1.6635
   15DOPE   C29 1860   7.081   3.559  15.582  0.2846 -0.3218 -0.1479
   15DOPE   H9R 1861   7.057   3.451  15.584 -0.4406 -0.1582  1.2313
   15DOPE  C210 1862   7.129   3.615  15.474 -0.7272 -0.4458  0.1309
   15DOPE  H10R 1863   7.138   3.546  15.389  0.9990 -1.1298  0.8202
   15DOPE  C211 1864   7.170   3.767  15.458  0.5940  1.1536 -0.5311
   15DOPE  H11R 1865   7.269   3.768  15.409  0.7977 -1.1042 -0.2334
   15DOPE  H11S 1866   7.168   3.824  15.553  2.4349  1.1461 -0.4674
   15DOPE  C212 1867   7.086   3.847  15.359 -0.1837 -0.7269  0.6415
   15DOPE  H12R 1868   7.119   3.953  15.363 -1.1062 -0.4414  3.9215
   15DOPE  H12S 1869   6.982   3.847  15.399  0.3072 -1.4156  2.0007
   15DOPE  C213 1870   7.094   3.800  15.215 -0.0688 -0.0297  0.5534
   15DOPE  H13R 1871   7.049   3.699  15.203  3.7063 -2.3300  3.4652
   15DOPE  H13S 1872   7.200   3.781  15.186  0.0873  1.8895 -0.2422
   15DOPE  C214 1873   7.020   3.884  15.107  0.1001 -0.7295 -0.3792
   15DOPE  H14R 1874   7.035   3.994  15.116  0.0732 -0.6540 -1.1368
   15DOPE  H14S 1875   6.910   3.881  15.122  0.1885  0.1104  0.5461
   15DOPE  C215 1876   7.074   3.834  14.969 -0.1148 -0.2244  0.5467
   15DOPE  H15R 1877   7.182   3.808  14.962 -0.2982 -1.2928  1.4252
   15DOPE  H15S 1878   7.052   3.908  14.889  1.6280  0.4263  0.6334
   15DOPE  C216 1879   7.006   3.703  14.923  0.3033  0.2225 -0.0421
   15DOPE  H16R 1880   6.895   3.705  14.929  0.3541  2.1095  1.1739
   15DOPE  H16S 1881   7.039   3.625  14.995  1.3297 -1.5109 -2.2963
   15DOPE  C217 1882   7.049   3.661  14.780  0.0039  0.3135  0.0353
   15DOPE  H17R 1883   7.032   3.552  14.767 -0.3948  0.0319  2.5031
   15DOPE  H17S 1884   7.158   3.682  14.772  0.1867 -0.5251  0.2922
   15DOPE  C218 1885   6.976   3.732  14.669  0.2701 -0.3955 -0.3722
   15DOPE  H18R 1886   6.867   3.711  14.677 -0.3539  2.3929 -0.2602
   15DOPE  H18S 1887   7.015   3.715  14.567 -0.0500  0.2340 -0.6098
   15DOPE  H18T 1888   6.987   3.840  14.695 -2.0919  1.0959 -4.5934
   15DOPE   C33 1889   6.800   3.994  16.027  0.3378 -0.4090 -0.4383
   15DOPE   H3X 1890   6.902   4.035  16.045 -0.8562  1.6578  2.1922
   15DOPE   H3Y 1891   6.729   4.076  16.050 -0.1803 -1.6509  2.8350
   15DOPE   C34 1892   6.767   3.943  15.885 -0.5182  0.5195  0.0557
   15DOPE   H4X 1893   6.823   3.847  15.887  0.1392  0.8083  3.7051
   15DOPE   H4Y 1894   6.658   3.918  15.878 -0.4851  0.4723 -0.3001
   15DOPE   C35 1895   6.822   4.023  15.769 -0.1407  0.6040 -0.4993
   15DOPE   H5X 1896   6.927   4.048  15.794 -0.3547  0.5995  0.4388
   15DOPE   H5Y 1897   6.767   4.118  15.753  0.6459  1.1954  0.2264
   15DOPE   C36 1898   6.816   3.955  15.633 -0.3415 -0.0562  0.4213
   15DOPE   H6X 1899   6.893   3.874  15.636  1.2344  1.2085 -2.1406
   15DOPE   H6Y 1900   6.862   4.025  15.560  0.5312  0.3163  1.3070
   15DOPE   C37 1901   6.669   3.916  15.593  0.3896 -0.0163 -0.3126
   15DOPE   H7X 1902   6.620   3.852  15.670 -3.5437  0.2305 -2.3203
   15DOPE   H7Y 1903   6.613   4.012  15.585  2.6374  1.2533 -1.8703
   15DOPE   C38 1904   6.660   3.844  15.460 -0.3561 -0.3715 -0.6087
   15DOPE   H8X 1905   6.562   3.792  15.462 -0.3117 -0.8540  5.5130
   15DOPE   H8Y 1906   6.727   3.755  15.468 -0.2460 -0.0774  3.0432
   15DOPE   C39 1907   6.702   3.930  15.342 -0.4714 -0.4491  0.9750
   15DOPE   H9X 1908   6.793   3.992  15.351 -0.9213  0.1667  1.4711
   15DOPE  C310 1909   6.634   3.944  15.229 -0.5951 -0.4627  0.2384
   15DOPE  H10X 1910   6.672   4.007  15.147 -2.0434 -0.9504 -0.8437
   15DOPE  C311 1911   6.504   3.890  15.180  0.9027  0.0613  0.1538
   15DOPE  H11X 1912   6.458   3.809  15.241 -1.1668  0.4091 -0.8383
   15DOPE  H11Y 1913   6.428   3.971  15.186  2.1875  1.3501 -0.4181
   15DOPE  C312 1914   6.498   3.841  15.034  0.6795  0.7623 -0.7714
   15DOPE  H12X 1915   6.393   3.810  15.017  0.7451  0.3329 -0.4343
   15DOPE  H12Y 1916   6.569   3.756  15.021 -0.7811 -0.9569  1.5438
   15DOPE  C313 1917   6.520   3.936  14.924 -0.0819 -0.7663  0.1613
   15DOPE  H13X 1918   6.428   3.996  14.906  0.8058  0.5817 -0.0255
   15DOPE  H13Y 1919   6.592   4.015  14.953 -0.3511 -0.7411  0.7809
   15DOPE  C314 1920   6.558   3.881  14.787  0.1133  0.0672 -0.1965
   15DOPE  H14X 1921   6.504   3.787  14.764  0.7467  0.1064 -2.0421
   15DOPE  H14Y 1922   6.668   3.865  14.784  0.4870  2.2370 -0.2354
   15DOPE  C315 1923   6.520   3.987  14.682 -0.1604  0.1249  0.0638
   15DOPE  H15X 1924   6.582   4.077  14.702 -0.7810  0.3189  1.2149
   15DOPE  H15Y 1925   6.415   4.015  14.700 -0.0092  1.5117 -1.0377
   15DOPE  C316 1926   6.547   3.935  14.534 -0.1352 -0.6507  0.9842
   15DOPE  H16X 1927   6.494   3.840  14.511  2.6972 -2.1299  0.1461
   15DOPE  H16Y 1928   6.654   3.911  14.522 -0.5132 -1.8468 -0.2013
   15DOPE  C317 1929   6.505   4.038  14.423 -0.4345  0.0517  0.5841
   15DOPE  H17X 1930   6.546   3.997  14.328 -0.6897  0.5711  0.2420
   15DOPE  H17Y 1931   6.397   4.027  14.404 -0.2047 -1.5745  0.0917
   15DOPE  C318 1932   6.542   4.184  14.456 -0.0743  0.0385 -0.3493
   15DOPE  H18X 1933   6.483   4.219  14.543 -2.1524  0.6373 -1.9192
   15DOPE  H18Y 1934   6.653   4.192  14.462 -0.1302 -0.2757  1.9165
   15DOPE  H18Z 1935   6.521   4.247  14.366 -0.1453  1.9096  0.9096
   16DOPE     N 1936   2.160   3.130  16.954 -0.3335  0.3224  0.4853
   16DOPE   HN1 1937   2.113   3.221  16.972 -0.0953  0.4083  0.6761
   16DOPE   HN2 1938   2.162   3.131  16.850  0.6110 -0.3508  0.4817
   16DOPE   HN3 1939   2.094   3.053  16.978 -0.2262 -0.8374 -2.5222
   16DOPE   C12 1940   2.297   3.122  17.019  0.6968 -0.2228 -0.1269
   16DOPE  H12A 1941   2.333   3.021  16.991  0.2782  0.5898 -4.2802
   16DOPE  H12B 1942   2.274   3.133  17.127 -0.1273  0.7259 -0.3868
   16DOPE   C11 1943   2.388   3.231  16.974  0.2908  0.6393  0.5287
   16DOPE  H11A 1944   2.413   3.238  16.866 -1.9355  1.3206  0.0060
   16DOPE  H11B 1945   2.483   3.204  17.025 -0.0791  1.5614  1.7832
   16DOPE     P 1946   2.413   3.466  17.095  0.2116  0.6564  0.1166
   16DOPE   O13 1947   2.555   3.453  17.061  0.2503  0.0654 -0.3367
   16DOPE   O14 1948   2.385   3.439  17.237 -0.2130 -0.0702  0.0369
   16DOPE   O11 1949   2.358   3.605  17.059 -0.4629  0.3052 -0.2216
   16DOPE   O12 1950   2.339   3.357  17.010 -0.8544  0.2033  0.8809
   16DOPE    C1 1951   2.264   3.621  16.954 -0.1622 -0.3642 -0.2498
   16DOPE    HA 1952   2.231   3.727  16.960 -1.0656 -0.6787  0.5162
   16DOPE    HB 1953   2.174   3.556  16.965  0.0350 -0.9356 -1.7356
   16DOPE    C2 1954   2.323   3.599  16.812  0.0854  0.5903 -0.1788
   16DOPE    HS 1955   2.347   3.491  16.803  1.0975  0.7349  0.6441
   16DOPE   O21 1956   2.441   3.684  16.808  0.0327  0.1288 -0.3400
   16DOPE   C21 1957   2.546   3.618  16.764 -0.1953  0.1819 -0.1503
   16DOPE   O22 1958   2.537   3.513  16.705 -0.0159 -0.2110 -0.0706
   16DOPE   C22 1959   2.675   3.692  16.807 -0.5518 -0.1124 -0.4089
   16DOPE   H2R 1960   2.733   3.623  16.872  1.6716  0.5775 -1.5773
   16DOPE   H2S 1961   2.636   3.778  16.866  1.5293  1.8667 -1.7776
   16DOPE    C3 1962   2.232   3.652  16.697  0.8075 -0.1211  0.9608
   16DOPE    HX 1963   2.218   3.757  16.731 -1.7326  0.2570 -0.8679
   16DOPE    HY 1964   2.139   3.591  16.691  1.1638 -0.5401 -2.1840
   16DOPE   O31 1965   2.295   3.654  16.567 -0.7339 -0.3041  0.7387
   16DOPE   C31 1966   2.314   3.528  16.519 -0.2477 -0.0631 -0.1372
   16DOPE   O32 1967   2.260   3.430  16.565  0.5630 -0.0658 -0.2321
   16DOPE   C32 1968   2.406   3.525  16.394  0.4008 -0.4450 -0.1532
   16DOPE   H2X 1969   2.346   3.569  16.311  0.0306 -0.2140  0.2333
   16DOPE   H2Y 1970   2.492   3.595  16.398  1.2195 -1.3176 -1.6040
   16DOPE   C23 1971   2.761   3.754  16.701 -0.3848 -0.7258  0.2601
   16DOPE   H3R 1972   2.807   3.687  16.626  1.3694  0.2559  0.3999
   16DOPE   H3S 1973   2.849   3.807  16.744 -0.6961  0.8408 -0.9268
   16DOPE   C24 1974   2.685   3.858  16.619  1.3337  0.7870  0.4623
   16DOPE   H4R 1975   2.642   3.941  16.679 -0.6905 -0.4578  0.8219
   16DOPE   H4S 1976   2.597   3.812  16.570  1.5491  0.4077  0.4222
   16DOPE   C25 1977   2.764   3.922  16.500 -0.4778  0.2680 -0.0299
   16DOPE   H5R 1978   2.870   3.930  16.534  0.2462 -0.9295 -1.8538
   16DOPE   H5S 1979   2.729   4.025  16.479 -0.0514  0.4651  0.1975
   16DOPE   C26 1980   2.751   3.844  16.365  0.2156 -0.5990  0.4789
   16DOPE   H6R 1981   2.753   3.734  16.381 -0.3365 -0.4777  1.5100
   16DOPE   H6S 1982   2.841   3.874  16.306 -0.7819  0.2339 -0.6511
   16DOPE   C27 1983   2.625   3.875  16.284 -0.6147  0.2576  0.2954
   16DOPE   H7R 1984   2.618   3.984  16.263  0.4595  0.0719 -1.1564
   16DOPE   H7S 1985   2.533   3.848  16.341 -1.7741  1.1018 -1.0866
   16DOPE   C28 1986   2.637   3.813  16.139 -0.3492  0.2349  0.0269
   16DOPE   H8R 1987   2.673   3.709  16.149  0.5089 -0.0557 -4.2452
   16DOPE   H8S 1988   2.713   3.878  16.091 -1.9690  2.0526 -0.1927
   16DOPE   C29 1989   2.499   3.819  16.077 -0.6849 -0.4148  0.0377
   16DOPE   H9R 1990   2.417   3.805  16.149  1.5813 -0.6178  2.7624
   16DOPE  C210 1991   2.474   3.867  15.953  0.4466  0.8457  0.4088
   16DOPE  H10R 1992   2.367   3.865  15.926  0.4537 -0.1677  0.3904
   16DOPE  C211 1993   2.568   3.926  15.847 -0.2071  0.5924 -0.4155
   16DOPE  H11R 1994   2.673   3.901  15.873 -0.6067  1.8368  2.7764
   16DOPE  H11S 1995   2.565   4.037  15.855 -0.5751  0.5165  0.6579
   16DOPE  C212 1996   2.535   3.881  15.711  0.1898  0.0711  1.1705
   16DOPE  H12R 1997   2.432   3.917  15.694 -0.1663 -0.5632  1.8894
   16DOPE  H12S 1998   2.533   3.770  15.709  2.3411 -0.0634 -2.8436
   16DOPE  C213 1999   2.636   3.932  15.602 -0.0370 -0.0082  0.0141
   16DOPE  H13R 2000   2.738   3.892  15.620 -0.6978 -1.9612 -0.3002
   16DOPE  H13S 2001   2.642   4.042  15.619 -0.6737  0.1320 -0.6067
   16DOPE  C214 2002   2.604   3.889  15.460  0.2608  0.2421  0.8684
   16DOPE  H14R 2003   2.555   3.789  15.462 -1.8978  1.2214  0.0525
   16DOPE  H14S 2004   2.699   3.876  15.405 -0.6808 -2.3872 -0.3402
   16DOPE  C215 2005   2.513   3.990  15.380 -0.7350  0.2301  0.1595
   16DOPE  H15R 2006   2.571   4.076  15.341 -1.1010  1.3301  1.9354
   16DOPE  H15S 2007   2.450   4.017  15.468 -0.2467  2.9998 -0.2779
   16DOPE  C216 2008   2.428   3.918  15.271  1.0018 -0.0537 -0.3151
   16DOPE  H16R 2009   2.361   3.989  15.219  0.7919 -0.7529 -1.0112
   16DOPE  H16S 2010   2.357   3.846  15.318 -0.1470  0.2138 -1.5855
   16DOPE  C217 2011   2.515   3.854  15.162 -0.1958  0.5016  0.6103
   16DOPE  H17R 2012   2.459   3.792  15.089 -0.1493  0.9944  0.1496
   16DOPE  H17S 2013   2.592   3.784  15.201  0.0571  1.1953  1.4097
   16DOPE  C218 2014   2.595   3.950  15.073 -0.4443 -0.0610  0.2854
   16DOPE  H18R 2015   2.522   4.029  15.045  0.2081  0.6336  0.5268
   16DOPE  H18S 2016   2.644   3.899  14.988  0.6666  0.5320  0.5507
   16DOPE  H18T 2017   2.686   3.988  15.125  0.6195 -0.0251 -1.5357
   16DOPE   C33 2018   2.444   3.384  16.348  0.6002 -0.1596  0.3417
   16DOPE   H3X 2019   2.374   3.304  16.380 -0.7247  0.2336 -1.4324
   16DOPE   H3Y 2020   2.537   3.351  16.399  0.9948  0.5234  0.0671
   16DOPE   C34 2021   2.448   3.381  16.194  0.1088 -0.2551 -0.2503
   16DOPE   H4X 2022   2.354   3.416  16.145 -0.0372  1.2168  0.9861
   16DOPE   H4Y 2023   2.520   3.458  16.159 -1.7709  0.6964 -2.2747
   16DOPE   C35 2024   2.498   3.249  16.145  0.5844  0.0142  0.4097
   16DOPE   H5X 2025   2.426   3.173  16.182 -0.9535  0.9670 -0.4789
   16DOPE   H5Y 2026   2.595   3.226  16.194  0.3907 -0.0288  0.7809
   16DOPE   C36 2027   2.490   3.234  15.994 -0.1750  0.0381 -0.3626
   16DOPE   H6X 2028   2.562   3.305  15.949  0.5579  0.0016  0.7101
   16DOPE   H6Y 2029   2.383   3.245  15.966 -0.9808 -0.2709  2.3461
   16DOPE   C37 2030   2.525   3.095  15.945 -0.6896 -0.7732  0.1498
   16DOPE   H7X 2031   2.622   3.065  15.988 -0.8994  1.0372  2.0137
   16DOPE   H7Y 2032   2.453   3.015  15.973 -0.7191 -0.0279  2.3199
   16DOPE   C38 2033   2.530   3.099  15.787  0.7208  0.2393  0.3514
   16DOPE   H8X 2034   2.439   3.146  15.745  1.9939  2.6308  0.1035
   16DOPE   H8Y 2035   2.529   2.996  15.746  0.1253  0.0013  0.9528
   16DOPE   C39 2036   2.657   3.150  15.723  0.2300 -0.6562  0.9856
   16DOPE   H9X 2037   2.742   3.171  15.790  1.3619 -0.1208 -0.5489
   16DOPE  C310 2038   2.667   3.183  15.588  0.0210 -0.7429  0.3934
   16DOPE  H10X 2039   2.761   3.232  15.559 -0.8489  2.1015  1.9299
   16DOPE  C311 2040   2.557   3.167  15.481  0.0648  0.0231 -0.3444
   16DOPE  H11X 2041   2.562   3.069  15.430 -1.8242  0.9789 -2.5715
   16DOPE  H11Y 2042   2.454   3.177  15.523 -1.2732 -1.4182 -3.0022
   16DOPE  C312 2043   2.550   3.274  15.371  0.1930 -0.0928  0.1750
   16DOPE  H12X 2044   2.554   3.373  15.421  1.4755 -0.2234  0.3826
   16DOPE  H12Y 2045   2.464   3.268  15.301 -1.2221  2.1634  1.6041
   16DOPE  C313 2046   2.674   3.268  15.277  0.4321  0.6106  0.0583
   16DOPE  H13X 2047   2.672   3.350  15.202  1.7154 -1.0021 -1.8291
   16DOPE  H13Y 2048   2.773   3.279  15.325 -0.0415 -0.0663  1.2515
   16DOPE  C314 2049   2.672   3.136  15.195  0.6669  0.6275  0.1556
   16DOPE  H14X 2050   2.700   3.049  15.259 -1.0002  0.1788  0.3035
   16DOPE  H14Y 2051   2.767   3.142  15.137 -0.6391  1.6612 -1.9648
   16DOPE  C315 2052   2.562   3.102  15.090  0.4894  0.0039  0.2787
   16DOPE  H15X 2053   2.536   3.194  15.033  0.7316  0.5545  1.0315
   16DOPE  H15Y 2054   2.472   3.066  15.145  0.9247  0.7500  1.5211
   16DOPE  C316 2055   2.596   2.995  14.993 -0.7284 -0.8320  0.7757
   16DOPE  H16X 2056   2.660   2.916  15.039  2.2242  0.1826 -1.2488
   16DOPE  H16Y 2057   2.655   3.044  14.912 -1.2051  0.4631  1.1994
   16DOPE  C317 2058   2.478   2.937  14.918  0.0540  0.4944 -0.1230
   16DOPE  H17X 2059   2.510   2.854  14.851  0.0578  0.2074  0.2283
   16DOPE  H17Y 2060   2.411   2.883  14.989  0.2223  1.1278  0.5191
   16DOPE  C318 2061   2.396   3.033  14.831  0.7909 -0.1418  0.2277
   16DOPE  H18X 2062   2.344   3.118  14.879 -0.7949 -0.2138 -1.2612
   16DOPE  H18Y 2063   2.451   3.072  14.742 -1.1425  0.5941 -0.6994
   16DOPE  H18Z 2064   2.309   2.974  14.794  0.5679 -0.4942  1.2787
   17DOPE     N 2065   1.895   2.165  17.023 -0.7134 -0.4469 -0.1269
   17DOPE   HN1 2066   1.871   2.103  17.103 -2.0879 -1.6265 -1.3846
   17DOPE   HN2 2067   1.983   2.126  16.984 -1.1510 -1.1550 -0.4410
   17DOPE   HN3 2068   1.911   2.258  17.066  0.5181 -1.1127  0.9212
   17DOPE   C12 2069   1.799   2.148  16.907  0.2295  0.0581 -0.5142
   17DOPE  H12A 2070   1.840   2.219  16.832  0.5766  1.9945  1.3966
   17DOPE  H12B 2071   1.698   2.183  16.940  0.2848 -0.1739 -0.0978
   17DOPE   C11 2072   1.816   2.008  16.851 -0.4755 -0.5465 -0.7898
   17DOPE  H11A 2073   1.919   1.993  16.812 -0.4611 -0.7747 -0.6687
   17DOPE  H11B 2074   1.743   2.007  16.767  0.0882  0.1740 -1.2973
   17DOPE     P 2075   1.658   1.839  16.982 -0.2698  0.0568 -0.3047
   17DOPE   O13 2076   1.558   1.948  16.969  0.1618  0.1052 -0.2941
   17DOPE   O14 2077   1.672   1.784  17.118 -0.3823 -0.5352  0.5345
   17DOPE   O11 2078   1.628   1.716  16.879 -0.3436 -0.3053 -0.3155
   17DOPE   O12 2079   1.803   1.902  16.945  0.0175 -0.4964  0.1323
   17DOPE    C1 2080   1.721   1.670  16.783  0.2677  0.2768  0.0945
   17DOPE    HA 2081   1.709   1.561  16.765  1.6076 -0.2360  2.0868
   17DOPE    HB 2082   1.826   1.687  16.813 -0.5183  0.1150  3.2069
   17DOPE    C2 2083   1.702   1.741  16.649 -0.6439 -0.1068 -0.0201
   17DOPE    HS 2084   1.700   1.849  16.678  1.4251 -0.1396  0.4516
   17DOPE   O21 2085   1.587   1.687  16.588 -0.4608  0.6409  0.5838
   17DOPE   C21 2086   1.494   1.777  16.560 -0.0602  0.2891 -0.7749
   17DOPE   O22 2087   1.517   1.894  16.565 -0.1449  0.2514  0.0547
   17DOPE   C22 2088   1.365   1.724  16.506  0.4182  0.2896  0.1924
   17DOPE   H2R 2089   1.278   1.755  16.566 -2.1983 -2.9058 -1.6021
   17DOPE   H2S 2090   1.361   1.613  16.506 -2.7930  0.2902 -1.4350
   17DOPE    C3 2091   1.826   1.730  16.559 -0.4778 -0.6503 -0.2483
   17DOPE    HX 2092   1.848   1.622  16.549  0.0078 -0.5821  0.0537
   17DOPE    HY 2093   1.908   1.784  16.611 -2.1230  2.4390 -0.6283
   17DOPE   O31 2094   1.801   1.784  16.428 -0.1000  0.6204 -0.4752
   17DOPE   C31 2095   1.802   1.911  16.423  0.6772 -0.0390  0.2613
   17DOPE   O32 2096   1.851   1.984  16.505  0.3318  0.1022 -0.5520
   17DOPE   C32 2097   1.742   1.944  16.283  0.7317 -0.8256 -0.3333
   17DOPE   H2X 2098   1.790   1.868  16.218  1.2913 -0.9197  0.1829
   17DOPE   H2Y 2099   1.632   1.928  16.293  0.7571 -2.1553 -1.7439
   17DOPE   C23 2100   1.337   1.779  16.373  0.6515 -0.6001 -0.5648
   17DOPE   H3R 2101   1.349   1.889  16.381  0.7286 -0.6380 -0.1669
   17DOPE   H3S 2102   1.227   1.771  16.357  0.4562  0.9969 -0.1926
   17DOPE   C24 2103   1.420   1.719  16.260 -0.0214 -1.2475 -0.8921
   17DOPE   H4R 2104   1.408   1.610  16.245 -0.2132 -1.1332 -1.6138
   17DOPE   H4S 2105   1.528   1.743  16.276 -0.5621  0.2075  0.8778
   17DOPE   C25 2106   1.377   1.785  16.122  0.4918 -0.3266 -0.5769
   17DOPE   H5R 2107   1.432   1.881  16.115  1.6717 -0.8683  0.7782
   17DOPE   H5S 2108   1.266   1.798  16.123  0.4416 -0.3796  2.2166
   17DOPE   C26 2109   1.420   1.709  15.996 -0.1113  0.0698 -0.0959
   17DOPE   H6R 2110   1.387   1.604  16.010 -0.3608 -0.0128 -1.2413
   17DOPE   H6S 2111   1.530   1.710  16.002 -0.1618  0.3732  1.0609
   17DOPE   C27 2112   1.371   1.773  15.865  0.1058 -0.0805  0.0162
   17DOPE   H7R 2113   1.372   1.882  15.886 -2.7819  0.0628 -0.2252
   17DOPE   H7S 2114   1.263   1.748  15.859  0.1193  0.0257 -0.8154
   17DOPE   C28 2115   1.473   1.750  15.751  0.3011  0.1167 -0.5030
   17DOPE   H8R 2116   1.568   1.789  15.793  0.7522  0.6957 -1.9893
   17DOPE   H8S 2117   1.447   1.808  15.659  1.3207 -2.3377 -2.4430
   17DOPE   C29 2118   1.489   1.607  15.699 -0.0197 -0.4689 -0.0449
   17DOPE   H9R 2119   1.516   1.520  15.760  1.2521  1.0282  1.6429
   17DOPE  C210 2120   1.484   1.573  15.564 -0.3744  0.1697 -0.1498
   17DOPE  H10R 2121   1.499   1.469  15.532 -0.9111 -0.2869  1.0541
   17DOPE  C211 2122   1.444   1.666  15.442 -0.4005  0.1062 -0.2164
   17DOPE  H11R 2123   1.406   1.764  15.477 -1.4296 -1.0519  2.1313
   17DOPE  H11S 2124   1.379   1.613  15.369  2.2244 -2.1591 -1.1119
   17DOPE  C212 2125   1.567   1.691  15.358 -0.2522  0.2346  0.1563
   17DOPE  H12R 2126   1.594   1.592  15.315 -2.2193  0.1328 -0.9689
   17DOPE  H12S 2127   1.648   1.736  15.419  0.4594 -0.6502 -0.1170
   17DOPE  C213 2128   1.542   1.776  15.227 -0.0705 -0.1960 -0.0031
   17DOPE  H13R 2129   1.504   1.878  15.247 -1.2566 -0.2673 -1.6827
   17DOPE  H13S 2130   1.469   1.734  15.155  1.1049  1.1793 -2.1019
   17DOPE  C214 2131   1.679   1.785  15.157 -0.6322  0.3911  0.1232
   17DOPE  H14R 2132   1.688   1.688  15.104 -2.7928  1.2369 -2.0157
   17DOPE  H14S 2133   1.743   1.793  15.247  0.8908  0.6717 -0.9403
   17DOPE  C215 2134   1.692   1.904  15.054 -0.2288  0.0835 -0.2243
   17DOPE  H15R 2135   1.792   1.896  15.005 -0.3661 -1.2297 -0.3174
   17DOPE  H15S 2136   1.692   1.994  15.120 -0.6059 -0.3147  0.3252
   17DOPE  C216 2137   1.581   1.909  14.944  0.3669  0.0600 -0.7008
   17DOPE  H16R 2138   1.484   1.917  14.997  0.9696 -1.6275  0.7903
   17DOPE  H16S 2139   1.584   1.813  14.888 -1.2476 -0.0141 -0.7033
   17DOPE  C217 2140   1.599   2.022  14.845  0.9342 -0.3573 -0.3396
   17DOPE  H17R 2141   1.699   2.001  14.801  0.7277  0.1222 -1.0556
   17DOPE  H17S 2142   1.595   2.122  14.893 -1.2299 -0.1432 -0.8593
   17DOPE  C218 2143   1.499   2.013  14.729 -0.3090  0.3785  0.3765
   17DOPE  H18R 2144   1.533   2.082  14.649 -0.4848 -0.1439 -0.1491
   17DOPE  H18S 2145   1.402   2.055  14.763 -0.4771 -0.7077  1.2983
   17DOPE  H18T 2146   1.488   1.909  14.693 -0.6141  0.5984 -0.1866
   17DOPE   C33 2147   1.782   2.085  16.243  0.2816  0.0102 -0.0211
   17DOPE   H3X 2148   1.890   2.098  16.265  0.0446 -1.5575  2.5279
   17DOPE   H3Y 2149   1.713   2.149  16.303  0.9497  0.4065  0.3282
   17DOPE   C34 2150   1.758   2.113  16.093  0.0238  0.2806  0.1177
   17DOPE   H4X 2151   1.661   2.065  16.066  1.7837 -3.4747 -0.1164
   17DOPE   H4Y 2152   1.738   2.222  16.080  1.3723  0.3992 -1.1216
   17DOPE   C35 2153   1.858   2.060  15.999 -0.4805 -0.6139  0.0559
   17DOPE   H5X 2154   1.847   1.952  15.976 -0.0575 -0.5911 -0.2628
   17DOPE   H5Y 2155   1.955   2.074  16.052 -0.1768 -0.5665 -0.5032
   17DOPE   C36 2156   1.849   2.139  15.863 -0.1823 -0.5864 -0.4714
   17DOPE   H6X 2157   1.864   2.245  15.891 -2.7486 -0.6603  1.5832
   17DOPE   H6Y 2158   1.745   2.132  15.823 -0.8422 -0.0973  1.0491
   17DOPE   C37 2159   1.960   2.093  15.774  0.0542 -0.1827  0.2390
   17DOPE   H7X 2160   2.050   2.126  15.830 -1.3012  2.1168  1.1939
   17DOPE   H7Y 2161   1.968   1.982  15.767  0.0987 -0.3059  1.8159
   17DOPE   C38 2162   1.976   2.158  15.633  0.1093 -0.4458 -0.2270
   17DOPE   H8X 2163   2.068   2.126  15.580 -0.4187 -2.4820 -0.0085
   17DOPE   H8Y 2164   1.997   2.267  15.637  0.0112 -0.4742  1.5051
   17DOPE   C39 2165   1.844   2.141  15.562  0.1052  0.1924  0.2167
   17DOPE   H9X 2166   1.756   2.175  15.620  0.7212 -0.3008  1.4780
   17DOPE  C310 2167   1.829   2.097  15.436 -0.0033  0.1009  0.2019
   17DOPE  H10X 2168   1.728   2.098  15.392 -1.5220  1.5314  3.3900
   17DOPE  C311 2169   1.943   2.044  15.354  0.2470 -0.4376  0.0653
   17DOPE  H11X 2170   2.010   1.991  15.424  2.7603  1.1350 -1.0010
   17DOPE  H11Y 2171   1.902   1.980  15.273  0.1565  0.2319 -0.4284
   17DOPE  C312 2172   2.024   2.146  15.281 -0.3880  0.0214  0.2772
   17DOPE  H12X 2173   2.107   2.193  15.338 -0.9581 -0.1945  1.2930
   17DOPE  H12Y 2174   1.958   2.222  15.235 -1.6803 -1.3269 -0.1704
   17DOPE  C313 2175   2.080   2.071  15.158 -0.0397  0.2284 -0.1764
   17DOPE  H13X 2176   2.131   1.978  15.189 -0.4676 -0.6559 -1.9669
   17DOPE  H13Y 2177   2.003   2.043  15.083 -1.9945 -0.2562  1.9366
   17DOPE  C314 2178   2.184   2.157  15.075 -0.1262  0.3503  0.1897
   17DOPE  H14X 2179   2.281   2.164  15.128  0.1259 -1.0596 -0.0372
   17DOPE  H14Y 2180   2.149   2.260  15.053 -1.5808 -0.4038 -1.3386
   17DOPE  C315 2181   2.213   2.078  14.944  0.2565  0.5368 -0.0495
   17DOPE  H15X 2182   2.121   2.084  14.882  0.1648 -2.6959 -0.4152
   17DOPE  H15Y 2183   2.216   1.969  14.965 -2.0412  0.7398  1.8902
   17DOPE  C316 2184   2.328   2.137  14.864  0.6692 -0.0652  0.5732
   17DOPE  H16X 2185   2.426   2.122  14.913  0.5057  1.2076  1.3407
   17DOPE  H16Y 2186   2.318   2.247  14.854  2.0879  0.1094  0.8849
   17DOPE  C317 2187   2.344   2.073  14.730  0.0609  0.2631  0.4386
   17DOPE  H17X 2188   2.354   1.963  14.743 -1.1078  0.0895  0.0357
   17DOPE  H17Y 2189   2.254   2.079  14.665  1.3306 -1.6242 -1.6599
   17DOPE  C318 2190   2.456   2.145  14.650 -0.7444 -0.9425 -0.8303
   17DOPE  H18X 2191   2.545   2.151  14.716 -1.4716 -0.2239  0.1163
   17DOPE  H18Y 2192   2.474   2.090  14.555  0.3834 -0.7148 -0.7612
   17DOPE  H18Z 2193   2.422   2.248  14.628  1.2172 -0.1334 -0.3071
   18DOPE     N 2194   5.897   5.018  17.321  1.0526 -0.0083 -0.6045
   18DOPE   HN1 2195   5.955   4.931  17.316 -0.4400 -1.0049 -1.0266
   18DOPE   HN2 2196   5.891   5.072  17.410 -3.0386 -0.4945 -0.4282
   18DOPE   HN3 2197   5.801   4.982  17.310  0.7914  0.0000  1.2655
   18DOPE   C12 2198   5.961   5.110  17.221  0.4339  0.1197  0.5000
   18DOPE  H12A 2199   6.057   5.135  17.270  1.1343 -1.8442  0.1939
   18DOPE  H12B 2200   5.891   5.195  17.205 -2.6953 -2.3045  0.2754
   18DOPE   C11 2201   5.992   5.037  17.089 -0.1501  0.2830  0.5522
   18DOPE  H11A 2202   6.059   4.951  17.108 -0.3999 -0.2530 -0.8733
   18DOPE  H11B 2203   6.048   5.103  17.020 -0.2094 -0.3291 -0.0970
   18DOPE     P 2204   5.786   5.062  16.932  0.3651 -0.3893 -0.5066
   18DOPE   O13 2205   5.854   5.185  16.899  0.2529  0.3058  1.1076
   18DOPE   O14 2206   5.651   5.083  16.982 -0.0369 -0.2711  0.2093
   18DOPE   O11 2207   5.781   4.962  16.814  0.9052 -0.4084 -0.2679
   18DOPE   O12 2208   5.873   4.983  17.032  0.3472  0.1646 -0.0439
   18DOPE    C1 2209   5.890   4.940  16.718  0.0072  0.0920 -0.2573
   18DOPE    HA 2210   5.939   4.842  16.738 -0.8438 -0.4606 -0.8384
   18DOPE    HB 2211   5.966   5.022  16.712  0.1760 -0.0104  0.3748
   18DOPE    C2 2212   5.828   4.922  16.570  0.7688  0.0512  0.1795
   18DOPE    HS 2213   5.746   4.997  16.562  0.5981  0.0028  1.3254
   18DOPE   O21 2214   5.769   4.790  16.560  0.4348 -0.0192  0.6066
   18DOPE   C21 2215   5.658   4.773  16.487  0.1119  0.1994  0.4484
   18DOPE   O22 2216   5.592   4.853  16.429 -0.3397 -0.4472  0.1353
   18DOPE   C22 2217   5.624   4.620  16.500 -0.0591  0.3106 -0.1047
   18DOPE   H2R 2218   5.548   4.606  16.580 -0.1557  1.2280 -0.0219
   18DOPE   H2S 2219   5.722   4.580  16.533  0.7714  1.9438 -0.4557
   18DOPE    C3 2220   5.933   4.944  16.459  0.1728 -0.0118  0.0438
   18DOPE    HX 2221   6.023   4.880  16.477  1.8950  2.1985 -0.3039
   18DOPE    HY 2222   5.973   5.047  16.458  0.0676  0.0541 -2.0301
   18DOPE   O31 2223   5.883   4.915  16.327 -0.3777  0.1776 -0.2535
   18DOPE   C31 2224   5.808   5.014  16.274 -0.5636 -0.0761 -0.1831
   18DOPE   O32 2225   5.794   5.127  16.316  0.0486 -0.3822 -0.2936
   18DOPE   C32 2226   5.754   4.973  16.136  1.0667  0.1326 -0.0736
   18DOPE   H2X 2227   5.750   4.863  16.121  0.5553  0.4745 -3.3020
   18DOPE   H2Y 2228   5.652   5.016  16.142  1.0643 -0.0886  1.8872
   18DOPE   C23 2229   5.589   4.561  16.364 -0.6580 -0.5518 -0.1720
   18DOPE   H3R 2230   5.496   4.616  16.338 -0.2431  0.9792  1.4169
   18DOPE   H3S 2231   5.579   4.451  16.378  3.8533 -1.3897 -1.7025
   18DOPE   C24 2232   5.700   4.585  16.257 -0.1232 -0.2248  0.0617
   18DOPE   H4R 2233   5.802   4.551  16.287  1.3706  2.3619 -1.7204
   18DOPE   H4S 2234   5.715   4.691  16.228  1.3675 -0.4051  0.0945
   18DOPE   C25 2235   5.666   4.503  16.127  0.5172 -0.6619 -0.8842
   18DOPE   H5R 2236   5.559   4.529  16.110 -0.0963 -2.7085 -0.5414
   18DOPE   H5S 2237   5.665   4.398  16.164 -1.5127 -0.4637 -0.2404
   18DOPE   C26 2238   5.752   4.534  16.004 -0.4380  0.2280  0.0327
   18DOPE   H6R 2239   5.832   4.459  15.990  0.8472  1.6448 -0.4287
   18DOPE   H6S 2240   5.804   4.632  16.008  1.0069 -0.4491 -1.2121
   18DOPE   C27 2241   5.670   4.516  15.870 -0.5292 -0.8566 -0.1472
   18DOPE   H7R 2242   5.591   4.438  15.874  2.0254 -3.7190 -1.0199
   18DOPE   H7S 2243   5.743   4.488  15.791  0.7390 -1.9660  1.3494
   18DOPE   C28 2244   5.619   4.645  15.815  0.6769  0.0069 -0.1039
   18DOPE   H8R 2245   5.702   4.717  15.798 -1.9983  2.9996 -1.4154
   18DOPE   H8S 2246   5.551   4.692  15.889  1.7770 -1.1883  1.7668
   18DOPE   C29 2247   5.548   4.627  15.687  0.1553  0.2548 -0.4999
   18DOPE   H9R 2248   5.442   4.596  15.690  0.2358 -0.2112 -1.6455
   18DOPE  C210 2249   5.596   4.649  15.565 -0.3034 -0.1872 -0.1262
   18DOPE  H10R 2250   5.525   4.631  15.483 -0.0389 -0.0965 -0.3768
   18DOPE  C211 2251   5.745   4.678  15.528  0.9404 -0.3533 -0.2447
   18DOPE  H11R 2252   5.798   4.729  15.612 -0.8218  0.0144  0.7047
   18DOPE  H11S 2253   5.747   4.748  15.442 -2.1514  0.2807  0.0915
   18DOPE  C212 2254   5.826   4.550  15.498  0.0440  0.0006 -0.1456
   18DOPE  H12R 2255   5.780   4.503  15.409  0.1203 -0.8516  0.2570
   18DOPE  H12S 2256   5.823   4.472  15.577  1.2986  0.8556  0.7983
   18DOPE  C213 2257   5.976   4.581  15.469 -0.2329 -0.2665  0.3861
   18DOPE  H13R 2258   6.032   4.615  15.559  0.2358 -0.8046  0.3091
   18DOPE  H13S 2259   5.975   4.664  15.396 -1.0940 -1.1823 -0.6854
   18DOPE  C214 2260   6.043   4.464  15.392  0.7245 -0.6020  0.2735
   18DOPE  H14R 2261   6.138   4.502  15.348  1.4693 -3.3887 -0.7570
   18DOPE  H14S 2262   5.969   4.438  15.313 -0.9932  1.0080  1.2670
   18DOPE  C215 2263   6.082   4.347  15.480 -0.2731  0.0257  0.6022
   18DOPE  H15R 2264   5.987   4.307  15.522 -0.5220  2.4101  2.5120
   18DOPE  H15S 2265   6.148   4.391  15.558  0.2906  0.7163 -0.2476
   18DOPE  C216 2266   6.164   4.232  15.409  0.3767 -0.3754  0.2371
   18DOPE  H16R 2267   6.221   4.173  15.484 -0.1395  0.0125  0.9451
   18DOPE  H16S 2268   6.242   4.289  15.355  0.7278 -0.2566  0.8545
   18DOPE  C217 2269   6.083   4.140  15.313  0.1363 -0.6839  0.3868
   18DOPE  H17R 2270   6.036   4.207  15.238  1.7547  0.0534 -0.0367
   18DOPE  H17S 2271   6.017   4.081  15.380 -1.3080 -0.2031 -0.5663
   18DOPE  C218 2272   6.170   4.036  15.241  0.2682  0.8166 -0.0090
   18DOPE  H18R 2273   6.258   4.082  15.191 -1.0907  2.7127 -0.7576
   18DOPE  H18S 2274   6.111   3.988  15.160 -1.2705  1.4938  0.6650
   18DOPE  H18T 2275   6.212   3.967  15.317  0.5978  1.0553  0.0304
   18DOPE   C33 2276   5.822   5.042  16.008 -0.0951  0.0920 -0.6236
   18DOPE   H3X 2277   5.911   4.982  15.981  0.3757  0.9177 -0.9691
   18DOPE   H3Y 2278   5.859   5.144  16.032  0.2278 -0.0568 -0.4825
   18DOPE   C34 2279   5.730   5.044  15.884  0.1889  0.2624  0.5543
   18DOPE   H4X 2280   5.683   4.944  15.875 -3.3722  1.9376 -1.8999
   18DOPE   H4Y 2281   5.652   5.120  15.905  0.6924  0.9355  0.0423
   18DOPE   C35 2282   5.800   5.086  15.752  0.4480  0.2014 -0.6701
   18DOPE   H5X 2283   5.898   5.034  15.747  0.8442  0.9641 -1.1339
   18DOPE   H5Y 2284   5.824   5.194  15.756 -0.7423  0.4718 -0.4572
   18DOPE   C36 2285   5.713   5.063  15.626 -1.0678  0.1323  1.1975
   18DOPE   H6X 2286   5.628   5.133  15.639  1.0087  2.8826  1.1119
   18DOPE   H6Y 2287   5.684   4.956  15.617 -1.8463  0.5089 -2.0531
   18DOPE   C37 2288   5.780   5.105  15.491 -0.0265  0.1227 -0.4536
   18DOPE   H7X 2289   5.813   5.211  15.503  0.1957  0.1903 -1.5694
   18DOPE   H7Y 2290   5.860   5.030  15.473  0.1124 -0.0247  0.6712
   18DOPE   C38 2291   5.683   5.093  15.370 -0.8967 -0.6910 -0.4584
   18DOPE   H8X 2292   5.586   5.143  15.386 -0.3305  0.0198  0.8753
   18DOPE   H8Y 2293   5.654   4.986  15.360  2.0344 -1.7517  1.0846
   18DOPE   C39 2294   5.744   5.163  15.251 -0.3736  0.2993  0.0975
   18DOPE   H9X 2295   5.753   5.271  15.267  1.0518  0.1250  0.6807
   18DOPE  C310 2296   5.785   5.113  15.134  0.0248 -0.5174  0.0011
   18DOPE  H10X 2297   5.844   5.182  15.071 -1.0519  1.6232  1.2079
   18DOPE  C311 2298   5.784   4.961  15.102 -0.3305 -0.5425  0.2035
   18DOPE  H11X 2299   5.888   4.923  15.114 -0.1978 -0.1274  0.3865
   18DOPE  H11Y 2300   5.712   4.907  15.168 -1.8025 -1.3779 -1.9782
   18DOPE  C312 2301   5.739   4.916  14.962  0.4916 -0.7059  0.4593
   18DOPE  H12X 2302   5.785   4.984  14.887 -0.3989 -1.2901 -0.6595
   18DOPE  H12Y 2303   5.631   4.927  14.940  0.8988  0.5754 -1.1495
   18DOPE  C313 2304   5.767   4.765  14.932  0.3317  0.0280  0.6266
   18DOPE  H13X 2305   5.868   4.745  14.974  1.1358  1.9768 -0.2669
   18DOPE  H13Y 2306   5.685   4.713  14.986  1.2687 -0.9372  1.1691
   18DOPE  C314 2307   5.757   4.751  14.779  0.0061 -0.2991 -0.7702
   18DOPE  H14X 2308   5.843   4.796  14.725 -0.0843 -0.4545 -1.0502
   18DOPE  H14Y 2309   5.662   4.795  14.742 -0.7072 -0.6451  0.5778
   18DOPE  C315 2310   5.740   4.605  14.758 -0.0295  0.0809  0.3966
   18DOPE  H15X 2311   5.647   4.574  14.809 -0.1366  1.1045  0.8439
   18DOPE  H15Y 2312   5.826   4.543  14.793  0.9995  0.3804 -1.5086
   18DOPE  C316 2313   5.723   4.576  14.606  0.3062 -0.7597  0.0240
   18DOPE  H16X 2314   5.631   4.629  14.572  0.1501  0.3465  2.0024
   18DOPE  H16Y 2315   5.701   4.468  14.595  0.0760 -0.6686 -0.4713
   18DOPE  C317 2316   5.850   4.607  14.519  0.3152  0.0695 -0.3884
   18DOPE  H17X 2317   5.817   4.607  14.412 -0.7798 -0.2321 -0.0628
   18DOPE  H17Y 2318   5.886   4.708  14.547 -1.7052  0.8617 -0.4456
   18DOPE  C318 2319   5.955   4.499  14.538  0.6566 -0.3009  0.0830
   18DOPE  H18X 2320   5.915   4.401  14.506 -0.7944  0.1032  0.5597
   18DOPE  H18Y 2321   6.048   4.516  14.479  1.2620 -0.3855  0.9825
   18DOPE  H18Z 2322   5.988   4.497  14.644 -1.4533  2.3741  0.9090
   19DOPE     N 2323   5.874   5.392  16.723 -0.1626  0.0225 -0.3473
   19DOPE   HN1 2324   5.910   5.312  16.778  1.0467 -0.6138 -1.9742
   19DOPE   HN2 2325   5.896   5.476  16.780 -0.3201 -1.3620  1.8631
   19DOPE   HN3 2326   5.771   5.403  16.722 -0.0046  1.7523 -0.7723
   19DOPE   C12 2327   5.926   5.401  16.581  0.1758  0.0429 -0.4215
   19DOPE  H12A 2328   5.877   5.490  16.536 -0.4938 -0.8895 -1.6437
   19DOPE  H12B 2329   5.877   5.311  16.537 -1.0685  1.1603 -1.4286
   19DOPE   C11 2330   6.083   5.409  16.581  0.3403 -0.0921  0.0281
   19DOPE  H11A 2331   6.091   5.492  16.654 -0.7414  1.8353 -1.9259
   19DOPE  H11B 2332   6.119   5.435  16.479  2.6986 -0.9870  0.5643
   19DOPE     P 2333   6.278   5.278  16.682 -0.1313 -0.1348 -0.0407
   19DOPE   O13 2334   6.289   5.154  16.763 -0.3460 -0.9064  0.1659
   19DOPE   O14 2335   6.310   5.407  16.747 -0.4298 -0.3801  0.3046
   19DOPE   O11 2336   6.363   5.264  16.547  0.0864  0.1044 -0.3406
   19DOPE   O12 2337   6.130   5.285  16.633 -0.0275 -0.2137  0.1011
   19DOPE    C1 2338   6.363   5.150  16.461 -0.8019 -0.3012  0.2320
   19DOPE    HA 2339   6.272   5.092  16.488 -0.2404 -1.2156  0.1913
   19DOPE    HB 2340   6.450   5.086  16.487 -1.0781 -0.6547  0.2844
   19DOPE    C2 2341   6.360   5.193  16.317 -0.3770  0.1873 -0.2427
   19DOPE    HS 2342   6.447   5.253  16.283  0.0123 -0.0452  0.3259
   19DOPE   O21 2343   6.224   5.240  16.296 -0.3629 -0.1869 -0.3754
   19DOPE   C21 2344   6.207   5.326  16.197 -0.3802  0.5950  0.3862
   19DOPE   O22 2345   6.295   5.377  16.131  0.2459  0.7557 -0.3248
   19DOPE   C22 2346   6.054   5.351  16.182 -0.5092  0.0900  0.3236
   19DOPE   H2R 2347   6.010   5.384  16.278 -0.8684  0.9426 -0.1221
   19DOPE   H2S 2348   6.000   5.259  16.151 -1.0084  0.6088 -0.3945
   19DOPE    C3 2349   6.370   5.067  16.226 -0.1376 -0.3841 -0.5194
   19DOPE    HX 2350   6.279   5.005  16.241 -1.2432  1.8713  3.9684
   19DOPE    HY 2351   6.451   5.002  16.263  0.5882  0.0183 -1.3696
   19DOPE   O31 2352   6.402   5.106  16.091  0.1484  0.6087  0.5843
   19DOPE   C31 2353   6.307   5.076  16.000  0.4957  0.0364  0.5937
   19DOPE   O32 2354   6.201   5.023  16.013 -0.5372 -0.1169  0.3007
   19DOPE   C32 2355   6.356   5.122  15.860  0.8659  0.3630  0.4565
   19DOPE   H2X 2356   6.384   5.228  15.875 -1.1786  0.8941  0.7015
   19DOPE   H2Y 2357   6.454   5.075  15.834  0.5478 -0.5669  0.9021
   19DOPE   C23 2358   6.010   5.458  16.077  0.3335 -0.0140 -0.2935
   19DOPE   H3R 2359   6.050   5.561  16.081  1.6976 -0.1654 -4.8485
   19DOPE   H3S 2360   5.903   5.473  16.103  1.0266  2.4405  1.4622
   19DOPE   C24 2361   6.012   5.415  15.925 -0.2315 -0.2803 -1.1237
   19DOPE   H4R 2362   5.952   5.322  15.911 -0.0303 -0.4824 -0.6840
   19DOPE   H4S 2363   6.117   5.393  15.896  0.1845  0.1819 -0.0313
   19DOPE   C25 2364   5.954   5.532  15.843  0.1676 -0.1004  0.0213
   19DOPE   H5R 2365   6.007   5.627  15.864  0.9181 -0.9442  2.1402
   19DOPE   H5S 2366   5.847   5.541  15.872  0.7428  0.3475  2.1165
   19DOPE   C26 2367   5.972   5.497  15.690 -0.6814 -0.1144 -0.2632
   19DOPE   H6R 2368   5.908   5.409  15.672 -1.3161  0.5179 -1.1792
   19DOPE   H6S 2369   6.080   5.480  15.668  0.3007  1.4046  2.7852
   19DOPE   C27 2370   5.908   5.608  15.599 -0.0980  0.0988 -0.1491
   19DOPE   H7R 2371   5.945   5.705  15.638  1.1114 -0.7407  0.8802
   19DOPE   H7S 2372   5.798   5.602  15.617  0.2282 -2.8931  1.5063
   19DOPE   C28 2373   5.949   5.583  15.454 -0.4055  0.1612 -0.1146
   19DOPE   H8R 2374   5.891   5.490  15.433  0.8102 -0.7550  0.4580
   19DOPE   H8S 2375   6.054   5.548  15.447 -0.3049  0.1359  1.3385
   19DOPE   C29 2376   5.906   5.685  15.359 -0.5331 -0.4376  0.1940
   19DOPE   H9R 2377   5.936   5.786  15.390 -2.4476  0.7637 -1.5914
   19DOPE  C210 2378   5.839   5.685  15.242 -0.8084 -0.0038 -0.4185
   19DOPE  H10R 2379   5.826   5.775  15.181 -0.4565 -1.2467 -2.4307
   19DOPE  C211 2380   5.801   5.559  15.172 -0.0229 -0.6391 -0.6825
   19DOPE  H11R 2381   5.690   5.549  15.173 -0.2619  1.4826  0.6886
   19DOPE  H11S 2382   5.854   5.473  15.218  0.2384  0.1326  0.5129
   19DOPE  C212 2383   5.858   5.572  15.026  0.5018 -0.1442 -0.4609
   19DOPE  H12R 2384   5.969   5.578  15.022  0.4603  0.6837 -0.5863
   19DOPE  H12S 2385   5.821   5.668  14.984  2.9554  0.5285 -1.3049
   19DOPE  C213 2386   5.812   5.462  14.925  0.3167  0.3311  0.3786
   19DOPE  H13R 2387   5.703   5.477  14.906  0.5677  0.1756 -1.3328
   19DOPE  H13S 2388   5.839   5.361  14.962 -0.3609  0.5711  1.5813
   19DOPE  C214 2389   5.883   5.464  14.785 -0.0879 -0.6790 -0.0688
   19DOPE  H14R 2390   5.830   5.409  14.705 -1.3935 -0.8113  0.8472
   19DOPE  H14S 2391   5.984   5.424  14.805 -0.1161 -0.2752  0.9319
   19DOPE  C215 2392   5.913   5.605  14.730 -0.1794 -0.1362  0.3516
   19DOPE  H15R 2393   5.967   5.666  14.805  0.6938 -1.6798  1.0363
   19DOPE  H15S 2394   5.825   5.666  14.701 -0.0888  0.5904  1.5573
   19DOPE  C216 2395   5.993   5.592  14.597  0.1342  0.0551 -0.3536
   19DOPE  H16R 2396   5.952   5.516  14.526  0.8111 -2.5109  1.8156
   19DOPE  H16S 2397   6.091   5.551  14.629  0.7151  1.5064 -0.2235
   19DOPE  C217 2398   6.007   5.733  14.536  0.4489  0.2283  1.1447
   19DOPE  H17R 2399   6.058   5.808  14.599 -1.4748  0.8058  2.0870
   19DOPE  H17S 2400   5.906   5.767  14.503  2.0561  1.8135 -2.8046
   19DOPE  C218 2401   6.095   5.721  14.409  1.0120 -0.0225  0.4206
   19DOPE  H18R 2402   6.058   5.640  14.342 -0.6230  1.5171 -0.6258
   19DOPE  H18S 2403   6.200   5.712  14.444  0.8825  0.8693  1.0828
   19DOPE  H18T 2404   6.075   5.816  14.354 -0.3476  0.0949  1.0788
   19DOPE   C33 2405   6.244   5.124  15.754 -0.3479  0.6256 -1.0074
   19DOPE   H3X 2406   6.148   5.155  15.801  0.2085 -0.2794  0.8271
   19DOPE   H3Y 2407   6.213   5.022  15.724  1.4152 -0.9758  2.1013
   19DOPE   C34 2408   6.271   5.212  15.628 -0.7093  0.4755 -0.0932
   19DOPE   H4X 2409   6.231   5.310  15.661 -2.8064 -0.2387 -0.2981
   19DOPE   H4Y 2410   6.380   5.218  15.608 -0.4001 -1.4681  0.7115
   19DOPE   C35 2411   6.191   5.170  15.505 -0.0206  0.7173 -0.1193
   19DOPE   H5X 2412   6.083   5.159  15.530  0.5111 -0.2443  1.9836
   19DOPE   H5Y 2413   6.222   5.068  15.473 -0.6173  1.0082 -1.7446
   19DOPE   C36 2414   6.211   5.261  15.378  0.3630  0.2553 -0.0188
   19DOPE   H6X 2415   6.318   5.267  15.349  0.9332 -0.0749  1.8513
   19DOPE   H6Y 2416   6.179   5.362  15.411 -1.2497  0.8671 -3.0790
   19DOPE   C37 2417   6.103   5.231  15.277 -0.0445 -0.3383 -0.0162
   19DOPE   H7X 2418   6.104   5.124  15.248  1.5927 -0.5292  0.6501
   19DOPE   H7Y 2419   6.009   5.262  15.327  1.2172  0.5163  1.9677
   19DOPE   C38 2420   6.105   5.306  15.136 -0.1837  0.4195 -0.1203
   19DOPE   H8X 2421   6.098   5.413  15.165 -1.0116  0.5528 -0.7785
   19DOPE   H8Y 2422   6.025   5.288  15.061  0.2147  0.8121 -0.6439
   19DOPE   C39 2423   6.235   5.290  15.055  0.2803 -0.0610 -0.6869
   19DOPE   H9X 2424   6.322   5.346  15.094 -0.8014  0.1686  1.5907
   19DOPE  C310 2425   6.261   5.194  14.963 -0.3537 -0.3214  0.1866
   19DOPE  H10X 2426   6.360   5.206  14.916  0.1049  3.0103  1.6376
   19DOPE  C311 2427   6.169   5.095  14.899 -0.0189  0.1987  0.1134
   19DOPE  H11X 2428   6.222   5.000  14.874 -4.7158 -2.8336  0.3718
   19DOPE  H11Y 2429   6.082   5.062  14.959  0.4151 -0.0713  0.6099
   19DOPE  C312 2430   6.122   5.140  14.763 -0.1482  0.3897  0.0505
   19DOPE  H12X 2431   6.046   5.221  14.768  0.8483  1.2583  3.1296
   19DOPE  H12Y 2432   6.069   5.057  14.710  0.9160 -0.1790 -0.1575
   19DOPE  C313 2433   6.230   5.189  14.659 -0.2613  0.3373  0.2913
   19DOPE  H13X 2434   6.265   5.288  14.695  1.4700  0.0140 -0.3807
   19DOPE  H13Y 2435   6.318   5.122  14.665 -1.3802 -1.3048 -0.6484
   19DOPE  C314 2436   6.182   5.185  14.516  0.0962  0.5935 -0.4879
   19DOPE  H14X 2437   6.095   5.253  14.507 -0.8050 -0.2892  1.1418
   19DOPE  H14Y 2438   6.152   5.081  14.491  0.4445 -0.8131  4.0310
   19DOPE  C315 2439   6.287   5.242  14.415 -0.8008  0.2873 -0.2454
   19DOPE  H15X 2440   6.390   5.201  14.422 -0.7613  0.6632  2.3800
   19DOPE  H15Y 2441   6.293   5.351  14.440 -0.7502  0.2009  0.1208
   19DOPE  C316 2442   6.248   5.240  14.264 -0.1878 -0.3869  0.4071
   19DOPE  H16X 2443   6.163   5.310  14.251  0.2439  0.7099  2.9410
   19DOPE  H16Y 2444   6.219   5.139  14.227  0.5815 -0.9219  1.1897
   19DOPE  C317 2445   6.363   5.301  14.185 -0.0421 -0.1543  0.8299
   19DOPE  H17X 2446   6.402   5.381  14.252 -2.4062  1.0972  0.8232
   19DOPE  H17Y 2447   6.436   5.218  14.174 -1.2829 -1.2892  0.8913
   19DOPE  C318 2448   6.320   5.366  14.050 -0.5618  0.3541 -0.2245
   19DOPE  H18X 2449   6.399   5.405  13.983  0.0322  1.1474  0.9013
   19DOPE  H18Y 2450   6.256   5.297  13.990  0.4008 -0.6577 -0.1179
   19DOPE  H18Z 2451   6.255   5.456  14.062 -0.2806  0.3413  1.7977
   20DOPE     N 2452   5.278   5.498  17.017  0.3986  0.1686 -0.0315
   20DOPE   HN1 2453   5.321   5.413  17.057  2.2369  0.3297 -1.5445
   20DOPE   HN2 2454   5.295   5.479  16.916  0.3956 -0.7079  0.1191
   20DOPE   HN3 2455   5.324   5.582  17.057 -0.0535  1.1029 -1.3818
   20DOPE   C12 2456   5.127   5.496  17.027  0.0404 -0.4956  0.5581
   20DOPE  H12A 2457   5.095   5.598  17.058  0.3693 -0.6213  1.3422
   20DOPE  H12B 2458   5.102   5.426  17.110  0.0036  0.1620  1.1122
   20DOPE   C11 2459   5.062   5.447  16.900  0.4429 -0.6302  0.1193
   20DOPE  H11A 2460   5.083   5.519  16.818  3.2673 -1.0174  0.3938
   20DOPE  H11B 2461   4.952   5.442  16.915  0.3534  1.5367  0.5138
   20DOPE     P 2462   5.063   5.181  16.906 -0.3908 -0.3840 -0.0324
   20DOPE   O13 2463   5.059   5.173  17.049  0.4549  0.5873 -0.0590
   20DOPE   O14 2464   5.132   5.072  16.828 -0.1627 -0.4133  0.4640
   20DOPE   O11 2465   4.915   5.193  16.853 -0.2192 -1.0168  0.1515
   20DOPE   O12 2466   5.122   5.322  16.864 -0.1147  0.0559  0.0140
   20DOPE    C1 2467   4.868   5.118  16.744 -0.3497 -0.3257 -0.0775
   20DOPE    HA 2468   4.772   5.075  16.779  0.2612 -0.2927  1.7007
   20DOPE    HB 2469   4.922   5.023  16.725 -1.7303 -1.0178 -0.7011
   20DOPE    C2 2470   4.872   5.195  16.611  0.1855  0.5919  0.5725
   20DOPE    HS 2471   4.965   5.173  16.555  0.2093  0.8767  0.4984
   20DOPE   O21 2472   4.858   5.331  16.646  0.1849 -0.2007  0.1127
   20DOPE   C21 2473   4.916   5.412  16.559 -0.1941  0.0171  0.2996
   20DOPE   O22 2474   4.992   5.384  16.470 -0.3257 -0.3705  0.9320
   20DOPE   C22 2475   4.865   5.552  16.588  0.9373  0.0946 -0.5419
   20DOPE   H2R 2476   4.960   5.609  16.599  0.4270  0.9135 -0.2538
   20DOPE   H2S 2477   4.788   5.562  16.668 -0.4477 -1.3864 -1.6268
   20DOPE    C3 2478   4.746   5.138  16.528  0.0855 -0.0060  0.0850
   20DOPE    HX 2479   4.654   5.155  16.588 -0.8729 -0.2102 -1.2925
   20DOPE    HY 2480   4.761   5.030  16.510  1.2343  0.3300 -1.1713
   20DOPE   O31 2481   4.739   5.212  16.404  0.1403  0.3582  0.1653
   20DOPE   C31 2482   4.811   5.158  16.301  0.1436  0.1173 -0.4199
   20DOPE   O32 2483   4.895   5.068  16.316 -0.2550 -0.1742  0.0557
   20DOPE   C32 2484   4.777   5.238  16.178 -0.1362  0.6227  0.0371
   20DOPE   H2X 2485   4.728   5.171  16.104  1.2061  0.4305 -0.7099
   20DOPE   H2Y 2486   4.690   5.302  16.205  0.4330  1.5881 -0.3490
   20DOPE   C23 2487   4.786   5.620  16.467 -1.2610  0.6245 -0.8691
   20DOPE   H3R 2488   4.845   5.610  16.373  1.8194  1.7243  0.7808
   20DOPE   H3S 2489   4.783   5.730  16.480  1.0440  0.8100 -1.4258
   20DOPE   C24 2490   4.640   5.579  16.444  0.3614 -0.3775 -0.0090
   20DOPE   H4R 2491   4.595   5.601  16.543 -1.2777  1.5775 -1.0829
   20DOPE   H4S 2492   4.636   5.471  16.419 -1.3315 -0.4105  0.2873
   20DOPE   C25 2493   4.575   5.652  16.333 -0.8763  0.0604 -0.5958
   20DOPE   H5R 2494   4.571   5.762  16.351 -1.3523 -0.2355  1.2936
   20DOPE   H5S 2495   4.467   5.633  16.350 -0.2343 -1.7998  1.9413
   20DOPE   C26 2496   4.623   5.606  16.200 -1.1913 -0.5329  0.4854
   20DOPE   H6R 2497   4.624   5.495  16.202 -0.9948 -0.5169  2.3148
   20DOPE   H6S 2498   4.727   5.643  16.184 -1.2740 -0.4908  0.0134
   20DOPE   C27 2499   4.540   5.660  16.087  0.2139 -0.6173 -0.4345
   20DOPE   H7R 2500   4.558   5.770  16.094  1.7059 -0.8607 -0.2678
   20DOPE   H7S 2501   4.435   5.626  16.099 -0.2628  0.7238 -0.5936
   20DOPE   C28 2502   4.581   5.619  15.944  1.0717  0.3333  0.4751
   20DOPE   H8R 2503   4.590   5.509  15.941 -0.3486  0.1472  1.8853
   20DOPE   H8S 2504   4.670   5.679  15.914  1.6075 -0.8202 -0.3190
   20DOPE   C29 2505   4.462   5.648  15.856 -0.1033  0.4236  0.0528
   20DOPE   H9R 2506   4.364   5.656  15.905 -1.4593  0.1533 -2.4291
   20DOPE  C210 2507   4.465   5.677  15.721  0.0384  0.8066  0.3723
   20DOPE  H10R 2508   4.372   5.691  15.664 -1.1246  2.5471  2.5395
   20DOPE  C211 2509   4.589   5.682  15.637  0.2497 -0.4116  0.3061
   20DOPE  H11R 2510   4.674   5.696  15.707 -1.3093  0.3336  2.1377
   20DOPE  H11S 2511   4.597   5.774  15.576  1.1457 -1.1432 -0.7272
   20DOPE  C212 2512   4.609   5.568  15.538  0.1919 -0.0416  0.3706
   20DOPE  H12R 2513   4.596   5.475  15.598  0.0616 -0.4708 -0.3129
   20DOPE  H12S 2514   4.710   5.572  15.492 -0.2223  1.3619 -0.4694
   20DOPE  C213 2515   4.501   5.573  15.420 -0.0660 -0.7974  0.3675
   20DOPE  H13R 2516   4.400   5.593  15.461 -0.7115 -2.1760 -0.4912
   20DOPE  H13S 2517   4.521   5.478  15.366  1.0898  0.4415 -1.4735
   20DOPE  C214 2518   4.534   5.674  15.312 -0.2549 -0.7344 -0.5587
   20DOPE  H14R 2519   4.638   5.653  15.278  0.9814  0.7522  2.0181
   20DOPE  H14S 2520   4.536   5.773  15.363 -2.4362 -0.7458 -0.3759
   20DOPE  C215 2521   4.436   5.671  15.193 -0.0902  0.4755 -0.5309
   20DOPE  H15R 2522   4.433   5.771  15.145  1.3446 -0.1994 -2.1289
   20DOPE  H15S 2523   4.343   5.651  15.251 -0.0106 -1.5103 -0.9963
   20DOPE  C216 2524   4.466   5.565  15.091 -0.0507 -0.6002  0.1624
   20DOPE  H16R 2525   4.485   5.467  15.141  0.0961 -1.3338 -1.2573
   20DOPE  H16S 2526   4.564   5.599  15.052  0.5108  2.9574  3.9650
   20DOPE  C217 2527   4.358   5.549  14.981 -0.5860  0.1559 -0.0273
   20DOPE  H17R 2528   4.370   5.454  14.924 -0.5663 -0.6276  1.2407
   20DOPE  H17S 2529   4.358   5.639  14.916  1.1686  1.1888  1.3272
   20DOPE  C218 2530   4.210   5.539  15.030  0.0841 -0.1750 -0.0788
   20DOPE  H18R 2531   4.144   5.543  14.941  0.5008 -1.2825 -0.4680
   20DOPE  H18S 2532   4.183   5.628  15.091  1.1022 -1.7182  2.8311
   20DOPE  H18T 2533   4.200   5.438  15.076  0.7907 -0.2233 -0.0190
   20DOPE   C33 2534   4.899   5.291  16.105 -0.3366  0.0305 -0.7285
   20DOPE   H3X 2535   4.974   5.211  16.087  0.7333  0.4980  1.3942
   20DOPE   H3Y 2536   4.947   5.371  16.164 -0.2590  0.6477 -1.6082
   20DOPE   C34 2537   4.875   5.358  15.971 -0.0673 -1.2182  0.5029
   20DOPE   H4X 2538   4.812   5.286  15.913 -3.0213 -0.7408  2.9183
   20DOPE   H4Y 2539   4.807   5.445  15.984  0.9093 -0.1385 -1.2203
   20DOPE   C35 2540   4.995   5.390  15.894  0.2427  0.2888 -0.1772
   20DOPE   H5X 2541   5.068   5.307  15.891 -1.9758 -1.7641 -2.5227
   20DOPE   H5Y 2542   5.037   5.481  15.944 -2.6904  2.5990 -1.5832
   20DOPE   C36 2543   4.969   5.423  15.746  0.5321  0.2093  0.0964
   20DOPE   H6X 2544   5.065   5.459  15.702  0.4542  2.4097  1.5609
   20DOPE   H6Y 2545   4.901   5.507  15.720  0.9076  0.4464 -0.1348
   20DOPE   C37 2546   4.927   5.299  15.661  0.1768 -0.2732  0.0039
   20DOPE   H7X 2547   4.986   5.210  15.694  2.8218  1.7892  1.2037
   20DOPE   H7Y 2548   4.821   5.266  15.671  0.0992 -0.3417 -0.9289
   20DOPE   C38 2549   4.957   5.317  15.509  0.4669  0.8505  0.4388
   20DOPE   H8X 2550   5.068   5.311  15.508  0.4175 -1.9584  1.5715
   20DOPE   H8Y 2551   4.926   5.415  15.468 -0.0837  1.0978  1.4195
   20DOPE   C39 2552   4.898   5.214  15.418 -0.4429  0.4799 -0.1801
   20DOPE   H9X 2553   4.908   5.112  15.458 -1.4911 -0.0587 -1.2248
   20DOPE  C310 2554   4.821   5.231  15.306  0.5992 -0.2223 -0.3525
   20DOPE  H10X 2555   4.765   5.147  15.263  1.9667 -1.5358  0.3724
   20DOPE  C311 2556   4.781   5.368  15.249 -0.7550 -0.0486 -0.0814
   20DOPE  H11X 2557   4.676   5.376  15.214 -0.9542  2.6678  0.8959
   20DOPE  H11Y 2558   4.803   5.453  15.316  0.4266 -0.0704 -0.4069
   20DOPE  C312 2559   4.875   5.405  15.131  0.8448 -0.0772 -0.1686
   20DOPE  H12X 2560   4.980   5.402  15.168  0.8563 -2.3383 -0.2381
   20DOPE  H12Y 2561   4.863   5.512  15.102 -2.0377 -0.5049 -0.8364
   20DOPE  C313 2562   4.872   5.311  15.013 -0.5778  0.2194  0.7056
   20DOPE  H13X 2563   4.885   5.208  15.053  0.2405  0.5971  1.4532
   20DOPE  H13Y 2564   4.770   5.326  14.971 -0.0652  2.6976  0.1713
   20DOPE  C314 2565   4.975   5.339  14.909 -0.1354 -0.4694 -0.2627
   20DOPE  H14X 2566   5.063   5.324  14.974 -1.4578 -1.5462  1.3840
   20DOPE  H14Y 2567   4.973   5.443  14.869 -1.0777  0.2424  1.4886
   20DOPE  C315 2568   4.966   5.244  14.793 -1.2097  0.4410  0.4986
   20DOPE  H15X 2569   4.978   5.142  14.836  1.9644  0.4052 -0.2211
   20DOPE  H15Y 2570   5.052   5.269  14.727 -1.6922  0.2038 -0.2214
   20DOPE  C316 2571   4.842   5.269  14.704  0.1339  0.3992 -0.1817
   20DOPE  H16X 2572   4.807   5.372  14.730  0.2964  0.2167  0.7680
   20DOPE  H16Y 2573   4.760   5.199  14.731  2.4899 -1.9105  1.3144
   20DOPE  C317 2574   4.865   5.246  14.552 -0.3049  1.2205  0.5979
   20DOPE  H17X 2575   4.774   5.272  14.494  0.4038  0.4135 -0.9475
   20DOPE  H17Y 2576   4.946   5.320  14.530 -1.8892  2.6752 -0.5814
   20DOPE  C318 2577   4.897   5.101  14.525 -0.4533 -0.4965 -0.3473
   20DOPE  H18X 2578   4.938   5.097  14.422 -0.4137 -0.9982 -0.3124
   20DOPE  H18Y 2579   4.966   5.053  14.597 -1.0457 -1.6643 -0.5334
   20DOPE  H18Z 2580   4.810   5.032  14.528  0.1090 -1.1918  2.1132
   21DOPE     N 2581   1.907   0.792  16.556 -0.3451 -0.4369 -0.0204
   21DOPE   HN1 2582   1.954   0.761  16.468 -0.2233 -0.9306  0.2195
   21DOPE   HN2 2583   1.936   0.737  16.639 -1.8081 -1.4038 -0.1082
   21DOPE   HN3 2584   1.807   0.766  16.544 -0.9535  1.8149 -0.2300
   21DOPE   C12 2585   1.945   0.930  16.570 -0.6336  0.6599 -0.8012
   21DOPE  H12A 2586   2.055   0.937  16.564 -0.4925 -0.6591 -0.1362
   21DOPE  H12B 2587   1.902   0.951  16.670  1.2338 -1.4872  0.5264
   21DOPE   C11 2588   1.875   1.014  16.461  0.5085 -0.2393  0.3722
   21DOPE  H11A 2589   1.902   0.969  16.364  2.6541  1.2822  0.1959
   21DOPE  H11B 2590   1.916   1.117  16.471 -1.6839  0.8280 -0.9483
   21DOPE     P 2591   1.653   1.121  16.577 -0.2647  0.1977 -0.1917
   21DOPE   O13 2592   1.742   1.160  16.683  1.2810  0.0374 -0.3514
   21DOPE   O14 2593   1.536   1.042  16.621  0.4299 -0.3155  0.4965
   21DOPE   O11 2594   1.601   1.248  16.501 -0.3162 -0.3160 -0.7453
   21DOPE   O12 2595   1.733   1.035  16.474  0.6305  0.4897  0.3710
   21DOPE    C1 2596   1.692   1.349  16.460 -0.2463 -0.0883 -0.6022
   21DOPE    HA 2597   1.798   1.319  16.475 -0.0744  0.5211 -0.5775
   21DOPE    HB 2598   1.673   1.431  16.532  1.3195 -1.5178  1.5983
   21DOPE    C2 2599   1.677   1.386  16.311 -0.1955  0.3932 -0.1476
   21DOPE    HS 2600   1.567   1.397  16.294 -0.4819 -0.3254  1.1579
   21DOPE   O21 2601   1.730   1.275  16.231 -0.9414 -0.1312  0.3752
   21DOPE   C21 2602   1.646   1.226  16.142  0.0997 -0.3864  0.3830
   21DOPE   O22 2603   1.529   1.258  16.129  0.6832 -0.4597  0.4255
   21DOPE   C22 2604   1.716   1.114  16.059 -0.0954 -1.0150 -0.0924
   21DOPE   H2R 2605   1.669   1.026  16.109 -2.4747  0.1087 -0.1893
   21DOPE   H2S 2606   1.826   1.105  16.074 -0.1711 -2.0340 -0.0671
   21DOPE    C3 2607   1.746   1.519  16.277  0.0705  1.0871  0.1386
   21DOPE    HX 2608   1.840   1.515  16.336 -1.3865 -1.7043  2.5127
   21DOPE    HY 2609   1.689   1.601  16.326 -2.5439 -0.5045 -0.0419
   21DOPE   O31 2610   1.771   1.546  16.136 -0.1446  0.0529 -0.5061
   21DOPE   C31 2611   1.898   1.556  16.093  0.2694  0.0368 -0.0300
   21DOPE   O32 2612   2.003   1.534  16.154  0.4220 -0.2684 -0.5792
   21DOPE   C32 2613   1.892   1.603  15.950 -0.0444  0.2487 -0.4620
   21DOPE   H2X 2614   1.786   1.609  15.918  0.8950  2.3466 -3.6545
   21DOPE   H2Y 2615   1.941   1.703  15.947  1.2713 -0.3361  0.5327
   21DOPE   C23 2616   1.670   1.097  15.914 -0.2777  0.2968 -0.6157
   21DOPE   H3R 2617   1.560   1.115  15.920  0.0689  2.0850  2.6483
   21DOPE   H3S 2618   1.688   0.992  15.881 -0.2031 -0.5570  1.9172
   21DOPE   C24 2619   1.724   1.198  15.823 -0.3612 -0.0647 -0.0897
   21DOPE   H4R 2620   1.833   1.202  15.845 -0.1740  1.3770 -1.1596
   21DOPE   H4S 2621   1.700   1.304  15.843  0.9861  0.3858 -0.7444
   21DOPE   C25 2622   1.700   1.170  15.674  0.1822 -0.5056  0.1047
   21DOPE   H5R 2623   1.592   1.180  15.649  0.0757 -0.2706  0.6362
   21DOPE   H5S 2624   1.732   1.066  15.653  0.9147 -0.7012  2.0087
   21DOPE   C26 2625   1.785   1.259  15.590 -0.4267  0.6182  0.2537
   21DOPE   H6R 2626   1.879   1.286  15.643  0.8828  1.3260 -2.2601
   21DOPE   H6S 2627   1.729   1.352  15.568  1.5773  3.0552  4.2093
   21DOPE   C27 2628   1.829   1.188  15.464 -0.0181  0.5797  0.5751
   21DOPE   H7R 2629   1.869   1.086  15.483 -1.4585  0.0757  1.1014
   21DOPE   H7S 2630   1.912   1.241  15.414  1.4730 -3.0503 -1.2010
   21DOPE   C28 2631   1.715   1.178  15.362 -0.4654  0.0785 -0.6385
   21DOPE   H8R 2632   1.631   1.121  15.407 -0.4792 -0.6510 -1.5835
   21DOPE   H8S 2633   1.750   1.102  15.289 -0.3630  1.8605 -2.5474
   21DOPE   C29 2634   1.670   1.307  15.289 -0.2599  0.0104  0.5535
   21DOPE   H9R 2635   1.611   1.377  15.351  0.8991  1.2396  0.3239
   21DOPE  C210 2636   1.736   1.355  15.185 -0.2886 -1.3016  0.6625
   21DOPE  H10R 2637   1.705   1.455  15.150 -0.6490 -0.5372  2.9992
   21DOPE  C211 2638   1.854   1.300  15.105 -0.4012  0.1363  0.0650
   21DOPE  H11R 2639   1.900   1.204  15.138 -1.5437 -0.8917 -1.2160
   21DOPE  H11S 2640   1.934   1.376  15.115 -0.3269  0.2911 -1.4397
   21DOPE  C212 2641   1.827   1.296  14.952  0.8551 -0.3953  0.3152
   21DOPE  H12R 2642   1.789   1.392  14.911 -1.0167 -1.8364 -1.6061
   21DOPE  H12S 2643   1.755   1.214  14.929  0.5917  0.1844 -1.0108
   21DOPE  C213 2644   1.955   1.260  14.884 -0.0850  0.2217 -1.2098
   21DOPE  H13R 2645   2.016   1.195  14.949 -0.7625 -0.2053 -0.9933
   21DOPE  H13S 2646   2.008   1.355  14.859 -1.1167  0.9740 -0.6035
   21DOPE  C214 2647   1.941   1.177  14.761  0.8066 -0.1455  0.6840
   21DOPE  H14R 2648   1.866   1.224  14.694  0.4887  1.2139  1.9473
   21DOPE  H14S 2649   1.910   1.074  14.788  0.2790 -0.4063 -0.8401
   21DOPE  C215 2650   2.075   1.170  14.687 -0.2525 -0.5141 -0.3867
   21DOPE  H15R 2651   2.153   1.113  14.741  0.9500  1.9029  0.5662
   21DOPE  H15S 2652   2.117   1.273  14.683 -0.5466 -0.3134  0.9262
   21DOPE  C216 2653   2.063   1.103  14.548 -0.0138  0.3397 -0.6454
   21DOPE  H16R 2654   1.960   1.123  14.511  0.5722  1.0173 -1.9551
   21DOPE  H16S 2655   2.066   0.993  14.558  0.2684  0.3757 -0.3230
   21DOPE  C217 2656   2.176   1.132  14.458  0.6672  0.3096 -0.5247
   21DOPE  H17R 2657   2.275   1.118  14.505  1.2498 -0.7899 -1.9657
   21DOPE  H17S 2658   2.169   1.241  14.437 -0.5934  0.0176 -1.8156
   21DOPE  C218 2659   2.181   1.051  14.328  0.9513 -0.5475 -0.6198
   21DOPE  H18R 2660   2.087   1.060  14.270  0.3629 -0.6420  0.3003
   21DOPE  H18S 2661   2.189   0.943  14.350 -2.0320 -0.8108 -0.3636
   21DOPE  H18T 2662   2.268   1.092  14.272  4.2128 -3.1808  2.1123
   21DOPE   C33 2663   1.978   1.513  15.863  0.3227  0.4725  0.2922
   21DOPE   H3X 2664   1.921   1.424  15.826  1.0203  1.0276 -2.3772
   21DOPE   H3Y 2665   2.068   1.480  15.919  1.5469  0.7979 -1.3947
   21DOPE   C34 2666   2.018   1.587  15.731  0.0424 -0.1119  0.8408
   21DOPE   H4X 2667   2.086   1.673  15.747 -1.5181  0.9678  1.9285
   21DOPE   H4Y 2668   2.072   1.514  15.667 -0.5704  1.5563 -1.7452
   21DOPE   C35 2669   1.904   1.633  15.632  0.0407 -0.2353 -0.4817
   21DOPE   H5X 2670   1.829   1.687  15.692 -0.3126 -2.5187  1.2827
   21DOPE   H5Y 2671   1.862   1.533  15.606  0.8215 -1.0115  1.0835
   21DOPE   C36 2672   1.952   1.707  15.513  0.2600 -0.0364 -0.5942
   21DOPE   H6X 2673   2.015   1.794  15.543 -0.4594 -0.0326  1.0181
   21DOPE   H6Y 2674   1.862   1.754  15.469 -0.5830 -1.3712 -0.3224
   21DOPE   C37 2675   2.019   1.625  15.399  0.2544 -0.3477  0.4123
   21DOPE   H7X 2676   2.116   1.592  15.443  0.4165  0.5167  0.7079
   21DOPE   H7Y 2677   1.954   1.536  15.384  0.4683 -0.3226 -0.8052
   21DOPE   C38 2678   2.058   1.705  15.270 -0.1760 -1.1289  0.0376
   21DOPE   H8X 2679   2.119   1.794  15.297 -0.6952 -0.0699 -2.1010
   21DOPE   H8Y 2680   1.961   1.750  15.240  0.4350 -1.0519 -1.9141
   21DOPE   C39 2681   2.127   1.612  15.171 -0.4376  0.2301  0.0385
   21DOPE   H9X 2682   2.208   1.558  15.222  1.3572  3.2028  0.5366
   21DOPE  C310 2683   2.097   1.597  15.037  0.1913 -0.5073 -1.0106
   21DOPE  H10X 2684   2.147   1.517  14.981 -0.0899 -1.7163  0.3766
   21DOPE  C311 2685   1.994   1.685  14.965  0.0359  0.7528  0.2052
   21DOPE  H11X 2686   1.889   1.648  14.967 -0.2008  1.4216  0.3974
   21DOPE  H11Y 2687   2.000   1.786  15.011 -0.3357  0.2576  1.3745
   21DOPE  C312 2688   2.045   1.700  14.821  0.6604 -0.2359  0.8641
   21DOPE  H12X 2689   2.040   1.604  14.765  0.0219 -0.1944  0.8395
   21DOPE  H12Y 2690   2.148   1.740  14.808  1.0483 -1.2406  0.7866
   21DOPE  C313 2691   1.966   1.809  14.742 -0.1717  0.3121 -0.1573
   21DOPE  H13X 2692   1.858   1.781  14.740 -0.2704  0.6127 -3.0645
   21DOPE  H13Y 2693   1.984   1.904  14.797 -1.0544  0.1252  0.4906
   21DOPE  C314 2694   1.994   1.820  14.595  0.0248 -0.1600 -0.8693
   21DOPE  H14X 2695   2.093   1.868  14.578 -0.7944  1.4889 -1.1900
   21DOPE  H14Y 2696   1.917   1.887  14.551 -0.5556  0.5129  1.0444
   21DOPE  C315 2697   2.004   1.685  14.522  0.5106 -1.3293  0.2181
   21DOPE  H15X 2698   2.081   1.629  14.578  0.8585  1.0988  2.3870
   21DOPE  H15Y 2699   2.031   1.718  14.419 -1.3729  2.8587  0.8552
   21DOPE  C316 2700   1.871   1.611  14.517 -0.7039 -0.1843 -0.1765
   21DOPE  H16X 2701   1.801   1.673  14.458  1.0386  0.0435 -2.1220
   21DOPE  H16Y 2702   1.833   1.602  14.621 -0.5976  3.5606  0.3129
   21DOPE  C317 2703   1.882   1.466  14.452  1.0826 -0.1203  0.3196
   21DOPE  H17X 2704   1.936   1.414  14.534 -1.4089 -1.2802  1.3273
   21DOPE  H17Y 2705   1.775   1.436  14.447 -0.1235  3.5172  0.8875
   21DOPE  C318 2706   1.968   1.470  14.327 -0.2104 -0.3631  0.3054
   21DOPE  H18X 2707   1.951   1.376  14.271  1.5192 -1.1704  1.0649
   21DOPE  H18Y 2708   1.925   1.554  14.268 -0.7391  0.4647  1.7903
   21DOPE  H18Z 2709   2.076   1.493  14.334 -0.5788  1.0867  2.8685
   22DOPE     N 2710   0.675   4.750  17.457 -0.4346 -0.2184 -0.3432
   22DOPE   HN1 2711   0.610   4.707  17.525  0.2073  0.9182  1.0281
   22DOPE   HN2 2712   0.762   4.773  17.510  0.1419 -0.8134 -1.0068
   22DOPE   HN3 2713   0.640   4.834  17.406 -0.0283  0.2840  0.1984
   22DOPE   C12 2714   0.698   4.635  17.365 -1.0068  0.0387  0.6613
   22DOPE  H12A 2715   0.598   4.587  17.354 -0.6650 -0.4275 -0.6240
   22DOPE  H12B 2716   0.786   4.575  17.397 -0.4931  1.4650  2.0327
   22DOPE   C11 2717   0.721   4.691  17.223 -0.3288 -0.1272 -0.1214
   22DOPE  H11A 2718   0.641   4.767  17.212  0.2150  0.7179  1.5524
   22DOPE  H11B 2719   0.698   4.608  17.152 -2.7639  1.0156 -0.7904
   22DOPE     P 2720   0.970   4.680  17.119  0.1419  0.2260  0.0817
   22DOPE   O13 2721   0.996   4.540  17.158  0.3408 -0.3404 -0.5643
   22DOPE   O14 2722   1.087   4.768  17.122 -0.6287 -0.5607 -0.3983
   22DOPE   O11 2723   0.906   4.687  16.968  0.3574 -0.3958  0.5136
   22DOPE   O12 2724   0.854   4.743  17.209 -0.0345 -0.3596  0.0486
   22DOPE    C1 2725   0.868   4.807  16.913  0.4045  0.3463  0.1595
   22DOPE    HA 2726   0.939   4.890  16.935  0.3091  1.3653 -2.8290
   22DOPE    HB 2727   0.766   4.830  16.952  1.4166  1.1573  2.5120
   22DOPE    C2 2728   0.879   4.811  16.754 -1.2190  0.9397  0.3217
   22DOPE    HS 2729   0.862   4.917  16.728  3.1558  2.2547  1.9798
   22DOPE   O21 2730   0.796   4.718  16.698  0.5425  0.3279  0.1462
   22DOPE   C21 2731   0.666   4.745  16.689 -0.4879 -0.2925 -0.2499
   22DOPE   O22 2732   0.616   4.847  16.724  0.0971  0.3413 -0.4383
   22DOPE   C22 2733   0.609   4.616  16.617  0.5514 -0.6245 -0.7653
   22DOPE   H2R 2734   0.642   4.527  16.675 -1.5876 -0.5361  0.6884
   22DOPE   H2S 2735   0.656   4.618  16.516  1.1829  2.6232 -0.5178
   22DOPE    C3 2736   1.030   4.770  16.721  0.0061  0.3784 -0.5369
   22DOPE    HX 2737   1.058   4.683  16.784 -2.3383  0.5274  0.8315
   22DOPE    HY 2738   1.073   4.860  16.771  0.5521  0.1336 -0.5581
   22DOPE   O31 2739   1.068   4.765  16.583  0.5979  0.1666 -0.4710
   22DOPE   C31 2740   1.053   4.647  16.528 -0.2913  0.4981  0.2385
   22DOPE   O32 2741   1.013   4.546  16.583  0.0067 -0.0890  0.7106
   22DOPE   C32 2742   1.089   4.667  16.382 -0.8653  0.6710  0.1800
   22DOPE   H2X 2743   1.060   4.770  16.352  1.8496  1.4528 -0.0751
   22DOPE   H2Y 2744   1.199   4.653  16.379 -0.8828  0.1137  1.5434
   22DOPE   C23 2745   0.453   4.624  16.598 -0.3125  0.2067 -0.2932
   22DOPE   H3R 2746   0.425   4.725  16.562 -2.8673 -0.0016  0.8597
   22DOPE   H3S 2747   0.407   4.613  16.698 -1.3769  0.1941 -0.7736
   22DOPE   C24 2748   0.390   4.523  16.505 -0.2730 -1.2792  0.1448
   22DOPE   H4R 2749   0.281   4.542  16.498  0.4791  3.8603 -2.8702
   22DOPE   H4S 2750   0.420   4.422  16.542  2.7702 -0.1691  0.9986
   22DOPE   C25 2751   0.446   4.539  16.362 -0.0059 -0.1861 -0.3272
   22DOPE   H5R 2752   0.550   4.502  16.353 -0.3415 -0.9001 -1.4129
   22DOPE   H5S 2753   0.438   4.639  16.315 -1.5249 -0.3585 -0.4837
   22DOPE   C26 2754   0.374   4.430  16.280 -0.1307 -0.2178 -0.3958
   22DOPE   H6R 2755   0.268   4.462  16.268  0.2051  1.4577  0.6830
   22DOPE   H6S 2756   0.392   4.333  16.330 -2.3347 -0.2511  0.4295
   22DOPE   C27 2757   0.446   4.413  16.147  0.4213  0.3691  0.1536
   22DOPE   H7R 2758   0.556   4.423  16.166  0.0158  0.2762  3.1374
   22DOPE   H7S 2759   0.416   4.499  16.083  0.1538  1.2017  1.3552
   22DOPE   C28 2760   0.425   4.291  16.051 -0.1691 -0.6852  0.2790
   22DOPE   H8R 2761   0.454   4.197  16.101 -0.3013  0.0475  1.8079
   22DOPE   H8S 2762   0.494   4.298  15.964 -0.6283  0.6843 -0.0021
   22DOPE   C29 2763   0.289   4.304  15.995 -0.0069  0.8387 -0.0386
   22DOPE   H9R 2764   0.203   4.283  16.061  1.0852 -0.4659  1.0202
   22DOPE  C210 2765   0.256   4.346  15.872  0.9628 -0.5178 -0.5444
   22DOPE  H10R 2766   0.151   4.338  15.842  0.6611  0.1807  0.2730
   22DOPE  C211 2767   0.344   4.395  15.757 -0.0978  0.0828  0.3446
   22DOPE  H11R 2768   0.449   4.409  15.790  0.3541 -0.0377 -0.9683
   22DOPE  H11S 2769   0.301   4.484  15.707 -2.6157 -1.5368 -0.6087
   22DOPE  C212 2770   0.370   4.286  15.645 -0.3564 -0.3616 -0.3539
   22DOPE  H12R 2771   0.288   4.284  15.570  0.0629  0.0050 -0.8320
   22DOPE  H12S 2772   0.362   4.194  15.706  0.8698  0.0348  0.4501
   22DOPE  C213 2773   0.501   4.289  15.574 -0.0088  0.2887  0.4709
   22DOPE  H13R 2774   0.498   4.219  15.488  3.6279 -2.1208  2.0570
   22DOPE  H13S 2775   0.591   4.252  15.628 -0.9308 -1.1104  1.1135
   22DOPE  C214 2776   0.539   4.421  15.512 -0.3663  0.1440 -0.3143
   22DOPE  H14R 2777   0.647   4.404  15.495 -0.3625 -0.1810  0.0162
   22DOPE  H14S 2778   0.545   4.495  15.595  1.8082  0.3134 -0.5612
   22DOPE  C215 2779   0.469   4.468  15.386 -0.0046  0.1249  0.7242
   22DOPE  H15R 2780   0.516   4.562  15.353 -0.7855 -0.1666 -1.3575
   22DOPE  H15S 2781   0.361   4.493  15.400 -1.5068 -2.1607 -4.3901
   22DOPE  C216 2782   0.481   4.368  15.271  0.2715  0.5781  0.5413
   22DOPE  H16R 2783   0.439   4.274  15.312  0.1481  1.1536  1.7709
   22DOPE  H16S 2784   0.589   4.345  15.254  0.1456  0.9797 -0.9112
   22DOPE  C217 2785   0.424   4.429  15.139  0.2377  0.0831 -0.4990
   22DOPE  H17R 2786   0.507   4.483  15.090  1.6496 -1.2857  0.2908
   22DOPE  H17S 2787   0.342   4.502  15.155  1.7401  2.0838 -1.5237
   22DOPE  C218 2788   0.367   4.311  15.052  0.3926  0.0115 -0.4985
   22DOPE  H18R 2789   0.442   4.229  15.051  1.4734  0.9517  0.4470
   22DOPE  H18S 2790   0.323   4.346  14.956  0.2929  1.8446  0.1718
   22DOPE  H18T 2791   0.289   4.262  15.115  2.1151 -1.4357  0.6136
   22DOPE   C33 2792   1.008   4.557  16.310 -0.6663 -0.3658 -0.0996
   22DOPE   H3X 2793   0.899   4.575  16.327 -0.2742  0.7622  1.3950
   22DOPE   H3Y 2794   1.036   4.452  16.334  0.8300  0.0632  0.0772
   22DOPE   C34 2795   1.022   4.581  16.161 -0.3091 -0.1966  0.5292
   22DOPE   H4X 2796   0.983   4.684  16.144 -2.5334 -0.5162  3.1518
   22DOPE   H4Y 2797   1.129   4.582  16.131 -0.0314  0.3349  1.5045
   22DOPE   C35 2798   0.951   4.472  16.076  0.0470  1.0446 -0.3065
   22DOPE   H5X 2799   0.842   4.459  16.094 -0.0813 -0.3465 -1.8951
   22DOPE   H5Y 2800   0.993   4.373  16.103  1.0538  1.3431 -0.7068
   22DOPE   C36 2801   0.969   4.484  15.929 -0.0894  0.5564 -0.1695
   22DOPE   H6X 2802   1.073   4.449  15.913 -0.4296 -0.1723 -0.8672
   22DOPE   H6Y 2803   0.987   4.583  15.881  1.5088  1.3199  1.8598
   22DOPE   C37 2804   0.870   4.396  15.845 -0.9178  0.0848 -0.2485
   22DOPE   H7X 2805   0.850   4.303  15.901 -1.4968 -0.3701 -1.1818
   22DOPE   H7Y 2806   0.772   4.447  15.850  0.0741  2.0305  0.3293
   22DOPE   C38 2807   0.914   4.398  15.702 -0.2835 -1.0977 -0.9596
   22DOPE   H8X 2808   0.920   4.505  15.674 -1.0440 -1.2084 -1.5787
   22DOPE   H8Y 2809   0.832   4.349  15.645  1.2431 -2.8262 -1.7820
   22DOPE   C39 2810   1.047   4.327  15.677 -0.0419 -0.5749 -0.1446
   22DOPE   H9X 2811   1.065   4.248  15.750 -0.7497 -1.2674 -0.7094
   22DOPE  C310 2812   1.141   4.360  15.583 -0.0895 -0.1768  0.0923
   22DOPE  H10X 2813   1.237   4.305  15.578  0.4690  0.8246 -0.4692
   22DOPE  C311 2814   1.142   4.473  15.479  0.2595 -0.0279 -0.1673
   22DOPE  H11X 2815   1.061   4.549  15.481  0.4868  0.2135  0.1881
   22DOPE  H11Y 2816   1.236   4.531  15.494  0.0541  0.3767 -0.3993
   22DOPE  C312 2817   1.148   4.402  15.345 -0.3179  0.1221 -0.8813
   22DOPE  H12X 2818   1.054   4.344  15.338 -1.8930  2.4080  0.1757
   22DOPE  H12Y 2819   1.237   4.336  15.340  0.0913  0.3401  1.9243
   22DOPE  C313 2820   1.147   4.500  15.226 -1.0010 -0.2204  0.1574
   22DOPE  H13X 2821   1.085   4.590  15.248 -0.3230 -0.4608  3.5892
   22DOPE  H13Y 2822   1.251   4.536  15.216 -0.9655 -0.5701 -0.8447
   22DOPE  C314 2823   1.108   4.433  15.092  0.3098 -0.0121  0.4290
   22DOPE  H14X 2824   1.000   4.404  15.093  0.9360 -2.5951  1.4522
   22DOPE  H14Y 2825   1.170   4.342  15.076  2.3192  1.2122  1.0479
   22DOPE  C315 2826   1.124   4.516  14.972 -1.3314 -0.8189  0.0611
   22DOPE  H15X 2827   1.224   4.564  14.979 -2.0011  0.7916 -0.8832
   22DOPE  H15Y 2828   1.060   4.606  14.985  0.5611  0.3817  1.6508
   22DOPE  C316 2829   1.106   4.449  14.834  0.7468 -0.2119  0.4208
   22DOPE  H16X 2830   1.161   4.353  14.826  0.8974  0.0553 -4.7024
   22DOPE  H16Y 2831   1.155   4.516  14.761  1.0726 -0.3525  0.5082
   22DOPE  C317 2832   0.959   4.435  14.795 -0.2711 -0.1974  0.2088
   22DOPE  H17X 2833   0.910   4.356  14.856 -1.7213  1.1493  0.8484
   22DOPE  H17Y 2834   0.907   4.532  14.808 -1.7801 -0.4978 -2.6428
   22DOPE  C318 2835   0.929   4.409  14.649  0.0694  1.3639  0.5082
   22DOPE  H18X 2836   0.822   4.391  14.623  0.4466 -1.1997  0.5199
   22DOPE  H18Y 2837   0.971   4.485  14.580  2.7583 -1.2615 -0.9592
   22DOPE  H18Z 2838   0.995   4.323  14.623 -0.3907  0.7222  1.3985
   23DOPE     N 2839   4.305   0.981  16.974  0.8121  0.4402  0.1525
   23DOPE   HN1 2840   4.249   1.026  16.898  0.0820  0.3330  0.6194
   23DOPE   HN2 2841   4.245   0.909  17.018  0.7009  1.4039  1.6525
   23DOPE   HN3 2842   4.331   1.050  17.048 -0.3374  0.5622  0.4523
   23DOPE   C12 2843   4.432   0.934  16.914 -0.7711  0.2881 -0.1394
   23DOPE  H12A 2844   4.505   0.902  16.991 -1.1037 -1.5495 -0.5346
   23DOPE  H12B 2845   4.471   1.020  16.855  1.6640  0.4367  1.5577
   23DOPE   C11 2846   4.418   0.805  16.829 -0.1703 -0.0890  0.0703
   23DOPE  H11A 2847   4.523   0.786  16.797 -0.5309  0.8667 -1.8429
   23DOPE  H11B 2848   4.351   0.820  16.741 -1.1368  0.0501  0.8148
   23DOPE     P 2849   4.387   0.542  16.882 -0.5649  0.0205  0.5625
   23DOPE   O13 2850   4.265   0.476  16.928 -0.2034 -0.1018 -0.0562
   23DOPE   O14 2851   4.509   0.495  16.951  0.1833 -0.4119  0.1980
   23DOPE   O11 2852   4.386   0.532  16.726 -0.1507  0.6489  0.5983
   23DOPE   O12 2853   4.381   0.698  16.911  0.1282 -0.3765 -0.0694
   23DOPE    C1 2854   4.508   0.495  16.657 -0.1776 -0.3446  0.1126
   23DOPE    HA 2855   4.525   0.386  16.669  3.3496 -0.0595 -1.0671
   23DOPE    HB 2856   4.597   0.548  16.698 -1.0549  1.3333 -0.0614
   23DOPE    C2 2857   4.503   0.535  16.510  0.5653 -1.2470  0.0529
   23DOPE    HS 2858   4.596   0.487  16.473 -0.3340 -2.7846 -0.3238
   23DOPE   O21 2859   4.495   0.678  16.483 -0.8662  0.2892  0.3350
   23DOPE   C21 2860   4.621   0.739  16.493  0.1928  0.1287  0.0153
   23DOPE   O22 2861   4.727   0.682  16.510  0.1297  0.4501  0.2499
   23DOPE   C22 2862   4.594   0.888  16.474 -0.0816 -0.5597  0.5215
   23DOPE   H2R 2863   4.599   0.949  16.566  0.6418 -0.3871  0.3748
   23DOPE   H2S 2864   4.494   0.902  16.428  1.0564  0.9815 -1.6486
   23DOPE    C3 2865   4.376   0.478  16.431 -0.3370  0.0250  0.3602
   23DOPE    HX 2866   4.288   0.516  16.487  0.6275 -0.1184  2.0331
   23DOPE    HY 2867   4.392   0.368  16.433  0.5612  0.1511  0.3827
   23DOPE   O31 2868   4.360   0.522  16.295 -0.3281  0.5416 -0.2396
   23DOPE   C31 2869   4.422   0.452  16.204  0.0768 -0.4573 -0.4006
   23DOPE   O32 2870   4.493   0.357  16.224 -0.3775 -0.2740  0.2129
   23DOPE   C32 2871   4.397   0.510  16.069  0.5303 -0.3075 -0.6162
   23DOPE   H2X 2872   4.302   0.460  16.039 -0.6869  1.0607  0.7976
   23DOPE   H2Y 2873   4.373   0.618  16.070  1.3850 -0.1090 -0.9692
   23DOPE   C23 2874   4.693   0.953  16.370  0.0797 -0.0969 -0.1978
   23DOPE   H3R 2875   4.798   0.916  16.377 -0.8789 -3.4565 -1.9274
   23DOPE   H3S 2876   4.697   1.061  16.396 -1.9328 -0.1027  0.3089
   23DOPE   C24 2877   4.650   0.935  16.222  0.3503  0.1228  0.1556
   23DOPE   H4R 2878   4.542   0.962  16.215  0.3336 -0.0864 -0.3848
   23DOPE   H4S 2879   4.673   0.830  16.195 -2.8654 -1.2571  2.1656
   23DOPE   C25 2880   4.721   1.026  16.130 -0.5534 -1.0583  0.3847
   23DOPE   H5R 2881   4.828   0.999  16.120 -0.2721 -0.1359  0.8584
   23DOPE   H5S 2882   4.718   1.130  16.169  1.2765 -1.3437  1.3975
   23DOPE   C26 2883   4.652   1.035  15.987 -0.1728 -0.3103 -0.0667
   23DOPE   H6R 2884   4.550   1.075  16.002  0.7355  1.2437  3.0046
   23DOPE   H6S 2885   4.639   0.937  15.937 -1.2498 -0.3468  0.2577
   23DOPE   C27 2886   4.725   1.129  15.904  0.1837 -0.5549 -0.7536
   23DOPE   H7R 2887   4.830   1.096  15.889  0.6032  1.1864 -1.8875
   23DOPE   H7S 2888   4.736   1.222  15.964  0.7123  0.6815 -2.6780
   23DOPE   C28 2889   4.668   1.150  15.766 -0.3196  0.6701 -0.2911
   23DOPE   H8R 2890   4.567   1.196  15.769 -0.7230 -0.2037 -0.1737
   23DOPE   H8S 2891   4.658   1.060  15.701  0.7051  1.3051 -1.3628
   23DOPE   C29 2892   4.759   1.242  15.690  0.3920  0.8235  0.3916
   23DOPE   H9R 2893   4.740   1.350  15.704  1.1825  1.1058 -0.5859
   23DOPE  C210 2894   4.849   1.202  15.592  0.3258  0.1378  0.8300
   23DOPE  H10R 2895   4.919   1.276  15.550 -2.3034  1.9943 -0.5669
   23DOPE  C211 2896   4.880   1.060  15.539 -0.1629  0.1799 -0.7828
   23DOPE  H11R 2897   4.855   0.984  15.617  0.1834 -0.0488 -0.8950
   23DOPE  H11S 2898   4.989   1.049  15.522  0.2272 -1.1446  1.9140
   23DOPE  C212 2899   4.794   1.026  15.415  0.4073  1.0014  0.6569
   23DOPE  H12R 2900   4.693   1.048  15.456  0.3703 -0.5541  1.4743
   23DOPE  H12S 2901   4.789   0.915  15.403 -0.5139  1.3120 -2.5045
   23DOPE  C213 2902   4.837   1.102  15.293 -0.7390 -0.3901 -0.9070
   23DOPE  H13R 2903   4.938   1.075  15.257 -0.4383 -2.5148  1.2453
   23DOPE  H13S 2904   4.835   1.210  15.319  0.9788 -0.2196 -1.3756
   23DOPE  C214 2905   4.751   1.072  15.172 -0.4544 -0.0020 -0.0449
   23DOPE  H14R 2906   4.645   1.081  15.206 -0.3101 -1.4730  0.9195
   23DOPE  H14S 2907   4.756   0.964  15.145  0.5946 -0.4946  1.9090
   23DOPE  C215 2908   4.759   1.172  15.055 -0.5676 -0.5122  0.3208
   23DOPE  H15R 2909   4.796   1.272  15.086 -1.3808  0.2851 -1.1713
   23DOPE  H15S 2910   4.656   1.181  15.015 -0.7907  0.2504  1.0414
   23DOPE  C216 2911   4.863   1.113  14.950 -0.6100 -0.0329 -0.3625
   23DOPE  H16R 2912   4.818   1.018  14.914 -0.4803  0.5375 -2.1351
   23DOPE  H16S 2913   4.953   1.094  15.013 -1.4510  1.0408  1.2545
   23DOPE  C217 2914   4.886   1.205  14.841 -0.2551 -0.1113 -0.3046
   23DOPE  H17R 2915   4.910   1.309  14.872  1.2381 -0.1861 -1.1081
   23DOPE  H17S 2916   4.796   1.221  14.778  0.7348  1.0821 -1.4791
   23DOPE  C218 2917   5.008   1.160  14.762  0.7131 -0.0682  0.1183
   23DOPE  H18R 2918   5.045   1.232  14.686  1.5074 -0.6053 -0.0206
   23DOPE  H18S 2919   4.981   1.065  14.711 -0.3495 -0.5868  1.5753
   23DOPE  H18T 2920   5.095   1.146  14.831  0.4040  0.5190  0.6434
   23DOPE   C33 2921   4.508   0.486  15.966  0.5040 -0.7922 -0.1663
   23DOPE   H3X 2922   4.555   0.388  15.988  0.8649 -0.4261  0.7689
   23DOPE   H3Y 2923   4.588   0.559  15.990 -0.2012 -0.5735  1.6863
   23DOPE   C34 2924   4.461   0.506  15.815  0.3857 -0.4832  0.8387
   23DOPE   H4X 2925   4.400   0.417  15.789 -0.8504  0.0637  1.8078
   23DOPE   H4Y 2926   4.407   0.603  15.813  1.9749  0.4471 -1.4450
   23DOPE   C35 2927   4.572   0.535  15.721  0.0174  0.3143 -0.1849
   23DOPE   H5X 2928   4.657   0.463  15.721  1.9785  2.4368  2.5202
   23DOPE   H5Y 2929   4.631   0.625  15.747  0.0474  0.4294 -0.6401
   23DOPE   C36 2930   4.517   0.545  15.576  0.2189  0.1621 -0.8542
   23DOPE   H6X 2931   4.425   0.604  15.591 -0.9070 -2.2375  3.0252
   23DOPE   H6Y 2932   4.479   0.445  15.546  0.1515 -0.2946  0.6913
   23DOPE   C37 2933   4.620   0.596  15.480  0.4092 -0.0578 -0.2878
   23DOPE   H7X 2934   4.692   0.654  15.542  0.9063 -1.1994  0.2508
   23DOPE   H7Y 2935   4.678   0.512  15.435 -1.1505 -0.7339 -1.1168
   23DOPE   C38 2936   4.561   0.705  15.386  0.7010 -0.3841  0.6497
   23DOPE   H8X 2937   4.643   0.749  15.326 -0.0973  0.5640  0.2246
   23DOPE   H8Y 2938   4.528   0.794  15.444  0.1162 -0.9255  1.1616
   23DOPE   C39 2939   4.449   0.654  15.301 -0.0201  0.3100  0.9700
   23DOPE   H9X 2940   4.363   0.613  15.357 -1.3728  0.9866 -0.5455
   23DOPE  C310 2941   4.439   0.643  15.164  0.0540  0.1821  0.4747
   23DOPE  H10X 2942   4.336   0.622  15.129  0.7719 -0.0104 -1.6683
   23DOPE  C311 2943   4.536   0.689  15.062  0.1111 -0.2468 -0.0192
   23DOPE  H11X 2944   4.559   0.797  15.077 -0.6923 -0.0283 -0.3439
   23DOPE  H11Y 2945   4.627   0.629  15.085 -1.1239 -2.1142  0.1156
   23DOPE  C312 2946   4.507   0.659  14.921 -0.1152  0.4644  0.2359
   23DOPE  H12X 2947   4.417   0.704  14.873  0.5085 -0.5904 -2.0660
   23DOPE  H12Y 2948   4.493   0.550  14.909  0.5294  0.6715 -3.9488
   23DOPE  C313 2949   4.625   0.684  14.834  0.3166  0.1088  0.1630
   23DOPE  H13X 2950   4.674   0.777  14.871 -0.9994  1.2460 -0.8385
   23DOPE  H13Y 2951   4.704   0.606  14.843 -0.9807 -1.1018  1.6397
   23DOPE  C314 2952   4.584   0.714  14.685 -0.5038  0.2330  0.0921
   23DOPE  H14X 2953   4.516   0.801  14.684 -3.6066 -1.9851 -1.6371
   23DOPE  H14Y 2954   4.528   0.627  14.643  0.2821  0.1135 -0.7400
   23DOPE  C315 2955   4.707   0.739  14.596  0.1631  0.3884 -0.3198
   23DOPE  H15X 2956   4.771   0.647  14.598 -0.3652 -0.0181 -1.4089
   23DOPE  H15Y 2957   4.772   0.805  14.657 -0.2320 -0.7167  1.3775
   23DOPE  C316 2958   4.681   0.789  14.460  0.1981 -0.7910 -0.5258
   23DOPE  H16X 2959   4.608   0.872  14.466  3.5559  2.3703  0.5624
   23DOPE  H16Y 2960   4.633   0.700  14.414 -0.0001 -1.5683  1.1047
   23DOPE  C317 2961   4.805   0.816  14.367  0.1138 -0.1174  0.3871
   23DOPE  H17X 2962   4.769   0.834  14.264  0.3856 -4.0360 -0.5636
   23DOPE  H17Y 2963   4.847   0.912  14.402 -2.7869  0.8208  1.5995
   23DOPE  C318 2964   4.924   0.715  14.359 -0.3458  0.1166 -0.2933
   23DOPE  H18X 2965   4.974   0.703  14.457 -2.9123 -1.0594  0.9785
   23DOPE  H18Y 2966   4.888   0.614  14.330  0.7644 -0.7855  1.3518
   23DOPE  H18Z 2967   4.999   0.740  14.281  1.2579 -1.4628  0.6719
   24DOPE     N 2968   6.113   5.855  17.100 -0.4133  0.1325 -0.2292
   24DOPE   HN1 2969   6.168   5.787  17.045  1.9135  1.2056  0.6219
   24DOPE   HN2 2970   6.136   5.868  17.201 -1.6944  1.7731 -0.0880
   24DOPE   HN3 2971   6.014   5.822  17.095 -0.1429 -0.5452 -1.6462
   24DOPE   C12 2972   6.114   5.986  17.029  0.0065 -0.0864  0.0288
   24DOPE  H12A 2973   6.219   6.021  17.021  0.6704 -1.4941  1.9380
   24DOPE  H12B 2974   6.059   6.053  17.099 -1.1924 -2.4969  1.5328
   24DOPE   C11 2975   6.056   5.973  16.891 -0.2597 -0.0419  0.1707
   24DOPE  H11A 2976   6.129   5.938  16.815 -2.4727  1.5326 -2.9165
   24DOPE  H11B 2977   6.045   6.078  16.855  0.2035 -0.1175 -0.2101
   24DOPE     P 2978   5.883   5.836  16.750 -0.0588  0.0996  0.1710
   24DOPE   O13 2979   5.736   5.868  16.760 -0.3501  0.3090 -0.2789
   24DOPE   O14 2980   5.919   5.697  16.736 -0.1450 -0.0752 -0.2039
   24DOPE   O11 2981   5.954   5.929  16.642 -0.4251  0.3640  0.0749
   24DOPE   O12 2982   5.940   5.889  16.884  0.1839 -0.5097  0.6236
   24DOPE    C1 2983   6.065   5.878  16.562  0.4251  0.4616 -0.1666
   24DOPE    HA 2984   6.080   5.768  16.568  0.2315  0.4132 -0.5265
   24DOPE    HB 2985   6.159   5.930  16.588  0.6594 -0.3831  0.7326
   24DOPE    C2 2986   6.036   5.897  16.405 -0.2006  0.6289 -0.6302
   24DOPE    HS 2987   6.049   6.002  16.372  2.0868  0.9459  0.9428
   24DOPE   O21 2988   5.912   5.838  16.376  0.4177  0.2612 -0.0912
   24DOPE   C21 2989   5.867   5.858  16.250  1.1358  0.8166 -0.3038
   24DOPE   O22 2990   5.909   5.946  16.175  0.0092  0.0644  0.2563
   24DOPE   C22 2991   5.767   5.755  16.214  0.4476  0.0328  0.0181
   24DOPE   H2R 2992   5.676   5.745  16.277 -0.4434 -1.5151 -1.4363
   24DOPE   H2S 2993   5.818   5.656  16.204  0.1143 -0.1538  0.1500
   24DOPE    C3 2994   6.158   5.836  16.328 -0.5837  0.6733  0.0097
   24DOPE    HX 2995   6.172   5.736  16.374  1.4436  0.0594 -1.7731
   24DOPE    HY 2996   6.253   5.890  16.346  0.1714  0.7031 -3.3659
   24DOPE   O31 2997   6.145   5.818  16.181  0.4474 -0.3597 -0.6043
   24DOPE   C31 2998   6.218   5.900  16.105 -0.8467  0.2664 -0.2375
   24DOPE   O32 2999   6.292   5.983  16.146  0.3160 -0.7953  0.4098
   24DOPE   C32 3000   6.191   5.859  15.964 -0.0892 -0.7014 -0.0400
   24DOPE   H2X 3001   6.254   5.772  15.935  0.2318 -0.3847 -0.3174
   24DOPE   H2Y 3002   6.083   5.839  15.948 -0.6536  1.2890  0.9267
   24DOPE   C23 3003   5.709   5.781  16.073 -0.2200 -0.8245  0.4414
   24DOPE   H3R 3004   5.640   5.703  16.037 -1.9592  1.5255 -1.6931
   24DOPE   H3S 3005   5.790   5.777  15.997 -1.1557 -2.4446 -0.5156
   24DOPE   C24 3006   5.621   5.909  16.054 -0.3449 -0.0045  0.6161
   24DOPE   H4R 3007   5.679   6.003  16.066  0.7757 -0.7118  0.9227
   24DOPE   H4S 3008   5.540   5.905  16.129 -2.6802  2.2071 -1.5821
   24DOPE   C25 3009   5.549   5.898  15.916  0.9857  0.5548 -0.1219
   24DOPE   H5R 3010   5.467   5.972  15.914  1.0183  0.5829 -0.5434
   24DOPE   H5S 3011   5.505   5.797  15.905  1.3735  0.3291  0.3511
   24DOPE   C26 3012   5.637   5.928  15.790  0.0440 -0.2052  1.0516
   24DOPE   H6R 3013   5.742   5.892  15.798  0.1986  0.1666  0.7025
   24DOPE   H6S 3014   5.642   6.037  15.772 -2.4840 -0.2498 -0.3626
   24DOPE   C27 3015   5.572   5.878  15.653 -0.6477  1.2035  0.1868
   24DOPE   H7R 3016   5.553   5.770  15.668  2.9951  0.1118 -1.9424
   24DOPE   H7S 3017   5.654   5.893  15.580  0.0212 -0.6850  0.5083
   24DOPE   C28 3018   5.450   5.955  15.609  0.7478 -0.3935  0.5017
   24DOPE   H8R 3019   5.478   6.061  15.591 -0.3206 -0.5474 -2.5705
   24DOPE   H8S 3020   5.382   5.955  15.698 -1.6989 -0.7833 -1.2758
   24DOPE   C29 3021   5.379   5.898  15.493 -0.0206  0.0793  0.3441
   24DOPE   H9R 3022   5.296   5.832  15.521  0.3494 -0.9395 -0.8672
   24DOPE  C210 3023   5.404   5.925  15.364  0.3511 -0.3286 -0.3705
   24DOPE  H10R 3024   5.344   5.865  15.293  0.0140  0.0165 -0.3827
   24DOPE  C211 3025   5.514   6.006  15.312  0.0201 -0.1955 -0.0724
   24DOPE  H11R 3026   5.592   6.023  15.389  1.8232 -0.6726 -1.7262
   24DOPE  H11S 3027   5.474   6.108  15.292  2.2006  0.4164 -1.6950
   24DOPE  C212 3028   5.583   5.945  15.191  0.3302 -0.1987  0.0874
   24DOPE  H12R 3029   5.613   5.842  15.218  2.0995  0.2098 -0.2438
   24DOPE  H12S 3030   5.681   5.995  15.175 -1.0441  2.5530 -0.4727
   24DOPE  C213 3031   5.500   5.947  15.057 -0.2435 -0.4889 -0.3001
   24DOPE  H13R 3032   5.457   6.048  15.036 -1.1838 -1.3776 -3.0586
   24DOPE  H13S 3033   5.403   5.893  15.064 -0.0960 -0.7742 -0.4359
   24DOPE  C214 3034   5.577   5.906  14.935  0.2553  0.5699 -0.1468
   24DOPE  H14R 3035   5.606   5.799  14.935 -1.3424  0.0894 -1.4345
   24DOPE  H14S 3036   5.670   5.966  14.928  0.1553  0.7187 -0.1995
   24DOPE  C215 3037   5.494   5.926  14.804 -0.0132  0.2719 -0.0630
   24DOPE  H15R 3038   5.390   5.955  14.830 -0.2755 -0.8889  0.2322
   24DOPE  H15S 3039   5.509   5.834  14.743  2.5296  0.2902  0.4140
   24DOPE  C216 3040   5.542   6.042  14.708 -0.2769  0.8428  0.0751
   24DOPE  H16R 3041   5.583   6.130  14.762  1.2100  0.6520 -0.6927
   24DOPE  H16S 3042   5.454   6.075  14.649 -0.7232  0.4659  0.5136
   24DOPE  C217 3043   5.657   6.011  14.615  0.0597 -0.7422  0.5087
   24DOPE  H17R 3044   5.610   5.943  14.540 -0.2988 -1.9104  1.7352
   24DOPE  H17S 3045   5.746   5.966  14.664  0.2057  0.5641  1.4924
   24DOPE  C218 3046   5.709   6.129  14.535  0.1490  0.5763  0.2835
   24DOPE  H18R 3047   5.793   6.094  14.472  0.1862  1.2785 -0.0569
   24DOPE  H18S 3048   5.733   6.216  14.600 -1.7040 -0.0458  1.9268
   24DOPE  H18T 3049   5.635   6.162  14.459  0.6955 -1.7165 -1.3727
   24DOPE   C33 3050   6.220   5.967  15.860  0.6324 -0.3415 -0.0747
   24DOPE   H3X 3051   6.329   5.984  15.846  0.5658  1.5710  1.3237
   24DOPE   H3Y 3052   6.176   6.068  15.879  1.7527  0.1443  0.0284
   24DOPE   C34 3053   6.171   5.923  15.717 -0.3963 -0.0666 -0.8462
   24DOPE   H4X 3054   6.208   5.821  15.693 -1.1563 -0.3308 -0.9103
   24DOPE   H4Y 3055   6.060   5.916  15.723 -0.6682  3.2363 -0.1618
   24DOPE   C35 3056   6.213   6.015  15.610  0.3745 -1.1463  0.8081
   24DOPE   H5X 3057   6.322   6.007  15.592  0.4749  1.1614  0.1044
   24DOPE   H5Y 3058   6.201   6.118  15.649  0.3051 -0.6735 -0.4091
   24DOPE   C36 3059   6.132   5.985  15.489 -0.9460  0.0989  0.1914
   24DOPE   H6X 3060   6.023   6.003  15.506 -1.0088 -0.0993 -0.0060
   24DOPE   H6Y 3061   6.149   5.877  15.471  1.2507  0.4914 -0.3898
   24DOPE   C37 3062   6.172   6.064  15.361 -0.0293 -0.2399 -0.1437
   24DOPE   H7X 3063   6.174   6.174  15.378  1.8288 -0.1047 -1.0062
   24DOPE   H7Y 3064   6.280   6.040  15.347  0.1092 -0.6625  1.4311
   24DOPE   C38 3065   6.086   6.026  15.245  0.2088 -0.0491  0.6658
   24DOPE   H8X 3066   5.980   6.040  15.276 -0.1400 -0.9409 -0.1013
   24DOPE   H8Y 3067   6.107   5.924  15.209  2.2452  0.3274  0.6932
   24DOPE   C39 3068   6.112   6.122  15.129  0.0709 -0.2206 -0.5017
   24DOPE   H9X 3069   6.121   6.226  15.162  0.4945 -0.0352 -1.1899
   24DOPE  C310 3070   6.099   6.091  14.998 -0.1537 -0.0187  0.6257
   24DOPE  H10X 3071   6.090   6.174  14.927 -1.6137 -0.1330  0.6421
   24DOPE  C311 3072   6.084   5.957  14.933  0.1779 -0.6955 -0.5162
   24DOPE  H11X 3073   6.133   5.884  15.000  0.6717 -0.2161 -0.3527
   24DOPE  H11Y 3074   5.982   5.923  14.904 -0.2995  1.6513 -1.8973
   24DOPE  C312 3075   6.163   5.961  14.800  0.0079  0.4510  0.3632
   24DOPE  H12X 3076   6.172   5.856  14.765 -4.2949  0.1051 -0.2460
   24DOPE  H12Y 3077   6.268   5.991  14.822  0.0969 -1.0259  2.2252
   24DOPE  C313 3078   6.097   6.045  14.691  0.4899 -0.6885  0.3597
   24DOPE  H13X 3079   5.995   6.008  14.669  0.0954  0.3454  0.4031
   24DOPE  H13Y 3080   6.087   6.147  14.734 -1.0600 -0.4191 -0.5654
   24DOPE  C314 3081   6.179   6.060  14.562 -0.3082 -0.0902 -0.2720
   24DOPE  H14X 3082   6.222   5.960  14.540  1.1246 -0.8395  4.6564
   24DOPE  H14Y 3083   6.257   6.138  14.579  1.5093 -1.4046 -2.0243
   24DOPE  C315 3084   6.085   6.098  14.444  0.6683 -0.4852  0.1115
   24DOPE  H15X 3085   6.044   6.198  14.471  3.4381  0.1948  2.3152
   24DOPE  H15Y 3086   5.996   6.032  14.438 -1.0605  1.7699 -0.5635
   24DOPE  C316 3087   6.157   6.103  14.307 -0.2757 -0.0051  0.9574
   24DOPE  H16X 3088   6.194   6.003  14.278  1.8514  0.3177  2.3536
   24DOPE  H16Y 3089   6.244   6.169  14.325 -0.1317 -0.2968  1.3414
   24DOPE  C317 3090   6.078   6.179  14.194 -0.1397  0.0000 -0.4546
   24DOPE  H17X 3091   6.132   6.171  14.098 -0.0917  3.3561 -0.8426
   24DOPE  H17Y 3092   5.983   6.122  14.181  0.2179 -0.3651 -1.5240
   24DOPE  C318 3093   6.056   6.325  14.219  0.3710 -0.5732  0.1391
   24DOPE  H18X 3094   5.987   6.329  14.306 -0.2904  0.4286 -0.4145
   24DOPE  H18Y 3095   6.142   6.392  14.240  0.7047 -0.2451 -2.0274
   24DOPE  H18Z 3096   6.006   6.370  14.131  1.3001  1.8486  0.7810
   25DOPE     N 3097   0.144   0.269  16.222 -0.3151  0.0866  0.1855
   25DOPE   HN1 3098   0.186   0.340  16.159 -2.1054  1.1420  0.1289
   25DOPE   HN2 3099   0.181   0.177  16.188 -2.3471 -0.0514 -1.9503
   25DOPE   HN3 3100   0.043   0.250  16.206 -0.1836 -1.2145  0.7664
   25DOPE   C12 3101   0.187   0.269  16.368 -0.5930  0.1050 -0.3410
   25DOPE  H12A 3102   0.101   0.307  16.428 -0.2426  0.8078 -0.2820
   25DOPE  H12B 3103   0.271   0.341  16.368 -0.5905  0.1010 -0.4687
   25DOPE   C11 3104   0.241   0.133  16.426  0.0760  0.2802 -0.0595
   25DOPE  H11A 3105   0.159   0.059  16.411  0.4888  0.2190 -2.2142
   25DOPE  H11B 3106   0.255   0.135  16.536 -1.6092 -0.4547  0.2060
   25DOPE     P 3107   0.391  -0.067  16.355  0.4024 -0.1059  0.4902
   25DOPE   O13 3108   0.267  -0.135  16.393  0.4692 -0.1489  0.7344
   25DOPE   O14 3109   0.508  -0.093  16.437  0.1246 -0.6809 -0.1716
   25DOPE   O11 3110   0.424  -0.100  16.204 -0.2783  0.5491 -0.0619
   25DOPE   O12 3111   0.356   0.090  16.351  0.1331  0.0725  0.0715
   25DOPE    C1 3112   0.497   0.001  16.133  0.3097  0.1755  0.5079
   25DOPE    HA 3113   0.571  -0.047  16.065  0.1553 -1.5367  1.4872
   25DOPE    HB 3114   0.557   0.066  16.200 -2.1096  0.2078  2.8173
   25DOPE    C2 3115   0.404   0.083  16.038  0.2098 -0.1005  0.2725
   25DOPE    HS 3116   0.350   0.157  16.101 -0.8306  1.0077 -1.8297
   25DOPE   O21 3117   0.312  -0.003  15.965  0.3261 -0.0483  0.1690
   25DOPE   C21 3118   0.194  -0.028  16.020  0.1283 -0.6601 -0.2254
   25DOPE   O22 3119   0.150   0.025  16.123  0.9145  0.1089 -0.1228
   25DOPE   C22 3120   0.127  -0.152  15.959 -0.0070 -0.6141  0.3043
   25DOPE   H2R 3121   0.049  -0.184  16.031 -0.6810  1.5436  0.6039
   25DOPE   H2S 3122   0.194  -0.231  15.919 -1.8271 -0.6318 -3.1224
   25DOPE    C3 3123   0.483   0.168  15.936 -0.0201 -0.3822  0.2235
   25DOPE    HX 3124   0.573   0.213  15.984  0.2518 -2.6414  2.0267
   25DOPE    HY 3125   0.420   0.253  15.902  1.3842 -0.4340 -2.8822
   25DOPE   O31 3126   0.528   0.092  15.821  0.0109  0.0583  0.2353
   25DOPE   C31 3127   0.479   0.117  15.702  0.8826  0.6107  0.0273
   25DOPE   O32 3128   0.385   0.190  15.680  0.2888  0.1557  0.3893
   25DOPE   C32 3129   0.547   0.035  15.595 -0.4242  0.0126 -0.1488
   25DOPE   H2X 3130   0.652   0.012  15.624 -0.9807 -1.6166  0.7146
   25DOPE   H2Y 3131   0.490  -0.059  15.581  0.8922 -0.6704 -1.0980
   25DOPE   C23 3132   0.036  -0.124  15.834  0.6355 -0.0445 -0.1805
   25DOPE   H3R 3133  -0.037  -0.041  15.849 -0.5073 -0.9175 -0.8215
   25DOPE   H3S 3134  -0.019  -0.220  15.825  1.1926 -0.3731 -0.1222
   25DOPE   C24 3135   0.121  -0.093  15.708 -0.3263  0.0406  0.8332
   25DOPE   H4R 3136   0.216  -0.150  15.708  0.7642  1.7645  1.6533
   25DOPE   H4S 3137   0.158   0.012  15.710 -2.2632  0.8387 -1.0560
   25DOPE   C25 3138   0.044  -0.110  15.579 -0.1042  0.3132  0.1400
   25DOPE   H5R 3139  -0.030  -0.027  15.576  0.5429  0.8838 -1.8019
   25DOPE   H5S 3140  -0.015  -0.204  15.581  0.1477  0.1261 -0.7597
   25DOPE   C26 3141   0.135  -0.096  15.454  0.1591 -0.1158 -0.5861
   25DOPE   H6R 3142   0.162  -0.200  15.425  1.9058 -0.0077  0.5022
   25DOPE   H6S 3143   0.232  -0.051  15.485 -0.2359 -0.3276  1.0390
   25DOPE   C27 3144   0.073  -0.011  15.346 -0.2637 -0.4066  0.5034
   25DOPE   H7R 3145   0.042   0.081  15.400  2.3206 -0.4661  2.2716
   25DOPE   H7S 3146  -0.016  -0.064  15.304 -2.0193  1.3912  1.7676
   25DOPE   C28 3147   0.168   0.009  15.226  0.2325  0.0551  0.3319
   25DOPE   H8R 3148   0.247   0.079  15.259  0.0030  0.1944  0.5879
   25DOPE   H8S 3149   0.107   0.066  15.152 -1.0531 -1.2124  0.3604
   25DOPE   C29 3150   0.230  -0.113  15.167  0.4227  0.1827 -0.0253
   25DOPE   H9R 3151   0.315  -0.153  15.225 -1.9101 -0.9284  2.8966
   25DOPE  C210 3152   0.182  -0.176  15.054 -0.2014 -0.1623  0.5296
   25DOPE  H10R 3153   0.237  -0.267  15.024  1.5688  1.1671 -0.4264
   25DOPE  C211 3154   0.068  -0.142  14.958  0.1936  1.3010  0.3648
   25DOPE  H11R 3155  -0.016  -0.107  15.023 -1.3725  0.8218 -1.3299
   25DOPE  H11S 3156   0.027  -0.234  14.912  0.5545  0.8670  0.8988
   25DOPE  C212 3157   0.085  -0.042  14.839  0.0160  0.8177 -0.1955
   25DOPE  H12R 3158   0.126   0.048  14.888 -0.3594  1.4094 -0.9336
   25DOPE  H12S 3159  -0.018  -0.020  14.803  0.6513  0.2195 -2.6329
   25DOPE  C213 3160   0.164  -0.106  14.721  0.5037  0.3151 -0.6939
   25DOPE  H13R 3161   0.113  -0.201  14.694 -0.0652  0.4475 -0.0977
   25DOPE  H13S 3162   0.265  -0.133  14.759  0.3854 -2.8063 -2.3433
   25DOPE  C214 3163   0.157  -0.020  14.596 -0.4991  0.3132  0.0291
   25DOPE  H14R 3164   0.199   0.079  14.623  0.6268  0.5275 -2.2254
   25DOPE  H14S 3165   0.052  -0.004  14.562 -0.9058  0.5114  1.3415
   25DOPE  C215 3166   0.230  -0.086  14.484 -0.0894  1.3979  0.0257
   25DOPE  H15R 3167   0.182  -0.186  14.470  1.1100  1.0204 -1.6495
   25DOPE  H15S 3168   0.337  -0.108  14.504 -0.5411  0.3867  1.4577
   25DOPE  C216 3169   0.210  -0.018  14.347 -0.2902 -0.2657  0.5413
   25DOPE  H16R 3170   0.267   0.077  14.350 -2.2433  1.1181 -1.9232
   25DOPE  H16S 3171   0.103   0.008  14.332 -0.3169  0.3625  1.7065
   25DOPE  C217 3172   0.241  -0.105  14.220 -0.9913 -0.1438  0.0996
   25DOPE  H17R 3173   0.192  -0.204  14.229 -1.3646  0.0774  0.5686
   25DOPE  H17S 3174   0.349  -0.128  14.226 -1.4147 -2.5107 -0.3755
   25DOPE  C218 3175   0.210  -0.037  14.085  0.2211  0.2921 -0.2650
   25DOPE  H18R 3176   0.100  -0.031  14.071 -0.0747 -2.7096  0.1955
   25DOPE  H18S 3177   0.242  -0.108  14.006  0.8935 -0.9501  1.0598
   25DOPE  H18T 3178   0.269   0.057  14.080  1.4320 -0.5067 -1.6395
   25DOPE   C33 3179   0.544   0.104  15.455  0.4033  0.5823 -0.3827
   25DOPE   H3X 3180   0.548   0.215  15.458 -0.4499  0.6378 -0.9547
   25DOPE   H3Y 3181   0.440   0.086  15.421 -0.2023  2.6351  0.2543
   25DOPE   C34 3182   0.635   0.051  15.353 -0.3307  0.1929  0.5857
   25DOPE   H4X 3183   0.742   0.079  15.350 -0.1973 -0.3984 -1.7228
   25DOPE   H4Y 3184   0.630  -0.060  15.356 -1.7823  0.0881 -2.2974
   25DOPE   C35 3185   0.579   0.093  15.217 -0.1322  0.6491 -0.3731
   25DOPE   H5X 3186   0.601   0.198  15.190 -2.0332  0.8874 -1.1501
   25DOPE   H5Y 3187   0.468   0.089  15.223 -0.1139  0.8723  0.1679
   25DOPE   C36 3188   0.620   0.006  15.096  1.2991  0.2352 -0.5862
   25DOPE   H6X 3189   0.619  -0.103  15.122  0.9553  0.7096  1.5925
   25DOPE   H6Y 3190   0.728   0.018  15.072  1.4763 -1.4275 -0.8052
   25DOPE   C37 3191   0.534   0.051  14.972  0.9150  0.2555  0.0221
   25DOPE   H7X 3192   0.434   0.017  15.005 -0.6395  3.8781 -0.5348
   25DOPE   H7Y 3193   0.523   0.161  14.959 -0.3579  0.2497  0.9476
   25DOPE   C38 3194   0.553  -0.036  14.846  0.0136 -0.0918 -0.4266
   25DOPE   H8X 3195   0.466  -0.028  14.778  0.6366  2.1097 -1.0450
   25DOPE   H8Y 3196   0.567  -0.143  14.872 -0.0492 -0.1250 -0.5320
   25DOPE   C39 3197   0.672   0.024  14.771  0.2747 -1.0069 -0.0917
   25DOPE   H9X 3198   0.752   0.058  14.839 -1.2200  0.2727  1.1001
   25DOPE  C310 3199   0.705   0.010  14.645  0.2682 -0.5669 -0.3286
   25DOPE  H10X 3200   0.798   0.052  14.603  0.2814 -0.4465 -0.1777
   25DOPE  C311 3201   0.625  -0.068  14.537  0.0839 -0.7363 -1.3458
   25DOPE  H11X 3202   0.700  -0.139  14.498  2.3008  1.0367 -0.5629
   25DOPE  H11Y 3203   0.553  -0.137  14.586  1.5469 -0.3451  1.6114
   25DOPE  C312 3204   0.558   0.026  14.438 -0.5296  0.7958 -0.4079
   25DOPE  H12X 3205   0.476   0.084  14.485  0.5164  1.4082  0.7085
   25DOPE  H12Y 3206   0.521  -0.036  14.354  2.4342 -0.7497 -0.6986
   25DOPE  C313 3207   0.655   0.117  14.353 -0.4655  0.2234 -0.3581
   25DOPE  H13X 3208   0.712   0.193  14.411  1.2578 -1.2809 -0.0116
   25DOPE  H13Y 3209   0.730   0.051  14.304  0.1919  0.9218 -0.3145
   25DOPE  C314 3210   0.587   0.185  14.223 -0.0102 -0.3957 -0.3470
   25DOPE  H14X 3211   0.533   0.265  14.279  1.0639 -0.5902  1.0416
   25DOPE  H14Y 3212   0.515   0.113  14.180  0.1040 -0.5646 -0.2557
   25DOPE  C315 3213   0.687   0.248  14.122 -0.8447  0.3814 -0.0997
   25DOPE  H15X 3214   0.724   0.157  14.071 -2.8515 -0.7378  0.3616
   25DOPE  H15Y 3215   0.774   0.298  14.170 -1.9332  1.8192  0.4428
   25DOPE  C316 3216   0.617   0.328  14.017 -0.4206 -0.1091  0.5591
   25DOPE  H16X 3217   0.555   0.406  14.066  2.6073  2.8651 -0.0478
   25DOPE  H16Y 3218   0.547   0.264  13.958 -0.9670 -0.9782  2.0855
   25DOPE  C317 3219   0.722   0.395  13.924  1.0914 -0.3621  0.0962
   25DOPE  H17X 3220   0.816   0.424  13.976  0.0232  0.1470  1.8388
   25DOPE  H17Y 3221   0.751   0.321  13.846  0.9519  0.2634 -0.5596
   25DOPE  C318 3222   0.652   0.510  13.853  1.0783 -0.1086 -0.0781
   25DOPE  H18X 3223   0.642   0.603  13.913  1.0085 -1.2138  1.6816
   25DOPE  H18Y 3224   0.708   0.536  13.760  2.5600 -1.3274  0.4383
   25DOPE  H18Z 3225   0.549   0.476  13.830  1.6805 -0.3740 -2.7454
   26DOPE     N 3226   6.337   0.715  16.322 -0.2064  0.2705  0.0862
   26DOPE   HN1 3227   6.361   0.614  16.315 -0.6192  0.1430  0.4600
   26DOPE   HN2 3228   6.423   0.760  16.359  0.1671 -1.5476  1.6107
   26DOPE   HN3 3229   6.271   0.720  16.402  0.8699  2.1107  0.9295
   26DOPE   C12 3230   6.292   0.783  16.192 -0.1675  0.4899  0.4955
   26DOPE  H12A 3231   6.250   0.700  16.132 -0.9323 -1.1073  3.0697
   26DOPE  H12B 3232   6.379   0.828  16.139  1.3254 -1.3998  1.2273
   26DOPE   C11 3233   6.199   0.897  16.218 -0.6193  0.0337  0.1379
   26DOPE  H11A 3234   6.103   0.854  16.253  0.4757 -2.9463 -0.2878
   26DOPE  H11B 3235   6.170   0.947  16.123 -0.4719 -0.3378 -0.1039
   26DOPE     P 3236   6.184   1.139  16.321 -0.1604  0.5958 -0.0849
   26DOPE   O13 3237   6.236   1.201  16.446 -0.4040  0.0678  0.6003
   26DOPE   O14 3238   6.033   1.146  16.300  0.3666  0.2097  0.1842
   26DOPE   O11 3239   6.255   1.207  16.203  0.6058  0.2023 -0.3224
   26DOPE   O12 3240   6.239   0.994  16.319 -0.4765  0.2558  0.1991
   26DOPE    C1 3241   6.390   1.178  16.171 -0.8933 -0.7336  0.0819
   26DOPE    HA 3242   6.392   1.070  16.143 -0.3182 -0.5970 -0.4198
   26DOPE    HB 3243   6.450   1.187  16.264 -1.5754  0.1594  0.4497
   26DOPE    C2 3244   6.443   1.274  16.058  0.3349 -0.8237 -0.3606
   26DOPE    HS 3245   6.429   1.378  16.094 -2.3302 -1.0510 -0.5910
   26DOPE   O21 3246   6.382   1.263  15.931 -0.2539  0.1493  0.3788
   26DOPE   C21 3247   6.275   1.331  15.916 -0.7828 -0.3953  0.9811
   26DOPE   O22 3248   6.214   1.394  15.997 -0.0611  0.1457  0.0709
   26DOPE   C22 3249   6.231   1.325  15.768 -0.1185 -0.0198 -0.3631
   26DOPE   H2R 3250   6.265   1.228  15.725 -2.2222 -0.8893 -0.1810
   26DOPE   H2S 3251   6.288   1.399  15.709  0.4831  2.6281  3.2009
   26DOPE    C3 3252   6.601   1.266  16.037  0.3706  0.3236 -0.4158
   26DOPE    HX 3253   6.620   1.176  15.976  0.5744  1.6868 -2.4786
   26DOPE    HY 3254   6.643   1.255  16.139  1.4378 -0.3975 -0.9158
   26DOPE   O31 3255   6.650   1.381  15.971  0.0725 -0.0287 -0.5581
   26DOPE   C31 3256   6.762   1.361  15.909  0.0621  0.3177  0.0076
   26DOPE   O32 3257   6.829   1.259  15.917  0.2532 -0.2470 -0.3293
   26DOPE   C32 3258   6.797   1.492  15.834 -0.0921  0.4352  0.0620
   26DOPE   H2X 3259   6.718   1.498  15.756  0.0569 -1.2800 -0.2624
   26DOPE   H2Y 3260   6.795   1.583  15.897 -0.7820  0.1107  0.5248
   26DOPE   C23 3261   6.080   1.348  15.729 -0.4338  0.2249 -0.4311
   26DOPE   H3R 3262   6.054   1.453  15.756  0.9532  0.6782 -0.8012
   26DOPE   H3S 3263   6.013   1.284  15.790 -0.9108  1.5323  0.4668
   26DOPE   C24 3264   6.039   1.312  15.589  0.4126  0.5006 -0.0029
   26DOPE   H4R 3265   5.929   1.328  15.594  0.4329  0.6848 -0.0991
   26DOPE   H4S 3266   6.063   1.207  15.564  0.0054  0.6103 -0.9061
   26DOPE   C25 3267   6.096   1.401  15.477 -0.3915 -0.1021  0.0723
   26DOPE   H5R 3268   6.201   1.365  15.471 -0.4772 -0.4617  0.6876
   26DOPE   H5S 3269   6.108   1.507  15.509 -1.9595 -0.2336  1.2654
   26DOPE   C26 3270   6.025   1.393  15.338 -0.3354 -0.5298 -0.8975
   26DOPE   H6R 3271   5.922   1.434  15.341 -0.1278  0.0660 -1.6707
   26DOPE   H6S 3272   6.008   1.286  15.313  0.5117 -1.1718  1.1219
   26DOPE   C27 3273   6.092   1.477  15.219 -0.4208 -0.2925 -0.1237
   26DOPE   H7R 3274   6.178   1.419  15.180 -0.8889 -0.9343 -0.2245
   26DOPE   H7S 3275   6.135   1.570  15.260  3.3416 -1.7526 -0.3303
   26DOPE   C28 3276   5.994   1.497  15.099  0.0958 -0.2509 -0.1310
   26DOPE   H8R 3277   5.907   1.546  15.148  0.8425  0.9944  0.0039
   26DOPE   H8S 3278   5.970   1.394  15.067 -0.3944  0.0000 -0.5681
   26DOPE   C29 3279   6.054   1.593  14.999  0.4683  0.1642 -0.2200
   26DOPE   H9R 3280   6.132   1.664  15.031  2.4370 -2.4480  1.1812
   26DOPE  C210 3281   6.028   1.576  14.864 -0.3700  0.6907  0.4307
   26DOPE  H10R 3282   6.073   1.647  14.793  0.8342  0.4064  0.8828
   26DOPE  C211 3283   5.941   1.467  14.795  0.3140  0.1029 -0.6552
   26DOPE  H11R 3284   5.833   1.480  14.815  0.6731  0.6873  1.1257
   26DOPE  H11S 3285   5.968   1.368  14.835 -0.3873 -0.6791 -2.0460
   26DOPE  C212 3286   5.977   1.467  14.651 -0.0821  0.1467  0.2656
   26DOPE  H12R 3287   5.929   1.376  14.607  0.1575  0.4580 -0.6551
   26DOPE  H12S 3288   6.087   1.463  14.641  0.1963  4.3152  0.3076
   26DOPE  C213 3289   5.927   1.597  14.573  0.6931  0.6066 -0.5708
   26DOPE  H13R 3290   5.990   1.684  14.604  1.9761  0.1625 -1.8218
   26DOPE  H13S 3291   5.823   1.607  14.609  0.4448 -2.2477 -0.2919
   26DOPE  C214 3292   5.933   1.578  14.423 -0.5808 -0.3198 -0.5802
   26DOPE  H14R 3293   5.886   1.480  14.405  0.8640 -0.8623 -1.6714
   26DOPE  H14S 3294   6.041   1.557  14.404  0.1634  1.0567  1.6659
   26DOPE  C215 3295   5.854   1.682  14.336 -0.1122  0.1518 -0.7799
   26DOPE  H15R 3296   5.890   1.784  14.362  0.0865  0.0287 -0.5746
   26DOPE  H15S 3297   5.747   1.670  14.365 -0.0484  0.3596 -0.4442
   26DOPE  C216 3298   5.851   1.643  14.190  0.0880 -0.8063  0.4089
   26DOPE  H16R 3299   5.946   1.656  14.134 -1.4203 -1.7108 -2.5626
   26DOPE  H16S 3300   5.782   1.721  14.154  1.9517  0.7850  0.1168
   26DOPE  C217 3301   5.786   1.504  14.160 -0.3562 -1.0722 -0.0478
   26DOPE  H17R 3302   5.695   1.487  14.222  0.4087  1.5808  1.9829
   26DOPE  H17S 3303   5.860   1.426  14.188  0.3820 -0.2344  0.3968
   26DOPE  C218 3304   5.736   1.499  14.015 -0.1231  0.2374  0.1411
   26DOPE  H18R 3305   5.707   1.603  13.988  1.3005  0.7193  0.3945
   26DOPE  H18S 3306   5.650   1.429  14.013 -0.4074  0.5230  1.6938
   26DOPE  H18T 3307   5.814   1.455  13.948  1.1540  2.0163  0.3835
   26DOPE   C33 3308   6.928   1.483  15.751  0.0072  0.0818 -0.4740
   26DOPE   H3X 3309   6.934   1.393  15.687  0.5174  0.6715 -1.2746
   26DOPE   H3Y 3310   7.009   1.485  15.827 -0.0863 -2.7436 -0.1907
   26DOPE   C34 3311   6.942   1.607  15.659  0.0201  0.1302  0.1113
   26DOPE   H4X 3312   6.851   1.614  15.596  0.0351 -1.5437 -0.1246
   26DOPE   H4Y 3313   6.932   1.701  15.717 -0.9230 -1.0652  1.9810
   26DOPE   C35 3314   7.075   1.602  15.576 -0.1768 -0.0041  0.9906
   26DOPE   H5X 3315   7.054   1.529  15.495  2.4220  1.5307 -1.2642
   26DOPE   H5Y 3316   7.158   1.566  15.639 -0.4888 -0.9002  0.9013
   26DOPE   C36 3317   7.106   1.733  15.495 -0.4640 -0.4250 -0.4571
   26DOPE   H6X 3318   7.097   1.825  15.557 -1.1184 -0.7681 -0.0232
   26DOPE   H6Y 3319   7.023   1.729  15.420 -0.9890 -5.6314  0.0551
   26DOPE   C37 3320   7.243   1.727  15.434 -0.5009  1.1374  0.0669
   26DOPE   H7X 3321   7.317   1.685  15.506 -0.0636  1.1609 -0.3657
   26DOPE   H7Y 3322   7.243   1.653  15.351 -2.3382 -0.7415  1.6224
   26DOPE   C38 3323   7.316   1.858  15.381  0.3186  0.7392  0.1097
   26DOPE   H8X 3324   7.415   1.829  15.339  0.5385 -0.4422  1.3829
   26DOPE   H8Y 3325   7.333   1.925  15.468 -0.5567 -0.6004  1.3470
   26DOPE   C39 3326   7.231   1.931  15.284  0.3239  0.9502  0.6208
   26DOPE   H9X 3327   7.149   1.990  15.327  1.6414  2.7855  0.7590
   26DOPE  C310 3328   7.240   1.932  15.151 -0.7545  0.1714 -0.2125
   26DOPE  H10X 3329   7.172   1.983  15.081 -0.2362  2.0957  0.6327
   26DOPE  C311 3330   7.341   1.858  15.071 -0.3384  0.3637  0.0759
   26DOPE  H11X 3331   7.444   1.888  15.101 -0.1975 -0.3683  0.3610
   26DOPE  H11Y 3332   7.326   1.748  15.080 -0.6292 -0.0309 -3.6081
   26DOPE  C312 3333   7.340   1.859  14.914  0.6010  0.3564 -0.3497
   26DOPE  H12X 3334   7.427   1.802  14.877 -0.1258  0.5631 -2.5367
   26DOPE  H12Y 3335   7.343   1.967  14.887  0.0368  1.7362  4.2565
   26DOPE  C313 3336   7.215   1.790  14.863 -0.2269  0.2440  0.4427
   26DOPE  H13X 3337   7.191   1.694  14.913  1.2839  0.8091  2.3703
   26DOPE  H13Y 3338   7.126   1.854  14.882  0.3883  1.4005 -0.4643
   26DOPE  C314 3339   7.214   1.774  14.712 -0.2755  0.0150 -0.0342
   26DOPE  H14X 3340   7.233   1.875  14.669  2.2428 -0.1346  0.5932
   26DOPE  H14Y 3341   7.115   1.739  14.675 -0.2194  1.6907 -1.9808
   26DOPE  C315 3342   7.331   1.678  14.660  0.0912  0.1333 -0.1521
   26DOPE  H15X 3343   7.319   1.586  14.722 -0.4768  1.0346  1.1028
   26DOPE  H15Y 3344   7.432   1.719  14.684  0.0897  0.3871 -0.5618
   26DOPE  C316 3345   7.330   1.662  14.507 -0.4065  0.1362  0.0549
   26DOPE  H16X 3346   7.374   1.758  14.471  0.1061 -1.1810 -3.1782
   26DOPE  H16Y 3347   7.224   1.660  14.477  0.0960  0.4854 -1.8648
   26DOPE  C317 3348   7.419   1.541  14.466 -0.3359  0.1451  0.5150
   26DOPE  H17X 3349   7.518   1.555  14.514 -0.2459  0.0867  0.3473
   26DOPE  H17Y 3350   7.375   1.452  14.515  2.6152 -1.4190  0.5597
   26DOPE  C318 3351   7.432   1.530  14.316 -0.0966  0.2510  0.4670
   26DOPE  H18X 3352   7.446   1.628  14.266  1.9968 -0.3578 -0.2389
   26DOPE  H18Y 3353   7.519   1.464  14.293  1.3967  2.2221  0.1503
   26DOPE  H18Z 3354   7.338   1.484  14.280 -0.3825  1.0954  0.1140
   27DOPE     N 3355   5.287   1.668  17.060 -0.0992 -0.0104 -0.7612
   27DOPE   HN1 3356   5.253   1.760  17.094  1.9503 -0.1984  2.1210
   27DOPE   HN2 3357   5.226   1.587  17.085  0.0124  0.8582  2.8124
   27DOPE   HN3 3358   5.374   1.657  17.116 -0.1516  2.9796  0.0751
   27DOPE   C12 3359   5.310   1.657  16.920 -0.2120  0.1737 -0.1441
   27DOPE  H12A 3360   5.381   1.737  16.889 -1.2175  0.4522 -1.8812
   27DOPE  H12B 3361   5.221   1.684  16.859  0.0626  0.2025 -0.5408
   27DOPE   C11 3362   5.378   1.520  16.896  0.6862 -0.5902 -0.4543
   27DOPE  H11A 3363   5.469   1.526  16.959  1.1573  0.8818 -1.2430
   27DOPE  H11B 3364   5.417   1.513  16.792 -0.1951 -0.6678 -0.7884
   27DOPE     P 3365   5.240   1.299  16.855 -0.0351  0.3266  0.4337
   27DOPE   O13 3366   5.092   1.301  16.878 -0.4829 -0.2768  0.3089
   27DOPE   O14 3367   5.309   1.178  16.885 -0.3457 -0.0826  0.2917
   27DOPE   O11 3368   5.273   1.346  16.709  0.3257  0.3947 -0.1393
   27DOPE   O12 3369   5.298   1.419  16.947 -0.4138  0.0562 -0.1081
   27DOPE    C1 3370   5.195   1.429  16.625 -0.3407  0.3251  0.2971
   27DOPE    HA 3371   5.263   1.479  16.554 -1.2682  0.5255 -0.4790
   27DOPE    HB 3372   5.136   1.502  16.685 -1.9260 -0.1905 -0.5651
   27DOPE    C2 3373   5.103   1.331  16.537  0.1048  0.9819  0.0785
   27DOPE    HS 3374   5.044   1.266  16.606  0.9497  0.8121  0.6618
   27DOPE   O21 3375   5.187   1.262  16.442 -0.3082  0.4624  0.4369
   27DOPE   C21 3376   5.132   1.156  16.375 -0.1326 -0.4359 -0.5022
   27DOPE   O22 3377   5.027   1.103  16.413 -0.3389 -0.1278 -0.4288
   27DOPE   C22 3378   5.221   1.100  16.266  0.2419 -0.7584  0.1436
   27DOPE   H2R 3379   5.219   0.989  16.270  0.0926 -1.0992 -4.1562
   27DOPE   H2S 3380   5.327   1.131  16.279 -0.1407  0.7559 -0.1459
   27DOPE    C3 3381   4.998   1.427  16.473 -0.5488  0.8571 -0.3820
   27DOPE    HX 3382   4.963   1.491  16.557 -2.9426  0.5576 -1.0993
   27DOPE    HY 3383   4.907   1.375  16.436  0.2904  0.8520 -2.5462
   27DOPE   O31 3384   5.057   1.519  16.378  0.2291  0.2125 -0.6682
   27DOPE   C31 3385   5.041   1.474  16.253  0.1962  0.1050  0.5410
   27DOPE   O32 3386   4.965   1.385  16.214  0.3237 -0.1993 -0.3821
   27DOPE   C32 3387   5.134   1.551  16.158  0.0673 -0.0515 -1.5102
   27DOPE   H2X 3388   5.202   1.613  16.221  1.5664 -0.2137 -2.8803
   27DOPE   H2Y 3389   5.199   1.473  16.111 -1.6014 -3.4035  1.2870
   27DOPE   C23 3390   5.174   1.127  16.125  0.5804 -0.6487 -0.0990
   27DOPE   H3R 3391   5.195   1.234  16.105  4.9848 -0.9810  1.7446
   27DOPE   H3S 3392   5.066   1.108  16.109  0.4645 -0.2320  0.1803
   27DOPE   C24 3393   5.261   1.049  16.027  0.8909  0.1540  0.0541
   27DOPE   H4R 3394   5.229   0.943  16.039 -1.1949  0.6217 -0.9238
   27DOPE   H4S 3395   5.369   1.063  16.046  1.1898  0.2805 -1.5686
   27DOPE   C25 3396   5.256   1.105  15.888 -0.0455 -0.5283  0.6610
   27DOPE   H5R 3397   5.315   1.199  15.879 -1.7958  0.4469 -1.7140
   27DOPE   H5S 3398   5.153   1.136  15.862 -0.5483 -1.5047  1.4271
   27DOPE   C26 3399   5.312   1.008  15.784  0.6850 -0.1331  0.0239
   27DOPE   H6R 3400   5.242   0.925  15.762  0.7667 -0.7426  1.9108
   27DOPE   H6S 3401   5.413   0.978  15.820  0.2210 -3.7787 -1.2648
   27DOPE   C27 3402   5.336   1.084  15.647  0.0916  0.0190  0.5811
   27DOPE   H7R 3403   5.389   1.182  15.658 -0.8883  0.8102 -1.3044
   27DOPE   H7S 3404   5.237   1.115  15.609 -0.9850 -2.8424  0.8081
   27DOPE   C28 3405   5.405   1.010  15.532  0.6987 -0.7831  0.5677
   27DOPE   H8R 3406   5.472   0.932  15.573  1.1343 -0.5876  0.2401
   27DOPE   H8S 3407   5.460   1.076  15.461 -0.3588  1.0819  1.4177
   27DOPE   C29 3408   5.306   0.925  15.451 -0.3164 -0.1902  0.5599
   27DOPE   H9R 3409   5.282   0.825  15.492 -1.0081 -0.2853 -0.0438
   27DOPE  C210 3410   5.240   0.956  15.334  0.4415  0.0185 -0.1095
   27DOPE  H10R 3411   5.174   0.885  15.282 -0.8479  2.0666 -1.4170
   27DOPE  C211 3412   5.265   1.084  15.257 -0.3358  0.3456 -0.2017
   27DOPE  H11R 3413   5.302   1.154  15.335 -0.7123  0.0125  0.2843
   27DOPE  H11S 3414   5.163   1.115  15.226 -1.3368  1.0032  3.2816
   27DOPE  C212 3415   5.361   1.083  15.132 -0.7551 -0.1509 -0.6546
   27DOPE  H12R 3416   5.338   0.996  15.066  2.0950 -0.9906 -0.6713
   27DOPE  H12S 3417   5.469   1.076  15.157 -0.8587 -0.6117 -0.3158
   27DOPE  C213 3418   5.329   1.206  15.046 -0.1439  0.1446 -0.4478
   27DOPE  H13R 3419   5.338   1.294  15.115 -0.1983 -1.2220  1.3825
   27DOPE  H13S 3420   5.221   1.196  15.020 -0.2187 -0.4953  0.0857
   27DOPE  C214 3421   5.420   1.216  14.930  0.0105  0.3728 -0.0302
   27DOPE  H14R 3422   5.412   1.115  14.883 -1.2369  0.9726 -1.1886
   27DOPE  H14S 3423   5.527   1.236  14.953  0.1113 -1.0862  0.9348
   27DOPE  C215 3424   5.363   1.317  14.828 -0.4444 -0.3300 -0.0841
   27DOPE  H15R 3425   5.370   1.418  14.874 -2.5510 -0.3575  0.3648
   27DOPE  H15S 3426   5.256   1.290  14.819 -0.0995 -1.0927 -3.2306
   27DOPE  C216 3427   5.418   1.306  14.686 -0.4249  0.2668  0.2859
   27DOPE  H16R 3428   5.379   1.209  14.651  1.9505 -0.3635 -0.7861
   27DOPE  H16S 3429   5.529   1.306  14.695 -0.4227 -2.8330  1.3255
   27DOPE  C217 3430   5.372   1.420  14.596  0.0677 -0.2015  0.0866
   27DOPE  H17R 3431   5.360   1.509  14.662 -0.9178 -0.9998  1.0032
   27DOPE  H17S 3432   5.276   1.399  14.545  0.9852  1.3332 -2.4549
   27DOPE  C218 3433   5.465   1.441  14.481 -0.6172 -0.1115  0.4126
   27DOPE  H18R 3434   5.570   1.459  14.514 -0.2979 -2.0912  0.6068
   27DOPE  H18S 3435   5.433   1.511  14.401 -0.8965 -0.1544  0.4849
   27DOPE  H18T 3436   5.477   1.348  14.421 -0.0995 -0.9777  1.8325
   27DOPE   C33 3437   5.061   1.636  16.054 -0.2652  0.3247  0.5135
   27DOPE   H3X 3438   5.140   1.706  16.020 -1.0639  1.2548  0.5445
   27DOPE   H3Y 3439   4.976   1.695  16.093 -0.7596 -1.1411  1.7719
   27DOPE   C34 3440   5.025   1.561  15.927  0.5235 -0.9660  1.0918
   27DOPE   H4X 3441   4.988   1.459  15.952  1.5674 -1.8328 -0.7083
   27DOPE   H4Y 3442   4.956   1.622  15.865  0.6619 -2.0549 -0.1686
   27DOPE   C35 3443   5.140   1.540  15.826  0.6143 -0.5431  0.2256
   27DOPE   H5X 3444   5.211   1.469  15.873 -1.0787 -2.0324  0.6395
   27DOPE   H5Y 3445   5.184   1.642  15.819  0.2480 -0.4120 -0.2414
   27DOPE   C36 3446   5.087   1.492  15.692  0.4431 -0.1489  0.0558
   27DOPE   H6X 3447   4.996   1.551  15.670  0.1262 -0.0973  1.3935
   27DOPE   H6Y 3448   5.064   1.383  15.698 -1.0847  0.2087  2.4968
   27DOPE   C37 3449   5.184   1.519  15.576  0.0758  0.4909 -0.2940
   27DOPE   H7X 3450   5.217   1.625  15.581 -0.6751  0.6604  2.3032
   27DOPE   H7Y 3451   5.274   1.454  15.586 -0.6619 -1.3092 -3.6752
   27DOPE   C38 3452   5.125   1.490  15.440 -0.3933 -0.5465  0.2649
   27DOPE   H8X 3453   5.030   1.544  15.423  0.3052  0.1792 -1.6108
   27DOPE   H8Y 3454   5.110   1.380  15.448  1.1909 -0.8066  0.0266
   27DOPE   C39 3455   5.222   1.511  15.330 -0.3804 -0.8214  0.3881
   27DOPE   H9X 3456   5.326   1.515  15.366 -1.1801  0.7410  2.8136
   27DOPE  C310 3457   5.190   1.565  15.208 -0.6034  0.4294  0.1993
   27DOPE  H10X 3458   5.266   1.602  15.137 -1.4738  1.2513 -0.3280
   27DOPE  C311 3459   5.050   1.600  15.171 -0.2453  0.2886  0.1175
   27DOPE  H11X 3460   4.973   1.549  15.233  0.4389  0.6188  1.2604
   27DOPE  H11Y 3461   5.031   1.708  15.185  1.3396  0.8878 -1.8794
   27DOPE  C312 3462   5.023   1.573  15.023  0.1503  0.9460 -0.3495
   27DOPE  H12X 3463   4.915   1.588  15.000 -0.8189 -2.7218  1.0819
   27DOPE  H12Y 3464   5.036   1.463  15.009 -0.5579  0.8092 -0.0102
   27DOPE  C313 3465   5.109   1.649  14.925  0.6467  0.6798  0.0749
   27DOPE  H13X 3466   5.068   1.752  14.929  0.0481  0.4738 -0.4868
   27DOPE  H13Y 3467   5.217   1.639  14.948  0.3287  0.3175  1.4947
   27DOPE  C314 3468   5.075   1.603  14.781  0.3213  0.3692 -0.4177
   27DOPE  H14X 3469   4.965   1.597  14.765 -0.0322 -0.1319  1.7588
   27DOPE  H14Y 3470   5.121   1.505  14.755  0.1270  0.5997 -1.6971
   27DOPE  C315 3471   5.131   1.700  14.666  0.9720  0.1797 -0.1935
   27DOPE  H15X 3472   5.239   1.673  14.665  0.7071 -1.2666  1.7908
   27DOPE  H15Y 3473   5.129   1.803  14.709  0.7392 -0.9226  2.6968
   27DOPE  C316 3474   5.066   1.686  14.527  0.4818  0.2848  0.6527
   27DOPE  H16X 3475   4.985   1.762  14.523 -0.0607 -0.1697  2.2049
   27DOPE  H16Y 3476   5.018   1.586  14.525  1.4607 -0.2307  1.6143
   27DOPE  C317 3477   5.162   1.711  14.408  0.1963 -0.1780 -0.5908
   27DOPE  H17X 3478   5.211   1.809  14.425 -1.3841  0.6887 -0.8851
   27DOPE  H17Y 3479   5.239   1.632  14.422  0.3661  0.4278  2.9394
   27DOPE  C318 3480   5.098   1.707  14.271 -0.1306 -0.4309  0.1617
   27DOPE  H18X 3481   5.040   1.616  14.245  0.2864 -0.6359 -0.0552
   27DOPE  H18Y 3482   5.018   1.784  14.276  0.6516  0.3653  1.0155
   27DOPE  H18Z 3483   5.174   1.722  14.192 -0.3312 -2.0118 -0.3584
   28DOPE     N 3484   0.342   1.038  16.478  0.1767  0.1364  0.0009
   28DOPE   HN1 3485   0.396   1.124  16.503 -0.9251  0.7722  0.3019
   28DOPE   HN2 3486   0.407   0.964  16.446 -1.6373 -1.4063 -0.3181
   28DOPE   HN3 3487   0.286   1.066  16.395  1.1473  1.0695 -0.3499
   28DOPE   C12 3488   0.249   1.001  16.585 -0.3661 -0.0712 -1.0309
   28DOPE  H12A 3489   0.176   1.079  16.614 -0.2215 -0.2713 -0.0777
   28DOPE  H12B 3490   0.310   0.982  16.676 -1.3242  0.9641 -0.1477
   28DOPE   C11 3491   0.167   0.884  16.547  0.2328  0.9542 -0.0272
   28DOPE  H11A 3492   0.091   0.869  16.627  1.2057  0.3055  0.8085
   28DOPE  H11B 3493   0.233   0.795  16.544 -1.1424 -0.1455  1.0295
   28DOPE     P 3494  -0.033   0.958  16.365 -0.4620  0.1972 -0.3641
   28DOPE   O13 3495  -0.053   1.098  16.404  0.2062  0.0831 -0.1981
   28DOPE   O14 3496  -0.130   0.857  16.419  0.7588  0.0379 -0.4424
   28DOPE   O11 3497  -0.029   0.945  16.211 -0.1816  0.2255  0.2001
   28DOPE   O12 3498   0.115   0.901  16.409  0.5607  0.1135 -0.0144
   28DOPE    C1 3499  -0.018   0.824  16.134  0.1675 -0.1048  0.6445
   28DOPE    HA 3500  -0.073   0.740  16.181  0.6783  0.4761  2.3575
   28DOPE    HB 3501   0.083   0.779  16.146  0.1264  0.0303  1.5732
   28DOPE    C2 3502  -0.039   0.834  15.983 -0.0118  0.2596  0.0975
   28DOPE    HS 3503   0.030   0.905  15.934 -0.8841 -1.7580 -4.6085
   28DOPE   O21 3504  -0.179   0.876  15.957 -0.3387 -0.1704  0.1584
   28DOPE   C21 3505  -0.209   0.917  15.837 -0.2224  0.2238 -0.4240
   28DOPE   O22 3506  -0.126   0.949  15.751  0.9165 -0.1394 -0.7620
   28DOPE   C22 3507  -0.358   0.928  15.823 -0.3064 -0.2910  0.0344
   28DOPE   H2R 3508  -0.387   1.025  15.777 -0.4997  0.1092  0.9790
   28DOPE   H2S 3509  -0.405   0.905  15.921 -0.2876  2.6984  0.8289
   28DOPE    C3 3510  -0.019   0.697  15.908 -0.3974 -0.3230  0.1829
   28DOPE    HX 3511  -0.121   0.653  15.904 -1.3042  1.7694 -2.3573
   28DOPE    HY 3512   0.054   0.634  15.965  0.4184  1.2262  0.9113
   28DOPE   O31 3513   0.026   0.715  15.774  0.0425  0.6910  0.2199
   28DOPE   C31 3514   0.050   0.601  15.711 -0.5261 -0.0190  0.1130
   28DOPE   O32 3515   0.047   0.492  15.769 -0.5851  0.8090  0.3312
   28DOPE   C32 3516   0.089   0.623  15.569  0.1663 -0.1751  0.9695
   28DOPE   H2X 3517   0.007   0.683  15.524 -3.0083 -3.1301  2.4205
   28DOPE   H2Y 3518   0.182   0.685  15.569 -0.0110  0.0943  0.3599
   28DOPE   C23 3519  -0.412   0.826  15.716 -0.3539 -0.6469  0.0027
   28DOPE   H3R 3520  -0.521   0.815  15.734 -0.6579  1.0321 -0.5768
   28DOPE   H3S 3521  -0.367   0.725  15.730  0.3196 -0.3875 -0.2104
   28DOPE   C24 3522  -0.375   0.876  15.574 -0.6502  0.0011  0.7097
   28DOPE   H4R 3523  -0.291   0.810  15.545  0.2250  1.2694  0.2773
   28DOPE   H4S 3524  -0.327   0.976  15.574 -0.7043  0.0679 -1.4590
   28DOPE   C25 3525  -0.489   0.863  15.468  0.2035  0.7776 -0.0841
   28DOPE   H5R 3526  -0.574   0.918  15.512  0.3759  1.6029 -0.7489
   28DOPE   H5S 3527  -0.523   0.758  15.479 -1.7990  1.5903  2.2663
   28DOPE   C26 3528  -0.471   0.896  15.324  0.5999 -0.3257  0.2559
   28DOPE   H6R 3529  -0.574   0.886  15.283 -0.1954  3.0722  1.1135
   28DOPE   H6S 3530  -0.406   0.822  15.273  0.4547 -0.2302 -0.0764
   28DOPE   C27 3531  -0.425   1.039  15.298 -0.2708 -0.4911 -0.1822
   28DOPE   H7R 3532  -0.314   1.036  15.286 -0.2791  1.6240 -1.1946
   28DOPE   H7S 3533  -0.457   1.113  15.376 -1.7806 -1.0216 -0.2683
   28DOPE   C28 3534  -0.475   1.104  15.163  0.9784 -0.0313  0.2279
   28DOPE   H8R 3535  -0.440   1.209  15.155  2.7029 -0.1811  3.9013
   28DOPE   H8S 3536  -0.586   1.095  15.167  1.0975 -1.7648  0.6534
   28DOPE   C29 3537  -0.421   1.023  15.048  0.1113  0.7455 -0.8462
   28DOPE   H9R 3538  -0.387   0.925  15.084  0.7740  0.9593 -0.8825
   28DOPE  C210 3539  -0.415   1.058  14.919 -0.7758  0.4528 -0.0818
   28DOPE  H10R 3540  -0.374   0.989  14.843  1.4122  0.6596  0.8399
   28DOPE  C211 3541  -0.465   1.188  14.866  0.5071  0.2938  0.2439
   28DOPE  H11R 3542  -0.485   1.253  14.954  0.6389 -0.9981  1.2586
   28DOPE  H11S 3543  -0.566   1.170  14.823  0.0648  1.3392  0.7734
   28DOPE  C212 3544  -0.389   1.259  14.760  0.3162 -0.3033  0.8518
   28DOPE  H12R 3545  -0.286   1.278  14.797  1.2870 -0.8508 -1.4382
   28DOPE  H12S 3546  -0.428   1.363  14.747 -0.8654 -1.0828 -3.0975
   28DOPE  C213 3547  -0.381   1.180  14.630  0.4060  0.0393  0.2870
   28DOPE  H13R 3548  -0.481   1.178  14.582  0.4281 -0.3335  0.2553
   28DOPE  H13S 3549  -0.337   1.078  14.639  0.4990  0.0207 -0.3843
   28DOPE  C214 3550  -0.281   1.256  14.542 -0.7281  0.0164 -0.7485
   28DOPE  H14R 3551  -0.185   1.272  14.596 -0.2920 -0.9564 -1.2143
   28DOPE  H14S 3552  -0.331   1.354  14.530 -1.7947 -0.4315 -0.1169
   28DOPE  C215 3553  -0.254   1.185  14.408 -0.8499  0.4187  0.6434
   28DOPE  H15R 3554  -0.348   1.155  14.357  0.9525 -0.4426 -2.4587
   28DOPE  H15S 3555  -0.191   1.095  14.423  2.2178  2.3402  0.0748
   28DOPE  C216 3556  -0.180   1.281  14.313 -1.0654 -0.1483 -0.5997
   28DOPE  H16R 3557  -0.085   1.316  14.360  0.0360 -1.1164 -2.0288
   28DOPE  H16S 3558  -0.243   1.373  14.307 -2.1728 -0.9344 -1.3080
   28DOPE  C217 3559  -0.131   1.225  14.178  0.4925 -0.0607  1.2748
   28DOPE  H17R 3560  -0.109   1.116  14.182 -0.8098 -0.3247  1.5179
   28DOPE  H17S 3561  -0.044   1.285  14.143  0.7074 -0.1240  1.6922
   28DOPE  C218 3562  -0.241   1.251  14.078 -0.0803 -0.0999  0.3088
   28DOPE  H18R 3563  -0.340   1.210  14.104 -0.2555 -1.0981 -1.7187
   28DOPE  H18S 3564  -0.212   1.217  13.976 -1.5032  1.2247 -0.5703
   28DOPE  H18T 3565  -0.253   1.361  14.067 -1.1622 -0.1802  0.6358
   28DOPE   C33 3566   0.126   0.487  15.496 -0.1688  0.0189 -0.1169
   28DOPE   H3X 3567   0.040   0.417  15.486  0.8687 -0.9285 -3.7142
   28DOPE   H3Y 3568   0.201   0.413  15.531 -0.2165  0.5430  1.1666
   28DOPE   C34 3569   0.139   0.533  15.349 -0.7928 -0.1076  0.1540
   28DOPE   H4X 3570   0.046   0.586  15.319 -0.6081 -0.1645 -0.5361
   28DOPE   H4Y 3571   0.207   0.620  15.339 -0.5787 -0.4296 -1.4243
   28DOPE   C35 3572   0.169   0.420  15.248 -0.3885 -0.3838 -0.4201
   28DOPE   H5X 3573   0.101   0.332  15.244  0.1651 -0.8028 -0.8099
   28DOPE   H5Y 3574   0.264   0.377  15.287 -0.0010  0.9615  0.1865
   28DOPE   C36 3575   0.182   0.470  15.101  0.2053 -0.4222  0.4106
   28DOPE   H6X 3576   0.250   0.556  15.085 -0.6154  0.1451 -0.0512
   28DOPE   H6Y 3577   0.081   0.503  15.068  0.4097 -1.5516 -1.5018
   28DOPE   C37 3578   0.215   0.350  15.008  0.0643 -0.0948 -0.1495
   28DOPE   H7X 3579   0.297   0.301  15.065 -1.8708 -1.2633  1.8002
   28DOPE   H7Y 3580   0.134   0.274  15.005 -1.0261  1.0807 -1.3945
   28DOPE   C38 3581   0.263   0.390  14.861  0.2972 -0.1090  0.1997
   28DOPE   H8X 3582   0.326   0.479  14.882 -0.2286 -0.3350  3.3450
   28DOPE   H8Y 3583   0.177   0.432  14.805 -1.4428 -2.6898  0.7457
   28DOPE   C39 3584   0.335   0.280  14.793 -0.2140 -0.2454  0.0249
   28DOPE   H9X 3585   0.292   0.180  14.810  0.5315 -0.2749  1.9427
   28DOPE  C310 3586   0.440   0.279  14.706  0.4032 -0.0307 -0.5578
   28DOPE  H10X 3587   0.480   0.180  14.678  2.2711  0.0043  1.7089
   28DOPE  C311 3588   0.507   0.389  14.633 -0.7724 -0.0567  0.1451
   28DOPE  H11X 3589   0.495   0.382  14.523 -2.7617  0.2806  0.3020
   28DOPE  H11Y 3590   0.451   0.481  14.657 -1.0267 -0.1963  0.0845
   28DOPE  C312 3591   0.662   0.400  14.657 -0.1982  0.0054 -0.3007
   28DOPE  H12X 3592   0.705   0.303  14.622  0.5580  0.7378 -1.4672
   28DOPE  H12Y 3593   0.696   0.408  14.763 -1.5461  0.3274  0.1327
   28DOPE  C313 3594   0.732   0.509  14.578 -0.9265 -0.7107 -0.1692
   28DOPE  H13X 3595   0.703   0.605  14.625 -1.8588 -1.6461  1.2154
   28DOPE  H13Y 3596   0.839   0.489  14.602 -0.9748 -1.6215 -0.6624
   28DOPE  C314 3597   0.707   0.506  14.427  0.1299  0.4658  0.6635
   28DOPE  H14X 3598   0.601   0.509  14.394 -0.3990  1.0054  2.3302
   28DOPE  H14Y 3599   0.759   0.415  14.390  2.7099  2.3901 -0.7174
   28DOPE  C315 3600   0.771   0.617  14.350 -0.9150  0.3459 -1.3328
   28DOPE  H15X 3601   0.879   0.591  14.350 -0.7088  1.1660 -2.4312
   28DOPE  H15Y 3602   0.756   0.708  14.412  1.3992 -0.4417  0.5231
   28DOPE  C316 3603   0.737   0.624  14.204  0.4731 -0.1470  0.5505
   28DOPE  H16X 3604   0.630   0.649  14.193  0.6274  1.6535  2.4590
   28DOPE  H16Y 3605   0.742   0.523  14.157 -0.2520  0.1644 -0.2172
   28DOPE  C317 3606   0.816   0.730  14.120 -0.1110  0.6026  0.7220
   28DOPE  H17X 3607   0.772   0.730  14.018 -1.4600  1.0085  1.2751
   28DOPE  H17Y 3608   0.794   0.831  14.161 -0.7929  1.6882 -2.1213
   28DOPE  C318 3609   0.969   0.702  14.125 -0.2132 -0.0411  0.3941
   28DOPE  H18X 3610   1.004   0.730  14.226 -2.3372  1.4031  0.8165
   28DOPE  H18Y 3611   0.980   0.594  14.104  4.9240  0.1971  0.5651
   28DOPE  H18Z 3612   1.029   0.754  14.047 -1.2942 -1.3348 -1.3682
   29DOPE     N 3613   0.072   2.671  16.591  0.0966  0.1506 -0.0364
   29DOPE   HN1 3614  -0.015   2.613  16.589 -0.8124  1.4489  0.3581
   29DOPE   HN2 3615   0.032   2.766  16.578 -1.1240  0.1859  3.1485
   29DOPE   HN3 3616   0.137   2.638  16.517  0.3078  0.8166 -0.1494
   29DOPE   C12 3617   0.128   2.669  16.730 -0.2651  0.2551 -0.2578
   29DOPE  H12A 3618   0.164   2.567  16.755  2.4761  1.4781  1.1572
   29DOPE  H12B 3619   0.055   2.697  16.809  2.2031  0.4346  2.1211
   29DOPE   C11 3620   0.241   2.770  16.745 -0.2064  0.8418  0.0502
   29DOPE  H11A 3621   0.326   2.734  16.683  1.1116 -0.6155  2.5207
   29DOPE  H11B 3622   0.276   2.766  16.851 -0.0802  1.8515  0.0525
   29DOPE     P 3623   0.306   3.020  16.692  0.4746  0.3710 -0.2702
   29DOPE   O13 3624   0.402   3.007  16.810  0.5424 -0.0753  1.1415
   29DOPE   O14 3625   0.229   3.141  16.681 -0.2793  0.1005 -0.0767
   29DOPE   O11 3626   0.379   2.986  16.557  0.3713  0.3444 -0.1777
   29DOPE   O12 3627   0.199   2.905  16.710 -0.2749  0.0719 -0.5656
   29DOPE    C1 3628   0.317   3.044  16.440 -0.8568  0.4313 -0.6787
   29DOPE    HA 3629   0.392   3.060  16.359  0.1383  0.0088  0.1380
   29DOPE    HB 3630   0.269   3.142  16.457  0.6167  0.8772  1.3651
   29DOPE    C2 3631   0.213   2.953  16.371  0.1228 -0.3176 -0.7388
   29DOPE    HS 3632   0.153   2.910  16.453  0.3862  0.5666 -0.0718
   29DOPE   O21 3633   0.277   2.846  16.302  0.0759 -0.3156 -0.7083
   29DOPE   C21 3634   0.213   2.738  16.272  0.2674 -0.3718 -0.1792
   29DOPE   O22 3635   0.095   2.714  16.294  0.2017  0.1788 -1.1094
   29DOPE   C22 3636   0.310   2.655  16.186 -0.4504  0.0681 -0.1895
   29DOPE   H2R 3637   0.251   2.565  16.161 -0.7361 -0.8533  3.2415
   29DOPE   H2S 3638   0.388   2.611  16.251 -2.1387  0.5659  2.3325
   29DOPE    C3 3639   0.119   3.025  16.277 -0.1984 -0.4702 -1.1658
   29DOPE    HX 3640   0.051   3.094  16.331 -0.0942 -1.1220 -0.1792
   29DOPE    HY 3641   0.055   2.947  16.231 -0.4365 -0.0873 -1.4953
   29DOPE   O31 3642   0.187   3.092  16.173 -0.8613 -0.6944  0.4257
   29DOPE   C31 3643   0.179   3.041  16.045 -0.1379 -0.1189 -0.3597
   29DOPE   O32 3644   0.108   2.949  16.013  0.4333 -0.1553 -0.3355
   29DOPE   C32 3645   0.278   3.114  15.954  0.5257  0.1347 -0.1324
   29DOPE   H2X 3646   0.273   3.223  15.975  0.9710  0.3970 -1.3052
   29DOPE   H2Y 3647   0.384   3.091  15.979  0.3400  0.4046  0.9554
   29DOPE   C23 3648   0.367   2.728  16.057  0.3575 -0.0980 -0.1382
   29DOPE   H3R 3649   0.440   2.802  16.095 -0.4998 -0.8186  3.2637
   29DOPE   H3S 3650   0.286   2.781  16.004  2.1003  1.4800 -1.3362
   29DOPE   C24 3651   0.421   2.633  15.957 -0.3281  0.1045  0.0623
   29DOPE   H4R 3652   0.341   2.561  15.929 -0.8876 -0.0345  1.8912
   29DOPE   H4S 3653   0.501   2.570  16.002 -1.1738 -0.7534  0.4139
   29DOPE   C25 3654   0.481   2.699  15.833  0.3950 -0.3126 -0.3708
   29DOPE   H5R 3655   0.545   2.623  15.783 -0.5551 -1.4404  0.1063
   29DOPE   H5S 3656   0.543   2.788  15.860 -0.4555  0.0815  0.3380
   29DOPE   C26 3657   0.373   2.745  15.733  0.4670  1.2185  0.0510
   29DOPE   H6R 3658   0.300   2.816  15.779 -0.1877  1.6049 -1.5206
   29DOPE   H6S 3659   0.311   2.658  15.704 -1.0540  2.3955 -0.3329
   29DOPE   C27 3660   0.436   2.806  15.604 -0.2741 -0.1051 -0.3651
   29DOPE   H7R 3661   0.523   2.864  15.640 -0.4134 -0.6237  0.8719
   29DOPE   H7S 3662   0.371   2.882  15.557  0.5641  1.4800  0.9528
   29DOPE   C28 3663   0.487   2.709  15.498  0.1084 -0.4282 -0.5575
   29DOPE   H8R 3664   0.553   2.630  15.541  0.6602  1.0203  1.3723
   29DOPE   H8S 3665   0.535   2.768  15.417 -1.7035  0.2205 -1.2044
   29DOPE   C29 3666   0.372   2.636  15.430  0.4222  0.0717 -0.3094
   29DOPE   H9R 3667   0.276   2.648  15.482  0.6073 -0.0058  0.0495
   29DOPE  C210 3668   0.367   2.595  15.302 -0.3475 -0.2881  0.4584
   29DOPE  H10R 3669   0.272   2.561  15.259 -0.9698  0.7939  0.9275
   29DOPE  C211 3670   0.480   2.598  15.204  0.4142 -0.6019  0.4306
   29DOPE  H11R 3671   0.539   2.505  15.195 -0.2323 -1.0000  0.1987
   29DOPE  H11S 3672   0.548   2.681  15.232 -2.9033  1.7229  2.3345
   29DOPE  C212 3673   0.437   2.627  15.056 -0.1690 -0.4769 -0.3846
   29DOPE  H12R 3674   0.387   2.538  15.013 -0.2762 -1.5732  1.8602
   29DOPE  H12S 3675   0.533   2.633  15.000 -1.8088  0.9519 -3.2009
   29DOPE  C213 3676   0.349   2.757  15.041  0.0877  0.0793 -0.1583
   29DOPE  H13R 3677   0.401   2.847  15.079  0.0270  0.0439  0.0110
   29DOPE  H13S 3678   0.256   2.742  15.101  0.0112 -3.6923 -0.9459
   29DOPE  C214 3679   0.304   2.782  14.895  0.1661 -0.4350  0.1112
   29DOPE  H14R 3680   0.400   2.796  14.841  0.2577 -4.0927 -0.9084
   29DOPE  H14S 3681   0.232   2.866  14.889 -0.3565 -0.6648  2.1986
   29DOPE  C215 3682   0.254   2.658  14.817  0.3337  0.2130 -0.2032
   29DOPE  H15R 3683   0.173   2.616  14.880 -1.3185  1.6995 -1.2536
   29DOPE  H15S 3684   0.329   2.577  14.802  2.0805  1.2157  2.3340
   29DOPE  C216 3685   0.194   2.697  14.683 -0.2245  0.5649  0.1068
   29DOPE  H16R 3686   0.255   2.769  14.623 -0.0544  0.9936  0.7823
   29DOPE  H16S 3687   0.099   2.752  14.694 -0.0974  0.5020  1.8177
   29DOPE  C217 3688   0.182   2.585  14.580 -0.2935 -0.2716 -0.2476
   29DOPE  H17R 3689   0.122   2.503  14.626 -0.2672 -1.0658 -1.5957
   29DOPE  H17S 3690   0.284   2.541  14.571 -0.0755 -0.5896  2.5935
   29DOPE  C218 3691   0.122   2.624  14.444 -0.2885 -0.6621 -0.4550
   29DOPE  H18R 3692   0.101   2.543  14.370  1.1132  2.0349 -4.1147
   29DOPE  H18S 3693   0.189   2.692  14.387 -0.1653 -1.5723 -1.4327
   29DOPE  H18T 3694   0.026   2.674  14.469 -0.1554 -0.8347  0.4071
   29DOPE   C33 3695   0.252   3.091  15.803 -0.7171 -0.0277  0.0934
   29DOPE   H3X 3696   0.196   2.998  15.779  0.5918 -0.6720 -0.5106
   29DOPE   H3Y 3697   0.352   3.095  15.756  0.0886 -0.6972  1.6883
   29DOPE   C34 3698   0.161   3.195  15.737 -1.1140  0.3357  0.2644
   29DOPE   H4X 3699   0.069   3.206  15.798 -1.0567 -0.9678  0.6011
   29DOPE   H4Y 3700   0.218   3.291  15.737  0.5536 -0.6118  1.2705
   29DOPE   C35 3701   0.134   3.164  15.585  0.0514  0.7780 -1.3706
   29DOPE   H5X 3702   0.093   3.060  15.588 -1.3788  1.3111  1.0544
   29DOPE   H5Y 3703   0.236   3.165  15.541  0.2861 -2.6381 -1.1807
   29DOPE   C36 3704   0.034   3.270  15.526 -1.0745  1.0604  0.4138
   29DOPE   H6X 3705   0.099   3.360  15.531  1.7226 -0.8840  1.5199
   29DOPE   H6Y 3706  -0.055   3.283  15.592  0.9865  0.9524  3.3849
   29DOPE   C37 3707  -0.025   3.232  15.386  0.4268  0.0196  0.5782
   29DOPE   H7X 3708  -0.068   3.129  15.389  2.4680 -0.9760 -1.2092
   29DOPE   H7Y 3709  -0.107   3.303  15.363 -0.5310 -0.7387  1.5407
   29DOPE   C38 3710   0.070   3.241  15.266 -0.4870  0.6532 -0.6456
   29DOPE   H8X 3711   0.030   3.185  15.180  2.0632 -3.8900  0.7821
   29DOPE   H8Y 3712   0.157   3.181  15.300 -0.9324  1.4560  2.1669
   29DOPE   C39 3713   0.113   3.384  15.231 -0.2419  0.7383  0.0016
   29DOPE   H9X 3714   0.193   3.427  15.293 -0.0287  0.3363  0.0117
   29DOPE  C310 3715   0.067   3.468  15.136 -0.1852  0.3679  0.5029
   29DOPE  H10X 3716   0.104   3.572  15.133  0.0238  0.2804 -0.1305
   29DOPE  C311 3717  -0.032   3.423  15.027 -0.8793  0.1671 -0.1456
   29DOPE  H11X 3718  -0.091   3.336  15.062  0.3462  0.8404  4.1793
   29DOPE  H11Y 3719  -0.106   3.501  15.000 -0.6828  1.4189  2.5374
   29DOPE  C312 3720   0.045   3.377  14.896 -0.4083  0.0277  1.3562
   29DOPE  H12X 3721   0.084   3.274  14.909 -1.0945 -0.5254 -0.6303
   29DOPE  H12Y 3722   0.135   3.437  14.870 -0.2130 -0.5280  0.7252
   29DOPE  C313 3723  -0.052   3.378  14.783  0.2827 -0.0309  0.5143
   29DOPE  H13X 3724  -0.117   3.288  14.780  2.0075 -1.3007  0.0035
   29DOPE  H13Y 3725  -0.122   3.463  14.800  0.2498 -0.1256  0.8528
   29DOPE  C314 3726   0.025   3.390  14.647 -0.0919  0.4313 -0.3010
   29DOPE  H14X 3727   0.084   3.297  14.636  0.8334  0.8906  0.6571
   29DOPE  H14Y 3728   0.101   3.471  14.649 -0.7510  1.1075 -1.5686
   29DOPE  C315 3729  -0.072   3.395  14.524  0.5085  0.6752  0.2723
   29DOPE  H15X 3730  -0.148   3.315  14.525 -0.2353  1.3668  1.6638
   29DOPE  H15Y 3731  -0.007   3.378  14.436 -0.0468  0.8475 -0.1716
   29DOPE  C316 3732  -0.137   3.533  14.515 -0.0718  0.0864  0.5012
   29DOPE  H16X 3733  -0.064   3.616  14.516  0.5514 -0.3957 -1.3912
   29DOPE  H16Y 3734  -0.204   3.557  14.600 -0.3834  2.3736 -0.3332
   29DOPE  C317 3735  -0.229   3.557  14.394  0.4778  0.3478 -0.2612
   29DOPE  H17X 3736  -0.302   3.473  14.392  0.7838  0.0873 -2.1756
   29DOPE  H17Y 3737  -0.288   3.650  14.405 -0.5795 -0.2917 -0.3197
   29DOPE  C318 3738  -0.144   3.552  14.264 -0.1331 -0.5856  0.0821
   29DOPE  H18X 3739  -0.079   3.641  14.267  0.9135 -1.3426  0.4738
   29DOPE  H18Y 3740  -0.088   3.456  14.263  1.4062  0.2844 -0.1174
   29DOPE  H18Z 3741  -0.207   3.557  14.172  1.6549 -0.2919 -1.1862
   30DOPE     N 3742   6.290   1.446  16.515  0.3919  0.3032  0.1045
   30DOPE   HN1 3743   6.279   1.345  16.493  0.1153  0.7867 -2.3792
   30DOPE   HN2 3744   6.369   1.464  16.581 -0.2780  0.0838  0.9761
   30DOPE   HN3 3745   6.201   1.476  16.558  0.5010 -1.5568  1.7530
   30DOPE   C12 3746   6.309   1.508  16.384  0.4645  0.1195  0.0351
   30DOPE  H12A 3747   6.222   1.481  16.321 -0.4382  1.7131  0.5603
   30DOPE  H12B 3748   6.393   1.456  16.332 -0.5494  0.5450 -2.1339
   30DOPE   C11 3749   6.330   1.660  16.391  0.5282 -0.2306 -0.0571
   30DOPE  H11A 3750   6.236   1.705  16.429  0.5389  0.9819 -1.3672
   30DOPE  H11B 3751   6.350   1.702  16.290 -3.6463  0.3356 -0.8258
   30DOPE     P 3752   6.583   1.668  16.461 -0.1565 -0.2809  0.0753
   30DOPE   O13 3753   6.602   1.525  16.435  0.4303  0.5585 -0.2694
   30DOPE   O14 3754   6.653   1.721  16.586  0.2249 -0.2511  0.4918
   30DOPE   O11 3755   6.620   1.753  16.332  0.0631  0.2508 -0.4237
   30DOPE   O12 3756   6.437   1.687  16.483 -0.4114 -0.4193 -0.1958
   30DOPE    C1 3757   6.619   1.893  16.322  0.1597 -0.2461 -0.3741
   30DOPE    HA 3758   6.725   1.921  16.306 -0.1243  0.1577 -1.6435
   30DOPE    HB 3759   6.597   1.942  16.420 -0.4287 -1.2426  0.0077
   30DOPE    C2 3760   6.549   1.942  16.200  0.0235 -0.1995 -0.4942
   30DOPE    HS 3761   6.441   1.941  16.223 -0.0723  0.6306 -0.8761
   30DOPE   O21 3762   6.582   1.847  16.094 -0.1751 -0.0099  0.0785
   30DOPE   C21 3763   6.486   1.812  16.016  0.9007  0.4706 -0.2540
   30DOPE   O22 3764   6.365   1.838  16.027  0.6153  0.7277 -0.3077
   30DOPE   C22 3765   6.547   1.731  15.904  0.3632  0.6174  0.4717
   30DOPE   H2R 3766   6.581   1.638  15.956 -1.7244 -1.2338 -1.2375
   30DOPE   H2S 3767   6.634   1.790  15.871  2.8187 -1.2606  3.1085
   30DOPE    C3 3768   6.593   2.089  16.165  0.3323 -0.3755  0.4574
   30DOPE    HX 3769   6.700   2.097  16.134 -0.2047 -2.5922 -2.3954
   30DOPE    HY 3770   6.587   2.145  16.261 -0.8555  1.0238 -0.4006
   30DOPE   O31 3771   6.504   2.151  16.065  0.2142 -0.3002  0.2824
   30DOPE   C31 3772   6.545   2.143  15.941 -0.5617  0.6571  0.1684
   30DOPE   O32 3773   6.625   2.065  15.894 -0.3729 -0.0340  0.4307
   30DOPE   C32 3774   6.461   2.237  15.848 -0.1677  0.2479  0.1612
   30DOPE   H2X 3775   6.440   2.334  15.898 -0.8810  0.2749 -0.1822
   30DOPE   H2Y 3776   6.520   2.245  15.754  0.1737  0.1366  0.3650
   30DOPE   C23 3777   6.451   1.701  15.787  0.2152  0.0163 -0.4703
   30DOPE   H3R 3778   6.362   1.663  15.841  0.7237  1.0016  1.1122
   30DOPE   H3S 3779   6.502   1.620  15.731  1.5662  0.7023 -0.2852
   30DOPE   C24 3780   6.417   1.819  15.699  0.0892 -0.6300  0.2528
   30DOPE   H4R 3781   6.513   1.857  15.658 -0.4794 -0.6869 -1.1682
   30DOPE   H4S 3782   6.381   1.895  15.772  2.1260  1.0768 -0.4062
   30DOPE   C25 3783   6.338   1.792  15.568  0.3619 -0.2432 -0.3156
   30DOPE   H5R 3784   6.324   1.888  15.514 -0.0012  0.2268  0.6060
   30DOPE   H5S 3785   6.234   1.759  15.589 -0.6919  1.2059 -2.8598
   30DOPE   C26 3786   6.393   1.687  15.466 -0.3225  0.0042 -0.3411
   30DOPE   H6R 3787   6.327   1.677  15.377 -1.5356  0.3766  0.4998
   30DOPE   H6S 3788   6.385   1.595  15.527 -0.1046  0.4738  0.4039
   30DOPE   C27 3789   6.533   1.698  15.410 -0.9626 -0.3587  0.3224
   30DOPE   H7R 3790   6.606   1.727  15.488 -1.5851  3.6375 -0.3855
   30DOPE   H7S 3791   6.528   1.771  15.327  3.3055  0.0271  0.2121
   30DOPE   C28 3792   6.576   1.557  15.354 -0.6314 -0.3564 -0.5328
   30DOPE   H8R 3793   6.483   1.526  15.301 -0.7374  0.9353 -1.1256
   30DOPE   H8S 3794   6.606   1.492  15.440 -2.3790  0.4490  0.7534
   30DOPE   C29 3795   6.701   1.558  15.267 -0.1632  0.3236 -0.1469
   30DOPE   H9R 3796   6.798   1.534  15.314  0.1073 -0.1501 -0.9108
   30DOPE  C210 3797   6.694   1.595  15.141 -0.7901 -0.2109 -0.6383
   30DOPE  H10R 3798   6.781   1.616  15.076 -2.2642  3.5422 -1.6434
   30DOPE  C211 3799   6.569   1.633  15.064  0.5627 -0.6267 -0.0243
   30DOPE  H11R 3800   6.540   1.733  15.102 -1.7992 -0.1262 -2.7920
   30DOPE  H11S 3801   6.485   1.563  15.084 -1.0462  1.2323  0.0452
   30DOPE  C212 3802   6.607   1.634  14.916  0.8548  0.1651 -0.4114
   30DOPE  H12R 3803   6.671   1.550  14.881  0.3681 -0.4026  0.0441
   30DOPE  H12S 3804   6.666   1.726  14.897  1.1617 -0.2505 -1.5598
   30DOPE  C213 3805   6.476   1.646  14.827 -0.2723  0.2583  0.0580
   30DOPE  H13R 3806   6.420   1.739  14.852 -0.0399  0.4940 -0.2879
   30DOPE  H13S 3807   6.415   1.556  14.849  0.6125 -0.4421 -0.2852
   30DOPE  C214 3808   6.510   1.658  14.678 -0.0304  0.2152  0.4237
   30DOPE  H14R 3809   6.550   1.558  14.652  0.2095  0.4588 -0.1612
   30DOPE  H14S 3810   6.592   1.732  14.663 -2.8119  3.0316 -2.2410
   30DOPE  C215 3811   6.385   1.708  14.601  0.0914  0.2233 -0.2987
   30DOPE  H15R 3812   6.371   1.808  14.647 -2.0565 -0.3376  0.3445
   30DOPE  H15S 3813   6.294   1.653  14.631  1.6969 -1.7206  1.2728
   30DOPE  C216 3814   6.399   1.705  14.445 -0.5318  0.7040 -0.4473
   30DOPE  H16R 3815   6.422   1.600  14.421 -0.1609  0.8427 -0.6978
   30DOPE  H16S 3816   6.489   1.768  14.430  0.1516  0.2739  1.5190
   30DOPE  C217 3817   6.282   1.765  14.373  0.4504  0.6235  0.3547
   30DOPE  H17R 3818   6.278   1.873  14.398 -0.6370  0.8598 -0.7538
   30DOPE  H17S 3819   6.186   1.725  14.412  0.8904  0.1649  1.0008
   30DOPE  C218 3820   6.285   1.741  14.222 -0.6235  0.0343 -0.2416
   30DOPE  H18R 3821   6.215   1.821  14.190 -3.0766 -1.5999  0.6737
   30DOPE  H18S 3822   6.242   1.640  14.201 -2.6297  0.7767  0.0987
   30DOPE  H18T 3823   6.389   1.743  14.185  0.4672 -1.9105  2.3914
   30DOPE   C33 3824   6.323   2.177  15.809 -0.3271 -0.2833  0.7677
   30DOPE   H3X 3825   6.246   2.200  15.886 -1.6948 -2.0938  0.0180
   30DOPE   H3Y 3826   6.335   2.066  15.814 -0.4941 -0.2705  1.6089
   30DOPE   C34 3827   6.283   2.205  15.663  0.2675 -0.0285  0.3300
   30DOPE   H4X 3828   6.359   2.176  15.587  0.0211 -0.2568  0.1708
   30DOPE   H4Y 3829   6.196   2.141  15.639  0.8097 -0.6211 -0.0761
   30DOPE   C35 3830   6.240   2.345  15.638  0.0260 -0.3886 -0.0941
   30DOPE   H5X 3831   6.316   2.418  15.674 -0.1388 -1.4993  2.7444
   30DOPE   H5Y 3832   6.144   2.366  15.689 -1.3667  0.7798 -2.9555
   30DOPE   C36 3833   6.224   2.383  15.483  0.3964  0.1420  0.1799
   30DOPE   H6X 3834   6.327   2.400  15.443  0.0758 -2.1523 -1.7964
   30DOPE   H6Y 3835   6.171   2.480  15.486 -0.7456 -0.4507 -0.4446
   30DOPE   C37 3836   6.146   2.281  15.405  0.3597  0.2822 -0.2952
   30DOPE   H7X 3837   6.210   2.190  15.396  3.1409  2.1582 -0.6762
   30DOPE   H7Y 3838   6.048   2.266  15.456  1.4790  0.3619  2.0117
   30DOPE   C38 3839   6.116   2.331  15.264  0.0831 -0.3938 -0.2225
   30DOPE   H8X 3840   6.044   2.415  15.275 -0.0652 -0.7764  2.3679
   30DOPE   H8Y 3841   6.063   2.250  15.209 -3.0106  1.6282 -0.4379
   30DOPE   C39 3842   6.225   2.388  15.169  0.6597 -0.5304 -0.7409
   30DOPE   H9X 3843   6.301   2.448  15.219  0.4331  0.4755 -1.5662
   30DOPE  C310 3844   6.224   2.373  15.033  0.0610 -0.1691  0.8760
   30DOPE  H10X 3845   6.302   2.431  14.981 -1.5311  1.3306  0.0588
   30DOPE  C311 3846   6.130   2.292  14.948  0.5658  0.4879 -0.6391
   30DOPE  H11X 3847   6.189   2.238  14.871  1.3805 -1.6030  1.3300
   30DOPE  H11Y 3848   6.083   2.205  14.998  0.1317  1.1453  0.1329
   30DOPE  C312 3849   6.029   2.382  14.875 -0.1761  0.4459  0.1824
   30DOPE  H12X 3850   5.963   2.437  14.945 -0.5895 -0.5137  0.5683
   30DOPE  H12Y 3851   5.953   2.319  14.824  1.1550  0.9635 -2.6123
   30DOPE  C313 3852   6.094   2.475  14.775 -0.1988 -0.2025  0.2375
   30DOPE  H13X 3853   6.020   2.554  14.746  2.7494  3.1859  1.3212
   30DOPE  H13Y 3854   6.163   2.533  14.839  1.3417 -0.3134 -1.2611
   30DOPE  C314 3855   6.154   2.401  14.656 -0.3017  0.3711  0.3686
   30DOPE  H14X 3856   6.064   2.360  14.605  0.6393  0.5619 -1.5451
   30DOPE  H14Y 3857   6.227   2.327  14.694  0.5717  0.4779 -1.0223
   30DOPE  C315 3858   6.231   2.501  14.564 -0.2343  0.7187 -0.1627
   30DOPE  H15X 3859   6.320   2.541  14.616 -0.4340  0.2054  0.6062
   30DOPE  H15Y 3860   6.159   2.583  14.545  1.3702  1.9942 -0.9597
   30DOPE  C316 3861   6.268   2.444  14.427 -0.0592 -0.0013 -0.7347
   30DOPE  H16X 3862   6.318   2.528  14.374 -1.4360  2.5509  1.7285
   30DOPE  H16Y 3863   6.172   2.414  14.380 -1.5489 -1.7760  3.0787
   30DOPE  C317 3864   6.364   2.325  14.428 -0.0594  0.5353  0.6731
   30DOPE  H17X 3865   6.301   2.245  14.471  0.1992  0.8819  1.7508
   30DOPE  H17Y 3866   6.396   2.313  14.323 -4.1946  1.4774 -0.8873
   30DOPE  C318 3867   6.490   2.337  14.518 -0.1148  0.0942 -0.2178
   30DOPE  H18X 3868   6.509   2.234  14.555 -0.6101  0.1377  0.1639
   30DOPE  H18Y 3869   6.567   2.388  14.456 -0.7079  0.5887 -0.5570
   30DOPE  H18Z 3870   6.461   2.400  14.605 -0.5806  0.4866 -0.6541
   31DOPE     N 3871   4.246   4.278  12.812 -0.1581 -0.1338 -0.0827
   31DOPE   HN1 3872   4.334   4.312  12.768  1.5023 -0.8290  2.4922
   31DOPE   HN2 3873   4.203   4.203  12.754 -0.7619 -0.8960  1.3214
   31DOPE   HN3 3874   4.179   4.354  12.834 -1.7954 -0.9588 -1.9001
   31DOPE   C12 3875   4.288   4.205  12.940 -0.1953  0.4834 -0.1611
   31DOPE  H12A 3876   4.346   4.286  12.989  1.9240 -0.9721 -0.1385
   31DOPE  H12B 3877   4.357   4.121  12.914  2.1838  1.1885  3.2096
   31DOPE   C11 3878   4.163   4.175  13.020  0.0706 -0.2823  0.2795
   31DOPE  H11A 3879   4.191   4.114  13.109 -0.3976  0.0702  0.6828
   31DOPE  H11B 3880   4.093   4.105  12.969 -0.9490  1.6523 -1.0793
   31DOPE     P 3881   3.942   4.290  13.115  0.4487  0.3935 -0.1296
   31DOPE   O13 3882   3.886   4.154  13.094  0.1056  0.4842 -0.3822
   31DOPE   O14 3883   3.862   4.404  13.055 -0.1442  0.4321 -0.2399
   31DOPE   O11 3884   3.955   4.319  13.269 -0.1133 -0.6369 -0.2889
   31DOPE   O12 3885   4.094   4.296  13.062  0.5640 -0.3285  0.6679
   31DOPE    C1 3886   4.081   4.330  13.334 -0.2545 -0.5416  0.2674
   31DOPE    HA 3887   4.059   4.393  13.423 -1.1820  0.4293 -0.6385
   31DOPE    HB 3888   4.160   4.385  13.279  1.3103 -1.1413  1.7968
   31DOPE    C2 3889   4.128   4.194  13.403  0.7633 -0.1156  0.2664
   31DOPE    HS 3890   4.112   4.112  13.329 -3.7475 -1.3973  2.3283
   31DOPE   O21 3891   4.028   4.160  13.501  0.2227 -0.6955  0.7085
   31DOPE   C21 3892   4.011   4.037  13.538  0.1594 -0.3856  0.0119
   31DOPE   O22 3893   4.062   3.938  13.490  0.0820 -0.7905 -0.0313
   31DOPE   C22 3894   3.909   4.036  13.656 -0.2134  0.4799  0.7758
   31DOPE   H2R 3895   3.913   3.931  13.693  2.0823 -0.4334 -1.7577
   31DOPE   H2S 3896   3.816   4.074  13.610  1.2997  0.5898 -2.4158
   31DOPE    C3 3897   4.274   4.199  13.462 -1.1112 -0.4516 -0.0729
   31DOPE    HX 3898   4.271   4.278  13.540 -2.6012 -0.5307 -0.0115
   31DOPE    HY 3899   4.348   4.219  13.381  2.6556 -0.4846  3.1107
   31DOPE   O31 3900   4.303   4.065  13.515 -0.0763 -0.7287 -0.0040
   31DOPE   C31 3901   4.364   4.055  13.631 -0.3289 -0.7998  0.5553
   31DOPE   O32 3902   4.404   4.150  13.700 -0.4245  0.3673 -0.3173
   31DOPE   C32 3903   4.381   3.903  13.670  0.2964 -0.9383  0.1944
   31DOPE   H2X 3904   4.297   3.851  13.619  0.4891  0.4679 -1.6286
   31DOPE   H2Y 3905   4.478   3.869  13.628  0.2832 -0.4559 -0.2335
   31DOPE   C23 3906   3.948   4.127  13.771  0.5180  0.2321  0.2243
   31DOPE   H3R 3907   3.922   4.235  13.757 -0.2768 -0.2090 -2.2538
   31DOPE   H3S 3908   4.053   4.102  13.797  0.6374 -0.1702 -0.6133
   31DOPE   C24 3909   3.866   4.081  13.891 -0.1528  0.5251 -0.1031
   31DOPE   H4R 3910   3.879   3.975  13.919 -0.4647  0.7094  0.7805
   31DOPE   H4S 3911   3.757   4.095  13.875  0.3821  3.1257 -2.1413
   31DOPE   C25 3912   3.908   4.159  14.018 -0.1654 -0.1352  0.7154
   31DOPE   H5R 3913   3.864   4.261  14.017 -2.1865 -0.9464  1.5667
   31DOPE   H5S 3914   4.017   4.178  14.026 -0.3130  0.6232  1.0247
   31DOPE   C26 3915   3.854   4.090  14.140  0.1904  0.3250  0.0991
   31DOPE   H6R 3916   3.881   3.982  14.142  1.7443  0.6783  2.3582
   31DOPE   H6S 3917   3.744   4.103  14.134  0.0577 -0.1981  1.1950
   31DOPE   C27 3918   3.909   4.143  14.277 -0.0034 -0.0628  1.0889
   31DOPE   H7R 3919   3.908   4.253  14.286  1.5500 -0.0933  2.1386
   31DOPE   H7S 3920   4.016   4.110  14.273  0.0931  0.2202  1.3206
   31DOPE   C28 3921   3.824   4.072  14.396 -0.2635  0.2267 -0.0979
   31DOPE   H8R 3922   3.806   3.965  14.371 -5.0123  0.4045  1.5015
   31DOPE   H8S 3923   3.720   4.109  14.381  0.6492  4.0806  1.7173
   31DOPE   C29 3924   3.883   4.107  14.530  0.2843  0.1913  1.0822
   31DOPE   H9R 3925   3.988   4.076  14.543  0.0438 -0.4341  1.5978
   31DOPE  C210 3926   3.825   4.169  14.632  0.6481 -0.0880  0.1274
   31DOPE  H10R 3927   3.881   4.169  14.727  2.3844 -0.9247 -0.8344
   31DOPE  C211 3928   3.683   4.210  14.638  0.0275 -0.0715  0.5907
   31DOPE  H11R 3929   3.618   4.145  14.577 -0.9898 -0.9535  2.5233
   31DOPE  H11S 3930   3.679   4.316  14.603  0.7125 -0.1394  0.2938
   31DOPE  C212 3931   3.633   4.185  14.776  0.3026  0.1360 -0.2232
   31DOPE  H12R 3932   3.679   4.097  14.826  2.2699  2.0442  1.5478
   31DOPE  H12S 3933   3.523   4.170  14.769  0.4979 -1.1568 -0.7629
   31DOPE  C213 3934   3.642   4.308  14.871 -0.5749 -0.5713 -0.2199
   31DOPE  H13R 3935   3.589   4.278  14.963  2.2074 -0.5061  1.5308
   31DOPE  H13S 3936   3.585   4.395  14.831  0.5458  0.2844 -0.0308
   31DOPE  C214 3937   3.776   4.359  14.923 -0.3737  0.0981  0.0058
   31DOPE  H14R 3938   3.813   4.425  14.842  0.3054  0.1579  0.3617
   31DOPE  H14S 3939   3.849   4.276  14.918 -0.9156 -0.4988  1.4268
   31DOPE  C215 3940   3.778   4.425  15.066 -0.1551 -0.5852  0.1225
   31DOPE  H15R 3941   3.707   4.510  15.069 -0.0825 -0.4485 -1.3866
   31DOPE  H15S 3942   3.880   4.459  15.091 -0.3844 -1.6297  2.8609
   31DOPE  C216 3943   3.753   4.326  15.182  0.2490  0.1031 -0.4948
   31DOPE  H16R 3944   3.829   4.245  15.176  0.2224  0.1005 -0.8176
   31DOPE  H16S 3945   3.649   4.289  15.177  0.7900 -1.6855  0.5735
   31DOPE  C217 3946   3.766   4.400  15.319 -0.0483  0.2105  0.5436
   31DOPE  H17R 3947   3.876   4.420  15.314  0.1654 -0.9327  0.4323
   31DOPE  H17S 3948   3.758   4.325  15.401  1.9507 -0.2440  0.3975
   31DOPE  C218 3949   3.683   4.521  15.335  0.2066  0.7015 -0.1837
   31DOPE  H18R 3950   3.719   4.589  15.415 -2.3516  1.1697  0.6675
   31DOPE  H18S 3951   3.579   4.485  15.350  0.4973  0.2289  0.7198
   31DOPE  H18T 3952   3.682   4.591  15.248 -1.8575  2.2197  0.9876
   31DOPE   C33 3953   4.374   3.871  13.815 -0.3524  1.2053  0.1611
   31DOPE   H3X 3954   4.357   3.963  13.875 -0.8343  0.9280  0.4597
   31DOPE   H3Y 3955   4.476   3.842  13.847  0.0091  0.6255 -1.4583
   31DOPE   C34 3956   4.278   3.755  13.847 -0.1751 -0.2880 -0.3621
   31DOPE   H4X 3957   4.178   3.802  13.841  0.6858  1.4174 -2.2333
   31DOPE   H4Y 3958   4.271   3.682  13.764 -0.0662 -1.0486  0.2741
   31DOPE   C35 3959   4.290   3.673  13.971 -0.0549 -0.4433 -0.1777
   31DOPE   H5X 3960   4.389   3.627  13.992 -0.7857 -1.3843  1.3986
   31DOPE   H5Y 3961   4.219   3.588  13.968  0.1438 -0.5756 -1.7643
   31DOPE   C36 3962   4.253   3.751  14.097  0.0798  0.5123  0.0735
   31DOPE   H6X 3963   4.157   3.801  14.076  0.8295  2.5977  1.3747
   31DOPE   H6Y 3964   4.325   3.833  14.118 -0.6360  1.2376 -0.2484
   31DOPE   C37 3965   4.229   3.660  14.223 -0.1094 -0.6805  0.8167
   31DOPE   H7X 3966   4.150   3.598  14.176  2.4246 -1.0652 -3.3830
   31DOPE   H7Y 3967   4.319   3.599  14.245 -0.1690 -1.5128 -1.0433
   31DOPE   C38 3968   4.175   3.739  14.347 -0.4729  0.2843 -0.0518
   31DOPE   H8X 3969   4.090   3.802  14.311 -1.4311  0.1070  1.7952
   31DOPE   H8Y 3970   4.247   3.810  14.393  0.1300  0.3021 -0.9864
   31DOPE   C39 3971   4.131   3.638  14.448 -0.5174  0.2313  0.3215
   31DOPE   H9X 3972   4.099   3.542  14.405  2.6521 -1.3703  1.1777
   31DOPE  C310 3973   4.132   3.661  14.585 -0.7388 -0.0757  0.1841
   31DOPE  H10X 3974   4.108   3.575  14.649 -0.5999 -1.3558 -1.4294
   31DOPE  C311 3975   4.154   3.796  14.646 -0.0768 -0.9158 -0.2173
   31DOPE  H11X 3976   4.227   3.804  14.730  0.6645  2.4321 -1.0298
   31DOPE  H11Y 3977   4.182   3.880  14.579 -2.9928  0.7669  0.4713
   31DOPE  C312 3978   4.014   3.839  14.694  0.4329 -0.2194 -0.2116
   31DOPE  H12X 3979   3.941   3.840  14.610  1.1578  1.1662 -0.8520
   31DOPE  H12Y 3980   4.022   3.947  14.719 -1.1932  0.3173 -1.8014
   31DOPE  C313 3981   3.953   3.766  14.817 -0.5202  0.4238  0.2078
   31DOPE  H13X 3982   3.911   3.666  14.794 -0.7070  0.2379  1.3023
   31DOPE  H13Y 3983   4.035   3.761  14.891  0.8004  2.2469 -1.0135
   31DOPE  C314 3984   3.833   3.834  14.871  0.1333 -0.5319  0.0532
   31DOPE  H14X 3985   3.754   3.829  14.793  1.6337  0.3013 -1.5841
   31DOPE  H14Y 3986   3.860   3.938  14.899 -1.9388 -0.1232  0.7623
   31DOPE  C315 3987   3.789   3.759  15.001 -0.3952 -0.0668 -0.6414
   31DOPE  H15X 3988   3.846   3.810  15.082 -0.1665 -0.7687 -0.3610
   31DOPE  H15Y 3989   3.810   3.651  14.987  0.6592  0.2722 -1.8535
   31DOPE  C316 3990   3.642   3.788  15.027 -0.2290  0.6769  0.5367
   31DOPE  H16X 3991   3.616   3.895  15.011 -1.2109  0.7818  2.4744
   31DOPE  H16Y 3992   3.622   3.743  15.127  1.9944 -3.2543 -0.5552
   31DOPE  C317 3993   3.555   3.719  14.927  0.8095  0.2531 -0.4626
   31DOPE  H17X 3994   3.565   3.758  14.823 -2.7127 -0.5547 -1.2558
   31DOPE  H17Y 3995   3.577   3.610  14.931  0.1877  0.1417  0.0534
   31DOPE  C318 3996   3.405   3.736  14.966  0.7172  0.2260  0.0480
   31DOPE  H18X 3997   3.377   3.843  14.953 -4.1811 -0.8629 -0.2142
   31DOPE  H18Y 3998   3.340   3.681  14.895 -1.8212  2.1817  0.6964
   31DOPE  H18Z 3999   3.395   3.706  15.073  3.1020 -0.3630  0.1546
   32DOPE     N 4000   4.959   3.539  12.262  0.9165  0.0833 -0.4079
   32DOPE   HN1 4001   4.917   3.554  12.355  2.5063  0.3357  0.3000
   32DOPE   HN2 4002   5.047   3.594  12.262  2.4320 -2.0950 -2.5818
   32DOPE   HN3 4003   4.894   3.581  12.193  0.5768 -0.7625 -0.6278
   32DOPE   C12 4004   4.965   3.399  12.223 -0.0564  0.0104  0.7438
   32DOPE  H12A 4005   4.863   3.365  12.193  1.2147 -0.5062 -3.7725
   32DOPE  H12B 4006   5.001   3.338  12.308  1.8261 -0.1050 -0.0857
   32DOPE   C11 4007   5.040   3.369  12.092  0.1043 -0.5097  0.3350
   32DOPE  H11A 4008   5.145   3.403  12.097 -0.5488  1.7096 -0.0653
   32DOPE  H11B 4009   4.996   3.435  12.014  0.3633 -3.3807 -2.4596
   32DOPE     P 4010   5.115   3.123  12.101  0.2494  0.0034  0.0182
   32DOPE   O13 4011   5.190   3.052  11.993  0.5712 -0.1037 -0.2466
   32DOPE   O14 4012   5.038   3.035  12.192  0.7614 -0.1572 -0.0223
   32DOPE   O11 4013   5.223   3.201  12.181  0.0661 -0.2634  0.3632
   32DOPE   O12 4014   5.020   3.234  12.054 -0.4076  0.1257 -0.2903
   32DOPE    C1 4015   5.363   3.183  12.177 -0.3124 -0.1976 -0.3232
   32DOPE    HA 4016   5.400   3.270  12.236  0.5613 -0.4014 -0.5570
   32DOPE    HB 4017   5.392   3.184  12.070 -3.1292  0.8322 -1.1668
   32DOPE    C2 4018   5.405   3.048  12.242  0.1698 -0.3223  0.7143
   32DOPE    HS 4019   5.393   2.974  12.160  1.5080  0.4249 -0.2062
   32DOPE   O21 4020   5.315   3.018  12.350  0.2027  0.4043 -0.0543
   32DOPE   C21 4021   5.302   2.891  12.371  0.0567  0.9977 -0.1958
   32DOPE   O22 4022   5.357   2.804  12.306  0.0588  0.5464  0.0534
   32DOPE   C22 4023   5.222   2.873  12.496 -0.3033 -0.1970 -0.7273
   32DOPE   H2R 4024   5.135   2.942  12.493 -3.3796 -3.7531 -0.6925
   32DOPE   H2S 4025   5.290   2.890  12.583  1.0964 -1.1813 -1.5814
   32DOPE    C3 4026   5.556   3.057  12.276  0.1001  0.1213  0.6304
   32DOPE    HX 4027   5.577   3.154  12.327  0.3273  0.1319  0.5194
   32DOPE    HY 4028   5.608   3.059  12.177  0.9551 -0.3655  1.0604
   32DOPE   O31 4029   5.600   2.930  12.337 -0.0182  0.1785 -0.2486
   32DOPE   C31 4030   5.614   2.935  12.473  0.0541 -0.0073 -0.1634
   32DOPE   O32 4031   5.584   3.029  12.542 -0.1016  0.0547 -0.4880
   32DOPE   C32 4032   5.666   2.795  12.519  0.4673 -0.4566 -0.2134
   32DOPE   H2X 4033   5.658   2.729  12.430  2.9170  0.4069 -1.1703
   32DOPE   H2Y 4034   5.777   2.803  12.526  0.6373  0.1736 -2.6044
   32DOPE   C23 4035   5.158   2.733  12.503 -0.0238  0.0210 -0.1701
   32DOPE   H3R 4036   5.238   2.657  12.496 -2.4672 -2.8890  1.0746
   32DOPE   H3S 4037   5.084   2.719  12.421 -1.9984  3.0894  0.8982
   32DOPE   C24 4038   5.096   2.698  12.635  0.7492 -0.5441 -0.3467
   32DOPE   H4R 4039   5.080   2.588  12.635  0.5759 -0.5293  0.5187
   32DOPE   H4S 4040   4.991   2.735  12.640  0.7974 -0.3898 -0.4800
   32DOPE   C25 4041   5.172   2.746  12.754  0.5463 -0.5756 -0.0851
   32DOPE   H5R 4042   5.170   2.857  12.758  0.7977 -0.5960  3.2379
   32DOPE   H5S 4043   5.278   2.717  12.734  0.5168 -1.1313  0.5460
   32DOPE   C26 4044   5.112   2.694  12.884 -0.4561  0.3591 -0.4368
   32DOPE   H6R 4045   5.063   2.594  12.877 -1.6263  0.8040  0.9876
   32DOPE   H6S 4046   5.026   2.759  12.911 -0.9774  0.0153 -1.2264
   32DOPE   C27 4047   5.212   2.691  13.000 -0.2421 -0.5679  0.1655
   32DOPE   H7R 4048   5.227   2.797  13.031 -3.3377  0.1244 -0.3842
   32DOPE   H7S 4049   5.307   2.659  12.953 -0.9405 -0.0292 -1.6777
   32DOPE   C28 4050   5.184   2.609  13.125  0.0494 -0.1216 -0.5807
   32DOPE   H8R 4051   5.285   2.602  13.170  0.0928 -2.0744 -0.9011
   32DOPE   H8S 4052   5.151   2.505  13.105  0.7876 -1.1795  2.9516
   32DOPE   C29 4053   5.075   2.670  13.218 -0.2253  0.2779  0.2773
   32DOPE   H9R 4054   4.986   2.713  13.170  0.1541  1.0746  0.2708
   32DOPE  C210 4055   5.085   2.664  13.354 -0.3772 -0.3263 -0.3372
   32DOPE  H10R 4056   5.003   2.707  13.414  0.0748  2.2356 -1.4363
   32DOPE  C211 4057   5.208   2.620  13.435 -0.4313 -0.5410 -0.2763
   32DOPE  H11R 4058   5.261   2.712  13.468  0.9889 -1.6919  0.7500
   32DOPE  H11S 4059   5.285   2.557  13.385 -0.4387  0.1309 -1.1617
   32DOPE  C212 4060   5.159   2.546  13.566  0.3393  1.3126 -0.2721
   32DOPE  H12R 4061   5.250   2.509  13.618  0.9908  2.3141 -0.6601
   32DOPE  H12S 4062   5.114   2.449  13.537  2.6423 -0.0538  0.4098
   32DOPE  C213 4063   5.060   2.609  13.663 -0.0966 -0.0486 -0.4136
   32DOPE  H13R 4064   4.970   2.644  13.607  0.0347 -1.7579 -1.7597
   32DOPE  H13S 4065   5.122   2.688  13.710  2.6393 -0.5040 -3.0016
   32DOPE  C214 4066   5.005   2.517  13.782 -0.4586  0.2610  0.5444
   32DOPE  H14R 4067   5.091   2.477  13.840 -0.1564  1.4680  0.9513
   32DOPE  H14S 4068   4.940   2.438  13.738  0.1221  0.8766 -1.5430
   32DOPE  C215 4069   4.930   2.604  13.890  0.3096  0.4553  0.0017
   32DOPE  H15R 4070   4.842   2.655  13.846 -0.7067  0.8499  2.3220
   32DOPE  H15S 4071   5.001   2.678  13.933  0.1531  0.6364 -0.0492
   32DOPE  C216 4072   4.891   2.511  14.000  0.7547  0.8837 -0.6974
   32DOPE  H16R 4073   4.980   2.454  14.035  0.3400  1.6331  1.7665
   32DOPE  H16S 4074   4.814   2.442  13.960 -0.2166  0.1969  2.1158
   32DOPE  C217 4075   4.835   2.586  14.118 -0.1185  0.2685  0.0675
   32DOPE  H17R 4076   4.744   2.642  14.087  1.1111  1.6213 -1.3029
   32DOPE  H17S 4077   4.912   2.660  14.149 -0.1684  0.3961 -0.1147
   32DOPE  C218 4078   4.801   2.500  14.240 -0.4627 -0.3659  0.4174
   32DOPE  H18R 4079   4.885   2.430  14.261  0.0916  0.9647  3.2148
   32DOPE  H18S 4080   4.703   2.454  14.216 -1.1348  1.7726 -1.1758
   32DOPE  H18T 4081   4.793   2.569  14.327  0.4327  1.2485 -0.7283
   32DOPE   C33 4082   5.585   2.739  12.635  0.4886  0.4819  0.1476
   32DOPE   H3X 4083   5.594   2.629  12.622  1.3529  0.5014  0.4920
   32DOPE   H3Y 4084   5.481   2.776  12.640  0.2239 -0.3076  0.8531
   32DOPE   C34 4085   5.659   2.781  12.768  0.3113  0.6658  0.4041
   32DOPE   H4X 4086   5.761   2.736  12.772  0.5924  1.0091 -1.8923
   32DOPE   H4Y 4087   5.676   2.890  12.763  3.6884  0.3154  1.7249
   32DOPE   C35 4088   5.583   2.736  12.890 -0.2836  0.7531 -0.6418
   32DOPE   H5X 4089   5.542   2.634  12.873 -3.5301  1.5031  1.7458
   32DOPE   H5Y 4090   5.491   2.798  12.890 -0.7059  0.1469  0.3471
   32DOPE   C36 4091   5.660   2.747  13.022  0.4517 -0.4227 -0.8552
   32DOPE   H6X 4092   5.692   2.853  13.036  0.1360 -0.6460  2.2524
   32DOPE   H6Y 4093   5.751   2.683  13.016 -0.1720 -1.3440 -0.6599
   32DOPE   C37 4094   5.575   2.707  13.142 -0.3596 -0.2011  0.0479
   32DOPE   H7X 4095   5.498   2.788  13.141 -0.6453 -0.4720  0.1622
   32DOPE   H7Y 4096   5.522   2.611  13.130 -0.4831 -0.0584 -0.5758
   32DOPE   C38 4097   5.662   2.697  13.266 -0.0952  0.2069  0.3003
   32DOPE   H8X 4098   5.762   2.736  13.236 -0.7979  0.2135 -2.2207
   32DOPE   H8Y 4099   5.670   2.589  13.289  2.9452  0.4126  0.6438
   32DOPE   C39 4100   5.609   2.781  13.380 -0.5576  0.6109  0.0954
   32DOPE   H9X 4101   5.584   2.885  13.354  1.2410  0.7744 -1.1944
   32DOPE  C310 4102   5.591   2.743  13.506  0.2083  0.5307  0.1568
   32DOPE  H10X 4103   5.562   2.823  13.575 -3.0184  0.7482 -1.2689
   32DOPE  C311 4104   5.629   2.607  13.561  0.3295  0.0203 -0.4683
   32DOPE  H11X 4105   5.583   2.523  13.504 -1.2545  0.5485  0.0010
   32DOPE  H11Y 4106   5.739   2.601  13.544  0.5036 -2.1233  1.0175
   32DOPE  C312 4107   5.590   2.584  13.706 -0.5507 -0.4891 -0.0145
   32DOPE  H12X 4108   5.590   2.474  13.719  0.3502 -0.6603 -1.2923
   32DOPE  H12Y 4109   5.494   2.632  13.737  0.1740  2.3506 -1.8182
   32DOPE  C313 4110   5.686   2.640  13.813 -0.5049  0.0771 -0.2929
   32DOPE  H13X 4111   5.787   2.593  13.807  1.2088  2.8956  3.2949
   32DOPE  H13Y 4112   5.707   2.747  13.797  1.8382 -0.2661  0.1791
   32DOPE  C314 4113   5.644   2.621  13.962  0.0500 -0.0564  0.3198
   32DOPE  H14X 4114   5.650   2.513  13.983 -0.7748 -0.3001 -0.6199
   32DOPE  H14Y 4115   5.540   2.661  13.964 -0.0911 -0.3129 -0.8594
   32DOPE  C315 4116   5.747   2.695  14.035 -0.3126  0.7992 -0.4628
   32DOPE  H15X 4117   5.773   2.794  13.991  1.1220  1.4379  1.6564
   32DOPE  H15Y 4118   5.840   2.635  14.040 -0.7069  0.2503  1.1828
   32DOPE  C316 4119   5.697   2.727  14.177  0.1247  0.4623  0.3887
   32DOPE  H16X 4120   5.677   2.630  14.227 -0.6565  0.8419  0.8381
   32DOPE  H16Y 4121   5.598   2.777  14.178  0.9248  2.1465  2.3555
   32DOPE  C317 4122   5.793   2.814  14.262  0.8059 -0.0501  0.0435
   32DOPE  H17X 4123   5.810   2.901  14.196 -0.1481 -0.2164 -0.4409
   32DOPE  H17Y 4124   5.746   2.851  14.356 -0.9347  1.3131 -1.2785
   32DOPE  C318 4125   5.927   2.748  14.288  0.2460  0.3080  0.3129
   32DOPE  H18X 4126   5.915   2.661  14.356 -1.9925 -0.5258 -1.0521
   32DOPE  H18Y 4127   5.971   2.710  14.194 -3.2871  0.5252 -1.5833
   32DOPE  H18Z 4128   6.003   2.814  14.336  1.3891 -0.3264 -0.5713
   33DOPE     N 4129   3.834   2.701  12.441  0.0531  0.0370  0.1577
   33DOPE   HN1 4130   3.759   2.632  12.462  1.2686 -1.0192  1.1761
   33DOPE   HN2 4131   3.885   2.667  12.357  0.7053  0.6504  0.2863
   33DOPE   HN3 4132   3.894   2.701  12.526  0.1308 -0.1340  0.1033
   33DOPE   C12 4133   3.774   2.835  12.414 -0.5329 -0.2154 -0.7791
   33DOPE  H12A 4134   3.675   2.836  12.465 -0.2334 -0.8165 -0.1702
   33DOPE  H12B 4135   3.771   2.836  12.303  0.1926 -1.3557 -0.8253
   33DOPE   C11 4136   3.862   2.943  12.479 -0.1452 -0.2240 -0.0273
   33DOPE  H11A 4137   3.871   2.927  12.588 -2.3177 -0.2049  0.2074
   33DOPE  H11B 4138   3.807   3.039  12.468 -1.0409 -0.3263  2.8007
   33DOPE     P 4139   4.079   3.077  12.475 -0.1838  0.1990 -0.1796
   33DOPE   O13 4140   4.032   3.204  12.414  0.3349  0.3347  0.6113
   33DOPE   O14 4141   4.221   3.038  12.452 -0.2083 -0.1504  0.1059
   33DOPE   O11 4142   4.043   3.078  12.628 -0.0433 -0.1798 -0.4715
   33DOPE   O12 4143   3.986   2.961  12.412  0.8186 -0.3713  0.0866
   33DOPE    C1 4144   4.062   3.211  12.689  0.5623  0.2715 -0.0906
   33DOPE    HA 4145   3.992   3.289  12.653 -0.2296  0.0605  0.9607
   33DOPE    HB 4146   4.169   3.240  12.679  1.6367 -2.6525  1.5748
   33DOPE    C2 4147   4.031   3.192  12.842 -0.2200  0.3430  0.1181
   33DOPE    HS 4148   4.038   3.296  12.881  0.4841 -0.1345  1.3336
   33DOPE   O21 4149   4.128   3.107  12.911  0.1585  0.1512  0.6513
   33DOPE   C21 4150   4.167   3.149  13.034 -0.0216 -0.3041  0.1860
   33DOPE   O22 4151   4.115   3.239  13.099  0.9813 -0.0413 -0.6310
   33DOPE   C22 4152   4.280   3.067  13.080 -0.0112  0.3314  0.8421
   33DOPE   H2R 4153   4.350   3.083  12.995 -1.1498 -0.0816 -0.1966
   33DOPE   H2S 4154   4.256   2.959  13.093  0.4433  0.2509  1.0443
   33DOPE    C3 4155   3.881   3.149  12.863  0.0441 -0.0193  0.5856
   33DOPE    HX 4156   3.876   3.050  12.811  2.1218  1.6411 -3.1755
   33DOPE    HY 4157   3.807   3.207  12.803  0.2041 -1.7577 -1.4345
   33DOPE   O31 4158   3.849   3.132  12.997 -0.1546 -0.4193 -1.0475
   33DOPE   C31 4159   3.773   3.234  13.053 -0.0994 -0.1183 -0.3672
   33DOPE   O32 4160   3.740   3.339  13.000  0.1070 -0.0292 -0.2388
   33DOPE   C32 4161   3.739   3.209  13.199 -0.4690 -0.0810  0.1089
   33DOPE   H2X 4162   3.755   3.303  13.256  1.5624 -0.9857  1.1648
   33DOPE   H2Y 4163   3.630   3.188  13.205 -0.6067  0.9545  2.0870
   33DOPE   C23 4164   4.341   3.129  13.209 -0.0970  0.0248 -0.3688
   33DOPE   H3R 4165   4.350   3.240  13.203 -1.0328  0.3126  2.3819
   33DOPE   H3S 4166   4.448   3.101  13.210  0.0696  0.6624 -0.2695
   33DOPE   C24 4167   4.280   3.067  13.338  0.5456  0.1115 -0.3076
   33DOPE   H4R 4168   4.283   2.956  13.335 -0.3556  0.0258  1.2563
   33DOPE   H4S 4169   4.174   3.096  13.319  0.9090  1.3990 -0.4478
   33DOPE   C25 4170   4.337   3.116  13.461 -0.0538  0.0867 -1.4398
   33DOPE   H5R 4171   4.350   3.225  13.478 -2.3983 -0.0681  2.4470
   33DOPE   H5S 4172   4.441   3.080  13.479 -0.8878 -2.0817 -0.5514
   33DOPE   C26 4173   4.265   3.073  13.590  1.0957  0.0287  0.7689
   33DOPE   H6R 4174   4.282   2.964  13.609  1.1248  0.4116  3.3037
   33DOPE   H6S 4175   4.157   3.094  13.571  1.7428  1.8231 -1.2465
   33DOPE   C27 4176   4.289   3.167  13.705  1.2044  0.2018 -0.2087
   33DOPE   H7R 4177   4.242   3.260  13.667 -0.0751 -0.9441 -1.5611
   33DOPE   H7S 4178   4.396   3.181  13.734  0.4427  0.6426  2.7233
   33DOPE   C28 4179   4.218   3.118  13.830 -0.1410 -1.0009 -0.1038
   33DOPE   H8R 4180   4.239   3.012  13.853 -1.1836 -1.1237  0.3139
   33DOPE   H8S 4181   4.113   3.134  13.796 -0.0285  2.0769  0.6697
   33DOPE   C29 4182   4.229   3.213  13.948 -0.2644 -0.6004 -0.0376
   33DOPE   H9R 4183   4.334   3.233  13.971 -0.0096 -0.8899 -0.9356
   33DOPE  C210 4184   4.130   3.247  14.035  0.5687  0.1819 -0.3195
   33DOPE  H10R 4185   4.145   3.323  14.114 -1.1924  1.2936 -0.9833
   33DOPE  C211 4186   3.983   3.188  14.034 -0.0231  0.3048  0.3336
   33DOPE  H11R 4187   3.927   3.224  13.945  0.0274  1.3595  0.7135
   33DOPE  H11S 4188   3.926   3.224  14.123 -0.2636 -0.4323  0.4842
   33DOPE  C212 4189   3.968   3.035  14.054  0.6809  0.1500 -0.6303
   33DOPE  H12R 4190   4.008   2.979  13.967  2.4004  0.9916 -0.4419
   33DOPE  H12S 4191   3.862   3.006  14.065  0.8043 -0.1673 -0.2372
   33DOPE  C213 4192   4.028   2.981  14.184 -0.0966 -0.2130  0.0998
   33DOPE  H13R 4193   4.046   3.070  14.249  0.9414  1.0657 -1.8468
   33DOPE  H13S 4194   4.126   2.940  14.151 -0.5630 -2.2837  1.1247
   33DOPE  C214 4195   3.941   2.870  14.245 -0.2200  0.5405 -0.2659
   33DOPE  H14R 4196   3.915   2.797  14.166  0.0273 -4.6443  3.8602
   33DOPE  H14S 4197   3.849   2.902  14.297 -0.3628  0.3781 -0.4167
   33DOPE  C215 4198   4.028   2.784  14.346  0.5168 -0.0080 -0.0374
   33DOPE  H15R 4199   4.100   2.743  14.271  1.4490  2.0970 -0.3790
   33DOPE  H15S 4200   3.976   2.700  14.397 -0.1300 -0.1678 -0.9456
   33DOPE  C216 4201   4.092   2.863  14.458  0.0200 -0.2747  0.2039
   33DOPE  H16R 4202   4.017   2.925  14.511 -0.7116  2.6427 -3.7821
   33DOPE  H16S 4203   4.168   2.936  14.424 -0.9428 -0.2121 -1.9385
   33DOPE  C217 4204   4.156   2.766  14.555 -0.3556 -0.5110  0.1588
   33DOPE  H17R 4205   4.233   2.713  14.495 -0.3519 -1.4499  0.9707
   33DOPE  H17S 4206   4.076   2.694  14.583  0.9644 -2.2784 -0.3789
   33DOPE  C218 4207   4.208   2.829  14.680  0.2763  0.2386  0.7294
   33DOPE  H18R 4208   4.280   2.908  14.649 -0.6093  0.1128 -1.8212
   33DOPE  H18S 4209   4.247   2.750  14.748  1.1744  0.2996  0.2984
   33DOPE  H18T 4210   4.131   2.880  14.741 -0.6707 -0.6810  0.3230
   33DOPE   C33 4211   3.823   3.094  13.264 -0.0085 -0.3448 -0.3132
   33DOPE   H3X 4212   3.929   3.124  13.281  0.0557 -0.5375 -0.3745
   33DOPE   H3Y 4213   3.835   3.009  13.193  1.1870  0.5808 -1.2733
   33DOPE   C34 4214   3.762   3.041  13.395 -0.1491  1.1464  0.2497
   33DOPE   H4X 4215   3.661   2.998  13.380 -0.1574  0.1165  2.8218
   33DOPE   H4Y 4216   3.824   2.951  13.416  0.1829  1.2946 -0.0803
   33DOPE   C35 4217   3.776   3.133  13.506 -0.1063  0.1166  0.3501
   33DOPE   H5X 4218   3.691   3.204  13.515  0.9412  1.5128 -0.3377
   33DOPE   H5Y 4219   3.867   3.194  13.487 -0.0836 -0.7225 -2.9016
   33DOPE   C36 4220   3.798   3.055  13.636  0.1596  0.0918 -0.2587
   33DOPE   H6X 4221   3.859   3.122  13.700  0.8045  0.4131 -1.1810
   33DOPE   H6Y 4222   3.858   2.962  13.628 -0.5069 -0.2775 -1.1166
   33DOPE   C37 4223   3.661   3.008  13.704 -0.0664 -0.3193 -0.0034
   33DOPE   H7X 4224   3.582   3.072  13.659 -0.7179  1.9828  3.9496
   33DOPE   H7Y 4225   3.634   2.904  13.677  0.0307 -0.1312 -0.8624
   33DOPE   C38 4226   3.651   3.019  13.860 -0.6943  0.2529 -0.7827
   33DOPE   H8X 4227   3.667   3.128  13.873  1.8160 -0.1523  0.2552
   33DOPE   H8Y 4228   3.732   2.968  13.917  0.2077  1.1009 -1.2774
   33DOPE   C39 4229   3.525   2.972  13.921  0.1551 -0.0496 -0.4187
   33DOPE   H9X 4230   3.465   2.900  13.862 -1.2008 -0.9307  1.8770
   33DOPE  C310 4231   3.485   2.992  14.053 -0.1085  0.1497 -0.3803
   33DOPE  H10X 4232   3.389   2.947  14.085 -1.2366  2.8590  0.2932
   33DOPE  C311 4233   3.573   3.052  14.159 -0.2475 -0.8570  0.3117
   33DOPE  H11X 4234   3.604   2.984  14.242  0.0730 -0.1740  0.7678
   33DOPE  H11Y 4235   3.671   3.088  14.122 -0.7654  2.1472  1.6016
   33DOPE  C312 4236   3.511   3.178  14.224 -0.4701 -0.3506  0.2608
   33DOPE  H12X 4237   3.431   3.148  14.295 -2.4900 -0.5451 -1.9445
   33DOPE  H12Y 4238   3.461   3.238  14.144  4.2695  2.6156 -0.8834
   33DOPE  C313 4239   3.606   3.266  14.303  0.2629 -0.4661 -1.1078
   33DOPE  H13X 4240   3.659   3.334  14.233 -1.0435  1.6003 -0.2027
   33DOPE  H13Y 4241   3.541   3.329  14.368  0.2640 -0.4130 -1.1583
   33DOPE  C314 4242   3.714   3.189  14.389 -0.1427 -0.5482  0.6120
   33DOPE  H14X 4243   3.786   3.155  14.312  3.2036  0.2686  3.1588
   33DOPE  H14Y 4244   3.663   3.107  14.444 -1.1015 -0.9156 -0.7456
   33DOPE  C315 4245   3.798   3.284  14.482 -0.2376 -0.6267  0.0143
   33DOPE  H15X 4246   3.737   3.355  14.542  1.0406 -1.7383  2.7567
   33DOPE  H15Y 4247   3.858   3.356  14.422 -2.2220  0.4949 -0.7371
   33DOPE  C316 4248   3.878   3.206  14.587 -0.2150 -0.1382  0.3303
   33DOPE  H16X 4249   3.937   3.133  14.526 -2.0335  0.0525 -1.7785
   33DOPE  H16Y 4250   3.804   3.148  14.645  0.5813 -3.6359 -1.7974
   33DOPE  C317 4251   3.960   3.305  14.676  0.6069 -0.5088  0.3186
   33DOPE  H17X 4252   4.036   3.361  14.617 -3.2564  0.5774 -4.1309
   33DOPE  H17Y 4253   3.894   3.377  14.728  2.6729  0.9755  1.0379
   33DOPE  C318 4254   4.029   3.230  14.784 -0.0253 -0.3210  0.0488
   33DOPE  H18X 4255   4.105   3.286  14.842 -1.0040  0.3242  0.7582
   33DOPE  H18Y 4256   3.969   3.188  14.868 -1.7129  2.9565  0.6761
   33DOPE  H18Z 4257   4.089   3.147  14.742  0.9356 -0.7956  2.2287
   34DOPE     N 4258   3.629   4.518  13.176 -0.1752 -0.3807  0.5189
   34DOPE   HN1 4259   3.601   4.418  13.176  2.3238 -1.1488  0.0918
   34DOPE   HN2 4260   3.715   4.520  13.116  1.1024  0.7691  2.2991
   34DOPE   HN3 4261   3.660   4.544  13.271 -0.9124 -0.0670  0.6816
   34DOPE   C12 4262   3.519   4.598  13.111 -0.2412 -0.2895 -0.2466
   34DOPE  H12A 4263   3.548   4.706  13.112  1.5242 -0.7271  1.1951
   34DOPE  H12B 4264   3.430   4.579  13.174  0.1491  1.4388  0.8968
   34DOPE   C11 4265   3.486   4.553  12.965 -0.8025  0.6678  0.2534
   34DOPE  H11A 4266   3.402   4.620  12.935  0.0994  2.5202  1.6903
   34DOPE  H11B 4267   3.447   4.450  12.966 -2.0988  1.0543 -2.0172
   34DOPE     P 4268   3.614   4.675  12.766  0.2541  0.1891  0.0060
   34DOPE   O13 4269   3.525   4.649  12.648  0.4247 -0.1225 -0.4218
   34DOPE   O14 4270   3.759   4.675  12.739 -0.0831 -0.9215 -0.5401
   34DOPE   O11 4271   3.561   4.809  12.830 -0.3356  0.0802  0.5013
   34DOPE   O12 4272   3.597   4.562  12.879 -0.6371 -0.3310  0.1433
   34DOPE    C1 4273   3.633   4.933  12.808  0.1329 -0.7609  0.3634
   34DOPE    HA 4274   3.577   5.011  12.753 -0.2053 -1.3058 -0.0789
   34DOPE    HB 4275   3.725   4.922  12.747  0.4594 -1.8583  1.0304
   34DOPE    C2 4276   3.692   4.977  12.941  0.1481  0.0749 -1.1627
   34DOPE    HS 4277   3.752   5.070  12.928  0.1226  0.1042 -1.0652
   34DOPE   O21 4278   3.763   4.868  13.005 -0.5245  0.0248  0.1991
   34DOPE   C21 4279   3.892   4.858  12.965 -0.7995 -0.1907  0.0179
   34DOPE   O22 4280   3.944   4.932  12.884 -0.5621  0.4903  0.3017
   34DOPE   C22 4281   3.971   4.746  13.048 -0.2355 -0.1979 -0.1138
   34DOPE   H2R 4282   4.080   4.766  13.038 -0.3331  2.1141  2.4378
   34DOPE   H2S 4283   3.951   4.650  12.994  1.3272  0.0247 -1.1705
   34DOPE    C3 4284   3.579   5.025  13.046 -0.1356 -0.5733  0.5777
   34DOPE    HX 4285   3.528   4.929  13.069 -0.7759 -0.6426 -1.0367
   34DOPE    HY 4286   3.506   5.088  12.992 -0.4687 -1.6567 -0.2607
   34DOPE   O31 4287   3.633   5.104  13.159 -0.4470 -0.0206 -0.4177
   34DOPE   C31 4288   3.606   5.040  13.280 -0.1315 -0.1153  0.1339
   34DOPE   O32 4289   3.550   4.933  13.294 -0.4864 -0.4626 -0.6917
   34DOPE   C32 4290   3.666   5.128  13.393  0.5651 -0.0378  0.7226
   34DOPE   H2X 4291   3.777   5.126  13.397  0.6353  0.2997 -0.6827
   34DOPE   H2Y 4292   3.640   5.231  13.361 -0.9963 -0.9763 -1.1854
   34DOPE   C23 4293   3.927   4.743  13.199 -0.0810 -0.3502 -0.1651
   34DOPE   H3R 4294   3.933   4.640  13.240 -1.1305  0.1548  1.3426
   34DOPE   H3S 4295   3.823   4.780  13.214  0.2267 -0.1241  1.5987
   34DOPE   C24 4296   4.018   4.819  13.301  0.5685  0.0137  0.0077
   34DOPE   H4R 4297   3.979   4.781  13.398  2.3088  0.1679  0.7989
   34DOPE   H4S 4298   3.980   4.921  13.278  1.0235 -0.2407 -2.1171
   34DOPE   C25 4299   4.167   4.813  13.277  0.3865 -0.0164 -0.0390
   34DOPE   H5R 4300   4.205   4.860  13.184  1.6794 -2.6708 -0.9416
   34DOPE   H5S 4301   4.186   4.703  13.270 -1.3208 -0.3646  0.4951
   34DOPE   C26 4302   4.244   4.874  13.396 -0.0256 -0.2217  0.4797
   34DOPE   H6R 4303   4.215   4.981  13.405 -0.2871 -0.3753  1.6922
   34DOPE   H6S 4304   4.355   4.877  13.391  0.0058  1.0619  1.4019
   34DOPE   C27 4305   4.204   4.820  13.534 -0.0330  0.1995  0.3162
   34DOPE   H7R 4306   4.221   4.710  13.542 -0.2925  0.2474  1.7725
   34DOPE   H7S 4307   4.097   4.842  13.553 -0.1389 -0.4604  0.5381
   34DOPE   C28 4308   4.289   4.878  13.642  0.0564 -0.3858  1.3020
   34DOPE   H8R 4309   4.287   4.989  13.633 -0.3930 -0.3494  1.8288
   34DOPE   H8S 4310   4.387   4.834  13.616 -1.1022 -1.4512 -1.7922
   34DOPE   C29 4311   4.233   4.827  13.770 -0.6907  0.2523  0.2956
   34DOPE   H9R 4312   4.129   4.792  13.777 -0.2670 -0.8811  1.0750
   34DOPE  C210 4313   4.304   4.842  13.885 -0.0030 -0.1798 -0.1351
   34DOPE  H10R 4314   4.261   4.801  13.977  0.7701 -1.5515 -0.3596
   34DOPE  C211 4315   4.442   4.909  13.893 -0.0494  0.2971  0.2384
   34DOPE  H11R 4316   4.429   5.012  13.853 -0.6993  0.6316  1.2891
   34DOPE  H11S 4317   4.517   4.863  13.825  1.9184  1.6003  1.4420
   34DOPE  C212 4318   4.503   4.930  14.034  0.2018 -0.5621  0.0939
   34DOPE  H12R 4319   4.612   4.947  14.025  0.3061 -1.0705  0.3420
   34DOPE  H12S 4320   4.511   4.829  14.080  0.6335 -0.1162  0.9979
   34DOPE  C213 4321   4.423   5.028  14.126 -0.1217  0.9253  0.5630
   34DOPE  H13R 4322   4.317   5.001  14.108  0.7420 -3.1132  0.4859
   34DOPE  H13S 4323   4.442   5.129  14.084  3.1338  0.0085 -0.5057
   34DOPE  C214 4324   4.461   5.014  14.271 -0.1295  0.7657 -0.4041
   34DOPE  H14R 4325   4.571   5.024  14.278  0.1531 -2.2722  1.4479
   34DOPE  H14S 4326   4.453   4.909  14.308  0.0022  0.2153 -1.8304
   34DOPE  C215 4327   4.398   5.110  14.371  0.6447 -0.0365  0.4208
   34DOPE  H15R 4328   4.287   5.100  14.369  0.6839 -0.6563  1.2338
   34DOPE  H15S 4329   4.419   5.206  14.318  2.1284 -0.6889 -0.2309
   34DOPE  C216 4330   4.459   5.116  14.511  0.0379  0.2997  0.9250
   34DOPE  H16R 4331   4.413   5.204  14.563 -0.4032  1.5971 -1.5173
   34DOPE  H16S 4332   4.565   5.146  14.496  0.6255 -0.5306  3.0763
   34DOPE  C217 4333   4.463   4.980  14.581  0.3789 -0.5490  0.0432
   34DOPE  H17R 4334   4.502   4.986  14.685  1.3280 -4.0075  0.0328
   34DOPE  H17S 4335   4.537   4.912  14.533 -0.0522 -2.0795  1.4319
   34DOPE  C218 4336   4.333   4.901  14.588  0.1194  0.3676 -0.3188
   34DOPE  H18R 4337   4.289   4.875  14.489  1.4863  0.5157 -0.9914
   34DOPE  H18S 4338   4.251   4.957  14.640  0.0794 -0.2436  0.2865
   34DOPE  H18T 4339   4.358   4.807  14.641  3.4599  1.5706  0.4787
   34DOPE   C33 4340   3.614   5.093  13.538  0.6724 -0.9736  0.0739
   34DOPE   H3X 4341   3.680   5.024  13.594  1.4934  0.5477  1.0368
   34DOPE   H3Y 4342   3.515   5.043  13.533  0.5699 -0.9153  1.2365
   34DOPE   C34 4343   3.590   5.223  13.627 -0.3315 -0.0166  0.3383
   34DOPE   H4X 4344   3.674   5.294  13.614 -0.3779 -0.0171  0.0500
   34DOPE   H4Y 4345   3.503   5.275  13.584  0.8955  0.2809 -1.9165
   34DOPE   C35 4346   3.564   5.179  13.766  0.0538  0.0321 -0.4088
   34DOPE   H5X 4347   3.639   5.101  13.792  0.5122  0.3186 -0.8437
   34DOPE   H5Y 4348   3.466   5.127  13.769 -0.1656  0.4636  1.3705
   34DOPE   C36 4349   3.545   5.297  13.861 -0.5000  0.0572 -1.1091
   34DOPE   H6X 4350   3.467   5.356  13.808  0.2818 -0.4888 -2.9303
   34DOPE   H6Y 4351   3.644   5.349  13.866 -0.7390  0.4587 -0.4489
   34DOPE   C37 4352   3.481   5.261  13.991  0.0338 -0.0290  0.2716
   34DOPE   H7X 4353   3.456   5.354  14.046  1.5921  1.1811 -0.9739
   34DOPE   H7Y 4354   3.385   5.208  13.972  0.7166 -1.7559  1.3405
   34DOPE   C38 4355   3.563   5.174  14.088  0.4317  0.0039 -0.5124
   34DOPE   H8X 4356   3.659   5.208  14.131 -0.6932  0.7161  1.5694
   34DOPE   H8Y 4357   3.597   5.083  14.034  1.6617  0.0923  0.0786
   34DOPE   C39 4358   3.477   5.109  14.198  0.5522 -0.7785  0.2119
   34DOPE   H9X 4359   3.428   5.016  14.163 -2.5427  0.9390 -0.4000
   34DOPE  C310 4360   3.468   5.141  14.323  0.3966  0.3322 -0.0260
   34DOPE  H10X 4361   3.402   5.088  14.393 -0.5346  0.9014 -0.4419
   34DOPE  C311 4362   3.542   5.258  14.376  0.0145 -0.0237  0.6459
   34DOPE  H11X 4363   3.552   5.249  14.486 -0.9954  1.6772  0.9105
   34DOPE  H11Y 4364   3.648   5.248  14.343  0.6827  1.3457  2.2454
   34DOPE  C312 4365   3.488   5.394  14.341  0.3724 -0.1989 -0.5666
   34DOPE  H12X 4366   3.377   5.395  14.337  0.3894  0.4502 -1.1140
   34DOPE  H12Y 4367   3.522   5.426  14.240  2.8899  4.1842  1.3556
   34DOPE  C313 4368   3.540   5.503  14.433 -1.2491  0.0655 -0.0736
   34DOPE  H13X 4369   3.498   5.598  14.394  0.0771  0.0050 -1.7974
   34DOPE  H13Y 4370   3.503   5.483  14.535 -2.9831 -0.9497 -0.8516
   34DOPE  C314 4371   3.688   5.511  14.437 -0.5084  0.0408  0.1816
   34DOPE  H14X 4372   3.725   5.503  14.332 -2.7258 -2.2293 -0.5334
   34DOPE  H14Y 4373   3.744   5.436  14.497  2.4770  0.5891 -1.6870
   34DOPE  C315 4374   3.742   5.637  14.487 -0.3969  0.2227  0.0062
   34DOPE  H15X 4375   3.710   5.718  14.417 -1.8624 -0.2472  0.0941
   34DOPE  H15Y 4376   3.852   5.627  14.483 -0.0994  0.8895  3.2058
   34DOPE  C316 4377   3.711   5.677  14.634  0.1370 -0.5398  0.1510
   34DOPE  H16X 4378   3.754   5.598  14.700 -3.1996 -1.3377  1.6176
   34DOPE  H16Y 4379   3.601   5.686  14.646  0.2318  0.9428  0.1103
   34DOPE  C317 4380   3.775   5.810  14.683 -0.1805 -0.9277  0.5952
   34DOPE  H17X 4381   3.763   5.822  14.793  1.0802  1.3802  0.5486
   34DOPE  H17Y 4382   3.885   5.799  14.668  0.4321  0.9496  3.0462
   34DOPE  C318 4383   3.719   5.936  14.594  0.0768  1.6280 -0.3747
   34DOPE  H18X 4384   3.614   5.952  14.628  0.3493  1.5645  0.5203
   34DOPE  H18Y 4385   3.784   6.022  14.619  1.3542  1.1610 -1.9621
   34DOPE  H18Z 4386   3.731   5.923  14.485 -0.2887  0.8429 -0.3312
   35DOPE     N 4387   5.447   2.132  11.213 -0.1413  0.2338  0.0250
   35DOPE   HN1 4388   5.529   2.102  11.156  0.0193  0.8027 -0.0444
   35DOPE   HN2 4389   5.443   2.235  11.204  2.0892  0.2949 -1.0124
   35DOPE   HN3 4390   5.466   2.107  11.312  0.0696 -1.7942 -0.4813
   35DOPE   C12 4391   5.323   2.072  11.153 -0.3481 -0.4665  0.7312
   35DOPE  H12A 4392   5.323   1.962  11.168 -2.0263 -0.8282 -1.4365
   35DOPE  H12B 4393   5.329   2.079  11.042  0.0240 -0.8648  0.7233
   35DOPE   C11 4394   5.192   2.137  11.204  0.6362 -0.6935  0.2602
   35DOPE  H11A 4395   5.103   2.075  11.178 -0.2313  0.4959  0.3531
   35DOPE  H11B 4396   5.171   2.238  11.163 -0.0661 -0.2607  1.6227
   35DOPE     P 4397   5.162   2.042  11.437  0.3417 -0.3814 -0.1417
   35DOPE   O13 4398   5.269   1.942  11.426 -0.2454 -0.5202 -0.1431
   35DOPE   O14 4399   5.018   2.001  11.423  0.0233  0.1119 -0.5089
   35DOPE   O11 4400   5.169   2.107  11.583 -0.3994 -0.0836  0.0788
   35DOPE   O12 4401   5.199   2.160  11.345 -0.2405 -0.1336 -0.0083
   35DOPE    C1 4402   5.298   2.167  11.616  0.4354 -0.0715 -0.8909
   35DOPE    HA 4403   5.329   2.255  11.556 -0.1972 -0.0177 -1.1445
   35DOPE    HB 4404   5.376   2.089  11.628  1.3257  0.5135 -2.6480
   35DOPE    C2 4405   5.303   2.205  11.768  0.1915 -0.3079 -0.7587
   35DOPE    HS 4406   5.221   2.279  11.785 -0.0128 -0.6076 -0.4270
   35DOPE   O21 4407   5.428   2.268  11.803  0.3469  0.1755  0.4220
   35DOPE   C21 4408   5.433   2.376  11.882 -0.0956  0.4311 -0.1473
   35DOPE   O22 4409   5.333   2.435  11.919 -0.2640  0.5510 -0.2703
   35DOPE   C22 4410   5.576   2.398  11.919  0.0777 -0.5409 -0.5367
   35DOPE   H2R 4411   5.616   2.492  11.875  1.5410 -1.3845 -1.0929
   35DOPE   H2S 4412   5.638   2.316  11.876 -1.5344 -1.1099 -1.9147
   35DOPE    C3 4413   5.276   2.081  11.863  0.1874  0.2904 -0.2648
   35DOPE    HX 4414   5.373   2.029  11.876  1.2136  2.1604 -0.0605
   35DOPE    HY 4415   5.215   2.004  11.811  1.2262 -1.2514  0.6885
   35DOPE   O31 4416   5.233   2.118  11.995 -0.3189 -0.3453 -0.4718
   35DOPE   C31 4417   5.108   2.151  11.998  0.1510 -0.2978 -0.0987
   35DOPE   O32 4418   5.031   2.154  11.904  1.2231  0.2303  0.4564
   35DOPE   C32 4419   5.067   2.177  12.142 -0.3408 -0.2714 -0.7609
   35DOPE   H2X 4420   5.144   2.141  12.212 -0.0646 -0.4467 -1.1542
   35DOPE   H2Y 4421   5.067   2.288  12.153  1.9656 -0.4030  1.2234
   35DOPE   C23 4422   5.587   2.399  12.076 -0.3834 -1.0126 -0.1718
   35DOPE   H3R 4423   5.535   2.490  12.112  0.3041 -0.1514 -1.2771
   35DOPE   H3S 4424   5.697   2.403  12.092  0.0173 -1.3926 -2.4514
   35DOPE   C24 4425   5.536   2.275  12.139  0.2443  0.4560  0.2050
   35DOPE   H4R 4426   5.579   2.185  12.090 -2.6732 -1.5537  1.1306
   35DOPE   H4S 4427   5.427   2.276  12.121  0.2805 -1.1004 -0.2418
   35DOPE   C25 4428   5.564   2.262  12.290 -1.0074 -0.2294  0.1177
   35DOPE   H5R 4429   5.671   2.266  12.318 -0.7711 -2.9885 -0.0536
   35DOPE   H5S 4430   5.521   2.161  12.309 -0.0318 -1.0403 -1.7288
   35DOPE   C26 4431   5.485   2.364  12.367 -0.2032  0.2227 -0.1794
   35DOPE   H6R 4432   5.376   2.365  12.344 -0.8541  2.4120  2.4206
   35DOPE   H6S 4433   5.515   2.469  12.345  1.9716 -0.6902 -1.9392
   35DOPE   C27 4434   5.479   2.338  12.511  0.4529  0.4899 -1.0193
   35DOPE   H7R 4435   5.465   2.430  12.573  4.5439  0.3574  0.3966
   35DOPE   H7S 4436   5.563   2.295  12.570 -0.3883  1.1119  0.6810
   35DOPE   C28 4437   5.362   2.243  12.553  0.1855 -0.2704 -0.4952
   35DOPE   H8R 4438   5.409   2.160  12.609 -2.0653 -0.4146  1.3190
   35DOPE   H8S 4439   5.326   2.198  12.457 -0.6448  0.0350 -0.3364
   35DOPE   C29 4440   5.255   2.313  12.638 -0.6229 -0.0057 -0.1457
   35DOPE   H9R 4441   5.218   2.409  12.598 -0.7438  1.5003  3.1828
   35DOPE  C210 4442   5.233   2.285  12.770 -0.5288 -0.2043 -0.3243
   35DOPE  H10R 4443   5.171   2.351  12.834  0.3202  0.3420 -0.0409
   35DOPE  C211 4444   5.311   2.185  12.857  0.3209  0.9185  0.7207
   35DOPE  H11R 4445   5.414   2.160  12.823  0.4563  0.5889  1.3697
   35DOPE  H11S 4446   5.255   2.089  12.855  1.4219  0.2596 -1.2694
   35DOPE  C212 4447   5.320   2.236  12.999  0.3677  0.2027 -0.4467
   35DOPE  H12R 4448   5.219   2.257  13.041  0.3753  0.5406 -0.5921
   35DOPE  H12S 4449   5.371   2.334  12.986  0.1291 -0.0085 -3.5500
   35DOPE  C213 4450   5.395   2.147  13.091  0.5528  0.3290  0.0682
   35DOPE  H13R 4451   5.500   2.126  13.061 -0.2296 -1.6662 -1.5289
   35DOPE  H13S 4452   5.342   2.051  13.112 -1.7832  1.1590 -1.5372
   35DOPE  C214 4453   5.414   2.223  13.226  0.2238  0.1029 -0.7334
   35DOPE  H14R 4454   5.322   2.254  13.280  0.7420 -0.2660  0.3945
   35DOPE  H14S 4455   5.473   2.316  13.214 -1.0798  0.9929 -0.4625
   35DOPE  C215 4456   5.466   2.133  13.337 -0.7030 -0.6252 -0.5890
   35DOPE  H15R 4457   5.570   2.116  13.303 -0.9498 -1.9324 -0.7455
   35DOPE  H15S 4458   5.404   2.040  13.334 -3.2676  0.9964 -2.3955
   35DOPE  C216 4459   5.467   2.189  13.477  0.3663  0.2086 -0.2174
   35DOPE  H16R 4460   5.502   2.294  13.471 -1.4232  0.8239 -0.6504
   35DOPE  H16S 4461   5.539   2.133  13.540  0.1034  0.5084  0.3672
   35DOPE  C217 4462   5.334   2.199  13.550  0.2361  0.1907  1.2880
   35DOPE  H17R 4463   5.264   2.121  13.513 -1.1164  1.4989  1.0038
   35DOPE  H17S 4464   5.286   2.296  13.525 -0.2754 -0.4194 -0.2510
   35DOPE  C218 4465   5.332   2.169  13.697  0.0903 -0.1532 -0.6652
   35DOPE  H18R 4466   5.422   2.216  13.743  0.5520 -2.4663  0.9680
   35DOPE  H18S 4467   5.342   2.060  13.718  2.1008  0.1632  0.2412
   35DOPE  H18T 4468   5.243   2.204  13.753 -0.9821 -3.4343 -0.0896
   35DOPE   C33 4469   4.931   2.119  12.179 -0.3904  0.2335  0.7668
   35DOPE   H3X 4470   4.921   2.016  12.137 -1.1529  1.8055 -3.4772
   35DOPE   H3Y 4471   4.854   2.180  12.127  1.1391  1.6541  0.0510
   35DOPE   C34 4472   4.903   2.100  12.324 -0.4294 -0.8657 -0.7257
   35DOPE   H4X 4473   4.904   2.195  12.382  0.7618 -1.3912  0.1581
   35DOPE   H4Y 4474   4.797   2.067  12.325 -0.8927  0.3686  1.9879
   35DOPE   C35 4475   5.002   2.018  12.406  0.5778 -0.1691 -0.5541
   35DOPE   H5X 4476   5.101   2.068  12.412  1.6842 -2.3930  1.1970
   35DOPE   H5Y 4477   5.026   1.928  12.346  0.5271  1.0634 -2.5236
   35DOPE   C36 4478   4.964   2.004  12.550  0.1027 -1.0311  0.1342
   35DOPE   H6X 4479   4.868   1.949  12.547 -0.5091  0.0559 -0.6293
   35DOPE   H6Y 4480   4.940   2.104  12.593 -1.5088 -1.2891 -0.1120
   35DOPE   C37 4481   5.072   1.927  12.628  0.3865  0.5072 -0.1458
   35DOPE   H7X 4482   5.091   1.833  12.572 -1.3555 -0.1777  0.3312
   35DOPE   H7Y 4483   5.165   1.988  12.639 -1.2465  2.8176  2.0859
   35DOPE   C38 4484   5.016   1.883  12.765 -0.0682 -0.5477  0.2189
   35DOPE   H8X 4485   5.090   1.809  12.802 -2.3402 -3.5817 -0.8739
   35DOPE   H8Y 4486   4.918   1.830  12.756 -0.1656 -0.8989  2.6022
   35DOPE   C39 4487   4.997   1.998  12.851  0.1250 -0.2819 -0.3654
   35DOPE   H9X 4488   4.992   2.098  12.805 -1.7854 -0.2449 -0.1371
   35DOPE  C310 4489   4.972   1.988  12.982  0.2386  0.7490 -0.5121
   35DOPE  H10X 4490   4.979   2.083  13.037 -1.2905  0.3701  0.3987
   35DOPE  C311 4491   4.945   1.860  13.062 -0.1332  0.2148 -0.3061
   35DOPE  H11X 4492   4.838   1.859  13.092 -0.5634 -3.8620 -1.2944
   35DOPE  H11Y 4493   4.954   1.773  12.993  1.5928 -0.7473  1.0515
   35DOPE  C312 4494   5.028   1.833  13.181 -0.5796 -0.4506 -0.5916
   35DOPE  H12X 4495   5.133   1.867  13.170 -0.1079 -0.4863  2.7931
   35DOPE  H12Y 4496   5.034   1.722  13.183 -2.0368 -0.5476  0.2981
   35DOPE  C313 4497   4.970   1.883  13.311  0.5575  0.7281  0.0219
   35DOPE  H13X 4498   4.978   1.994  13.314 -3.5054  1.1564 -0.3395
   35DOPE  H13Y 4499   4.862   1.859  13.322  0.3320  0.9523 -1.4946
   35DOPE  C314 4500   5.059   1.821  13.426 -0.5931 -1.0267  0.7456
   35DOPE  H14X 4501   5.160   1.857  13.397 -0.9802 -0.3891  0.1482
   35DOPE  H14Y 4502   5.051   1.710  13.426 -0.1096 -1.0791  2.0672
   35DOPE  C315 4503   5.018   1.867  13.566 -0.2785  0.2792 -0.0346
   35DOPE  H15X 4504   4.909   1.887  13.573 -0.4975 -0.7684 -0.3530
   35DOPE  H15Y 4505   5.070   1.963  13.588 -0.5388  0.8667 -1.8592
   35DOPE  C316 4506   5.050   1.757  13.664  0.8498 -0.5759 -1.1869
   35DOPE  H16X 4507   5.157   1.730  13.662  0.9516 -0.2820 -0.3399
   35DOPE  H16Y 4508   4.985   1.670  13.640 -1.9611  1.5769 -1.8308
   35DOPE  C317 4509   5.018   1.791  13.812 -0.1302 -0.6050  0.7077
   35DOPE  H17X 4510   4.912   1.825  13.812 -0.7160 -2.1816  2.7505
   35DOPE  H17Y 4511   5.015   1.703  13.879  1.1937 -1.8164 -0.7524
   35DOPE  C318 4512   5.113   1.902  13.860  0.1163  0.5034  0.2948
   35DOPE  H18X 4513   5.082   1.932  13.962 -1.4127  1.0589 -0.2979
   35DOPE  H18Y 4514   5.220   1.872  13.852  0.4802  2.0084 -1.1308
   35DOPE  H18Z 4515   5.093   1.998  13.807 -1.3415  1.4187  2.3697
   36DOPE     N 4516   6.031   4.029  11.385  0.3645 -0.2941 -0.1687
   36DOPE   HN1 4517   6.111   4.035  11.318 -0.3608 -2.1213 -1.2498
   36DOPE   HN2 4518   5.934   4.036  11.350 -0.4006 -1.3703  1.6264
   36DOPE   HN3 4519   6.025   4.111  11.449 -0.6448 -0.2980 -0.2440
   36DOPE   C12 4520   6.035   3.899  11.466 -0.1725  0.2250 -0.4491
   36DOPE  H12A 4521   6.049   3.806  11.407  1.5324 -0.0143  0.2859
   36DOPE  H12B 4522   5.936   3.890  11.517  0.4858 -1.4484  0.6287
   36DOPE   C11 4523   6.141   3.904  11.578  0.0502  0.3375 -0.2549
   36DOPE  H11A 4524   6.130   3.804  11.626 -0.0525  0.7437  0.5798
   36DOPE  H11B 4525   6.097   3.986  11.639 -1.3674  1.2780 -2.4277
   36DOPE     P 4526   6.396   3.973  11.605  0.3091  0.2108  0.2521
   36DOPE   O13 4527   6.413   4.116  11.593  0.6452 -0.4639 -0.0647
   36DOPE   O14 4528   6.513   3.889  11.574  0.1595 -0.1234  0.5309
   36DOPE   O11 4529   6.350   3.946  11.746  0.0834  0.4617 -0.3445
   36DOPE   O12 4530   6.268   3.923  11.521 -0.4180  0.6171  0.5619
   36DOPE    C1 4531   6.376   3.819  11.809  0.3213  0.2291 -0.7395
   36DOPE    HA 4532   6.484   3.803  11.830 -0.3458 -1.0935  2.1772
   36DOPE    HB 4533   6.344   3.736  11.743  1.6858 -1.6015  0.7948
   36DOPE    C2 4534   6.303   3.801  11.948  0.4020 -0.1454  0.0099
   36DOPE    HS 4535   6.193   3.817  11.939  0.7553  1.5941 -2.3908
   36DOPE   O21 4536   6.356   3.893  12.043 -0.1330 -0.5044  0.4493
   36DOPE   C21 4537   6.267   3.947  12.125 -0.3871  0.1126  0.0745
   36DOPE   O22 4538   6.147   3.934  12.123  0.2605 -0.5718  0.3033
   36DOPE   C22 4539   6.345   4.019  12.243 -0.3305 -0.2198 -1.0118
   36DOPE   H2R 4540   6.271   4.096  12.272  0.4296  0.3352 -0.5072
   36DOPE   H2S 4541   6.433   4.068  12.197  1.3868  0.3755  2.4925
   36DOPE    C3 4542   6.338   3.661  11.999 -0.8570 -0.7018  0.0904
   36DOPE    HX 4543   6.448   3.642  12.002 -0.8047 -1.1016 -2.2541
   36DOPE    HY 4544   6.297   3.594  11.920 -2.3556  2.4232 -2.0114
   36DOPE   O31 4545   6.277   3.626  12.133  0.7092 -0.3918 -0.0790
   36DOPE   C31 4546   6.262   3.499  12.149  0.4614  0.4909  0.7773
   36DOPE   O32 4547   6.289   3.410  12.068 -0.3066  0.1772 -0.4382
   36DOPE   C32 4548   6.199   3.474  12.284 -0.4157 -0.1307 -0.4091
   36DOPE   H2X 4549   6.145   3.566  12.315 -2.1216 -1.5204  0.9487
   36DOPE   H2Y 4550   6.116   3.400  12.286  2.1684 -3.3633  3.2642
   36DOPE   C23 4551   6.392   3.921  12.353  0.6777 -0.0754  0.0379
   36DOPE   H3R 4552   6.480   3.862  12.320  1.7723  2.0194 -0.9799
   36DOPE   H3S 4553   6.315   3.842  12.370  1.4694 -0.6907  0.8051
   36DOPE   C24 4554   6.405   3.979  12.497  0.1353  0.5295  0.0425
   36DOPE   H4R 4555   6.307   4.022  12.525 -0.4561 -1.0481  0.5186
   36DOPE   H4S 4556   6.483   4.057  12.482 -1.4870  2.0707 -0.6451
   36DOPE   C25 4557   6.435   3.871  12.600  0.5885  0.2990 -0.3385
   36DOPE   H5R 4558   6.535   3.831  12.571  0.0564  0.0408 -1.9588
   36DOPE   H5S 4559   6.357   3.792  12.598 -0.3602  1.2143 -2.3873
   36DOPE   C26 4560   6.454   3.925  12.740 -0.2059  0.0051 -0.0085
   36DOPE   H6R 4561   6.353   3.951  12.778 -0.1828 -2.8552  2.3937
   36DOPE   H6S 4562   6.526   4.009  12.746  0.4713 -0.5221 -0.6438
   36DOPE   C27 4563   6.502   3.813  12.841  0.7074  0.5030  0.2378
   36DOPE   H7R 4564   6.599   3.772  12.806  1.0762  1.5955 -0.0694
   36DOPE   H7S 4565   6.430   3.730  12.860  2.1185 -0.3911  1.9755
   36DOPE   C28 4566   6.547   3.877  12.970  0.5729  0.1357 -0.6403
   36DOPE   H8R 4567   6.616   3.962  12.953 -0.4857  1.0302 -0.6253
   36DOPE   H8S 4568   6.593   3.801  13.036 -1.5031 -2.1207 -1.6164
   36DOPE   C29 4569   6.442   3.945  13.053 -0.0418  0.8559  0.6452
   36DOPE   H9R 4570   6.378   4.014  12.995  0.4678  0.9931  0.2317
   36DOPE  C210 4571   6.409   3.933  13.180 -0.5571 -0.3070 -0.0437
   36DOPE  H10R 4572   6.324   3.990  13.221  1.7059  2.0784  1.7130
   36DOPE  C211 4573   6.471   3.849  13.277  0.4619 -0.3575 -0.1255
   36DOPE  H11R 4574   6.582   3.841  13.275  0.4715 -0.7803  1.0497
   36DOPE  H11S 4575   6.432   3.746  13.261 -0.6811  0.0864 -0.2597
   36DOPE  C212 4576   6.438   3.881  13.420  0.1781  0.6354  0.6075
   36DOPE  H12R 4577   6.331   3.904  13.440 -0.0273  1.8779 -1.6554
   36DOPE  H12S 4578   6.484   3.974  13.459  2.0179  0.0331  0.0048
   36DOPE  C213 4579   6.487   3.762  13.515 -0.6458  0.3349  0.4952
   36DOPE  H13R 4580   6.595   3.744  13.495 -0.2827  2.2235  0.5220
   36DOPE  H13S 4581   6.419   3.676  13.494 -0.0524 -0.4400  1.6356
   36DOPE  C214 4582   6.469   3.803  13.662 -0.0169 -0.1604  0.0544
   36DOPE  H14R 4583   6.368   3.846  13.676  0.0051  0.3616 -1.2662
   36DOPE  H14S 4584   6.538   3.888  13.683  1.3469 -1.5175  1.3699
   36DOPE  C215 4585   6.502   3.685  13.753  0.8894 -0.1377  0.2489
   36DOPE  H15R 4586   6.602   3.650  13.719  0.2222 -0.2481 -1.6876
   36DOPE  H15S 4587   6.425   3.610  13.726 -0.6949  2.0427 -1.5700
   36DOPE  C216 4588   6.511   3.723  13.901 -0.1177  0.2745 -0.3983
   36DOPE  H16R 4589   6.559   3.632  13.945  1.5465  1.2576 -0.0697
   36DOPE  H16S 4590   6.413   3.729  13.953  0.0628 -2.1274  0.3443
   36DOPE  C217 4591   6.572   3.862  13.924 -0.1237 -0.6830  0.0083
   36DOPE  H17R 4592   6.508   3.947  13.891 -1.4417 -1.7177 -0.1995
   36DOPE  H17S 4593   6.669   3.863  13.870 -0.5043  0.2849 -0.6742
   36DOPE  C218 4594   6.606   3.884  14.072  0.1252  0.2717 -0.1093
   36DOPE  H18R 4595   6.507   3.910  14.116 -0.3091  0.7252 -1.3171
   36DOPE  H18S 4596   6.676   3.969  14.087 -0.1589  0.4367  0.2845
   36DOPE  H18T 4597   6.641   3.797  14.132 -2.5100 -1.3271 -0.7163
   36DOPE   C33 4598   6.298   3.439  12.400 -0.0170 -0.1262 -0.5906
   36DOPE   H3X 4599   6.390   3.501  12.400 -1.1601  1.6742  0.7875
   36DOPE   H3Y 4600   6.325   3.332  12.389  2.7415  0.5470 -1.0496
   36DOPE   C34 4601   6.228   3.454  12.531  0.2068  0.2679  0.8555
   36DOPE   H4X 4602   6.183   3.555  12.546 -0.2004 -0.2914  3.9815
   36DOPE   H4Y 4603   6.144   3.384  12.547  1.0516 -0.6279  1.5066
   36DOPE   C35 4604   6.320   3.423  12.646  0.1163 -0.5420 -0.4023
   36DOPE   H5X 4605   6.406   3.492  12.658  0.7156 -1.5228  1.2588
   36DOPE   H5Y 4606   6.368   3.327  12.619  0.7791  0.1466 -1.7787
   36DOPE   C36 4607   6.243   3.411  12.780  0.2433  0.0491  0.3526
   36DOPE   H6X 4608   6.165   3.332  12.780  0.9658 -0.6810 -0.2323
   36DOPE   H6Y 4609   6.208   3.512  12.810 -2.1651 -0.8458  0.8057
   36DOPE   C37 4610   6.343   3.371  12.889 -0.0340  0.5853  0.4921
   36DOPE   H7X 4611   6.386   3.273  12.861 -0.4812  0.6257 -0.3679
   36DOPE   H7Y 4612   6.426   3.444  12.878 -0.0717  0.4014 -1.3892
   36DOPE   C38 4613   6.278   3.376  13.028  0.0380  0.3564 -0.0801
   36DOPE   H8X 4614   6.259   3.273  13.064  0.1763  1.0678  2.1937
   36DOPE   H8Y 4615   6.174   3.414  13.019  0.3577  2.0035  2.2353
   36DOPE   C39 4616   6.351   3.458  13.132  0.1445  0.3614  0.1703
   36DOPE   H9X 4617   6.414   3.535  13.086  0.7018 -0.0711  0.1957
   36DOPE  C310 4618   6.355   3.435  13.267 -1.0137  0.2071  0.4711
   36DOPE  H10X 4619   6.412   3.508  13.326 -3.0070  3.6201 -1.5165
   36DOPE  C311 4620   6.272   3.329  13.330  0.3850 -0.1370  0.3192
   36DOPE  H11X 4621   6.178   3.310  13.275  0.8865 -0.4974 -0.4235
   36DOPE  H11Y 4622   6.321   3.230  13.318  1.1221  0.3032 -0.3989
   36DOPE  C312 4623   6.249   3.349  13.478  0.7627 -0.0022  0.1722
   36DOPE  H12X 4624   6.178   3.270  13.509 -1.1206  1.0801 -1.1607
   36DOPE  H12Y 4625   6.208   3.450  13.498  1.7767  1.0227 -2.4209
   36DOPE  C313 4626   6.383   3.342  13.560  0.4169  0.5458 -0.6128
   36DOPE  H13X 4627   6.448   3.255  13.534  0.6175  0.6025 -0.3095
   36DOPE  H13Y 4628   6.437   3.439  13.567  0.4906  0.4975 -0.5093
   36DOPE  C314 4629   6.346   3.322  13.710  0.1202  0.1103 -0.1099
   36DOPE  H14X 4630   6.272   3.239  13.718 -0.1534  0.2959 -0.6214
   36DOPE  H14Y 4631   6.301   3.411  13.759  0.4212 -1.0385  2.4209
   36DOPE  C315 4632   6.464   3.288  13.799 -0.3048 -0.5706 -0.6140
   36DOPE  H15X 4633   6.546   3.359  13.772 -1.2315  0.7667 -0.0106
   36DOPE  H15Y 4634   6.490   3.183  13.775  0.1553 -0.3962 -0.9001
   36DOPE  C316 4635   6.434   3.289  13.949 -0.2218  0.4420  0.0602
   36DOPE  H16X 4636   6.350   3.221  13.975 -1.2232  2.2254  1.8413
   36DOPE  H16Y 4637   6.394   3.389  13.976  0.0899  0.7595 -0.6153
   36DOPE  C317 4638   6.548   3.260  14.043  0.3397 -0.1545 -0.0616
   36DOPE  H17X 4639   6.603   3.173  14.003  0.7413 -0.4535  1.1259
   36DOPE  H17Y 4640   6.621   3.343  14.056  0.2325 -0.2426  1.2171
   36DOPE  C318 4641   6.496   3.220  14.187 -0.8946  0.2081 -0.0867
   36DOPE  H18X 4642   6.584   3.241  14.252 -1.1376  0.3924  0.1826
   36DOPE  H18Y 4643   6.423   3.292  14.229 -3.1956 -1.3863 -1.1267
   36DOPE  H18Z 4644   6.464   3.113  14.190  1.7308 -0.6262  1.2915
   37DOPE     N 4645   4.275   2.979  12.199  0.2332 -0.2277  0.0817
   37DOPE   HN1 4646   4.216   2.894  12.192 -0.6823  0.3610  0.3036
   37DOPE   HN2 4647   4.371   2.960  12.165  0.6203  0.0424  0.9856
   37DOPE   HN3 4648   4.279   2.998  12.301  2.2289  0.2111 -0.0472
   37DOPE   C12 4649   4.224   3.106  12.133 -0.5262  0.1302 -0.0624
   37DOPE  H12A 4650   4.121   3.120  12.172  0.0329  3.1432  0.6069
   37DOPE  H12B 4651   4.224   3.086  12.024 -0.1067  2.3290 -0.5270
   37DOPE   C11 4652   4.318   3.222  12.182  0.0355  0.0812 -0.4780
   37DOPE  H11A 4653   4.293   3.236  12.290  1.2263 -0.3375 -0.1417
   37DOPE  H11B 4654   4.283   3.308  12.121  0.0427 -0.3338 -1.0710
   37DOPE     P 4655   4.569   3.275  12.225  0.0987  0.1576 -0.3359
   37DOPE   O13 4656   4.575   3.415  12.175 -0.2361  0.3146 -0.3013
   37DOPE   O14 4657   4.690   3.189  12.214 -0.0481  0.3847  0.1579
   37DOPE   O11 4658   4.525   3.276  12.373 -0.3252  0.1758  0.1584
   37DOPE   O12 4659   4.456   3.198  12.155  0.1481 -0.6711  0.6248
   37DOPE    C1 4660   4.525   3.156  12.455  0.2069 -0.3291  0.1587
   37DOPE    HA 4661   4.623   3.107  12.472  0.2289 -0.3634 -0.0593
   37DOPE    HB 4662   4.460   3.074  12.418  2.4046 -2.8226  1.4682
   37DOPE    C2 4663   4.472   3.182  12.602 -0.2541  0.6145  0.4220
   37DOPE    HS 4664   4.370   3.223  12.587 -1.3733 -1.6261  1.3629
   37DOPE   O21 4665   4.568   3.276  12.663 -0.2325 -0.3284 -0.2046
   37DOPE   C21 4666   4.521   3.338  12.772  0.0155  0.1055  0.4463
   37DOPE   O22 4667   4.407   3.319  12.813  0.3557  0.0684 -0.6368
   37DOPE   C22 4668   4.642   3.401  12.854  0.7697  0.0012 -0.0324
   37DOPE   H2R 4669   4.608   3.494  12.903  3.4333  1.1142 -0.1388
   37DOPE   H2S 4670   4.721   3.431  12.782  0.5525  2.4218  0.6799
   37DOPE    C3 4671   4.445   3.046  12.681  0.9617 -0.3410  0.3473
   37DOPE    HX 4672   4.419   2.969  12.605 -0.7799 -0.3909  0.9425
   37DOPE    HY 4673   4.351   3.067  12.737  1.2935 -2.6744  1.9298
   37DOPE   O31 4674   4.552   3.004  12.762 -0.2388  0.6357  0.1360
   37DOPE   C31 4675   4.545   2.885  12.814 -0.7288 -0.0587  0.0574
   37DOPE   O32 4676   4.441   2.825  12.831  0.4081 -0.0288  0.9661
   37DOPE   C32 4677   4.688   2.841  12.851  0.5183 -0.0482  0.5847
   37DOPE   H2X 4678   4.724   2.807  12.751 -0.0474  0.7837  0.0882
   37DOPE   H2Y 4679   4.735   2.934  12.887  0.0952 -0.2280  1.6297
   37DOPE   C23 4680   4.692   3.309  12.960 -0.7018  0.3678  0.5247
   37DOPE   H3R 4681   4.797   3.334  12.985  0.3301 -3.0500  0.1276
   37DOPE   H3S 4682   4.698   3.206  12.919  0.5089  1.6691 -2.9405
   37DOPE   C24 4683   4.613   3.312  13.096  0.7431 -0.0754  0.1100
   37DOPE   H4R 4684   4.621   3.214  13.148 -1.0466  0.3365  1.2307
   37DOPE   H4S 4685   4.506   3.329  13.075  0.1662 -0.8479  2.2288
   37DOPE   C25 4686   4.666   3.423  13.199  0.2014  0.1881  0.0010
   37DOPE   H5R 4687   4.653   3.525  13.157 -1.6371 -0.0479 -0.0653
   37DOPE   H5S 4688   4.770   3.402  13.231  0.4589  3.5118  1.8244
   37DOPE   C26 4689   4.583   3.418  13.325  0.0002  0.0256 -0.0527
   37DOPE   H6R 4690   4.571   3.315  13.364 -0.5684 -0.0775 -0.4899
   37DOPE   H6S 4691   4.487   3.454  13.283  0.6448  1.3645 -0.4383
   37DOPE   C27 4692   4.630   3.501  13.442  0.0445 -0.2330  0.3866
   37DOPE   H7R 4693   4.624   3.604  13.402 -0.3452  0.0866  1.2493
   37DOPE   H7S 4694   4.738   3.484  13.462  0.6074  0.5969 -1.6612
   37DOPE   C28 4695   4.539   3.510  13.564 -0.4010 -0.5734  0.2026
   37DOPE   H8R 4696   4.502   3.407  13.579 -1.6915  0.0343  1.3607
   37DOPE   H8S 4697   4.446   3.549  13.518 -1.9958 -3.6345  0.5719
   37DOPE   C29 4698   4.591   3.582  13.689 -0.1259 -0.5954  0.3411
   37DOPE   H9R 4699   4.562   3.687  13.702 -0.9291 -0.9730  1.8672
   37DOPE  C210 4700   4.681   3.533  13.780 -0.3320  0.3069  0.0323
   37DOPE  H10R 4701   4.703   3.586  13.874  0.2626  0.8428 -0.4018
   37DOPE  C211 4702   4.742   3.401  13.779 -0.5635  1.2147 -0.2354
   37DOPE  H11R 4703   4.852   3.400  13.765 -0.3111 -0.7122  1.4263
   37DOPE  H11S 4704   4.693   3.348  13.694 -2.3517  2.4787 -0.0565
   37DOPE  C212 4705   4.717   3.326  13.920  0.4765 -0.3640  0.1527
   37DOPE  H12R 4706   4.608   3.312  13.927  0.7130 -1.7783  1.3367
   37DOPE  H12S 4707   4.758   3.397  13.995 -0.4877  0.7723 -0.3689
   37DOPE  C213 4708   4.771   3.179  13.909 -0.0695 -0.0116 -0.2539
   37DOPE  H13R 4709   4.882   3.183  13.900 -0.0310 -0.8971 -0.2753
   37DOPE  H13S 4710   4.737   3.115  13.825  1.8435 -1.6103  0.1148
   37DOPE  C214 4711   4.756   3.106  14.045  0.2707  0.4185  0.2253
   37DOPE  H14R 4712   4.814   3.152  14.127  0.7255 -0.3829  0.3627
   37DOPE  H14S 4713   4.794   3.003  14.028 -1.4748 -0.0903 -0.8826
   37DOPE  C215 4714   4.612   3.090  14.092 -0.0608  0.0313 -0.1039
   37DOPE  H15R 4715   4.541   3.047  14.018  0.3667 -3.4791  1.3333
   37DOPE  H15S 4716   4.561   3.187  14.110  0.0842  0.7803 -3.1176
   37DOPE  C216 4717   4.601   2.986  14.207 -0.1255  0.4867 -0.3112
   37DOPE  H16R 4718   4.650   3.021  14.300  1.2063  0.9435 -1.1593
   37DOPE  H16S 4719   4.657   2.898  14.166 -1.3607 -0.6314  0.3384
   37DOPE  C217 4720   4.456   2.951  14.237  0.0007 -0.3506  0.0084
   37DOPE  H17R 4721   4.454   2.856  14.295 -2.1121 -0.3194  0.0684
   37DOPE  H17S 4722   4.405   2.926  14.141  3.1619  0.0315 -1.9137
   37DOPE  C218 4723   4.384   3.068  14.304 -0.5980  0.4743  0.4484
   37DOPE  H18R 4724   4.447   3.158  14.287  0.3790  0.2443  2.5562
   37DOPE  H18S 4725   4.374   3.044  14.412  1.2686 -2.3434  0.1003
   37DOPE  H18T 4726   4.283   3.078  14.259 -1.0933 -0.4523  1.3208
   37DOPE   C33 4727   4.708   2.740  12.963 -0.6334 -0.2636 -0.0680
   37DOPE   H3X 4728   4.808   2.694  12.947 -1.2085 -1.4300 -0.3999
   37DOPE   H3Y 4729   4.640   2.654  12.944 -0.0240 -0.6012 -0.7532
   37DOPE   C34 4730   4.668   2.799  13.096 -0.2742 -0.0428  0.2796
   37DOPE   H4X 4731   4.758   2.856  13.126  0.1770 -0.1396 -0.8475
   37DOPE   H4Y 4732   4.586   2.874  13.091  0.3394  0.7379  1.4835
   37DOPE   C35 4733   4.641   2.697  13.209  0.3457  0.2965 -1.0741
   37DOPE   H5X 4734   4.722   2.621  13.218  0.3287  0.4177  0.3290
   37DOPE   H5Y 4735   4.540   2.655  13.191  0.1208 -0.1547  0.9419
   37DOPE   C36 4736   4.633   2.758  13.357  0.2038  0.2399  0.0486
   37DOPE   H6X 4737   4.541   2.820  13.358 -1.0252 -1.5106  0.1191
   37DOPE   H6Y 4738   4.729   2.808  13.379 -0.0797  0.1991  1.4344
   37DOPE   C37 4739   4.628   2.642  13.457 -0.7508 -0.2271 -0.6424
   37DOPE   H7X 4740   4.539   2.576  13.445 -1.5418  0.2351  1.8944
   37DOPE   H7Y 4741   4.713   2.573  13.440 -0.0919  0.2781  0.4787
   37DOPE   C38 4742   4.628   2.688  13.607  0.1674 -0.0028  0.3144
   37DOPE   H8X 4743   4.696   2.776  13.600 -1.9401  1.5779 -3.8010
   37DOPE   H8Y 4744   4.668   2.612  13.678  3.3907  2.3125  1.2007
   37DOPE   C39 4745   4.489   2.725  13.644 -0.0172 -0.1412 -0.1547
   37DOPE   H9X 4746   4.424   2.756  13.561  0.3806  2.5989  0.4559
   37DOPE  C310 4747   4.431   2.716  13.763  0.1035 -0.3463  0.2043
   37DOPE  H10X 4748   4.321   2.721  13.771  0.2855  1.8341  3.1257
   37DOPE  C311 4749   4.493   2.660  13.889  0.4393  0.4541 -0.2113
   37DOPE  H11X 4750   4.604   2.649  13.889  0.6100  1.8809  0.5605
   37DOPE  H11Y 4751   4.474   2.732  13.972 -0.6330 -2.6709  2.4362
   37DOPE  C312 4752   4.423   2.528  13.924  0.4873 -0.1079 -0.1187
   37DOPE  H12X 4753   4.453   2.450  13.850 -1.9567 -1.8720  0.6298
   37DOPE  H12Y 4754   4.314   2.547  13.921  0.6010  1.3024  2.3320
   37DOPE  C313 4755   4.447   2.474  14.069  0.2854 -0.4143 -0.3281
   37DOPE  H13X 4756   4.416   2.369  14.091 -1.2264 -0.0387 -0.5478
   37DOPE  H13Y 4757   4.553   2.499  14.089  0.2245 -1.5309  1.7539
   37DOPE  C314 4758   4.364   2.559  14.161 -0.0451  0.5469 -0.1094
   37DOPE  H14X 4759   4.263   2.516  14.180  0.6575 -0.6672  0.9854
   37DOPE  H14Y 4760   4.339   2.659  14.119 -1.5944 -0.7318 -2.4560
   37DOPE  C315 4761   4.434   2.580  14.295  0.3854 -0.5043  0.4461
   37DOPE  H15X 4762   4.377   2.654  14.355 -0.4415 -1.5498  0.9841
   37DOPE  H15Y 4763   4.536   2.624  14.288 -0.6646  1.7514 -2.8103
   37DOPE  C316 4764   4.418   2.459  14.389  0.5801  0.1708  0.4295
   37DOPE  H16X 4765   4.482   2.376  14.352 -1.1307 -1.5203  1.1318
   37DOPE  H16Y 4766   4.319   2.409  14.389  1.5968 -2.1183 -2.2860
   37DOPE  C317 4767   4.454   2.485  14.538  0.4345  0.4468 -0.6283
   37DOPE  H17X 4768   4.544   2.550  14.552 -0.5081  1.5770  0.4333
   37DOPE  H17Y 4769   4.373   2.543  14.586  0.2250  0.0166 -0.4645
   37DOPE  C318 4770   4.468   2.351  14.614  0.0708 -0.4970  0.0734
   37DOPE  H18X 4771   4.485   2.366  14.722 -0.3596  1.0757 -0.0595
   37DOPE  H18Y 4772   4.369   2.302  14.604 -1.5043  2.1092  1.7540
   37DOPE  H18Z 4773   4.542   2.282  14.568 -0.4434 -0.2225 -1.2013
   38DOPE     N 4774   5.811   5.595  11.804 -0.3539 -0.0866 -0.2176
   38DOPE   HN1 4775   5.781   5.502  11.768 -0.5356 -0.6032  1.2099
   38DOPE   HN2 4776   5.897   5.619  11.752  0.0700 -0.0586  0.4844
   38DOPE   HN3 4777   5.835   5.582  11.904 -0.0472  2.1896  0.0642
   38DOPE   C12 4778   5.708   5.700  11.770 -0.5396  0.3459 -0.0028
   38DOPE  H12A 4779   5.606   5.657  11.774 -0.1774 -0.4136  1.7495
   38DOPE  H12B 4780   5.723   5.717  11.661  1.1667 -0.6384  0.0510
   38DOPE   C11 4781   5.718   5.823  11.859  0.4033  0.5009  0.1899
   38DOPE  H11A 4782   5.714   5.796  11.967 -0.5244  2.7181  0.7702
   38DOPE  H11B 4783   5.633   5.893  11.844  0.6101  0.9014  0.8333
   38DOPE     P 4784   5.863   6.021  11.930  0.4090 -0.2461 -0.2891
   38DOPE   O13 4785   5.758   6.122  11.914 -0.0338  0.1107 -0.1440
   38DOPE   O14 4786   5.998   6.065  11.905 -0.3563 -0.5220  0.0634
   38DOPE   O11 4787   5.853   5.969  12.074 -0.5047 -0.1149 -0.3574
   38DOPE   O12 4788   5.844   5.888  11.841 -0.0451 -0.0539 -0.1070
   38DOPE    C1 4789   5.966   5.923  12.138  0.0180 -0.4665 -0.1472
   38DOPE    HA 4790   6.042   6.001  12.159  0.9261 -1.2914 -0.2958
   38DOPE    HB 4791   6.018   5.848  12.074 -1.8999 -1.6637 -0.3929
   38DOPE    C2 4792   5.927   5.860  12.279  0.1311  0.4732  0.9470
   38DOPE    HS 4793   5.843   5.791  12.257 -1.5461  3.0346 -1.2122
   38DOPE   O21 4794   5.885   5.974  12.359  0.1236  0.7693  0.0051
   38DOPE   C21 4795   5.775   5.956  12.428  0.4142  0.5919  0.0511
   38DOPE   O22 4796   5.697   5.861  12.419  0.2083  0.0071  0.2947
   38DOPE   C22 4797   5.742   6.083  12.498  0.6714  0.4428  0.3151
   38DOPE   H2R 4798   5.631   6.081  12.504  0.7237  1.2053  2.9134
   38DOPE   H2S 4799   5.775   6.167  12.435 -1.3450  1.1568  0.1329
   38DOPE    C3 4800   6.039   5.779  12.343 -0.1826 -0.5343 -0.4280
   38DOPE    HX 4801   6.114   5.856  12.370 -0.5064 -0.6308  0.7996
   38DOPE    HY 4802   6.091   5.710  12.273 -0.0439  0.2360 -1.0893
   38DOPE   O31 4803   5.997   5.706  12.462  0.0858 -0.4333 -0.0392
   38DOPE   C31 4804   5.946   5.585  12.437 -0.5052  0.3241 -0.2967
   38DOPE   O32 4805   5.934   5.539  12.326  0.0764 -0.2811  0.7876
   38DOPE   C32 4806   5.906   5.512  12.569  0.2055  0.7409  0.1457
   38DOPE   H2X 4807   5.805   5.546  12.601  1.0376  2.6429  0.9005
   38DOPE   H2Y 4808   5.910   5.406  12.537  0.5595  0.6459  0.4991
   38DOPE   C23 4809   5.803   6.081  12.637 -0.4867  0.3913  0.3552
   38DOPE   H3R 4810   5.825   6.186  12.668  1.8707  0.3007 -0.8097
   38DOPE   H3S 4811   5.902   6.031  12.638 -1.0471 -0.7496  0.0428
   38DOPE   C24 4812   5.719   6.011  12.748 -0.5475 -0.6275  0.4786
   38DOPE   H4R 4813   5.715   5.904  12.720 -0.9389 -0.2980 -0.8078
   38DOPE   H4S 4814   5.623   6.067  12.760  0.3305  1.4986 -1.6419
   38DOPE   C25 4815   5.800   6.008  12.876  0.0518 -0.2465 -0.3348
   38DOPE   H5R 4816   5.797   6.108  12.923 -0.8058  0.5631 -1.9982
   38DOPE   H5S 4817   5.906   5.985  12.856  0.5912  0.9414  1.0350
   38DOPE   C26 4818   5.746   5.901  12.970  0.0126  0.4068 -0.2559
   38DOPE   H6R 4819   5.769   5.812  12.907 -0.6732  0.9356 -1.2853
   38DOPE   H6S 4820   5.635   5.895  12.969  0.0604 -2.3442  1.0983
   38DOPE   C27 4821   5.805   5.901  13.106 -0.7499 -0.4874 -0.2379
   38DOPE   H7R 4822   5.916   5.896  13.098 -0.5881 -0.1096  1.4419
   38DOPE   H7S 4823   5.771   5.804  13.150 -0.2140 -0.3577  0.4792
   38DOPE   C28 4824   5.765   6.028  13.186 -0.1931  0.1320  0.2876
   38DOPE   H8R 4825   5.836   6.105  13.149 -1.0387  0.8749  0.1616
   38DOPE   H8S 4826   5.776   6.021  13.296 -0.4380  0.9837  0.3733
   38DOPE   C29 4827   5.631   6.083  13.154  0.0733  0.0291 -0.9233
   38DOPE   H9R 4828   5.614   6.124  13.054 -0.8381 -0.0098 -0.7902
   38DOPE  C210 4829   5.524   6.073  13.236 -0.6253  0.1195 -0.0975
   38DOPE  H10R 4830   5.424   6.111  13.210 -0.6778  1.8253  2.2087
   38DOPE  C211 4831   5.530   6.021  13.376  0.1595  0.1844 -1.2472
   38DOPE  H11R 4832   5.585   5.925  13.364  1.6839  0.8630 -0.0218
   38DOPE  H11S 4833   5.433   5.984  13.415  1.5601 -2.1392  0.2675
   38DOPE  C212 4834   5.604   6.107  13.480  0.9650  0.6529 -0.3174
   38DOPE  H12R 4835   5.713   6.085  13.481  1.0054  0.8350 -0.7584
   38DOPE  H12S 4836   5.553   6.084  13.576  0.6827 -0.2828 -0.6737
   38DOPE  C213 4837   5.591   6.261  13.469 -0.4234  0.3070  0.3860
   38DOPE  H13R 4838   5.494   6.280  13.519 -1.0538 -0.4181 -0.5478
   38DOPE  H13S 4839   5.590   6.302  13.366  2.4638 -0.3653 -0.0018
   38DOPE  C214 4840   5.688   6.353  13.553 -0.2283  0.3370 -0.4982
   38DOPE  H14R 4841   5.679   6.460  13.526  0.4042  0.5726  0.1946
   38DOPE  H14S 4842   5.788   6.309  13.530  0.5082  0.6883  1.8074
   38DOPE  C215 4843   5.676   6.346  13.709  0.1630 -0.5656 -0.0883
   38DOPE  H15R 4844   5.659   6.238  13.730  0.9995 -0.6358  0.2515
   38DOPE  H15S 4845   5.586   6.406  13.735  1.2940  1.1996 -0.1630
   38DOPE  C216 4846   5.791   6.400  13.794  0.3198  0.5875  0.0190
   38DOPE  H16R 4847   5.851   6.473  13.735 -0.2121  0.2643 -0.9443
   38DOPE  H16S 4848   5.858   6.313  13.814 -1.6259 -0.7634  1.0232
   38DOPE  C217 4849   5.758   6.462  13.929  0.2531 -0.0105 -0.6742
   38DOPE  H17R 4850   5.710   6.562  13.920  1.1302  0.3405 -1.6575
   38DOPE  H17S 4851   5.859   6.488  13.967  1.3788  1.2700 -4.1270
   38DOPE  C218 4852   5.677   6.368  14.019 -0.7647 -0.2051  0.4975
   38DOPE  H18R 4853   5.677   6.412  14.121 -0.2472 -0.8543  0.7791
   38DOPE  H18S 4854   5.731   6.273  14.035  2.1667  1.7103  3.0699
   38DOPE  H18T 4855   5.573   6.359  13.981 -0.4234  1.8098 -1.0794
   38DOPE   C33 4856   6.010   5.541  12.682 -0.0622 -0.3092 -0.0404
   38DOPE   H3X 4857   6.031   5.650  12.684 -1.7894  0.0620 -0.5562
   38DOPE   H3Y 4858   6.103   5.488  12.652 -0.2120 -0.9983  0.6746
   38DOPE   C34 4859   5.955   5.509  12.821  0.1872  0.3000  1.0581
   38DOPE   H4X 4860   5.863   5.566  12.847  0.4898  1.0444  0.5143
   38DOPE   H4Y 4861   5.929   5.401  12.818  0.6240  0.2006  0.8417
   38DOPE   C35 4862   6.059   5.529  12.927  0.3523 -0.3850 -0.1539
   38DOPE   H5X 4863   6.104   5.630  12.944  1.8778 -1.3933  2.4169
   38DOPE   H5Y 4864   6.139   5.455  12.909  2.1538  0.8466  2.1579
   38DOPE   C36 4865   6.005   5.508  13.072 -0.0064 -0.3166  0.0248
   38DOPE   H6X 4866   5.955   5.409  13.065  0.0332 -0.4090  0.9115
   38DOPE   H6Y 4867   5.932   5.588  13.100  1.2078  0.8068  0.0886
   38DOPE   C37 4868   6.118   5.487  13.167 -0.1949 -1.0329  0.3660
   38DOPE   H7X 4869   6.183   5.409  13.123  2.6013  1.5893 -0.4431
   38DOPE   H7Y 4870   6.179   5.579  13.168 -0.9178 -0.5425  1.0427
   38DOPE   C38 4871   6.064   5.454  13.306 -0.5667  0.0525  0.5023
   38DOPE   H8X 4872   6.026   5.350  13.299  1.7013 -0.8059  0.1699
   38DOPE   H8Y 4873   5.980   5.523  13.329  0.4479  1.5473 -0.1335
   38DOPE   C39 4874   6.172   5.462  13.414  0.4271  0.0129  0.4328
   38DOPE   H9X 4875   6.275   5.469  13.376  0.2525 -1.7582 -0.4821
   38DOPE  C310 4876   6.139   5.453  13.547  0.7974  0.2166 -0.5311
   38DOPE  H10X 4877   6.224   5.440  13.616  0.4562 -0.3544 -0.2041
   38DOPE  C311 4878   6.004   5.433  13.609 -0.7223  0.1730  0.2583
   38DOPE  H11X 4879   5.930   5.515  13.600 -0.9841 -0.0107  0.6831
   38DOPE  H11Y 4880   5.957   5.343  13.564  2.1282 -0.8906 -0.8593
   38DOPE  C312 4881   6.022   5.403  13.759  0.5061  0.1782 -0.5797
   38DOPE  H12X 4882   6.084   5.480  13.810 -2.0188  0.9810  1.5085
   38DOPE  H12Y 4883   6.073   5.306  13.776  0.8070  0.5878  0.9616
   38DOPE  C313 4884   5.885   5.405  13.831 -0.7072  0.5829  0.0540
   38DOPE  H13X 4885   5.852   5.508  13.803 -0.3246  1.0753  1.3194
   38DOPE  H13Y 4886   5.810   5.338  13.786 -0.3560 -0.3544  0.8301
   38DOPE  C314 4887   5.893   5.380  13.987  0.1692 -0.5891  0.4825
   38DOPE  H14X 4888   5.988   5.429  14.016  0.0054 -0.6518  1.1392
   38DOPE  H14Y 4889   5.906   5.272  14.010  3.6272 -0.2781  0.4956
   38DOPE  C315 4890   5.778   5.445  14.062 -0.2201 -0.1788 -0.2666
   38DOPE  H15X 4891   5.685   5.408  14.012 -1.3263  0.2123  1.4187
   38DOPE  H15Y 4892   5.782   5.555  14.049 -0.4146 -0.0998  0.3117
   38DOPE  C316 4893   5.788   5.410  14.208  0.0784  0.3341 -0.0911
   38DOPE  H16X 4894   5.878   5.442  14.263  0.6052 -0.4554 -0.4839
   38DOPE  H16Y 4895   5.784   5.300  14.220 -1.0596  0.3212 -0.4242
   38DOPE  C317 4896   5.673   5.471  14.295 -0.5742  0.2119  0.9917
   38DOPE  H17X 4897   5.575   5.441  14.252 -0.1703 -3.2971  2.2533
   38DOPE  H17Y 4898   5.670   5.443  14.402 -0.2355  0.8703  1.1827
   38DOPE  C318 4899   5.687   5.624  14.290 -0.2069  0.3333 -0.8959
   38DOPE  H18X 4900   5.632   5.665  14.377  0.1315  2.6743 -1.7266
   38DOPE  H18Y 4901   5.794   5.649  14.301  0.6159 -0.3749 -5.2714
   38DOPE  H18Z 4902   5.657   5.663  14.191 -2.2367  0.5497 -0.2439
   39DOPE     N 4903   3.744   3.995  12.947 -0.5876  0.0195  0.2843
   39DOPE   HN1 4904   3.761   3.962  12.850  2.3685 -1.4474  1.1752
   39DOPE   HN2 4905   3.650   4.039  12.949  0.6777  2.9636 -0.1622
   39DOPE   HN3 4906   3.811   4.071  12.972  0.4839 -0.6734 -0.3677
   39DOPE   C12 4907   3.761   3.878  13.037 -0.1844  0.3710  0.0715
   39DOPE  H12A 4908   3.777   3.923  13.138 -1.1924 -0.6725  0.7287
   39DOPE  H12B 4909   3.860   3.837  13.007  1.2172  1.5723  2.6715
   39DOPE   C11 4910   3.643   3.777  13.038  0.5333 -0.0341 -0.5340
   39DOPE  H11A 4911   3.653   3.698  13.116 -1.0753  1.0312  0.8155
   39DOPE  H11B 4912   3.657   3.722  12.942  1.0177 -1.5565  0.3802
   39DOPE     P 4913   3.450   3.883  13.183 -0.0202  0.0704 -0.0857
   39DOPE   O13 4914   3.307   3.892  13.171 -0.6826 -0.1213  0.1687
   39DOPE   O14 4915   3.521   4.002  13.240 -0.0420  1.1848 -0.0982
   39DOPE   O11 4916   3.484   3.766  13.288  0.2109 -0.2761  0.4343
   39DOPE   O12 4917   3.514   3.839  13.047  0.1529 -0.4516  0.1335
   39DOPE    C1 4918   3.399   3.656  13.311  0.4917  0.4138  0.3274
   39DOPE    HA 4919   3.386   3.596  13.218 -0.9274  0.3556  0.5386
   39DOPE    HB 4920   3.295   3.692  13.327  0.0811 -1.4584  2.4079
   39DOPE    C2 4921   3.435   3.573  13.438  0.8940 -0.2452 -0.3448
   39DOPE    HS 4922   3.365   3.490  13.459  1.8114 -0.6569  1.2667
   39DOPE   O21 4923   3.445   3.667  13.540  0.2362  0.4781 -0.6578
   39DOPE   C21 4924   3.336   3.725  13.593  0.2184 -0.6843  0.3547
   39DOPE   O22 4925   3.222   3.690  13.575  0.3391 -0.9723 -0.0904
   39DOPE   C22 4926   3.381   3.841  13.685 -0.3160 -0.4259 -0.0503
   39DOPE   H2R 4927   3.285   3.876  13.729 -1.2263 -1.1423 -1.4101
   39DOPE   H2S 4928   3.419   3.917  13.614 -0.9086 -0.3849 -0.3347
   39DOPE    C3 4929   3.566   3.492  13.419  0.6387  0.3959 -0.3020
   39DOPE    HX 4930   3.629   3.561  13.359 -1.4462  2.6550 -0.0255
   39DOPE    HY 4931   3.548   3.410  13.346  0.6639  1.2589 -1.3005
   39DOPE   O31 4932   3.628   3.455  13.540 -0.0280  0.6533  0.1179
   39DOPE   C31 4933   3.711   3.536  13.595  0.1198 -0.5132  0.2807
   39DOPE   O32 4934   3.767   3.632  13.540  0.3359 -0.5561 -0.3438
   39DOPE   C32 4935   3.731   3.505  13.738 -0.5583  0.6646  0.1931
   39DOPE   H2X 4936   3.633   3.486  13.785 -0.2280 -0.7421  0.3579
   39DOPE   H2Y 4937   3.794   3.413  13.738 -1.4684  0.0234  0.7190
   39DOPE   C23 4938   3.487   3.790  13.786  0.0172  0.2241  0.3642
   39DOPE   H3R 4939   3.576   3.752  13.731 -0.6435 -1.5916  0.5189
   39DOPE   H3S 4940   3.449   3.693  13.823  2.8901 -0.3715  2.1126
   39DOPE   C24 4941   3.523   3.869  13.914  0.7741  0.2398 -0.9802
   39DOPE   H4R 4942   3.542   3.973  13.878  0.2468  0.9580  0.6742
   39DOPE   H4S 4943   3.619   3.831  13.957  2.2069  0.4489 -3.7760
   39DOPE   C25 4944   3.417   3.878  14.025  0.0873  0.3843  0.2427
   39DOPE   H5R 4945   3.339   3.947  13.985 -2.0422 -0.6387  2.3299
   39DOPE   H5S 4946   3.460   3.921  14.119 -0.8451 -0.0338  0.8791
   39DOPE   C26 4947   3.351   3.741  14.063  0.5149 -0.3937  0.1721
   39DOPE   H6R 4948   3.421   3.657  14.082  1.1678 -0.3895 -1.9828
   39DOPE   H6S 4949   3.290   3.711  13.976  1.1519 -1.2665  0.0124
   39DOPE   C27 4950   3.262   3.749  14.187 -1.0258 -0.8473  0.4356
   39DOPE   H7R 4951   3.185   3.829  14.179 -0.8522 -0.7163  0.0319
   39DOPE   H7S 4952   3.335   3.774  14.267  1.1167 -0.0862 -1.6270
   39DOPE   C28 4953   3.195   3.610  14.211  0.4962 -0.4864  0.2399
   39DOPE   H8R 4954   3.280   3.539  14.212  0.9158 -0.0063  2.2827
   39DOPE   H8S 4955   3.141   3.590  14.116  0.4037  0.5797  0.0489
   39DOPE   C29 4956   3.105   3.608  14.333  0.0578  0.7018 -0.0424
   39DOPE   H9R 4957   3.015   3.672  14.327 -0.8808 -0.6496 -1.2065
   39DOPE  C210 4958   3.111   3.521  14.441 -0.0078 -0.4159 -0.1731
   39DOPE  H10R 4959   3.026   3.523  14.511 -0.1793  1.4888 -0.3804
   39DOPE  C211 4960   3.214   3.412  14.460 -0.6030  1.0611  0.6446
   39DOPE  H11R 4961   3.299   3.433  14.528 -0.2940 -1.2783  1.0965
   39DOPE  H11S 4962   3.254   3.396  14.357 -0.8487  2.7001  0.2776
   39DOPE  C212 4963   3.154   3.267  14.480  0.8372  0.0393  0.7263
   39DOPE  H12R 4964   3.223   3.184  14.457 -0.4273 -1.2414  1.3684
   39DOPE  H12S 4965   3.068   3.247  14.412  0.1596 -0.7784  1.7961
   39DOPE  C213 4966   3.101   3.254  14.621  0.4362  0.0943 -0.4376
   39DOPE  H13R 4967   3.032   3.339  14.642  2.2750  1.0597  2.2720
   39DOPE  H13S 4968   3.184   3.282  14.690 -0.9019 -0.9331  1.6910
   39DOPE  C214 4969   3.031   3.117  14.643  0.7829  0.2170 -0.1848
   39DOPE  H14R 4970   3.035   3.093  14.751 -1.6221 -3.0685 -0.6788
   39DOPE  H14S 4971   3.097   3.044  14.591  0.6224  1.0456 -1.6304
   39DOPE  C215 4972   2.890   3.106  14.587 -0.5164  0.7198  0.2388
   39DOPE  H15R 4973   2.893   3.122  14.477  1.8448 -0.0019  0.1458
   39DOPE  H15S 4974   2.816   3.180  14.625 -3.0948 -1.6496  0.0916
   39DOPE  C216 4975   2.829   2.967  14.609  0.1102  0.1241  0.4854
   39DOPE  H16R 4976   2.804   2.946  14.716 -1.0822  0.5655  0.3130
   39DOPE  H16S 4977   2.894   2.886  14.571  1.1237  1.8101 -1.5558
   39DOPE  C217 4978   2.696   2.958  14.532  0.8220 -0.2204 -0.2955
   39DOPE  H17R 4979   2.702   3.030  14.447  3.5187  0.9528  0.7688
   39DOPE  H17S 4980   2.608   2.994  14.590  0.9863  0.3082 -0.3653
   39DOPE  C218 4981   2.664   2.822  14.474  0.6529 -0.8850 -0.3978
   39DOPE  H18R 4982   2.735   2.789  14.396 -0.1302 -0.9165 -1.1090
   39DOPE  H18S 4983   2.573   2.833  14.411  0.0525 -0.1538  0.5702
   39DOPE  H18T 4984   2.639   2.741  14.546 -1.2107 -1.1873 -1.3222
   39DOPE   C33 4985   3.818   3.604  13.822 -0.4133 -0.0046  0.0151
   39DOPE   H3X 4986   3.793   3.711  13.806 -0.9273 -0.1186  0.0389
   39DOPE   H3Y 4987   3.926   3.590  13.798 -0.2691  0.0677  0.6041
   39DOPE   C34 4988   3.801   3.586  13.967 -0.3300 -0.2137  0.1506
   39DOPE   H4X 4989   3.691   3.582  13.979 -0.5888  0.9132 -1.4304
   39DOPE   H4Y 4990   3.841   3.486  13.996 -0.9070 -0.4756  0.0495
   39DOPE   C35 4991   3.878   3.693  14.052 -0.3223 -0.0628 -0.0982
   39DOPE   H5X 4992   3.832   3.793  14.034 -1.6346 -0.5939  0.1960
   39DOPE   H5Y 4993   3.988   3.691  14.032 -0.2694 -0.8121  0.2345
   39DOPE   C36 4994   3.863   3.667  14.205 -1.0154 -0.2957 -0.3110
   39DOPE   H6X 4995   3.908   3.758  14.248 -0.1154 -0.4574 -0.8897
   39DOPE   H6Y 4996   3.922   3.580  14.240  2.1881  1.8299 -0.0305
   39DOPE   C37 4997   3.718   3.662  14.251 -0.5196 -0.0973 -0.1865
   39DOPE   H7X 4998   3.663   3.748  14.207 -0.1439  0.7831  1.0228
   39DOPE   H7Y 4999   3.680   3.562  14.222 -4.0027  0.3885  2.0260
   39DOPE   C38 5000   3.712   3.675  14.402 -0.0097 -0.2320 -0.0702
   39DOPE   H8X 5001   3.753   3.761  14.458  0.3706 -0.0673 -0.5986
   39DOPE   H8Y 5002   3.779   3.590  14.428  0.0602 -0.5149 -1.1279
   39DOPE   C39 5003   3.571   3.645  14.441 -0.3608  0.1451 -0.0138
   39DOPE   H9X 5004   3.548   3.543  14.409  3.4480 -1.0365  0.5371
   39DOPE  C310 5005   3.482   3.712  14.519 -0.5260  0.4573  0.1676
   39DOPE  H10X 5006   3.392   3.667  14.563  0.8812 -0.1114  2.6599
   39DOPE  C311 5007   3.497   3.858  14.551 -0.0540 -0.2153 -1.0537
   39DOPE  H11X 5008   3.456   3.886  14.650  2.9530 -0.1815  0.2926
   39DOPE  H11Y 5009   3.605   3.883  14.558 -0.2843  0.3461  1.0084
   39DOPE  C312 5010   3.437   3.948  14.439 -0.1403 -0.5401 -0.0320
   39DOPE  H12X 5011   3.465   3.905  14.341  0.0673 -2.6982  0.9262
   39DOPE  H12Y 5012   3.481   4.049  14.455 -1.8172  0.2709 -0.2172
   39DOPE  C313 5013   3.289   3.978  14.454  0.5942  0.2564  0.0097
   39DOPE  H13X 5014   3.232   3.883  14.444  0.3122  0.3246  0.8176
   39DOPE  H13Y 5015   3.275   4.022  14.555  1.3941  0.3034  0.1065
   39DOPE  C314 5016   3.241   4.085  14.355 -0.8705 -0.4034  0.1691
   39DOPE  H14X 5017   3.130   4.090  14.352 -0.9399 -1.4417  0.5498
   39DOPE  H14Y 5018   3.262   4.044  14.254 -0.0461 -2.0900  0.9879
   39DOPE  C315 5019   3.291   4.229  14.380  0.2662  0.0883  0.1387
   39DOPE  H15X 5020   3.247   4.304  14.311 -0.0158 -0.9180 -0.8016
   39DOPE  H15Y 5021   3.401   4.234  14.369  0.1196  3.1822 -0.9634
   39DOPE  C316 5022   3.248   4.294  14.521 -0.1126 -0.1552  0.3789
   39DOPE  H16X 5023   3.292   4.394  14.538 -1.3135  0.5071 -0.2546
   39DOPE  H16Y 5024   3.279   4.225  14.603  1.4386  0.1222  0.0436
   39DOPE  C317 5025   3.100   4.325  14.532  0.2819  0.3785 -0.0435
   39DOPE  H17X 5026   3.077   4.404  14.457 -1.9957 -0.1147  0.0671
   39DOPE  H17Y 5027   3.035   4.240  14.504 -0.1567  0.6747  0.0600
   39DOPE  C318 5028   3.074   4.371  14.676  0.5680  0.4918  0.1801
   39DOPE  H18X 5029   3.033   4.283  14.729 -0.6238  0.8643 -0.0749
   39DOPE  H18Y 5030   3.161   4.409  14.733  0.8709 -1.0296  0.7662
   39DOPE  H18Z 5031   2.984   4.437  14.678  0.3390  0.1750  0.3478
   40DOPE     N 5032   3.669   5.669  12.354  0.0593 -0.2384  0.4090
   40DOPE   HN1 5033   3.578   5.647  12.398  0.0873  0.6905  0.9480
   40DOPE   HN2 5034   3.740   5.612  12.404  1.5666 -1.1290 -2.5290
   40DOPE   HN3 5035   3.688   5.770  12.368 -2.9868  0.5682 -0.7084
   40DOPE   C12 5036   3.668   5.639  12.210 -0.0196 -0.5204  0.0872
   40DOPE  H12A 5037   3.705   5.733  12.163  0.2321 -0.3470  0.6209
   40DOPE  H12B 5038   3.560   5.622  12.192 -0.0948 -0.4441  0.4725
   40DOPE   C11 5039   3.741   5.505  12.188  0.1622  0.1828  0.2327
   40DOPE  H11A 5040   3.852   5.514  12.198 -0.0191  0.1561  3.0467
   40DOPE  H11B 5041   3.703   5.462  12.093 -2.1320  1.5405  0.4571
   40DOPE     P 5042   3.782   5.283  12.321  0.1496 -0.3934 -0.0782
   40DOPE   O13 5043   3.834   5.210  12.205  0.6170  0.6971 -0.0812
   40DOPE   O14 5044   3.705   5.208  12.425 -0.4861 -0.0469 -0.3962
   40DOPE   O11 5045   3.903   5.351  12.395 -0.1807 -0.4192 -0.4000
   40DOPE   O12 5046   3.701   5.403  12.282 -0.0585 -0.5937  0.1179
   40DOPE    C1 5047   3.891   5.371  12.536  0.0044  1.3896  0.0871
   40DOPE    HA 5048   3.871   5.274  12.587 -0.4080  1.6179  0.3721
   40DOPE    HB 5049   3.793   5.418  12.561 -0.4475 -0.4035  1.8847
   40DOPE    C2 5050   3.989   5.464  12.605  0.5386 -0.7117 -0.2571
   40DOPE    HS 5051   3.985   5.563  12.557 -0.2433 -0.0853  1.0444
   40DOPE   O21 5052   4.118   5.402  12.599  0.3115 -0.5637 -0.2576
   40DOPE   C21 5053   4.224   5.478  12.602 -0.8566 -0.6309 -0.0349
   40DOPE   O22 5054   4.235   5.599  12.578 -0.4090  0.5277 -0.1962
   40DOPE   C22 5055   4.337   5.387  12.646 -0.2638 -0.5411 -0.6562
   40DOPE   H2R 5056   4.404   5.372  12.558 -1.5483  0.5189 -1.8619
   40DOPE   H2S 5057   4.303   5.285  12.677  0.2223 -0.9878 -1.5488
   40DOPE    C3 5058   3.948   5.501  12.751  0.7816  0.0819  0.4626
   40DOPE    HX 5059   3.865   5.575  12.751 -0.9067 -1.7022 -0.1899
   40DOPE    HY 5060   4.029   5.562  12.796  0.7559  0.3324  0.1715
   40DOPE   O31 5061   3.921   5.379  12.829 -0.0181 -0.0903 -0.3280
   40DOPE   C31 5062   3.982   5.375  12.949  0.2823  0.2783  0.2780
   40DOPE   O32 5063   4.050   5.463  12.994 -0.7794 -0.3817 -0.0605
   40DOPE   C32 5064   3.952   5.249  13.028  0.6742  0.8519  0.1170
   40DOPE   H2X 5065   3.844   5.253  13.052 -0.3603  2.0207 -3.9085
   40DOPE   H2Y 5066   3.984   5.160  12.970 -0.5387 -0.7036  1.7297
   40DOPE   C23 5067   4.422   5.447  12.760  0.6299 -0.3704 -0.2723
   40DOPE   H3R 5068   4.465   5.546  12.737  0.1839  0.1029  0.8624
   40DOPE   H3S 5069   4.506   5.376  12.773  0.0693 -1.0104 -0.0169
   40DOPE   C24 5070   4.354   5.440  12.897 -0.1531 -0.4611  0.2861
   40DOPE   H4R 5071   4.291   5.349  12.908 -0.0254 -0.4275  1.3800
   40DOPE   H4S 5072   4.300   5.535  12.915 -0.4262 -0.4705 -0.4523
   40DOPE   C25 5073   4.457   5.435  13.011 -0.0314  0.2609  0.5191
   40DOPE   H5R 5074   4.507   5.534  13.010 -0.4610  0.4816  0.5993
   40DOPE   H5S 5075   4.534   5.357  12.991  0.0398  0.7271 -1.1290
   40DOPE   C26 5076   4.400   5.439  13.156  0.6837 -0.0213 -0.3755
   40DOPE   H6R 5077   4.336   5.348  13.167  1.1172 -0.4141 -1.0024
   40DOPE   H6S 5078   4.339   5.531  13.167  2.9441  1.3937  1.1610
   40DOPE   C27 5079   4.509   5.449  13.269  0.1216  0.1585 -0.4529
   40DOPE   H7R 5080   4.570   5.539  13.248 -0.2424  0.7678  0.9751
   40DOPE   H7S 5081   4.578   5.365  13.247 -0.4141 -0.2294 -0.6901
   40DOPE   C28 5082   4.464   5.425  13.416  0.2108 -0.2097 -0.1837
   40DOPE   H8R 5083   4.445   5.316  13.432 -0.9949  0.3604  3.2254
   40DOPE   H8S 5084   4.369   5.482  13.423  0.4605  0.3513 -1.1944
   40DOPE   C29 5085   4.568   5.478  13.515 -0.0253  0.1690 -0.0796
   40DOPE   H9R 5086   4.635   5.559  13.484  0.8376 -0.7618 -0.7001
   40DOPE  C210 5087   4.589   5.432  13.638  0.1931 -0.1364 -0.1492
   40DOPE  H10R 5088   4.665   5.479  13.702 -0.5347  1.8338 -0.6722
   40DOPE  C211 5089   4.521   5.306  13.685  0.3657  0.4563 -0.3714
   40DOPE  H11R 5090   4.598   5.227  13.696  0.6221  0.8419  0.8350
   40DOPE  H11S 5091   4.449   5.266  13.611 -0.2723 -0.7899  0.8718
   40DOPE  C212 5092   4.457   5.326  13.822  0.0229 -0.0191 -0.6437
   40DOPE  H12R 5093   4.409   5.231  13.853  2.0145 -0.9658 -0.2583
   40DOPE  H12S 5094   4.377   5.401  13.838  0.7016  0.1175  3.0893
   40DOPE  C213 5095   4.548   5.372  13.946  0.2040  0.6860  0.4630
   40DOPE  H13R 5096   4.483   5.374  14.035 -0.0543 -0.3013  0.3137
   40DOPE  H13S 5097   4.601   5.466  13.922  1.7527 -0.3658 -0.4742
   40DOPE  C214 5098   4.659   5.269  13.979  0.0031 -0.2759  0.2646
   40DOPE  H14R 5099   4.742   5.270  13.905  0.8525  1.8630  1.1838
   40DOPE  H14S 5100   4.616   5.167  13.966  0.3254 -0.1850 -1.7734
   40DOPE  C215 5101   4.722   5.283  14.114  0.3706 -0.8553 -0.0256
   40DOPE  H15R 5102   4.807   5.216  14.140 -0.1369 -1.2081  0.7611
   40DOPE  H15S 5103   4.645   5.262  14.192 -0.6171 -1.1928 -1.0670
   40DOPE  C216 5104   4.775   5.430  14.127 -0.7319  1.2885 -0.5123
   40DOPE  H16R 5105   4.699   5.511  14.128 -0.1279  1.8665  0.1480
   40DOPE  H16S 5106   4.849   5.442  14.045  4.4082 -3.4010  2.7040
   40DOPE  C217 5107   4.857   5.445  14.260 -0.6885 -0.0903 -0.1686
   40DOPE  H17R 5108   4.939   5.370  14.264 -1.4337 -1.0588 -1.8707
   40DOPE  H17S 5109   4.786   5.421  14.343 -1.8607 -0.2556 -1.1882
   40DOPE  C218 5110   4.913   5.585  14.286 -0.3672  0.5606  0.3062
   40DOPE  H18R 5111   4.835   5.661  14.260 -0.6910 -0.0656 -0.5956
   40DOPE  H18S 5112   4.999   5.607  14.219  0.9011  0.7530  1.9515
   40DOPE  H18T 5113   4.930   5.611  14.393 -0.6172  1.3733  0.1601
   40DOPE   C33 5114   4.042   5.232  13.150  0.3577 -0.0118 -0.3307
   40DOPE   H3X 5115   4.144   5.247  13.110  0.4548  1.6878  0.4540
   40DOPE   H3Y 5116   4.033   5.128  13.189  1.2547  0.0710  0.1186
   40DOPE   C34 5117   4.004   5.321  13.267  0.5013  0.1087  0.1220
   40DOPE   H4X 5118   3.987   5.421  13.221 -0.1889 -0.9209 -1.9747
   40DOPE   H4Y 5119   3.905   5.280  13.297 -0.1792  1.6196  0.0219
   40DOPE   C35 5120   4.100   5.318  13.383 -0.2385 -0.1393 -0.9174
   40DOPE   H5X 5121   4.165   5.406  13.368 -0.8258  0.2941 -0.9531
   40DOPE   H5Y 5122   4.162   5.226  13.390  0.5625  0.2548 -2.3747
   40DOPE   C36 5123   4.030   5.333  13.524  0.0943  0.0721 -0.0551
   40DOPE   H6X 5124   3.944   5.264  13.536 -0.3586  1.0519  3.2278
   40DOPE   H6Y 5125   3.998   5.436  13.548  0.3307 -0.3190  2.1223
   40DOPE   C37 5126   4.120   5.300  13.647 -0.2950 -0.9304 -0.0298
   40DOPE   H7X 5127   4.160   5.199  13.623 -0.0961 -0.5700 -1.3073
   40DOPE   H7Y 5128   4.200   5.377  13.649  0.5586 -1.8045  2.4475
   40DOPE   C38 5129   4.050   5.305  13.788 -0.6090  0.0531  0.6585
   40DOPE   H8X 5130   3.990   5.398  13.796 -1.9981 -0.4800 -2.1793
   40DOPE   H8Y 5131   4.121   5.315  13.873  0.9874  3.8831 -0.9436
   40DOPE   C39 5132   3.946   5.193  13.801 -0.0173 -0.7847  0.0834
   40DOPE   H9X 5133   3.872   5.202  13.721  1.9128  2.0908 -1.5317
   40DOPE  C310 5134   3.933   5.102  13.903  0.2514 -0.5372  0.4530
   40DOPE  H10X 5135   3.855   5.025  13.887 -1.4381  0.9577  1.1596
   40DOPE  C311 5136   4.025   5.096  14.023  0.0671  0.1193 -0.2054
   40DOPE  H11X 5137   4.075   4.997  14.021  1.2305  0.6663 -2.5153
   40DOPE  H11Y 5138   4.102   5.176  14.030 -1.1916  1.2742  1.3885
   40DOPE  C312 5139   3.942   5.116  14.145 -0.4667  0.0161 -0.0896
   40DOPE  H12X 5140   3.849   5.057  14.159 -0.7296  0.3130 -0.5745
   40DOPE  H12Y 5141   3.894   5.215  14.131 -0.0879 -0.2153 -4.1125
   40DOPE  C313 5142   4.035   5.112  14.264 -0.1278  0.3071  0.2656
   40DOPE  H13X 5143   4.072   5.008  14.280 -0.0334  0.2589 -0.2611
   40DOPE  H13Y 5144   4.120   5.181  14.246 -2.7159  3.4425 -0.7995
   40DOPE  C314 5145   3.942   5.154  14.384 -0.4199 -0.4761  0.5366
   40DOPE  H14X 5146   3.855   5.088  14.365  0.6263 -2.5563  2.5583
   40DOPE  H14Y 5147   3.911   5.260  14.374 -1.4660 -0.7829  0.3899
   40DOPE  C315 5148   4.000   5.127  14.521 -1.0756 -0.4039 -0.1250
   40DOPE  H15X 5149   4.108   5.156  14.525 -0.9849 -0.5332 -1.3884
   40DOPE  H15Y 5150   4.007   5.016  14.519 -0.5226 -0.3612 -1.2973
   40DOPE  C316 5151   3.907   5.176  14.633 -0.0025 -0.9411  0.3381
   40DOPE  H16X 5152   3.899   5.096  14.710  0.1054 -1.1311  0.1560
   40DOPE  H16Y 5153   3.810   5.197  14.584  0.3293 -0.0236  0.0696
   40DOPE  C317 5154   3.957   5.314  14.692  0.3209  0.0205 -0.1750
   40DOPE  H17X 5155   4.066   5.320  14.714  0.3517  0.8495 -0.5048
   40DOPE  H17Y 5156   3.937   5.397  14.620  0.0115 -2.1599 -2.7600
   40DOPE  C318 5157   3.897   5.349  14.827  0.6152 -0.6384 -0.1636
   40DOPE  H18X 5158   3.788   5.366  14.828  0.8141  1.0587  2.6212
   40DOPE  H18Y 5159   3.927   5.280  14.909  2.5418  0.6896  0.3224
   40DOPE  H18Z 5160   3.946   5.445  14.855 -1.6938  0.4215  0.4552
   41DOPE     N 5161   1.696   4.370  12.212 -0.6649 -0.0703  0.1889
   41DOPE   HN1 5162   1.761   4.290  12.219  0.5414  0.8587 -0.1195
   41DOPE   HN2 5163   1.638   4.376  12.298 -0.3668  0.9326  0.3383
   41DOPE   HN3 5164   1.622   4.347  12.143 -1.0679 -2.3203  1.2963
   41DOPE   C12 5165   1.760   4.503  12.189 -0.2321  0.1534  0.6369
   41DOPE  H12A 5166   1.676   4.576  12.180 -1.2907 -1.1386 -0.6583
   41DOPE  H12B 5167   1.821   4.498  12.096 -1.1423 -2.8061  0.0777
   41DOPE   C11 5168   1.839   4.543  12.314 -1.0524 -0.2389  0.1842
   41DOPE  H11A 5169   1.882   4.642  12.289  0.1061 -1.0375 -1.0985
   41DOPE  H11B 5170   1.917   4.465  12.331 -2.7587 -1.9145  0.7040
   41DOPE     P 5171   1.778   4.629  12.554  0.4717  0.4215  0.0152
   41DOPE   O13 5172   1.637   4.663  12.596  0.2617  0.6190 -0.1102
   41DOPE   O14 5173   1.880   4.730  12.532  0.5386  0.7130 -0.3775
   41DOPE   O11 5174   1.835   4.521  12.664  0.2721 -0.7391  0.0767
   41DOPE   O12 5175   1.756   4.543  12.425  0.5527  0.3528 -0.3963
   41DOPE    C1 5176   1.980   4.523  12.680  0.3090 -0.8750 -0.1390
   41DOPE    HA 5177   2.035   4.580  12.602  0.2261 -1.4641 -0.6360
   41DOPE    HB 5178   2.017   4.418  12.677  1.9471 -0.3584  0.7959
   41DOPE    C2 5179   2.026   4.563  12.824  0.2376  0.6485 -0.3281
   41DOPE    HS 5180   2.127   4.520  12.843 -0.3632 -0.7004 -0.1255
   41DOPE   O21 5181   1.931   4.526  12.930  0.5226 -0.0917  0.0542
   41DOPE   C21 5182   1.919   4.392  12.967  0.3079 -0.3994  0.7501
   41DOPE   O22 5183   1.990   4.306  12.918  0.0558  0.4665  0.2243
   41DOPE   C22 5184   1.804   4.368  13.063  0.4189  0.1322 -0.2619
   41DOPE   H2R 5185   1.777   4.446  13.137  1.3206 -0.9661  1.2728
   41DOPE   H2S 5186   1.838   4.273  13.109 -1.0107 -0.6818 -0.8534
   41DOPE    C3 5187   2.042   4.719  12.823 -0.1596 -0.1015  0.8506
   41DOPE    HX 5188   1.937   4.754  12.829  0.0145  0.6273 -0.0868
   41DOPE    HY 5189   2.096   4.747  12.730 -0.2405 -3.0529 -0.1648
   41DOPE   O31 5190   2.106   4.764  12.944 -0.0695  0.0286 -0.0540
   41DOPE   C31 5191   2.070   4.885  12.987 -0.6204 -0.2261 -0.2882
   41DOPE   O32 5192   1.991   4.956  12.931 -0.0985  0.4920 -0.4390
   41DOPE   C32 5193   2.153   4.917  13.114 -0.0094 -0.3188  0.2654
   41DOPE   H2X 5194   2.244   4.853  13.109  1.0266  0.8615  2.3948
   41DOPE   H2Y 5195   2.181   5.024  13.105 -0.3030 -0.4046 -2.3629
   41DOPE   C23 5196   1.677   4.355  12.972  0.2054  0.0591 -0.5247
   41DOPE   H3R 5197   1.692   4.271  12.901 -4.2505 -0.4012 -1.2024
   41DOPE   H3S 5198   1.650   4.447  12.916  0.2927 -0.5198 -1.5400
   41DOPE   C24 5199   1.549   4.308  13.044  0.7477  0.1049  0.3401
   41DOPE   H4R 5200   1.484   4.270  12.963  0.3348 -0.3042  0.8523
   41DOPE   H4S 5201   1.504   4.397  13.094 -0.8332 -0.0194 -0.8182
   41DOPE   C25 5202   1.574   4.191  13.138  0.5568 -0.2132 -0.2448
   41DOPE   H5R 5203   1.625   4.232  13.228 -0.1674 -1.1408  0.6094
   41DOPE   H5S 5204   1.633   4.124  13.072 -1.7685 -2.0201 -0.6331
   41DOPE   C26 5205   1.451   4.116  13.201  0.2161 -0.2329  1.2373
   41DOPE   H6R 5206   1.492   4.047  13.279  0.1851 -1.2495  0.3790
   41DOPE   H6S 5207   1.405   4.051  13.123  0.0922  0.2496  0.9071
   41DOPE   C27 5208   1.340   4.204  13.258  0.6309  0.4282  0.2195
   41DOPE   H7R 5209   1.294   4.265  13.178  3.2204  2.0531 -0.1410
   41DOPE   H7S 5210   1.385   4.272  13.333  0.5080 -0.0401  0.7247
   41DOPE   C28 5211   1.221   4.130  13.337  1.3071 -0.7586 -0.1670
   41DOPE   H8R 5212   1.184   4.052  13.267  0.9467 -0.7684  0.0348
   41DOPE   H8S 5213   1.140   4.204  13.348  2.1343 -0.0478  1.6566
   41DOPE   C29 5214   1.282   4.078  13.464 -0.7142  0.0202 -0.0389
   41DOPE   H9R 5215   1.350   3.992  13.466 -0.0242  0.5572  0.1367
   41DOPE  C210 5216   1.266   4.137  13.583 -0.9567 -0.6496  0.5151
   41DOPE  H10R 5217   1.301   4.088  13.675 -1.4160  0.2823  1.2039
   41DOPE  C211 5218   1.173   4.254  13.618 -0.2011 -0.3366 -0.9261
   41DOPE  H11R 5219   1.125   4.292  13.525  0.3669  2.1163 -0.2895
   41DOPE  H11S 5220   1.238   4.330  13.665 -0.0751  0.0138 -1.6475
   41DOPE  C212 5221   1.046   4.205  13.695  0.5746  0.4723  0.3040
   41DOPE  H12R 5222   0.991   4.145  13.620  1.0778 -0.4071  0.6127
   41DOPE  H12S 5223   0.984   4.294  13.718  0.2914  0.5705 -0.7837
   41DOPE  C213 5224   1.076   4.137  13.827  0.6385  0.1326 -0.5114
   41DOPE  H13R 5225   1.166   4.073  13.825 -0.3812 -1.4306  0.6140
   41DOPE  H13S 5226   1.000   4.057  13.838 -2.2712  2.7960  0.2827
   41DOPE  C214 5227   1.063   4.227  13.955  0.7391 -0.2844  0.6812
   41DOPE  H14R 5228   0.953   4.244  13.959  0.5063 -1.5859  0.2161
   41DOPE  H14S 5229   1.119   4.318  13.923 -1.0417  0.5633 -0.1527
   41DOPE  C215 5230   1.120   4.153  14.074  0.2115  0.0357 -0.2326
   41DOPE  H15R 5231   1.227   4.129  14.056 -0.4356 -1.4057 -2.5069
   41DOPE  H15S 5232   1.066   4.057  14.089  0.3391  0.2566  2.0776
   41DOPE  C216 5233   1.100   4.238  14.202  0.5176 -0.3857  0.0071
   41DOPE  H16R 5234   0.999   4.284  14.194  1.2617  1.7126  1.5468
   41DOPE  H16S 5235   1.167   4.327  14.195 -0.7977  0.6090 -0.5227
   41DOPE  C217 5236   1.119   4.158  14.328 -0.2490  0.0696  0.1642
   41DOPE  H17R 5237   1.200   4.206  14.387  1.1251 -0.3163 -1.3319
   41DOPE  H17S 5238   1.151   4.056  14.298 -1.0630  0.4725 -2.2389
   41DOPE  C218 5239   0.995   4.147  14.408 -0.1898 -0.1501  0.0088
   41DOPE  H18R 5240   0.915   4.089  14.357 -2.1300  2.4136 -0.0793
   41DOPE  H18S 5241   0.966   4.254  14.415 -0.3911  0.0575 -2.7863
   41DOPE  H18T 5242   1.033   4.117  14.508  1.0405 -0.3636 -0.5026
   41DOPE   C33 5243   2.082   4.890  13.245  0.8400  0.2527  0.0827
   41DOPE   H3X 5244   2.066   4.781  13.257 -1.2336  0.0557 -3.2934
   41DOPE   H3Y 5245   1.980   4.933  13.236 -0.1760 -2.2853 -1.3009
   41DOPE   C34 5246   2.159   4.941  13.369  0.1911  0.0387  0.0471
   41DOPE   H4X 5247   2.243   4.875  13.400  1.1282  2.0428  2.0876
   41DOPE   H4Y 5248   2.199   5.039  13.334 -0.1518  0.1952  0.0901
   41DOPE   C35 5249   2.079   4.969  13.496  0.2507  0.0155 -0.8032
   41DOPE   H5X 5250   2.056   4.871  13.544 -0.2765  1.5372  2.3406
   41DOPE   H5Y 5251   1.983   5.023  13.478 -0.0870  0.0288  0.8396
   41DOPE   C36 5252   2.166   5.051  13.592 -0.3215 -0.5010 -0.2988
   41DOPE   H6X 5253   2.188   5.150  13.547  0.0654 -0.2384  0.4544
   41DOPE   H6Y 5254   2.262   5.000  13.612 -1.3295 -1.4400  2.6491
   41DOPE   C37 5255   2.100   5.072  13.732 -0.1234  0.1970  0.3758
   41DOPE   H7X 5256   2.010   5.134  13.713  1.5279  2.6081 -0.0098
   41DOPE   H7Y 5257   2.063   4.978  13.778 -0.6631  1.2839  2.2838
   41DOPE   C38 5258   2.185   5.151  13.838  0.7132  0.3923  0.1426
   41DOPE   H8X 5259   2.105   5.201  13.895  1.3327  2.1159 -0.4226
   41DOPE   H8Y 5260   2.235   5.241  13.795  2.0888 -0.1516  0.5398
   41DOPE   C39 5261   2.280   5.068  13.915  0.1082  0.2330 -0.5385
   41DOPE   H9X 5262   2.344   4.992  13.868  1.2663 -0.1724  1.5840
   41DOPE  C310 5263   2.297   5.084  14.052 -0.7028  0.4189 -0.3043
   41DOPE  H10X 5264   2.371   5.019  14.102 -0.2503  0.2592 -1.1520
   41DOPE  C311 5265   2.239   5.190  14.136 -0.0339 -0.0399  0.1018
   41DOPE  H11X 5266   2.128   5.181  14.140  0.0146 -0.3287  2.7648
   41DOPE  H11Y 5267   2.274   5.197  14.241 -0.5833 -2.0644  0.4589
   41DOPE  C312 5268   2.264   5.335  14.084  0.1023 -0.2043 -0.4894
   41DOPE  H12X 5269   2.183   5.362  14.012 -0.1118  1.1242  0.2088
   41DOPE  H12Y 5270   2.369   5.333  14.049 -0.2780 -2.0420 -1.6838
   41DOPE  C313 5271   2.254   5.440  14.196 -0.8120 -0.5082 -0.9038
   41DOPE  H13X 5272   2.154   5.450  14.243 -0.3261  2.0971 -0.2447
   41DOPE  H13Y 5273   2.325   5.409  14.275 -0.3388  0.3506 -0.9788
   41DOPE  C314 5274   2.288   5.587  14.141  0.3878  0.2990  0.0892
   41DOPE  H14X 5275   2.233   5.604  14.046  0.8736 -0.7977 -0.4199
   41DOPE  H14Y 5276   2.396   5.589  14.115  0.8363 -0.2763  1.7803
   41DOPE  C315 5277   2.260   5.695  14.252 -0.4256  0.2295 -0.3153
   41DOPE  H15X 5278   2.320   5.675  14.344  1.0094 -0.9867 -1.4663
   41DOPE  H15Y 5279   2.150   5.688  14.268 -0.4397  1.2118  0.1093
   41DOPE  C316 5280   2.277   5.843  14.201 -0.3966  0.5228  0.6918
   41DOPE  H16X 5281   2.194   5.860  14.130  0.6644  1.1018 -0.4375
   41DOPE  H16Y 5282   2.372   5.852  14.143 -2.1197  0.8448 -2.2543
   41DOPE  C317 5283   2.249   5.954  14.304 -0.5648  0.2180 -0.5765
   41DOPE  H17X 5284   2.317   5.932  14.389 -0.0008 -1.4646 -1.4114
   41DOPE  H17Y 5285   2.280   6.054  14.269 -0.4743  0.8380  1.2044
   41DOPE  C318 5286   2.099   5.953  14.339 -0.0503 -0.7355 -0.6181
   41DOPE  H18X 5287   2.036   5.962  14.247 -0.1152 -1.8905 -0.6967
   41DOPE  H18Y 5288   2.072   5.862  14.395 -0.0982 -0.2119  0.2203
   41DOPE  H18Z 5289   2.063   6.038  14.400 -0.5597 -1.6130  0.3240
   42DOPE     N 5290   2.151   3.134  12.530 -0.5585 -0.3149 -0.3067
   42DOPE   HN1 5291   2.209   3.221  12.527  0.3814 -0.8547  1.2274
   42DOPE   HN2 5292   2.198   3.079  12.604  2.6121 -1.5290 -2.9263
   42DOPE   HN3 5293   2.170   3.088  12.438  4.1981 -1.1026  0.7976
   42DOPE   C12 5294   2.003   3.163  12.558 -0.0720 -0.5876 -0.2915
   42DOPE  H12A 5295   2.004   3.207  12.660  0.8849 -0.5495 -0.3059
   42DOPE  H12B 5296   1.950   3.065  12.559 -0.2385 -0.5019  0.6373
   42DOPE   C11 5297   1.945   3.270  12.465  0.2391  0.2637  0.1311
   42DOPE  H11A 5298   1.852   3.306  12.514 -2.7765 -2.5611 -2.9124
   42DOPE  H11B 5299   1.921   3.228  12.365 -0.4969 -0.2024  0.4875
   42DOPE     P 5300   2.000   3.524  12.407  0.2124 -0.1532  0.0601
   42DOPE   O13 5301   1.976   3.538  12.258  0.0241 -0.5876 -0.0301
   42DOPE   O14 5302   2.104   3.616  12.466  0.2208  0.7532  0.1146
   42DOPE   O11 5303   1.857   3.544  12.472 -0.5133 -0.5771 -0.2705
   42DOPE   O12 5304   2.046   3.373  12.440  0.2667 -0.9016 -0.1686
   42DOPE    C1 5305   1.818   3.683  12.504  0.2557  0.2893  0.1071
   42DOPE    HA 5306   1.711   3.692  12.474 -0.3207 -2.3452  1.0869
   42DOPE    HB 5307   1.876   3.757  12.446  2.3400 -0.2727  1.3896
   42DOPE    C2 5308   1.839   3.708  12.655  0.1199 -0.2859 -0.3641
   42DOPE    HS 5309   1.948   3.704  12.673  0.4939  0.8576 -2.0552
   42DOPE   O21 5310   1.760   3.615  12.727  0.1421 -0.3742  0.4112
   42DOPE   C21 5311   1.812   3.552  12.827  0.0727 -0.4964 -0.2522
   42DOPE   O22 5312   1.922   3.576  12.869 -0.3004  0.6866 -0.6252
   42DOPE   C22 5313   1.735   3.426  12.855 -0.6636 -0.0995 -0.0937
   42DOPE   H2R 5314   1.780   3.345  12.794  0.1496 -0.0321  0.3916
   42DOPE   H2S 5315   1.628   3.448  12.837 -1.1105  0.6967  2.9545
   42DOPE    C3 5316   1.804   3.858  12.699  0.5163 -0.5096 -0.1797
   42DOPE    HX 5317   1.697   3.884  12.679  0.3407 -1.0518  0.0489
   42DOPE    HY 5318   1.867   3.927  12.639 -0.7275 -0.6751 -1.7476
   42DOPE   O31 5319   1.827   3.876  12.842 -0.1286  0.1256 -0.0690
   42DOPE   C31 5320   1.946   3.874  12.882  0.1086  0.2734 -0.6373
   42DOPE   O32 5321   2.046   3.885  12.809  0.0306  0.8835  0.2770
   42DOPE   C32 5322   1.955   3.876  13.035 -0.9437 -0.6999 -1.2474
   42DOPE   H2X 5323   2.029   3.800  13.070  0.3506  0.7821 -0.6848
   42DOPE   H2Y 5324   2.004   3.971  13.062 -1.9254 -0.3216 -0.7502
   42DOPE   C23 5325   1.750   3.390  13.006  0.2146  0.0556 -0.1063
   42DOPE   H3R 5326   1.856   3.403  13.037 -0.4677  0.9117  2.0922
   42DOPE   H3S 5327   1.733   3.281  13.008  2.5078 -0.3508 -0.1404
   42DOPE   C24 5328   1.662   3.468  13.094 -0.1395 -0.7438 -0.2852
   42DOPE   H4R 5329   1.557   3.438  13.073 -0.7947 -0.4406  2.3166
   42DOPE   H4S 5330   1.663   3.577  13.075 -1.2507 -0.9819 -1.9823
   42DOPE   C25 5331   1.677   3.433  13.249 -0.3080 -0.0218  0.3965
   42DOPE   H5R 5332   1.785   3.422  13.269 -0.5172 -1.1350  0.9820
   42DOPE   H5S 5333   1.639   3.331  13.272 -0.0892 -0.1706  0.0960
   42DOPE   C26 5334   1.599   3.538  13.327 -0.5232  0.6472 -0.4208
   42DOPE   H6R 5335   1.492   3.536  13.299 -0.4914 -0.1004 -0.5097
   42DOPE   H6S 5336   1.639   3.631  13.282 -2.7057  0.8729 -2.0488
   42DOPE   C27 5337   1.614   3.536  13.480  0.4887  0.3411 -0.2806
   42DOPE   H7R 5338   1.715   3.571  13.507  0.4414  0.4898 -0.2981
   42DOPE   H7S 5339   1.613   3.434  13.525  0.4603  0.5570  0.2051
   42DOPE   C28 5340   1.516   3.614  13.562  0.1539  0.2475 -0.6650
   42DOPE   H8R 5341   1.528   3.579  13.667  1.6140  3.7153  0.4920
   42DOPE   H8S 5342   1.414   3.587  13.527  0.9917 -1.1871 -2.0886
   42DOPE   C29 5343   1.529   3.762  13.546  0.8610 -0.0046 -0.2595
   42DOPE   H9R 5344   1.513   3.790  13.441 -0.6420 -2.1344 -0.6620
   42DOPE  C210 5345   1.560   3.862  13.629 -0.0819 -0.2725 -0.3647
   42DOPE  H10R 5346   1.551   3.963  13.587 -0.4177 -0.8915 -1.8316
   42DOPE  C211 5347   1.591   3.849  13.777 -0.2103 -0.4082  1.1015
   42DOPE  H11R 5348   1.701   3.860  13.788  0.7854 -1.7774 -4.3466
   42DOPE  H11S 5349   1.579   3.743  13.810 -2.0001 -1.3304 -2.0371
   42DOPE  C212 5350   1.520   3.951  13.865 -0.8646  0.4279 -0.8356
   42DOPE  H12R 5351   1.416   3.916  13.881 -0.4744  0.4787  2.4548
   42DOPE  H12S 5352   1.523   4.052  13.819 -0.5178  0.0093 -1.7448
   42DOPE  C213 5353   1.577   3.955  14.005 -0.3923 -0.6447  0.2191
   42DOPE  H13R 5354   1.684   3.957  13.979 -0.0813 -1.1788  1.3600
   42DOPE  H13S 5355   1.551   3.861  14.059  1.9015  0.1102  2.8657
   42DOPE  C214 5356   1.532   4.086  14.076  0.3538 -0.7747 -0.4205
   42DOPE  H14R 5357   1.428   4.059  14.106  1.0216 -1.4876  1.3972
   42DOPE  H14S 5358   1.531   4.175  14.010 -1.3482 -1.4947 -1.4220
   42DOPE  C215 5359   1.613   4.120  14.198  0.9882 -0.3519 -0.1731
   42DOPE  H15R 5360   1.709   4.175  14.183  1.4227 -0.3925  2.1178
   42DOPE  H15S 5361   1.646   4.019  14.231  1.5427 -1.5917 -3.9341
   42DOPE  C216 5362   1.548   4.187  14.320 -0.0984 -0.3428  0.1370
   42DOPE  H16R 5363   1.442   4.156  14.321 -0.3869  0.4875 -1.4107
   42DOPE  H16S 5364   1.548   4.295  14.297 -1.3840 -0.6691 -1.5756
   42DOPE  C217 5365   1.602   4.139  14.457  0.2831 -0.1171  1.1193
   42DOPE  H17R 5366   1.698   4.192  14.476 -0.2917  0.4773  2.5136
   42DOPE  H17S 5367   1.620   4.030  14.444  0.1180  0.0391 -0.8015
   42DOPE  C218 5368   1.511   4.170  14.580  0.2636  0.4052  0.2512
   42DOPE  H18R 5369   1.552   4.260  14.631 -0.8366  2.3303 -2.0619
   42DOPE  H18S 5370   1.513   4.087  14.654  3.8164  0.3233  0.2321
   42DOPE  H18T 5371   1.407   4.187  14.545  0.6736  2.5167 -0.0917
   42DOPE   C33 5372   1.817   3.870  13.101 -0.1052 -0.6112 -0.4056
   42DOPE   H3X 5373   1.770   3.775  13.066 -0.1954 -0.8714  0.4091
   42DOPE   H3Y 5374   1.757   3.958  13.069 -0.5322 -1.1957 -1.2850
   42DOPE   C34 5375   1.820   3.866  13.253  0.1834  0.2331 -0.4624
   42DOPE   H4X 5376   1.714   3.866  13.289  0.5602  0.8050  0.7116
   42DOPE   H4Y 5377   1.869   3.778  13.300 -0.6517 -0.2682 -0.4959
   42DOPE   C35 5378   1.890   3.999  13.307  0.3730  0.8445  0.0047
   42DOPE   H5X 5379   1.861   4.086  13.244 -0.6816 -0.0393 -0.7846
   42DOPE   H5Y 5380   2.000   3.986  13.303  0.4317  1.0333  0.8651
   42DOPE   C36 5381   1.863   4.028  13.454 -0.3440  1.4501  0.7352
   42DOPE   H6X 5382   1.914   3.951  13.515 -1.1162  2.0154  2.1405
   42DOPE   H6Y 5383   1.756   4.009  13.479  0.1431 -2.8956  0.3922
   42DOPE   C37 5384   1.905   4.169  13.492  0.1552  0.7633 -1.2141
   42DOPE   H7X 5385   2.008   4.162  13.531 -0.4250 -3.6315  0.1254
   42DOPE   H7Y 5386   1.911   4.242  13.408 -2.5280  2.6258  0.0298
   42DOPE   C38 5387   1.814   4.233  13.599 -0.3793 -0.2009  0.2866
   42DOPE   H8X 5388   1.852   4.321  13.655 -2.2661 -0.0803  1.4547
   42DOPE   H8Y 5389   1.801   4.164  13.685  2.0234 -2.2312 -0.8350
   42DOPE   C39 5390   1.687   4.267  13.526 -0.0885  0.7660 -0.0916
   42DOPE   H9X 5391   1.680   4.218  13.428  0.1787  2.1423 -0.8321
   42DOPE  C310 5392   1.582   4.341  13.564 -0.2130 -0.0659  0.1829
   42DOPE  H10X 5393   1.506   4.363  13.487 -1.2912  0.0007  1.2415
   42DOPE  C311 5394   1.572   4.433  13.684 -0.2279 -0.3623 -0.8032
   42DOPE  H11X 5395   1.666   4.487  13.709 -0.1278 -1.3925  1.2497
   42DOPE  H11Y 5396   1.498   4.512  13.658  0.2567  0.1386 -0.6832
   42DOPE  C312 5397   1.531   4.360  13.814  0.0344 -0.7865 -0.1509
   42DOPE  H12X 5398   1.603   4.277  13.827  1.0588  0.0521 -0.2944
   42DOPE  H12Y 5399   1.431   4.313  13.805  0.6487 -2.8173  2.6746
   42DOPE  C313 5400   1.538   4.461  13.936  0.1042  0.3940  0.2248
   42DOPE  H13X 5401   1.544   4.419  14.039 -0.2117  1.3331  0.6322
   42DOPE  H13Y 5402   1.626   4.527  13.922  0.3228  0.4496  1.7256
   42DOPE  C314 5403   1.416   4.550  13.946  0.0141  0.1565  0.9280
   42DOPE  H14X 5404   1.323   4.489  13.946  1.0818 -1.5376  1.2444
   42DOPE  H14Y 5405   1.428   4.596  13.846 -0.2699 -0.6918  0.4827
   42DOPE  C315 5406   1.425   4.658  14.052 -0.2498 -0.2610 -0.1506
   42DOPE  H15X 5407   1.345   4.732  14.029  0.6420  0.9765  0.6012
   42DOPE  H15Y 5408   1.526   4.703  14.041 -0.5338  0.0244 -1.9959
   42DOPE  C316 5409   1.419   4.621  14.198  0.7799 -0.2540  0.0337
   42DOPE  H16X 5410   1.512   4.566  14.222  1.5836  1.0443  0.0033
   42DOPE  H16Y 5411   1.330   4.555  14.208  0.5046  0.2900  1.4969
   42DOPE  C317 5412   1.374   4.740  14.288  0.1994 -0.3507 -0.4673
   42DOPE  H17X 5413   1.417   4.830  14.240  0.5494  0.1374  0.7141
   42DOPE  H17Y 5414   1.264   4.752  14.281 -0.0572 -1.9776  0.1923
   42DOPE  C318 5415   1.416   4.725  14.432 -1.3789 -0.5138  0.2396
   42DOPE  H18X 5416   1.526   4.737  14.441 -1.4999  1.8111 -0.6132
   42DOPE  H18Y 5417   1.372   4.812  14.486 -1.7937 -0.3812 -0.2913
   42DOPE  H18Z 5418   1.377   4.628  14.468  1.4576 -1.8431  0.0239
   43DOPE     N 5419   3.175   3.828  12.947 -0.7072 -0.1976  0.4598
   43DOPE   HN1 5420   3.108   3.899  12.910 -0.1524 -0.4227 -1.0510
   43DOPE   HN2 5421   3.222   3.873  13.028 -0.8573  1.5020 -0.3483
   43DOPE   HN3 5422   3.248   3.800  12.879  1.1180 -0.8268  2.5871
   43DOPE   C12 5423   3.102   3.711  12.998  0.3111  0.1775 -0.2575
   43DOPE  H12A 5424   3.174   3.653  13.058  1.3173 -0.7543 -2.2822
   43DOPE  H12B 5425   3.063   3.652  12.913  0.0733 -1.3238  0.8478
   43DOPE   C11 5426   3.000   3.756  13.100  0.5750 -0.2729  0.1987
   43DOPE  H11A 5427   3.029   3.826  13.181 -1.6360  0.6001  0.3242
   43DOPE  H11B 5428   2.975   3.669  13.164 -1.3211  0.8791  1.1073
   43DOPE     P 5429   2.772   3.735  12.983 -0.2178 -0.1343  0.0878
   43DOPE   O13 5430   2.820   3.622  12.902  0.2007  0.4929 -1.0665
   43DOPE   O14 5431   2.690   3.823  12.908  0.0678  0.7009 -0.1028
   43DOPE   O11 5432   2.689   3.689  13.109  0.1247  0.7938  0.4331
   43DOPE   O12 5433   2.886   3.822  13.039 -0.3559 -0.2288  0.1360
   43DOPE    C1 5434   2.677   3.781  13.223 -0.2552  0.2978  0.5170
   43DOPE    HA 5435   2.570   3.810  13.219 -0.1826  0.4576 -0.5890
   43DOPE    HB 5436   2.736   3.875  13.210 -0.7371  0.2667 -2.5883
   43DOPE    C2 5437   2.701   3.717  13.364 -0.4423 -0.0443 -0.1297
   43DOPE    HS 5438   2.810   3.699  13.377 -0.5244  0.2085  0.9362
   43DOPE   O21 5439   2.636   3.587  13.367 -0.0584 -0.3681 -0.8495
   43DOPE   C21 5440   2.683   3.512  13.465  0.7733 -0.3310  0.3695
   43DOPE   O22 5441   2.773   3.542  13.535  0.2916  0.5182  0.0506
   43DOPE   C22 5442   2.589   3.396  13.477  0.1341 -1.9232  0.6138
   43DOPE   H2R 5443   2.581   3.344  13.379  0.5291  1.1359 -1.1841
   43DOPE   H2S 5444   2.495   3.447  13.508 -0.0877 -0.6027 -2.0012
   43DOPE    C3 5445   2.663   3.811  13.484  0.1430 -0.2874  0.1926
   43DOPE    HX 5446   2.739   3.893  13.486 -0.2567  0.0805  0.4312
   43DOPE    HY 5447   2.677   3.754  13.578  0.2385  0.3988  0.6011
   43DOPE   O31 5448   2.526   3.868  13.466  0.0611 -0.7383  0.4024
   43DOPE   C31 5449   2.428   3.792  13.495  0.1231 -0.1879 -0.1828
   43DOPE   O32 5450   2.431   3.690  13.559 -0.3260  0.1188  0.0217
   43DOPE   C32 5451   2.296   3.876  13.464  0.2360  0.2482  0.4143
   43DOPE   H2X 5452   2.326   3.983  13.458  0.2434  0.2246 -0.0058
   43DOPE   H2Y 5453   2.268   3.838  13.363 -0.7514 -0.7840  1.0640
   43DOPE   C23 5454   2.636   3.300  13.581 -0.7701  0.2541 -0.2456
   43DOPE   H3R 5455   2.669   3.352  13.674 -1.4139 -0.8145  0.6123
   43DOPE   H3S 5456   2.724   3.253  13.534  0.5494  2.2378  0.1326
   43DOPE   C24 5457   2.539   3.186  13.616  0.2568  0.3443 -0.0997
   43DOPE   H4R 5458   2.596   3.109  13.672  0.7251  0.2843 -0.6542
   43DOPE   H4S 5459   2.508   3.138  13.522  1.4393 -0.2897 -0.1856
   43DOPE   C25 5460   2.422   3.225  13.713  0.4402  0.1272  0.2143
   43DOPE   H5R 5461   2.360   3.294  13.653  1.9369  0.2534 -1.2573
   43DOPE   H5S 5462   2.464   3.273  13.804 -0.0327  1.0796 -0.0623
   43DOPE   C26 5463   2.334   3.100  13.751 -0.2162  0.4247 -0.0047
   43DOPE   H6R 5464   2.394   3.020  13.800 -0.4863 -1.7356 -2.9078
   43DOPE   H6S 5465   2.309   3.044  13.658  1.5262 -1.2355  0.4670
   43DOPE   C27 5466   2.210   3.139  13.839 -0.0548 -0.0545  0.8821
   43DOPE   H7R 5467   2.154   3.219  13.786 -0.3588  0.4527  1.9303
   43DOPE   H7S 5468   2.243   3.178  13.938 -0.2343  0.8185  0.6020
   43DOPE   C28 5469   2.112   3.028  13.859  0.3498  0.3336 -0.7338
   43DOPE   H8R 5470   2.029   3.060  13.926  1.0451  0.0712  0.2863
   43DOPE   H8S 5471   2.169   2.951  13.916  0.1277 -0.1086 -1.1031
   43DOPE   C29 5472   2.052   2.986  13.725  0.1689 -0.3565 -0.6262
   43DOPE   H9R 5473   2.018   3.071  13.665 -0.2507  0.2375  0.4310
   43DOPE  C210 5474   2.051   2.862  13.672 -0.0688 -0.1362 -0.0369
   43DOPE  H10R 5475   2.010   2.854  13.570 -3.1786  0.9113  1.0067
   43DOPE  C211 5476   2.096   2.730  13.736  0.0358  0.0756  1.1781
   43DOPE  H11R 5477   2.196   2.708  13.694 -0.1774  2.2959 -0.6730
   43DOPE  H11S 5478   2.027   2.649  13.703  1.5819 -0.7841 -0.0290
   43DOPE  C212 5479   2.085   2.692  13.884  0.9654  0.6099 -0.0880
   43DOPE  H12R 5480   2.155   2.750  13.949 -0.7033  0.7462  1.6736
   43DOPE  H12S 5481   2.108   2.585  13.899 -1.7135 -0.2112 -1.2612
   43DOPE  C213 5482   1.943   2.704  13.947  0.4870 -0.4108 -0.6681
   43DOPE  H13R 5483   1.869   2.655  13.880 -2.5758  2.3275  0.4184
   43DOPE  H13S 5484   1.894   2.803  13.959 -2.4646 -1.9303  1.4874
   43DOPE  C214 5485   1.927   2.621  14.081 -0.3071 -0.1313  0.6270
   43DOPE  H14R 5486   1.940   2.513  14.063  1.2770  0.1506 -0.1116
   43DOPE  H14S 5487   1.823   2.629  14.120 -0.0864  0.6053  1.0928
   43DOPE  C215 5488   2.030   2.665  14.192  0.1215 -0.2779 -0.0482
   43DOPE  H15R 5489   2.133   2.639  14.159  0.8138  0.7224  1.2239
   43DOPE  H15S 5490   2.031   2.593  14.277  0.4813 -0.7933 -0.4798
   43DOPE  C216 5491   2.006   2.811  14.238 -0.1715  0.2279 -0.5818
   43DOPE  H16R 5492   1.901   2.837  14.264 -0.0064 -1.3642  1.9923
   43DOPE  H16S 5493   2.026   2.881  14.154  0.5588 -0.0006 -0.6064
   43DOPE  C217 5494   2.096   2.857  14.360  0.1106 -0.1780  0.2471
   43DOPE  H17R 5495   2.199   2.840  14.322 -0.3424 -1.0821 -0.6059
   43DOPE  H17S 5496   2.073   2.787  14.443  1.4040 -0.8313  0.0829
   43DOPE  C218 5497   2.068   2.996  14.401  0.1136 -0.4655 -0.4587
   43DOPE  H18R 5498   1.982   3.009  14.469  0.2666  0.0770 -0.3645
   43DOPE  H18S 5499   2.043   3.057  14.312 -4.0586 -0.3999  0.5637
   43DOPE  H18T 5500   2.149   3.042  14.461  0.4446 -0.2269 -1.0736
   43DOPE   C33 5501   2.182   3.869  13.564 -1.0278  0.9108  0.1301
   43DOPE   H3X 5502   2.168   3.760  13.579  1.1567  0.5473 -0.1380
   43DOPE   H3Y 5503   2.095   3.927  13.528  0.6276  2.6341 -1.2599
   43DOPE   C34 5504   2.213   3.944  13.699  0.2882 -0.3003  0.1267
   43DOPE   H4X 5505   2.307   3.908  13.747 -0.2957 -1.2918  0.5596
   43DOPE   H4Y 5506   2.234   4.052  13.682  1.2553 -0.5689 -0.4424
   43DOPE   C35 5507   2.086   3.942  13.790  0.2467  0.1715  0.1135
   43DOPE   H5X 5508   2.060   3.837  13.816  0.1971  0.3314  0.7269
   43DOPE   H5Y 5509   2.008   3.990  13.727  1.0542  1.6829  0.2421
   43DOPE   C36 5510   2.108   4.018  13.919  0.6822  1.1017 -0.7714
   43DOPE   H6X 5511   2.148   4.119  13.897 -0.8682  1.6443 -1.1682
   43DOPE   H6Y 5512   2.183   3.955  13.972 -1.0099  0.3535  0.8267
   43DOPE   C37 5513   1.986   4.023  14.019 -0.5253  0.4344  1.2271
   43DOPE   H7X 5514   1.899   4.050  13.955 -0.7895  0.5394  1.6262
   43DOPE   H7Y 5515   1.965   3.921  14.058 -0.2803  0.5538  1.6727
   43DOPE   C38 5516   1.985   4.111  14.145  0.0451  0.2784 -0.1181
   43DOPE   H8X 5517   1.895   4.083  14.203 -1.7208  1.4215 -2.1615
   43DOPE   H8Y 5518   1.944   4.204  14.099  0.1608  0.7575  0.7220
   43DOPE   C39 5519   2.119   4.133  14.211  0.0622  0.2883  0.5231
   43DOPE   H9X 5520   2.194   4.175  14.143  0.7311 -3.4581 -1.2952
   43DOPE  C310 5521   2.151   4.103  14.334  0.5377  0.2179 -0.0987
   43DOPE  H10X 5522   2.254   4.122  14.366  0.2862 -1.1595  1.7096
   43DOPE  C311 5523   2.066   4.035  14.441 -0.8030 -0.2088  0.1549
   43DOPE  H11X 5524   2.044   4.104  14.525 -2.4033  0.2025 -0.5421
   43DOPE  H11Y 5525   1.970   3.994  14.401 -0.6378  0.2006 -0.6723
   43DOPE  C312 5526   2.137   3.912  14.496 -0.5043 -0.8955 -0.6909
   43DOPE  H12X 5527   2.162   3.838  14.418  2.8240 -2.2112  1.3670
   43DOPE  H12Y 5528   2.064   3.870  14.568  0.7852  0.8916  1.8652
   43DOPE  C313 5529   2.282   3.933  14.567  0.7309 -0.1505  0.2554
   43DOPE  H13X 5530   2.349   4.001  14.510  1.8048  0.8818  2.6088
   43DOPE  H13Y 5531   2.266   3.965  14.673  3.1316 -1.2365  1.0054
   43DOPE  C314 5532   2.353   3.802  14.582 -0.3781 -0.1347 -0.1663
   43DOPE  H14X 5533   2.399   3.776  14.484 -1.1247  1.8319 -1.1062
   43DOPE  H14Y 5534   2.283   3.722  14.612  2.3250 -2.8325 -0.5766
   43DOPE  C315 5535   2.463   3.815  14.693 -0.4999 -0.6411 -0.1561
   43DOPE  H15X 5536   2.419   3.849  14.788 -1.7707 -0.7199 -0.7024
   43DOPE  H15Y 5537   2.550   3.879  14.665  1.0703 -1.5568  2.3040
   43DOPE  C316 5538   2.538   3.682  14.726  0.0612 -0.0825  0.9565
   43DOPE  H16X 5539   2.462   3.611  14.765 -0.3627  0.5868  1.3624
   43DOPE  H16Y 5540   2.612   3.713  14.803  0.3224  3.5182 -0.5121
   43DOPE  C317 5541   2.609   3.611  14.606 -0.1589 -0.2048 -0.3515
   43DOPE  H17X 5542   2.523   3.575  14.544  0.9678 -2.5236 -0.6775
   43DOPE  H17Y 5543   2.671   3.680  14.546  0.3557 -0.5150 -0.1781
   43DOPE  C318 5544   2.691   3.489  14.653  0.9281  0.3624 -0.0947
   43DOPE  H18X 5545   2.767   3.527  14.724  0.4127 -0.4932  0.9584
   43DOPE  H18Y 5546   2.620   3.421  14.705 -2.6945  2.1930 -2.2367
   43DOPE  H18Z 5547   2.740   3.441  14.565  0.1212  0.1434 -0.4324
   44DOPE     N 5548   2.872   1.013  11.860  0.4898 -0.1698  0.8044
   44DOPE   HN1 5549   2.968   0.974  11.858  0.1570 -0.9973 -0.8354
   44DOPE   HN2 5550   2.867   1.076  11.942 -0.0826 -0.4022  0.9522
   44DOPE   HN3 5551   2.799   0.939  11.864  0.8007 -0.4257  2.9077
   44DOPE   C12 5552   2.850   1.096  11.731 -0.6795  0.3814 -0.6742
   44DOPE  H12A 5553   2.741   1.116  11.727 -1.0390 -1.4293 -0.9332
   44DOPE  H12B 5554   2.879   1.035  11.643 -1.9652  1.6925 -2.0670
   44DOPE   C11 5555   2.940   1.220  11.738 -0.3683 -0.0718  0.4253
   44DOPE  H11A 5556   2.926   1.277  11.643 -0.1126  1.6421  1.3714
   44DOPE  H11B 5557   3.046   1.188  11.736 -0.4859 -0.4399 -0.3588
   44DOPE     P 5558   2.990   1.432  11.880 -0.1077 -0.2413 -0.1698
   44DOPE   O13 5559   2.905   1.530  11.951  0.2740  0.1418  0.3490
   44DOPE   O14 5560   3.047   1.484  11.755  0.3833 -0.5477  0.7960
   44DOPE   O11 5561   3.114   1.384  11.980  0.4047  0.2815  0.7571
   44DOPE   O12 5562   2.906   1.299  11.848 -0.3754  0.2323 -0.4383
   44DOPE    C1 5563   3.160   1.254  12.016 -0.6847  0.3239 -0.0384
   44DOPE    HA 5564   3.263   1.238  11.978 -0.8648 -1.0305 -0.0041
   44DOPE    HB 5565   3.096   1.180  11.964  0.4468  0.1458 -1.2179
   44DOPE    C2 5566   3.156   1.234  12.165  0.7196  0.7988 -0.0006
   44DOPE    HS 5567   3.167   1.126  12.190  0.0471  0.8091  0.3748
   44DOPE   O21 5568   3.040   1.293  12.228 -0.4404 -0.4480 -0.3259
   44DOPE   C21 5569   2.929   1.223  12.206  0.2348  0.1509  0.1744
   44DOPE   O22 5570   2.912   1.137  12.122 -0.1567  0.2976  1.1329
   44DOPE   C22 5571   2.832   1.264  12.320  1.0278  0.9759 -0.1517
   44DOPE   H2R 5572   2.728   1.260  12.282  0.4337 -0.6477  1.4927
   44DOPE   H2S 5573   2.855   1.366  12.357  0.1261  0.9816  0.4144
   44DOPE    C3 5574   3.280   1.297  12.234  0.0077 -0.5598  0.4234
   44DOPE    HX 5575   3.270   1.408  12.234  0.9618 -0.4296 -1.8447
   44DOPE    HY 5576   3.374   1.274  12.181  0.5570 -1.3929  1.6985
   44DOPE   O31 5577   3.297   1.252  12.367  0.1838 -0.3305  0.0698
   44DOPE   C31 5578   3.386   1.319  12.435 -0.7699  0.3246 -0.4137
   44DOPE   O32 5579   3.441   1.417  12.393 -0.1716 -0.6055  0.0737
   44DOPE   C32 5580   3.398   1.246  12.575 -0.0995 -0.1579 -0.3490
   44DOPE   H2X 5581   3.353   1.145  12.570  1.1688 -0.8074  0.6238
   44DOPE   H2Y 5582   3.504   1.214  12.586 -0.2407 -0.4192  0.2664
   44DOPE   C23 5583   2.837   1.175  12.453 -0.3990  0.2729  0.5576
   44DOPE   H3R 5584   2.820   1.069  12.424 -1.0038  0.2844  0.8499
   44DOPE   H3S 5585   2.757   1.197  12.526  0.7374 -0.8908  2.2213
   44DOPE   C24 5586   2.968   1.201  12.521  0.5328 -0.1331 -0.0154
   44DOPE   H4R 5587   2.966   1.309  12.546  0.3739 -0.2444  0.4586
   44DOPE   H4S 5588   3.052   1.202  12.448  0.1145 -0.3182 -0.5032
   44DOPE   C25 5589   3.005   1.127  12.649 -0.0680  0.5790 -0.4033
   44DOPE   H5R 5590   3.105   1.166  12.680 -0.1489  1.8290 -1.6218
   44DOPE   H5S 5591   3.001   1.019  12.625 -1.0151  0.0755  1.7316
   44DOPE   C26 5592   2.911   1.130  12.766  0.8588  0.2097 -0.0188
   44DOPE   H6R 5593   2.934   1.043  12.830  1.0511  0.6124  0.4664
   44DOPE   H6S 5594   2.803   1.122  12.739 -0.0274  1.2795  2.8006
   44DOPE   C27 5595   2.926   1.258  12.847  0.5189 -0.0697 -0.2214
   44DOPE   H7R 5596   2.899   1.342  12.780  1.1874  1.1487  1.0090
   44DOPE   H7S 5597   3.036   1.267  12.860  0.5125 -0.1614 -0.1006
   44DOPE   C28 5598   2.830   1.269  12.970 -0.5066  0.2872  0.8574
   44DOPE   H8R 5599   2.729   1.248  12.928  0.3969 -0.0368 -1.3148
   44DOPE   H8S 5600   2.845   1.376  12.995  0.0563  0.8828 -1.7290
   44DOPE   C29 5601   2.861   1.166  13.077  0.3450  0.4712  1.0592
   44DOPE   H9R 5602   2.886   1.067  13.038 -1.2554  0.9206 -1.3119
   44DOPE  C210 5603   2.888   1.183  13.212  0.9073 -0.2897  0.0608
   44DOPE  H10R 5604   2.941   1.100  13.262  0.5294 -0.1989  0.6268
   44DOPE  C211 5605   2.878   1.316  13.287  0.0545 -0.6773 -0.3474
   44DOPE  H11R 5606   2.844   1.403  13.227 -1.5398 -0.6900  0.4860
   44DOPE  H11S 5607   2.978   1.332  13.332 -0.3042  0.0295  0.2302
   44DOPE  C212 5608   2.779   1.311  13.404  0.4837 -0.0581  0.2069
   44DOPE  H12R 5609   2.812   1.242  13.485 -1.1058 -0.0617  0.8966
   44DOPE  H12S 5610   2.679   1.272  13.374 -1.3205  1.6372  3.4477
   44DOPE  C213 5611   2.753   1.453  13.470 -0.1864 -0.8605 -0.5659
   44DOPE  H13R 5612   2.693   1.521  13.405 -0.3005 -0.6563 -0.2508
   44DOPE  H13S 5613   2.854   1.499  13.477 -0.4775  0.8831 -4.6936
   44DOPE  C214 5614   2.682   1.451  13.610  0.4029  0.1088 -0.6825
   44DOPE  H14R 5615   2.589   1.390  13.608  0.0352  0.6794 -2.7555
   44DOPE  H14S 5616   2.659   1.555  13.640 -1.3035 -0.8190  1.4934
   44DOPE  C215 5617   2.770   1.411  13.735  0.9859  0.5542 -0.0118
   44DOPE  H15R 5618   2.875   1.437  13.710  1.8568 -1.4530  1.2344
   44DOPE  H15S 5619   2.772   1.300  13.738  0.5209  0.5121 -0.9838
   44DOPE  C216 5620   2.719   1.489  13.858 -0.1210  0.4368 -0.3624
   44DOPE  H16R 5621   2.609   1.508  13.853 -0.1732  1.0103  1.8451
   44DOPE  H16S 5622   2.762   1.590  13.840 -0.5551  0.5851 -0.6089
   44DOPE  C217 5623   2.763   1.447  13.994 -0.0728 -0.7132  0.1003
   44DOPE  H17R 5624   2.736   1.520  14.074 -0.4126  2.5097 -2.7321
   44DOPE  H17S 5625   2.873   1.445  13.985 -0.0428 -1.0043  0.5101
   44DOPE  C218 5626   2.729   1.307  14.037 -0.2939 -0.2084  0.4776
   44DOPE  H18R 5627   2.763   1.215  13.985 -1.5830  0.1184 -1.0312
   44DOPE  H18S 5628   2.620   1.294  14.053 -0.4089 -0.1305 -0.2014
   44DOPE  H18T 5629   2.775   1.294  14.138  1.5358  0.2001 -0.2613
   44DOPE   C33 5630   3.335   1.329  12.692  0.0505 -0.9386  0.2881
   44DOPE   H3X 5631   3.229   1.340  12.662 -0.6683 -4.3980  1.0689
   44DOPE   H3Y 5632   3.373   1.433  12.682 -0.6249 -0.5601  1.4614
   44DOPE   C34 5633   3.367   1.273  12.834  0.1442  0.8880 -0.1209
   44DOPE   H4X 5634   3.307   1.181  12.842 -1.9060  2.0956 -0.9599
   44DOPE   H4Y 5635   3.475   1.254  12.854  0.0087  2.0076  1.8826
   44DOPE   C35 5636   3.300   1.357  12.947  0.4441  0.1867 -0.0793
   44DOPE   H5X 5637   3.189   1.358  12.953  0.5328  0.8308  2.6444
   44DOPE   H5Y 5638   3.307   1.467  12.932 -1.8626  0.3741 -0.0759
   44DOPE   C36 5639   3.355   1.324  13.087 -0.8475 -0.1168  0.0571
   44DOPE   H6X 5640   3.463   1.349  13.092 -1.5696  3.2577  1.5957
   44DOPE   H6Y 5641   3.345   1.217  13.117 -1.7910  0.1962  0.8900
   44DOPE   C37 5642   3.296   1.411  13.196  0.2738 -0.2035  0.0508
   44DOPE   H7X 5643   3.285   1.519  13.171 -0.4174 -0.1618  0.5143
   44DOPE   H7Y 5644   3.192   1.376  13.208 -0.3468  1.0404 -1.4052
   44DOPE   C38 5645   3.367   1.409  13.330  0.0871  0.1985 -0.4033
   44DOPE   H8X 5646   3.301   1.477  13.387  0.1428  0.9389 -1.1947
   44DOPE   H8Y 5647   3.467   1.458  13.320  0.7306 -0.2954  2.6411
   44DOPE   C39 5648   3.362   1.269  13.388  0.3579 -0.5566 -0.3608
   44DOPE   H9X 5649   3.445   1.208  13.350  1.4271  0.3391  0.4975
   44DOPE  C310 5650   3.277   1.218  13.488  0.2221 -0.0270  0.7877
   44DOPE  H10X 5651   3.294   1.113  13.517  4.5527  0.6375  1.2727
   44DOPE  C311 5652   3.166   1.297  13.549 -0.2197 -1.2550  0.1450
   44DOPE  H11X 5653   3.145   1.390  13.493  2.3778 -2.2609 -2.7299
   44DOPE  H11Y 5654   3.066   1.249  13.544 -0.5360 -0.4434 -2.3882
   44DOPE  C312 5655   3.206   1.335  13.692  0.4951  0.0656 -0.0142
   44DOPE  H12X 5656   3.138   1.420  13.714 -1.9814 -1.9002  0.4012
   44DOPE  H12Y 5657   3.304   1.387  13.700  1.0601 -1.2362  2.9829
   44DOPE  C313 5658   3.193   1.230  13.800 -0.2182 -0.5822 -0.3517
   44DOPE  H13X 5659   3.105   1.168  13.771 -1.4241  0.3935  1.1052
   44DOPE  H13Y 5660   3.286   1.169  13.811 -0.7280 -1.3643 -0.3158
   44DOPE  C314 5661   3.177   1.307  13.935 -0.0269 -0.0932  0.3887
   44DOPE  H14X 5662   3.077   1.355  13.935 -0.3938 -0.8409 -0.3716
   44DOPE  H14Y 5663   3.250   1.391  13.946 -1.7575  1.5650 -0.2767
   44DOPE  C315 5664   3.196   1.209  14.047  0.4207 -0.8248 -0.8484
   44DOPE  H15X 5665   3.289   1.149  14.051 -0.6444 -2.5104 -0.4950
   44DOPE  H15Y 5666   3.107   1.144  14.063  0.1154  0.2383  2.4628
   44DOPE  C316 5667   3.219   1.285  14.184 -0.1756 -0.4223  0.2008
   44DOPE  H16X 5668   3.132   1.354  14.195 -0.5779 -0.7312 -0.9284
   44DOPE  H16Y 5669   3.314   1.342  14.178 -0.8773  0.7930  0.1649
   44DOPE  C317 5670   3.235   1.194  14.299 -0.4009  0.3312  0.1158
   44DOPE  H17X 5671   3.323   1.131  14.275  0.5917  0.8704  2.1006
   44DOPE  H17Y 5672   3.262   1.245  14.394 -2.3530 -1.1960  1.5806
   44DOPE  C318 5673   3.114   1.101  14.329  0.4233  0.4548 -0.3721
   44DOPE  H18X 5674   3.129   1.047  14.425  0.0924  1.5822  0.3322
   44DOPE  H18Y 5675   3.019   1.157  14.335 -0.4275 -0.8346 -1.2278
   44DOPE  H18Z 5676   3.084   1.033  14.246 -0.5761 -0.3875  0.6368
   45DOPE     N 5677   4.379   1.180  11.895 -0.1452 -0.2348 -0.2772
   45DOPE   HN1 5678   4.417   1.224  11.808 -0.1295 -1.9412 -1.1798
   45DOPE   HN2 5679   4.315   1.247  11.943 -0.7224  0.7792 -2.3283
   45DOPE   HN3 5680   4.460   1.156  11.955 -0.4020  0.8687  0.5376
   45DOPE   C12 5681   4.306   1.061  11.868  0.0164 -0.5042 -0.2981
   45DOPE  H12A 5682   4.210   1.079  11.815  0.5517 -1.0877 -1.5208
   45DOPE  H12B 5683   4.283   0.998  11.956 -2.0201 -2.3679 -2.0365
   45DOPE   C11 5684   4.393   0.970  11.778 -0.0598  0.1456 -0.2544
   45DOPE  H11A 5685   4.486   0.957  11.836  0.2110 -0.6594 -0.8496
   45DOPE  H11B 5686   4.428   1.016  11.683  2.7561 -3.0151 -0.9406
   45DOPE     P 5687   4.390   0.735  11.665 -0.2367  0.1187  0.5702
   45DOPE   O13 5688   4.496   0.786  11.580 -0.2882 -0.1177 -0.5493
   45DOPE   O14 5689   4.279   0.664  11.600  0.7549  0.6322  0.5059
   45DOPE   O11 5690   4.466   0.652  11.782 -0.1104 -0.2375  0.0460
   45DOPE   O12 5691   4.318   0.852  11.741 -0.4050 -0.4965  0.2758
   45DOPE    C1 5692   4.393   0.592  11.886 -0.2416  0.5672  0.1092
   45DOPE    HA 5693   4.452   0.500  11.908 -0.1944  0.7210  0.6216
   45DOPE    HB 5694   4.290   0.559  11.863  0.9863 -5.5910  1.4331
   45DOPE    C2 5695   4.386   0.673  12.025 -0.1753  0.2860 -0.5701
   45DOPE    HS 5696   4.327   0.767  12.016 -0.9731 -0.2764 -1.3999
   45DOPE   O21 5697   4.517   0.685  12.075 -0.0261 -0.1254  0.1562
   45DOPE   C21 5698   4.550   0.798  12.126 -0.4302 -0.4610 -0.2883
   45DOPE   O22 5699   4.483   0.903  12.128 -0.4591  0.5203  0.3387
   45DOPE   C22 5700   4.697   0.790  12.166 -0.6192  0.6181  0.2284
   45DOPE   H2R 5701   4.748   0.814  12.070  1.4145 -0.4468  0.9859
   45DOPE   H2S 5702   4.728   0.686  12.189  1.3801  1.5792  2.2504
   45DOPE    C3 5703   4.309   0.590  12.129 -0.2516  0.7556  0.4391
   45DOPE    HX 5704   4.352   0.488  12.136  1.9620  1.7461  3.2302
   45DOPE    HY 5705   4.212   0.571  12.079 -0.0587 -2.1157  0.9525
   45DOPE   O31 5706   4.290   0.656  12.251  0.3290 -0.4245 -0.6375
   45DOPE   C31 5707   4.198   0.754  12.251  0.1494 -0.3578 -0.1835
   45DOPE   O32 5708   4.137   0.793  12.152 -0.0444 -0.1604 -0.3767
   45DOPE   C32 5709   4.160   0.805  12.387 -0.2522  0.2326  0.1649
   45DOPE   H2X 5710   4.099   0.897  12.374 -1.8190 -0.9542 -1.2000
   45DOPE   H2Y 5711   4.094   0.729  12.432 -0.5781  1.3642  1.6580
   45DOPE   C23 5712   4.741   0.887  12.282 -0.9409  0.1238  0.8401
   45DOPE   H3R 5713   4.719   0.992  12.255  0.6419  0.3673  0.4125
   45DOPE   H3S 5714   4.851   0.881  12.292 -0.9409 -0.1954  0.6949
   45DOPE   C24 5715   4.669   0.858  12.419  0.0737 -0.2141  0.2181
   45DOPE   H4R 5716   4.676   0.751  12.446 -0.4400 -0.5539 -0.9409
   45DOPE   H4S 5717   4.560   0.879  12.416  0.0792  0.6295  3.0701
   45DOPE   C25 5718   4.714   0.952  12.526  0.1204 -0.4765  0.0688
   45DOPE   H5R 5719   4.688   1.057  12.501 -0.1167 -0.6617 -0.4826
   45DOPE   H5S 5720   4.824   0.950  12.542 -0.3728 -2.0523  4.5717
   45DOPE   C26 5721   4.641   0.921  12.656  0.4540  0.4518 -0.3824
   45DOPE   H6R 5722   4.687   0.825  12.688  0.6951  0.9819  0.8924
   45DOPE   H6S 5723   4.531   0.906  12.643  0.8279 -2.4070 -0.9197
   45DOPE   C27 5724   4.642   1.026  12.764 -0.2205  0.2768 -0.2430
   45DOPE   H7R 5725   4.577   1.110  12.730  0.8341  0.8101 -1.0132
   45DOPE   H7S 5726   4.743   1.072  12.757 -0.2509  0.1473 -2.2601
   45DOPE   C28 5727   4.598   0.953  12.887 -0.4666  0.0977  0.6182
   45DOPE   H8R 5728   4.520   0.879  12.860 -1.3167  0.6971  1.3973
   45DOPE   H8S 5729   4.552   1.025  12.958 -2.3835 -2.1345  1.7497
   45DOPE   C29 5730   4.726   0.896  12.946  0.3028 -0.1743 -0.4020
   45DOPE   H9R 5731   4.764   0.813  12.885  0.9699  0.4458 -0.8370
   45DOPE  C210 5732   4.792   0.944  13.048 -0.2309 -0.6065  0.3039
   45DOPE  H10R 5733   4.881   0.892  13.089 -1.3061 -2.2854  0.6185
   45DOPE  C211 5734   4.760   1.058  13.140  0.3641  0.1181  0.2253
   45DOPE  H11R 5735   4.693   1.133  13.093  1.2325  0.3325 -0.7226
   45DOPE  H11S 5736   4.850   1.119  13.165  0.2592 -0.5294  2.3919
   45DOPE  C212 5737   4.721   1.016  13.280 -0.1051 -0.3785 -0.1469
   45DOPE  H12R 5738   4.642   0.939  13.265 -2.3106  1.5176  1.0131
   45DOPE  H12S 5739   4.659   1.093  13.331  1.4707  0.6540  0.2648
   45DOPE  C213 5740   4.846   0.964  13.364 -0.1438  0.0731 -0.0416
   45DOPE  H13R 5741   4.909   1.054  13.383  0.2581 -0.4479  1.1794
   45DOPE  H13S 5742   4.899   0.882  13.312  2.7408  2.3199 -0.9024
   45DOPE  C214 5743   4.801   0.909  13.500 -0.4850  0.0885  0.2921
   45DOPE  H14R 5744   4.739   0.825  13.462 -2.4779  2.1866 -1.3426
   45DOPE  H14S 5745   4.736   0.989  13.540  1.0490  0.8010  1.4679
   45DOPE  C215 5746   4.922   0.881  13.594 -0.0611  0.1689 -0.2515
   45DOPE  H15R 5747   4.989   0.968  13.608  0.2131 -0.1567  0.5186
   45DOPE  H15S 5748   4.974   0.798  13.541 -0.3408 -0.8255  0.9926
   45DOPE  C216 5749   4.872   0.825  13.731 -0.1058  0.1515  0.1738
   45DOPE  H16R 5750   4.796   0.745  13.715 -1.7832  1.7897 -0.3844
   45DOPE  H16S 5751   4.809   0.901  13.781  1.0986  1.4660 -0.2470
   45DOPE  C217 5752   4.977   0.774  13.830 -0.7149 -0.2148 -0.1051
   45DOPE  H17R 5753   5.047   0.859  13.840 -1.9077  0.8480 -0.6044
   45DOPE  H17S 5754   5.021   0.677  13.797  1.5813  0.1765  1.5816
   45DOPE  C218 5755   4.919   0.753  13.964  0.0982  0.2878  0.1902
   45DOPE  H18R 5756   4.874   0.843  14.012  0.7375 -0.0921  1.5643
   45DOPE  H18S 5757   4.986   0.713  14.043 -2.0240 -0.7748  1.5558
   45DOPE  H18T 5758   4.840   0.674  13.970  0.4199 -0.0055  0.6832
   45DOPE   C33 5759   4.289   0.825  12.469 -0.4920  0.1442  0.4132
   45DOPE   H3X 5760   4.347   0.894  12.403 -1.2851  1.1914  0.7754
   45DOPE   H3Y 5761   4.337   0.728  12.491 -1.3084  0.0789  2.1034
   45DOPE   C34 5762   4.249   0.878  12.607  0.5846 -0.7682  0.2038
   45DOPE   H4X 5763   4.164   0.818  12.646  1.6756 -1.1193  2.1911
   45DOPE   H4Y 5764   4.334   0.855  12.675  0.7631  1.1723  0.6860
   45DOPE   C35 5765   4.211   1.029  12.604 -0.3521  0.1133 -0.1573
   45DOPE   H5X 5766   4.125   1.038  12.534 -2.1966 -0.6704  1.8782
   45DOPE   H5Y 5767   4.296   1.095  12.576 -0.8315  1.8559  2.1319
   45DOPE   C36 5768   4.155   1.073  12.739  0.0357  0.0580  0.3216
   45DOPE   H6X 5769   4.058   1.021  12.752  1.7187 -2.7967  2.8957
   45DOPE   H6Y 5770   4.151   1.185  12.738 -0.9473  0.0583  1.3460
   45DOPE   C37 5771   4.250   1.037  12.853  0.7941  0.7433  0.2674
   45DOPE   H7X 5772   4.269   0.928  12.855  0.3143  0.6438  2.1564
   45DOPE   H7Y 5773   4.341   1.100  12.843  0.7543  0.7940  0.2259
   45DOPE   C38 5774   4.189   1.070  12.997  0.0027 -0.3465  0.3942
   45DOPE   H8X 5775   4.090   1.020  13.008 -0.8986  0.9694 -1.3635
   45DOPE   H8Y 5776   4.180   1.180  13.004  2.7368  0.0687 -1.1469
   45DOPE   C39 5777   4.285   1.035  13.104 -0.3534 -0.4846 -0.7209
   45DOPE   H9X 5778   4.377   1.095  13.096 -1.8928  1.9208 -1.1206
   45DOPE  C310 5779   4.271   0.926  13.181  0.1419 -0.7931 -0.0958
   45DOPE  H10X 5780   4.352   0.912  13.254  0.1947 -1.1072 -0.2119
   45DOPE  C311 5781   4.148   0.838  13.188  0.5247  0.3891  0.1710
   45DOPE  H11X 5782   4.056   0.895  13.165  0.7429  0.7665  0.2285
   45DOPE  H11Y 5783   4.158   0.744  13.130 -3.1575  0.9331 -1.6278
   45DOPE  C312 5784   4.123   0.782  13.334 -0.3237  0.2890 -0.3288
   45DOPE  H12X 5785   4.211   0.721  13.365 -0.5342 -0.6286 -1.4599
   45DOPE  H12Y 5786   4.025   0.731  13.330 -0.4001  0.5154 -2.0562
   45DOPE  C313 5787   4.111   0.899  13.437  0.2204  0.2628 -0.5828
   45DOPE  H13X 5788   4.205   0.958  13.438 -0.3986  1.3012  1.2624
   45DOPE  H13Y 5789   4.027   0.962  13.400  1.0399  0.9549 -1.2964
   45DOPE  C314 5790   4.097   0.851  13.586  0.2699  0.1362  0.2246
   45DOPE  H14X 5791   4.163   0.767  13.616 -0.3109  0.1309  1.5395
   45DOPE  H14Y 5792   3.996   0.807  13.594  0.3117  0.1288  0.7201
   45DOPE  C315 5793   4.097   0.959  13.693 -0.2247  0.8566 -0.2836
   45DOPE  H15X 5794   4.010   1.027  13.679 -0.5222  0.3947 -0.7196
   45DOPE  H15Y 5795   4.191   1.016  13.683  0.0884  0.8589  2.2316
   45DOPE  C316 5796   4.091   0.903  13.834 -0.1669  0.5267  0.3977
   45DOPE  H16X 5797   4.189   0.863  13.869  0.0887  0.8288  0.0366
   45DOPE  H16Y 5798   4.017   0.821  13.831  0.5250 -0.1439  1.0489
   45DOPE  C317 5799   4.050   1.006  13.941  0.2410  0.1560 -0.2933
   45DOPE  H17X 5800   4.134   1.079  13.943  1.2200 -0.9564 -0.0307
   45DOPE  H17Y 5801   3.959   1.063  13.912 -0.4418  0.9597  2.9852
   45DOPE  C318 5802   4.027   0.939  14.077 -0.1430  0.0669 -0.2101
   45DOPE  H18X 5803   3.938   0.874  14.072  0.0841 -0.1926 -0.9721
   45DOPE  H18Y 5804   4.114   0.888  14.123 -0.4607 -1.0374 -0.8064
   45DOPE  H18Z 5805   4.005   1.021  14.150  1.2467 -0.8306  1.2752
   46DOPE     N 5806   3.975   5.902  11.766 -0.0816  0.0085  0.1753
   46DOPE   HN1 5807   4.009   5.804  11.769 -0.2394 -0.0836 -0.8573
   46DOPE   HN2 5808   3.922   5.911  11.677 -1.0791 -0.9660  0.6571
   46DOPE   HN3 5809   4.062   5.960  11.766 -0.8769  1.2295  0.1655
   46DOPE   C12 5810   3.900   5.943  11.890 -0.0827  0.5247 -0.3473
   46DOPE  H12A 5811   3.854   5.850  11.929  0.7915 -0.1641 -0.9125
   46DOPE  H12B 5812   3.821   6.013  11.856 -1.3181  0.2672  1.8128
   46DOPE   C11 5813   3.998   6.008  11.995  0.6729 -0.1078 -0.1348
   46DOPE  H11A 5814   4.090   5.948  12.015  1.8960  1.6866 -0.1372
   46DOPE  H11B 5815   3.947   6.019  12.092 -1.2405  1.8624 -1.2734
   46DOPE     P 5816   4.159   6.208  12.005  0.3192 -0.0378 -0.0415
   46DOPE   O13 5817   4.169   6.346  11.946 -0.2362  0.2253 -0.0861
   46DOPE   O14 5818   4.281   6.128  11.992  0.7433  0.1340  0.7131
   46DOPE   O11 5819   4.110   6.208  12.151  0.0422  0.1863 -0.4079
   46DOPE   O12 5820   4.028   6.139  11.933  0.4566 -0.1130  0.3109
   46DOPE    C1 5821   4.005   6.287  12.204  0.2860  0.2676 -0.2322
   46DOPE    HA 5822   3.918   6.223  12.233  0.8222 -0.4608 -0.2032
   46DOPE    HB 5823   3.967   6.363  12.133  0.0521  1.6389  1.3068
   46DOPE    C2 5824   4.048   6.366  12.328  0.1655 -0.5692  0.0428
   46DOPE    HS 5825   4.121   6.441  12.288 -0.8825  0.0885 -0.6898
   46DOPE   O21 5826   4.113   6.273  12.418  0.2465 -0.3294  0.4113
   46DOPE   C21 5827   4.237   6.262  12.400  0.5416  0.5016 -0.8737
   46DOPE   O22 5828   4.311   6.320  12.328 -0.0998  0.0144  0.1431
   46DOPE   C22 5829   4.291   6.168  12.514 -0.5807  0.2776 -0.0269
   46DOPE   H2R 5830   4.385   6.129  12.469 -0.7780 -1.6516  1.1350
   46DOPE   H2S 5831   4.224   6.084  12.541 -0.3407  0.4201  1.0830
   46DOPE    C3 5832   3.928   6.444  12.385  0.1051  0.1179 -0.2718
   46DOPE    HX 5833   3.854   6.369  12.420  0.6763 -0.3915 -0.1502
   46DOPE    HY 5834   3.889   6.511  12.305  2.4851  1.1600 -0.6532
   46DOPE   O31 5835   3.978   6.538  12.487 -0.1810 -0.3765 -0.6257
   46DOPE   C31 5836   3.886   6.586  12.570  0.0447  0.6730  0.2833
   46DOPE   O32 5837   3.768   6.564  12.561  0.2304  0.2453  0.4199
   46DOPE   C32 5838   3.957   6.660  12.678  0.4442 -0.1504  0.4555
   46DOPE   H2X 5839   4.056   6.617  12.706  0.8900 -0.6511 -1.6867
   46DOPE   H2Y 5840   3.971   6.761  12.634  1.8217 -1.3175 -2.0566
   46DOPE   C23 5841   4.347   6.239  12.635  0.1500 -0.2392  0.5178
   46DOPE   H3R 5842   4.426   6.310  12.603  0.4522 -0.9296 -0.3347
   46DOPE   H3S 5843   4.396   6.154  12.689 -1.3406 -1.1941  0.4312
   46DOPE   C24 5844   4.236   6.300  12.732 -1.2486  0.8325  0.5094
   46DOPE   H4R 5845   4.165   6.218  12.753 -1.9805  1.1524 -0.6343
   46DOPE   H4S 5846   4.193   6.388  12.680 -3.5146 -0.8476 -0.6186
   46DOPE   C25 5847   4.283   6.331  12.871 -0.6424 -0.0054 -0.4160
   46DOPE   H5R 5848   4.353   6.417  12.861 -1.0103  0.1652 -1.7319
   46DOPE   H5S 5849   4.345   6.250  12.916 -1.5140 -1.2330 -1.3894
   46DOPE   C26 5850   4.174   6.357  12.978  0.1721 -0.1242  0.4009
   46DOPE   H6R 5851   4.120   6.260  12.980 -0.8700  0.3765 -1.3304
   46DOPE   H6S 5852   4.104   6.430  12.932 -1.7267 -2.8003 -1.3195
   46DOPE   C27 5853   4.212   6.405  13.117  0.2584 -0.0360  0.1521
   46DOPE   H7R 5854   4.240   6.512  13.110  0.0851 -0.0243 -0.4107
   46DOPE   H7S 5855   4.299   6.348  13.155  0.6883 -0.7863 -1.8048
   46DOPE   C28 5856   4.085   6.389  13.213  0.7188 -0.4629 -0.3933
   46DOPE   H8R 5857   3.989   6.431  13.174 -0.0455  0.1900  2.0379
   46DOPE   H8S 5858   4.103   6.443  13.308  0.2658  0.1612 -0.6567
   46DOPE   C29 5859   4.071   6.247  13.256  0.7604  0.4096 -0.0476
   46DOPE   H9R 5860   4.038   6.181  13.174  0.7636  1.0128 -0.5377
   46DOPE  C210 5861   4.105   6.187  13.375 -0.2242 -0.4734 -0.1068
   46DOPE  H10R 5862   4.104   6.077  13.382 -0.2834 -0.4396  0.4890
   46DOPE  C211 5863   4.167   6.274  13.493  0.2251  0.1906  0.3636
   46DOPE  H11R 5864   4.084   6.311  13.557  0.3768 -1.2705  1.4600
   46DOPE  H11S 5865   4.234   6.357  13.463  1.3637 -1.3072 -1.4567
   46DOPE  C212 5866   4.252   6.190  13.579 -0.5874 -0.3957 -0.0154
   46DOPE  H12R 5867   4.340   6.164  13.517 -1.1301 -2.5217  0.0390
   46DOPE  H12S 5868   4.190   6.103  13.609  0.6985 -0.3386  3.1955
   46DOPE  C213 5869   4.289   6.249  13.718  0.0996 -0.9285 -0.2163
   46DOPE  H13R 5870   4.359   6.335  13.703 -2.5245  1.4811  0.3552
   46DOPE  H13S 5871   4.338   6.168  13.774 -1.4642 -1.0029  1.1034
   46DOPE  C214 5872   4.168   6.305  13.793  0.0594  0.1700 -0.8952
   46DOPE  H14R 5873   4.100   6.217  13.797 -0.3645  0.5249  2.3368
   46DOPE  H14S 5874   4.123   6.392  13.740  1.8534  0.4440 -2.0699
   46DOPE  C215 5875   4.197   6.342  13.936  0.4045 -0.6402 -0.4779
   46DOPE  H15R 5876   4.242   6.443  13.942 -0.9603 -0.1152  2.4215
   46DOPE  H15S 5877   4.258   6.265  13.990 -0.8331 -2.1647 -1.1624
   46DOPE  C216 5878   4.063   6.345  14.014 -0.1894 -0.5513  0.0229
   46DOPE  H16R 5879   4.030   6.241  14.033  1.2885 -1.0231  0.1584
   46DOPE  H16S 5880   3.985   6.395  13.953  0.2053 -0.6261 -0.5544
   46DOPE  C217 5881   4.082   6.423  14.140 -0.3680  0.0769 -0.9880
   46DOPE  H17R 5882   4.091   6.532  14.119  0.7655 -0.1105 -1.5475
   46DOPE  H17S 5883   4.174   6.377  14.182  0.5646  0.2884 -2.6960
   46DOPE  C218 5884   3.958   6.414  14.237 -0.1252  0.1790 -0.2983
   46DOPE  H18R 5885   3.984   6.473  14.327 -1.1269 -2.2486  1.7067
   46DOPE  H18S 5886   3.932   6.309  14.262 -0.7591 -0.0473 -1.7856
   46DOPE  H18T 5887   3.868   6.451  14.184  0.6606  3.2433  0.3468
   46DOPE   C33 5888   3.869   6.666  12.799  0.4647  0.9844 -0.1251
   46DOPE   H3X 5889   3.862   6.558  12.827 -2.3614  1.3531  1.0068
   46DOPE   H3Y 5890   3.763   6.690  12.775  0.3500 -0.5782 -1.3650
   46DOPE   C34 5891   3.924   6.741  12.920  0.3814  0.0950 -0.2776
   46DOPE   H4X 5892   4.032   6.713  12.928 -0.3833 -4.2541 -2.2806
   46DOPE   H4Y 5893   3.916   6.850  12.905  0.4021 -0.1490 -2.2969
   46DOPE   C35 5894   3.858   6.691  13.052  0.4440 -0.2529  0.6321
   46DOPE   H5X 5895   3.881   6.583  13.049  0.1153 -0.3185  0.4357
   46DOPE   H5Y 5896   3.749   6.709  13.038  0.9719  1.2593 -2.5698
   46DOPE   C36 5897   3.920   6.761  13.177  0.3666 -0.1529  0.3099
   46DOPE   H6X 5898   3.899   6.870  13.179 -0.6399 -0.2247 -2.0615
   46DOPE   H6Y 5899   4.029   6.738  13.170  0.5650  0.2239  1.9156
   46DOPE   C37 5900   3.845   6.700  13.296 -0.3690  0.0155  0.7536
   46DOPE   H7X 5901   3.737   6.724  13.289 -0.0544  1.2201 -0.4826
   46DOPE   H7Y 5902   3.864   6.591  13.298 -0.2258  0.0526  1.7956
   46DOPE   C38 5903   3.869   6.767  13.433 -0.2451  0.9544  0.5640
   46DOPE   H8X 5904   3.775   6.752  13.491  0.0807  3.5060  1.8734
   46DOPE   H8Y 5905   3.879   6.876  13.416  4.3564  0.6219 -0.2262
   46DOPE   C39 5906   4.000   6.720  13.499 -0.6546 -0.9826  0.2938
   46DOPE   H9X 5907   4.089   6.719  13.435  0.3521 -0.4192  1.6233
   46DOPE  C310 5908   4.010   6.674  13.627 -0.6251 -0.3736 -0.0745
   46DOPE  H10X 5909   4.108   6.641  13.663 -2.2520 -0.1825  5.3436
   46DOPE  C311 5910   3.907   6.660  13.737  0.3031 -0.1711  0.4028
   46DOPE  H11X 5911   3.809   6.681  13.688  0.5881  0.1798 -0.0155
   46DOPE  H11Y 5912   3.911   6.555  13.770 -1.8304  0.1498  1.9319
   46DOPE  C312 5913   3.929   6.764  13.849 -0.0316 -0.4938  0.1153
   46DOPE  H12X 5914   3.918   6.864  13.801  2.1758  0.0323  0.5992
   46DOPE  H12Y 5915   4.032   6.758  13.890 -0.1032 -0.4859  0.2981
   46DOPE  C313 5916   3.831   6.753  13.968  0.5575 -0.0743 -0.2145
   46DOPE  H13X 5917   3.729   6.741  13.924 -0.4578  0.4918  1.8667
   46DOPE  H13Y 5918   3.849   6.659  14.025 -1.2342  0.5255  1.4688
   46DOPE  C314 5919   3.836   6.884  14.039 -0.2547 -0.7050 -0.1134
   46DOPE  H14X 5920   3.799   6.969  13.978 -1.6317 -0.0938  1.5003
   46DOPE  H14Y 5921   3.940   6.914  14.062 -0.5319  0.5279 -0.3881
   46DOPE  C315 5922   3.766   6.872  14.175  0.2985  0.0878  1.0057
   46DOPE  H15X 5923   3.800   6.776  14.220  0.7763 -0.2561 -0.0609
   46DOPE  H15Y 5924   3.659   6.851  14.151  0.6286  0.5455 -1.0173
   46DOPE  C316 5925   3.776   7.003  14.253  0.6031  0.5895  0.8299
   46DOPE  H16X 5926   3.702   7.081  14.225 -1.0885 -0.9295  0.8867
   46DOPE  H16Y 5927   3.875   7.050  14.236  0.6346 -0.2506 -1.6751
   46DOPE  C317 5928   3.744   6.980  14.400 -0.0010  0.1091  0.4675
   46DOPE  H17X 5929   3.644   6.932  14.412  0.9693 -2.1108  0.1468
   46DOPE  H17Y 5930   3.807   6.900  14.444 -1.2857 -1.8557 -1.1085
   46DOPE  C318 5931   3.759   7.115  14.471  0.3064 -0.0952  0.2924
   46DOPE  H18X 5932   3.847   7.172  14.436 -0.5451  3.6212  3.4405
   46DOPE  H18Y 5933   3.666   7.174  14.456  1.0448  0.8780 -0.6388
   46DOPE  H18Z 5934   3.766   7.090  14.579 -0.5814  3.3002  1.2748
   47DOPE     N 5935   2.527   5.911  12.405  0.3669 -0.1203 -0.5567
   47DOPE   HN1 5936   2.491   5.876  12.313  0.2830 -0.0848 -0.5378
   47DOPE   HN2 5937   2.471   5.997  12.421  1.5279  0.3738  1.0092
   47DOPE   HN3 5938   2.628   5.927  12.388  0.3332 -0.5955 -1.2486
   47DOPE   C12 5939   2.502   5.817  12.518 -0.4571  0.2107  0.1095
   47DOPE  H12A 5940   2.576   5.842  12.597  0.2725 -1.3447 -0.0399
   47DOPE  H12B 5941   2.523   5.715  12.479 -0.9592  0.9189 -2.1400
   47DOPE   C11 5942   2.363   5.826  12.575  0.1424 -0.5125  0.3123
   47DOPE  H11A 5943   2.349   5.927  12.619  0.6317 -0.0688 -0.5343
   47DOPE  H11B 5944   2.348   5.767  12.669 -0.5786  0.6034  0.9124
   47DOPE     P 5945   2.208   5.650  12.446  0.0736  0.5638  0.1655
   47DOPE   O13 5946   2.306   5.555  12.395 -0.0912  0.1966 -0.2440
   47DOPE   O14 5947   2.089   5.667  12.360 -0.0734 -0.4033  0.0633
   47DOPE   O11 5948   2.158   5.594  12.581  0.7594  0.7173  0.4076
   47DOPE   O12 5949   2.269   5.793  12.478  0.3978 -0.1502  0.7322
   47DOPE    C1 5950   2.032   5.599  12.640  0.2487 -0.3445  0.3846
   47DOPE    HA 5951   2.023   5.524  12.721 -0.5784  1.1710  1.7623
   47DOPE    HB 5952   1.961   5.561  12.563  4.0437  0.6762 -4.1093
   47DOPE    C2 5953   1.999   5.736  12.699 -0.1603 -0.3004 -0.3084
   47DOPE    HS 5954   2.030   5.808  12.621 -0.0368 -1.7404 -1.6386
   47DOPE   O21 5955   2.074   5.728  12.826  0.3188 -0.3042  0.0810
   47DOPE   C21 5956   2.121   5.833  12.882  0.7933 -0.1136 -0.1892
   47DOPE   O22 5957   2.094   5.950  12.857  0.0811 -0.4132 -0.8794
   47DOPE   C22 5958   2.222   5.778  12.991  0.0815  0.2159 -0.4073
   47DOPE   H2R 5959   2.309   5.727  12.946  0.5013  0.0389  0.5692
   47DOPE   H2S 5960   2.175   5.700  13.055 -1.7331  1.1175 -0.5878
   47DOPE    C3 5961   1.843   5.758  12.725 -0.0699 -0.2020  0.1240
   47DOPE    HX 5962   1.808   5.669  12.781 -0.8976  1.4635  2.3885
   47DOPE    HY 5963   1.788   5.758  12.629 -0.8527  1.4784  0.5419
   47DOPE   O31 5964   1.810   5.862  12.817 -0.0897 -0.3588 -0.1660
   47DOPE   C31 5965   1.824   5.979  12.754  0.0582 -0.2310 -0.4707
   47DOPE   O32 5966   1.856   5.993  12.640  0.0744  0.3134  0.0732
   47DOPE   C32 5967   1.780   6.092  12.849  0.1795 -0.2113 -0.5955
   47DOPE   H2X 5968   1.835   6.178  12.804  3.0217 -1.5707  0.0333
   47DOPE   H2Y 5969   1.674   6.098  12.818 -0.3330  1.1974  1.2824
   47DOPE   C23 5970   2.272   5.887  13.099  0.9773  0.0796  0.5895
   47DOPE   H3R 5971   2.259   5.993  13.065  1.2076  0.4304  1.5700
   47DOPE   H3S 5972   2.378   5.861  13.119  0.7323 -2.6825 -1.1148
   47DOPE   C24 5973   2.183   5.882  13.222  0.0473 -0.0221  0.1328
   47DOPE   H4R 5974   2.173   5.778  13.259 -1.3363 -0.2815 -0.8785
   47DOPE   H4S 5975   2.079   5.903  13.189 -0.3348 -1.5219  0.2871
   47DOPE   C25 5976   2.228   5.990  13.331 -0.6592  0.1561 -0.0533
   47DOPE   H5R 5977   2.209   6.089  13.284 -1.9235  0.7938  1.6838
   47DOPE   H5S 5978   2.337   5.978  13.352 -0.2665  0.5086 -1.7907
   47DOPE   C26 5979   2.147   5.978  13.460  0.2175  0.4161  0.4035
   47DOPE   H6R 5980   2.135   5.871  13.487 -0.3554  0.2285 -0.5418
   47DOPE   H6S 5981   2.046   6.024  13.452 -0.8035 -1.5248  1.6124
   47DOPE   C27 5982   2.213   6.047  13.578 -0.3131 -0.0076  0.2450
   47DOPE   H7R 5983   2.215   6.153  13.545  1.7140  0.6036  2.0768
   47DOPE   H7S 5984   2.321   6.020  13.587 -0.3646  0.4406  4.0005
   47DOPE   C28 5985   2.139   6.025  13.712  0.1975  0.2094  0.0640
   47DOPE   H8R 5986   2.125   5.915  13.722 -0.8137  0.5277  3.5046
   47DOPE   H8S 5987   2.045   6.079  13.692 -0.1225 -0.2691  0.2638
   47DOPE   C29 5988   2.214   6.073  13.831 -0.0430 -0.1086 -0.9742
   47DOPE   H9R 5989   2.323   6.081  13.817  0.1967  1.4182  1.3226
   47DOPE  C210 5990   2.148   6.121  13.944 -0.2186 -0.3953  0.0102
   47DOPE  H10R 5991   2.199   6.154  14.036 -3.2743  0.7497  1.4323
   47DOPE  C211 5992   1.992   6.121  13.959 -0.3563 -0.1247 -0.4032
   47DOPE  H11R 5993   1.973   6.057  14.048 -1.3032  1.5311  0.6361
   47DOPE  H11S 5994   1.949   6.057  13.879  1.6918 -2.4090  0.1918
   47DOPE  C212 5995   1.909   6.250  13.980 -0.2146  0.1150  0.2448
   47DOPE  H12R 5996   1.933   6.322  13.899  1.4901  0.3565  0.9177
   47DOPE  H12S 5997   1.951   6.282  14.077  0.3940 -0.4830  0.1870
   47DOPE  C213 5998   1.760   6.222  13.997  0.3589 -0.3590 -0.5025
   47DOPE  H13R 5999   1.719   6.195  13.897  0.1537 -1.5312 -0.1143
   47DOPE  H13S 6000   1.728   6.322  14.031  4.1739  1.0116 -0.4727
   47DOPE  C214 6001   1.718   6.112  14.104 -0.2411 -0.4736 -0.5654
   47DOPE  H14R 6002   1.758   6.019  14.059 -4.2957 -2.6394 -0.1728
   47DOPE  H14S 6003   1.607   6.115  14.105 -0.2789  3.2725  1.3558
   47DOPE  C215 6004   1.771   6.147  14.249 -0.1118  1.0450 -0.4623
   47DOPE  H15R 6005   1.882   6.146  14.244 -0.0577 -0.4236  0.4533
   47DOPE  H15S 6006   1.734   6.064  14.314  1.4111  0.3518 -0.4396
   47DOPE  C216 6007   1.714   6.277  14.310  0.0166  0.7452 -0.2025
   47DOPE  H16R 6008   1.603   6.267  14.308  0.0052  0.9049 -1.3796
   47DOPE  H16S 6009   1.738   6.363  14.244  2.8795  0.9664  1.0041
   47DOPE  C217 6010   1.742   6.300  14.457  0.1764  0.3018  0.7221
   47DOPE  H17R 6011   1.738   6.195  14.494 -1.5968  0.1603  0.2292
   47DOPE  H17S 6012   1.650   6.341  14.505 -1.0306  0.0700 -1.2717
   47DOPE  C218 6013   1.866   6.374  14.492 -0.1857 -0.7207 -0.0129
   47DOPE  H18R 6014   1.949   6.351  14.423  1.4699  0.4304  1.5105
   47DOPE  H18S 6015   1.894   6.338  14.593 -0.6757 -2.6292 -0.5142
   47DOPE  H18T 6016   1.844   6.483  14.499  0.5252 -0.6119  0.5987
   47DOPE   C33 6017   1.803   6.071  12.998 -0.2710  0.4126 -0.2354
   47DOPE   H3X 6018   1.910   6.048  13.018  0.0586  1.4874 -0.6951
   47DOPE   H3Y 6019   1.738   5.984  13.025 -0.7529  1.0533  0.7245
   47DOPE   C34 6020   1.766   6.194  13.088  0.1014  0.1959  0.7819
   47DOPE   H4X 6021   1.828   6.277  13.048  1.4196 -0.3768  1.5543
   47DOPE   H4Y 6022   1.659   6.224  13.080 -0.5213 -2.2972 -2.0077
   47DOPE   C35 6023   1.790   6.169  13.243 -0.0554  0.5070 -0.6050
   47DOPE   H5X 6024   1.790   6.268  13.295 -1.8859  0.4802 -0.4940
   47DOPE   H5Y 6025   1.892   6.127  13.260 -0.5536 -0.9723 -1.1286
   47DOPE   C36 6026   1.687   6.079  13.303 -0.7450  0.5157 -0.7310
   47DOPE   H6X 6027   1.669   5.984  13.247 -0.5690  0.7300 -1.1582
   47DOPE   H6Y 6028   1.590   6.133  13.290 -1.5789 -0.3631  1.3828
   47DOPE   C37 6029   1.716   6.051  13.450  0.9755 -0.2568  0.0415
   47DOPE   H7X 6030   1.817   6.006  13.461  2.4710  2.4587 -1.5436
   47DOPE   H7Y 6031   1.704   6.144  13.510 -3.3067 -0.3100 -0.4352
   47DOPE   C38 6032   1.607   5.964  13.505 -0.0717 -0.4569 -0.5047
   47DOPE   H8X 6033   1.588   5.878  13.438  2.9435 -0.3100 -1.6638
   47DOPE   H8Y 6034   1.515   6.025  13.491 -0.7051 -1.6846 -1.9849
   47DOPE   C39 6035   1.613   5.908  13.645  0.3940  0.2356  0.6438
   47DOPE   H9X 6036   1.714   5.875  13.674 -0.7092 -3.0756  1.1321
   47DOPE  C310 6037   1.521   5.910  13.739 -0.1048  0.4273  0.2382
   47DOPE  H10X 6038   1.540   5.847  13.828  2.1847 -0.6442 -0.9124
   47DOPE  C311 6039   1.375   5.950  13.728 -0.4852  0.8134  0.4158
   47DOPE  H11X 6040   1.357   6.037  13.662  0.6062 -1.0400 -2.5415
   47DOPE  H11Y 6041   1.326   5.859  13.687  0.5325  0.8850 -1.0583
   47DOPE  C312 6042   1.334   5.988  13.873  0.2845 -0.0148  0.3374
   47DOPE  H12X 6043   1.406   6.059  13.918  1.3062 -1.4089  1.0018
   47DOPE  H12Y 6044   1.338   5.896  13.936  1.5808  0.5296  1.0961
   47DOPE  C313 6045   1.199   6.057  13.880 -0.0162  0.4651  0.2532
   47DOPE  H13X 6046   1.199   6.148  13.816  1.1230  1.1184  1.1374
   47DOPE  H13Y 6047   1.125   5.986  13.839 -1.6485  1.0987  1.9324
   47DOPE  C314 6048   1.151   6.075  14.020  0.0955 -0.1536 -0.7765
   47DOPE  H14X 6049   1.216   6.150  14.070  0.5893  0.8244 -2.7634
   47DOPE  H14Y 6050   1.164   5.979  14.074  1.4498  1.5385  2.1502
   47DOPE  C315 6051   1.007   6.136  14.015 -0.2940  0.2072 -0.3174
   47DOPE  H15X 6052   0.933   6.068  13.968  0.0447 -0.1946 -0.2719
   47DOPE  H15Y 6053   1.009   6.234  13.964 -0.8915  0.4038  0.0152
   47DOPE  C316 6054   0.946   6.168  14.156 -0.6714  0.2041  0.3515
   47DOPE  H16X 6055   1.033   6.218  14.204  1.2714 -1.0179 -1.6778
   47DOPE  H16Y 6056   0.916   6.070  14.200  0.0270 -1.2815 -2.2527
   47DOPE  C317 6057   0.829   6.257  14.142 -0.6903 -0.6561  0.2339
   47DOPE  H17X 6058   0.865   6.357  14.109  0.0095 -0.0684  2.5355
   47DOPE  H17Y 6059   0.765   6.216  14.061 -3.0083  0.0064  1.6264
   47DOPE  C318 6060   0.752   6.260  14.270 -0.1970 -0.2574  0.0548
   47DOPE  H18X 6061   0.698   6.164  14.286  3.6081 -2.6860 -0.2998
   47DOPE  H18Y 6062   0.821   6.264  14.356 -1.1496 -0.7270  0.8630
   47DOPE  H18Z 6063   0.682   6.346  14.283 -0.4217 -0.6496  1.5743
   48DOPE     N 6064   0.425   3.418  11.620 -0.0593 -0.2371  0.1280
   48DOPE   HN1 6065   0.465   3.464  11.536  1.0774 -0.0254  0.7661
   48DOPE   HN2 6066   0.499   3.410  11.693  0.7022  1.7957 -0.3417
   48DOPE   HN3 6067   0.392   3.322  11.600 -1.6370 -0.4754  3.2271
   48DOPE   C12 6068   0.330   3.514  11.677  0.4115  0.3448  0.6395
   48DOPE  H12A 6069   0.242   3.526  11.610  1.6092 -2.1351 -1.5561
   48DOPE  H12B 6070   0.368   3.618  11.688 -0.7432  1.0019 -1.0842
   48DOPE   C11 6071   0.277   3.461  11.812 -0.7293  0.3484  0.0066
   48DOPE  H11A 6072   0.180   3.508  11.841 -0.9355  1.0347 -1.7163
   48DOPE  H11B 6073   0.355   3.480  11.888  0.4487  0.8731 -1.3079
   48DOPE     P 6074   0.138   3.246  11.879 -0.1987  0.0878 -0.0840
   48DOPE   O13 6075   0.181   3.111  11.922 -0.5151  0.1592 -0.2515
   48DOPE   O14 6076   0.017   3.247  11.799 -0.2058 -0.0174 -0.2547
   48DOPE   O11 6077   0.120   3.335  12.008  0.1917  0.1481  0.3257
   48DOPE   O12 6078   0.249   3.318  11.802 -0.0619 -0.1624  0.1218
   48DOPE    C1 6079  -0.004   3.397  12.049  0.2416 -0.7507  0.2800
   48DOPE    HA 6080  -0.082   3.390  11.970  2.5388 -1.4385 -2.0647
   48DOPE    HB 6081   0.016   3.506  12.060 -0.6360 -0.6139  0.6201
   48DOPE    C2 6082  -0.068   3.329  12.176  0.1769 -0.3920 -0.6238
   48DOPE    HS 6083  -0.163   3.379  12.203  0.0104 -0.2337 -1.4507
   48DOPE   O21 6084   0.037   3.328  12.278 -0.1556  0.9200  0.3271
   48DOPE   C21 6085   0.045   3.433  12.356 -0.0551  0.4296  0.1515
   48DOPE   O22 6086  -0.021   3.535  12.342  0.0611 -0.1952  0.4877
   48DOPE   C22 6087   0.149   3.414  12.472  0.0133  0.4855 -0.0603
   48DOPE   H2R 6088   0.249   3.457  12.448  0.0058  0.6950  0.2841
   48DOPE   H2S 6089   0.146   3.304  12.490 -1.2680 -0.0815 -3.0973
   48DOPE    C3 6090  -0.115   3.186  12.145  0.5031 -0.1272  0.1031
   48DOPE    HX 6091  -0.022   3.137  12.108  0.1783 -0.8073  0.1656
   48DOPE    HY 6092  -0.188   3.197  12.062  1.1313  1.3697 -0.2784
   48DOPE   O31 6093  -0.172   3.118  12.267  0.6225 -0.4250  0.4923
   48DOPE   C31 6094  -0.095   3.041  12.327  0.5332  0.0880  0.8547
   48DOPE   O32 6095   0.004   2.992  12.285 -0.3569 -0.5741  0.6530
   48DOPE   C32 6096  -0.139   3.020  12.477  0.0686 -0.4762  0.2747
   48DOPE   H2X 6097  -0.132   3.122  12.521  2.9452  0.2002 -1.4522
   48DOPE   H2Y 6098  -0.246   2.991  12.478 -0.2187  0.5038  1.9902
   48DOPE   C23 6099   0.086   3.476  12.599 -0.7101 -0.0905  0.3137
   48DOPE   H3R 6100  -0.022   3.455  12.612 -0.9993 -1.0225 -2.8125
   48DOPE   H3S 6101   0.083   3.587  12.595 -0.8860 -0.1233 -1.4588
   48DOPE   C24 6102   0.142   3.429  12.741  0.3979 -0.0305 -0.2584
   48DOPE   H4R 6103   0.241   3.472  12.770  0.3140 -1.5204  2.5767
   48DOPE   H4S 6104   0.157   3.319  12.739  1.3841  0.0540  1.0029
   48DOPE   C25 6105   0.056   3.463  12.864 -0.2616 -0.4380 -0.3686
   48DOPE   H5R 6106  -0.044   3.414  12.862 -1.0929  1.0966  1.3155
   48DOPE   H5S 6107   0.049   3.572  12.879  0.7837 -0.6513  2.1513
   48DOPE   C26 6108   0.110   3.387  12.992 -0.4967  0.2030 -0.1655
   48DOPE   H6R 6109   0.220   3.377  12.990 -0.7272 -3.8048 -2.0007
   48DOPE   H6S 6110   0.078   3.281  12.997  1.0686 -0.2198  2.5662
   48DOPE   C27 6111   0.060   3.470  13.115 -0.1115  0.5135  0.5397
   48DOPE   H7R 6112  -0.043   3.506  13.094 -0.4343 -1.3746 -1.5310
   48DOPE   H7S 6113   0.119   3.563  13.126  1.6101 -0.5230  0.4080
   48DOPE   C28 6114   0.063   3.387  13.239  0.2867  0.3633  0.1071
   48DOPE   H8R 6115   0.167   3.367  13.271 -0.2571 -0.7552  1.2441
   48DOPE   H8S 6116   0.021   3.286  13.219  0.8015  0.2323 -0.3567
   48DOPE   C29 6117   0.007   3.447  13.363  0.1747  0.0999  0.2580
   48DOPE   H9R 6118  -0.074   3.520  13.347  0.7741  0.8913  0.7554
   48DOPE  C210 6119   0.055   3.436  13.494  0.1099  0.9420 -0.1119
   48DOPE  H10R 6120  -0.009   3.475  13.574 -1.7159  2.1126 -2.0526
   48DOPE  C211 6121   0.174   3.350  13.537 -0.8061  0.5476 -0.1764
   48DOPE  H11R 6122   0.271   3.402  13.533 -0.9650  1.3863  3.4425
   48DOPE  H11S 6123   0.183   3.263  13.468 -2.2297  0.3416 -0.1481
   48DOPE  C212 6124   0.169   3.286  13.674 -0.2949 -0.2237  0.3448
   48DOPE  H12R 6125   0.248   3.208  13.678 -3.3695 -3.5639  2.3988
   48DOPE  H12S 6126   0.074   3.236  13.704  0.1820 -0.6447  1.1746
   48DOPE  C213 6127   0.195   3.387  13.782 -0.1447 -0.0581  0.0744
   48DOPE  H13R 6128   0.110   3.459  13.782 -0.9202 -0.8953 -2.0529
   48DOPE  H13S 6129   0.288   3.444  13.762 -0.9816  0.5209 -2.5303
   48DOPE  C214 6130   0.211   3.325  13.922  0.2906 -0.5383 -0.1078
   48DOPE  H14R 6131   0.298   3.255  13.917  0.8889  0.1244  0.7387
   48DOPE  H14S 6132   0.122   3.268  13.955  1.0935 -1.5215  0.4350
   48DOPE  C215 6133   0.248   3.428  14.026 -0.8278 -0.0440  0.2093
   48DOPE  H15R 6134   0.166   3.503  14.030 -2.4061 -1.7179  0.4162
   48DOPE  H15S 6135   0.348   3.473  14.008 -0.4636 -0.7225  0.4875
   48DOPE  C216 6136   0.256   3.364  14.161  0.1305 -0.0804 -0.1466
   48DOPE  H16R 6137   0.340   3.293  14.166  1.1868  0.8363 -2.8731
   48DOPE  H16S 6138   0.162   3.310  14.187 -0.8648  1.3248 -0.6927
   48DOPE  C217 6139   0.274   3.474  14.264 -0.5599 -0.2388 -1.0461
   48DOPE  H17R 6140   0.174   3.518  14.284 -1.4188 -2.1959 -0.7618
   48DOPE  H17S 6141   0.333   3.556  14.218 -1.3798  0.3169 -1.1306
   48DOPE  C218 6142   0.339   3.442  14.404 -0.7320 -0.4528 -0.1548
   48DOPE  H18R 6143   0.358   3.537  14.459 -1.0038  1.5072 -3.1502
   48DOPE  H18S 6144   0.435   3.389  14.389 -0.2635  0.7558 -1.7170
   48DOPE  H18T 6145   0.273   3.382  14.469  2.0981 -1.6039  1.8332
   48DOPE   C33 6146  -0.046   2.917  12.534  0.4010  0.0469  0.2222
   48DOPE   H3X 6147   0.060   2.950  12.528  0.4570 -0.0808  0.4860
   48DOPE   H3Y 6148  -0.048   2.826  12.469 -0.6705 -0.2623  0.6613
   48DOPE   C34 6149  -0.094   2.872  12.673 -0.0373  0.0942  0.0741
   48DOPE   H4X 6150  -0.185   2.819  12.638  0.2004 -0.1571 -0.1659
   48DOPE   H4Y 6151  -0.018   2.798  12.706  1.3807  0.5964 -1.8930
   48DOPE   C35 6152  -0.126   2.980  12.783 -0.1515  0.1575  0.2809
   48DOPE   H5X 6153  -0.192   3.057  12.738 -1.1643 -0.9726 -0.2493
   48DOPE   H5Y 6154  -0.033   3.019  12.828 -0.0471 -1.0656  1.1702
   48DOPE   C36 6155  -0.200   2.909  12.900 -0.0519  1.0911  0.2252
   48DOPE   H6X 6156  -0.131   2.836  12.949 -1.0759 -0.3692 -0.4227
   48DOPE   H6Y 6157  -0.281   2.853  12.848  1.5310  0.3781 -1.6153
   48DOPE   C37 6158  -0.253   3.008  13.004 -0.2507 -0.3058  0.5560
   48DOPE   H7X 6159  -0.324   3.070  12.945  1.9668  1.3901 -0.4788
   48DOPE   H7Y 6160  -0.311   2.956  13.083  0.2108 -0.5782  0.7180
   48DOPE   C38 6161  -0.142   3.097  13.071  0.0243 -0.5071  0.6377
   48DOPE   H8X 6162  -0.191   3.176  13.132 -2.1512 -1.0963 -0.2561
   48DOPE   H8Y 6163  -0.099   3.160  12.990 -0.4937  0.2539  0.9397
   48DOPE   C39 6164  -0.033   3.019  13.141  0.1799 -0.1766 -0.8916
   48DOPE   H9X 6165   0.037   2.984  13.064 -0.4955  1.9868 -2.5895
   48DOPE  C310 6166  -0.009   3.007  13.274 -0.9549 -0.0505  0.0383
   48DOPE  H10X 6167   0.079   2.950  13.307 -2.3911 -4.4849 -2.8772
   48DOPE  C311 6168  -0.096   3.065  13.376  0.7185 -0.5451 -0.4796
   48DOPE  H11X 6169  -0.026   3.113  13.447 -0.3779  2.7530 -1.4286
   48DOPE  H11Y 6170  -0.155   3.150  13.334  1.8129  0.7295  0.4900
   48DOPE  C312 6171  -0.195   2.970  13.453  0.3298 -0.2885  0.5488
   48DOPE  H12X 6172  -0.261   2.902  13.396 -0.2038  0.6511  0.0291
   48DOPE  H12Y 6173  -0.252   3.028  13.528  0.2226 -1.2316  1.2085
   48DOPE  C313 6174  -0.118   2.863  13.537 -0.5882  0.6696 -0.4907
   48DOPE  H13X 6175  -0.191   2.810  13.601 -0.3620 -1.0871 -1.6181
   48DOPE  H13Y 6176  -0.063   2.787  13.477 -1.6499 -1.5048  1.1487
   48DOPE  C314 6177  -0.022   2.922  13.640 -0.2115  0.0160 -0.2748
   48DOPE  H14X 6178  -0.061   3.004  13.704  1.2621  0.7576 -0.2865
   48DOPE  H14Y 6179   0.064   2.957  13.580  0.3020 -0.4210  0.1873
   48DOPE  C315 6180   0.059   2.815  13.721 -0.3997 -0.1843  0.0524
   48DOPE  H15X 6181   0.109   2.754  13.643  0.5266 -0.1762  0.6168
   48DOPE  H15Y 6182  -0.011   2.740  13.764 -1.7192 -0.3967 -2.2985
   48DOPE  C316 6183   0.157   2.886  13.815  0.0705  0.1251  0.4153
   48DOPE  H16X 6184   0.102   2.940  13.894  0.5631 -0.6810  1.3289
   48DOPE  H16Y 6185   0.215   2.958  13.753  0.8520 -0.8603 -0.0251
   48DOPE  C317 6186   0.249   2.791  13.885 -0.8260  0.7501 -0.1358
   48DOPE  H17X 6187   0.322   2.751  13.810  1.0715 -0.5176  2.2501
   48DOPE  H17Y 6188   0.320   2.836  13.958 -1.3484  0.8944  0.2833
   48DOPE  C318 6189   0.184   2.672  13.958 -0.4016 -0.2822 -0.3747
   48DOPE  H18X 6190   0.116   2.704  14.040  0.6011  0.4245  0.2019
   48DOPE  H18Y 6191   0.130   2.609  13.885  1.0078 -1.4319 -0.4687
   48DOPE  H18Z 6192   0.272   2.614  13.993  0.1653 -0.1585 -1.5273
   49DOPE     N 6193   1.425   4.916  11.905  0.1756 -0.4448  0.3353
   49DOPE   HN1 6194   1.352   4.918  11.831  1.1866  1.6709 -0.6786
   49DOPE   HN2 6195   1.518   4.894  11.866  0.3784 -0.2822  0.7240
   49DOPE   HN3 6196   1.394   4.845  11.975  0.8787 -0.3309  0.7697
   49DOPE   C12 6197   1.433   5.058  11.952 -0.2263 -0.1618 -0.2794
   49DOPE  H12A 6198   1.476   5.069  12.054  1.4177  0.1794 -0.9714
   49DOPE  H12B 6199   1.333   5.104  11.939  1.0490  2.7009 -0.6844
   49DOPE   C11 6200   1.535   5.131  11.860 -0.7043  0.6775 -0.3230
   49DOPE  H11A 6201   1.520   5.115  11.751  2.9751  0.9537 -0.9975
   49DOPE  H11B 6202   1.641   5.096  11.865 -0.2426  1.9340 -1.0046
   49DOPE     P 6203   1.651   5.342  11.969 -0.4957 -0.1685  0.0237
   49DOPE   O13 6204   1.637   5.487  11.947  0.5794  0.3132  0.7787
   49DOPE   O14 6205   1.779   5.275  11.940 -0.5021 -0.4998  0.1415
   49DOPE   O11 6206   1.599   5.311  12.116  0.0670 -0.2544 -0.2664
   49DOPE   O12 6207   1.536   5.269  11.883  0.1390 -0.0036 -0.2559
   49DOPE    C1 6208   1.484   5.380  12.156  0.2375 -0.0348  0.0162
   49DOPE    HA 6209   1.406   5.317  12.204 -0.9091 -0.6848 -2.5460
   49DOPE    HB 6210   1.426   5.430  12.076 -2.4746 -0.6097  1.5162
   49DOPE    C2 6211   1.521   5.488  12.257 -0.4679 -0.8695 -0.0424
   49DOPE    HS 6212   1.618   5.529  12.222 -0.3022 -1.1683  0.0715
   49DOPE   O21 6213   1.534   5.428  12.387  0.1225 -0.0707  0.3999
   49DOPE   C21 6214   1.621   5.490  12.465 -0.3653 -0.1205  0.1848
   49DOPE   O22 6215   1.687   5.586  12.431 -1.0571  0.3345 -0.1635
   49DOPE   C22 6216   1.643   5.420  12.598 -0.5801  0.8454 -0.5166
   49DOPE   H2R 6217   1.753   5.416  12.608 -0.3106  0.5654 -2.9396
   49DOPE   H2S 6218   1.606   5.317  12.584  0.6968  0.4782 -1.3371
   49DOPE    C3 6219   1.412   5.600  12.254 -0.3456  0.5942 -0.0052
   49DOPE    HX 6220   1.314   5.549  12.265 -0.0699 -0.1081 -0.6992
   49DOPE    HY 6221   1.430   5.653  12.159 -1.0824  0.3529 -0.2886
   49DOPE   O31 6222   1.430   5.700  12.359  0.2600 -0.1431 -0.4568
   49DOPE   C31 6223   1.494   5.809  12.331 -0.0065 -0.3008 -0.2794
   49DOPE   O32 6224   1.547   5.837  12.222 -0.0385  0.3108 -0.1856
   49DOPE   C32 6225   1.490   5.914  12.439  0.0290  0.0106 -0.2208
   49DOPE   H2X 6226   1.595   5.950  12.450 -0.2992  0.2210  4.0736
   49DOPE   H2Y 6227   1.431   6.000  12.402  0.1033  0.7169  1.2406
   49DOPE   C23 6228   1.567   5.494  12.709  0.1904 -0.4531  0.5889
   49DOPE   H3R 6229   1.553   5.601  12.684 -1.5160 -0.9590 -0.8139
   49DOPE   H3S 6230   1.632   5.514  12.796  1.7390 -0.4817 -0.5257
   49DOPE   C24 6231   1.435   5.424  12.747  0.7085  0.4458  0.1597
   49DOPE   H4R 6232   1.468   5.327  12.788  1.4781  0.6150 -0.0362
   49DOPE   H4S 6233   1.376   5.406  12.655  1.3530 -0.8234 -0.0309
   49DOPE   C25 6234   1.350   5.514  12.835 -0.1658 -0.4613 -0.6596
   49DOPE   H5R 6235   1.265   5.451  12.867 -2.0914  2.0024 -0.6394
   49DOPE   H5S 6236   1.308   5.602  12.782 -0.0358  0.9910  1.5231
   49DOPE   C26 6237   1.428   5.571  12.951 -0.0066 -0.0493  0.5498
   49DOPE   H6R 6238   1.479   5.667  12.928 -0.0447 -0.0659  0.3927
   49DOPE   H6S 6239   1.511   5.506  12.987  0.1057  0.6768  1.6211
   49DOPE   C27 6240   1.343   5.599  13.076 -0.3953 -0.3022 -0.1689
   49DOPE   H7R 6241   1.269   5.518  13.098  0.4107 -0.5244  1.9842
   49DOPE   H7S 6242   1.276   5.686  13.057  1.4317  1.7684  2.2122
   49DOPE   C28 6243   1.410   5.654  13.199 -0.0591 -0.0250 -0.8628
   49DOPE   H8R 6244   1.354   5.711  13.275  1.3952  0.7229 -0.3043
   49DOPE   H8S 6245   1.487   5.727  13.165 -0.4995  0.5728 -0.5979
   49DOPE   C29 6246   1.472   5.542  13.282 -0.3391 -0.5697  1.2775
   49DOPE   H9R 6247   1.531   5.466  13.228 -1.9226 -2.5863  2.2696
   49DOPE  C210 6248   1.458   5.514  13.412 -0.0394 -0.3308 -0.9645
   49DOPE  H10R 6249   1.530   5.447  13.460  0.3727  0.8987  0.2082
   49DOPE  C211 6250   1.377   5.606  13.514 -1.1595  0.4940  0.7965
   49DOPE  H11R 6251   1.305   5.663  13.450 -0.0563  0.4938 -0.5017
   49DOPE  H11S 6252   1.448   5.677  13.561 -0.5316  1.2117 -1.1045
   49DOPE  C212 6253   1.297   5.525  13.615 -0.6722  0.2519  0.0468
   49DOPE  H12R 6254   1.218   5.467  13.564  0.8408 -2.9227  1.0242
   49DOPE  H12S 6255   1.260   5.601  13.688 -2.0606  1.1790 -1.5562
   49DOPE  C213 6256   1.388   5.422  13.703 -0.0626  0.2264 -0.2692
   49DOPE  H13R 6257   1.483   5.474  13.726  0.6697 -0.9424 -0.5369
   49DOPE  H13S 6258   1.404   5.334  13.636 -1.9290  0.1788 -0.7036
   49DOPE  C214 6259   1.311   5.397  13.836 -0.5737 -0.0883 -0.4004
   49DOPE  H14R 6260   1.296   5.289  13.854 -1.1484 -0.4730 -2.8358
   49DOPE  H14S 6261   1.212   5.448  13.841  0.7804  2.6043  1.6696
   49DOPE  C215 6262   1.383   5.442  13.960 -0.4415  0.5157 -0.3494
   49DOPE  H15R 6263   1.488   5.406  13.956 -1.3853 -2.9883  2.0765
   49DOPE  H15S 6264   1.344   5.391  14.050  1.7530  2.0286  1.5900
   49DOPE  C216 6265   1.379   5.597  13.987 -0.2979 -0.0553  0.4093
   49DOPE  H16R 6266   1.282   5.621  13.939 -0.3332  0.0489  0.5317
   49DOPE  H16S 6267   1.463   5.640  13.929 -1.0573  0.5301 -0.2759
   49DOPE  C217 6268   1.384   5.663  14.125  0.4378  0.5502 -0.2717
   49DOPE  H17R 6269   1.353   5.769  14.117 -2.2245  0.0164  1.7563
   49DOPE  H17S 6270   1.486   5.662  14.169 -0.6765  0.0441  2.5490
   49DOPE  C218 6271   1.301   5.596  14.236  0.2213 -0.8322  0.4793
   49DOPE  H18R 6272   1.316   5.648  14.333 -0.8690  1.0552 -0.3279
   49DOPE  H18S 6273   1.308   5.485  14.248 -0.1665 -0.7729  1.3583
   49DOPE  H18T 6274   1.193   5.602  14.214  0.0234 -0.7857  1.4069
   49DOPE   C33 6275   1.442   5.861  12.577  0.2559  0.4209  0.2240
   49DOPE   H3X 6276   1.520   5.792  12.616 -1.3433 -0.1702  2.5669
   49DOPE   H3Y 6277   1.348   5.803  12.576 -0.2550  1.1716  1.7208
   49DOPE   C34 6278   1.424   5.976  12.680 -0.1538 -0.4652 -0.3942
   49DOPE   H4X 6279   1.511   6.042  12.661  1.0819 -1.7161  0.7204
   49DOPE   H4Y 6280   1.334   6.032  12.648 -0.3450 -0.8374 -0.5170
   49DOPE   C35 6281   1.412   5.922  12.822 -0.5084 -0.0317 -0.0707
   49DOPE   H5X 6282   1.509   5.881  12.858 -0.9383 -0.5214  0.5441
   49DOPE   H5Y 6283   1.343   5.836  12.826  0.2898 -0.6545  0.8434
   49DOPE   C36 6284   1.357   6.027  12.922 -0.3754 -0.4932  0.9470
   49DOPE   H6X 6285   1.248   6.034  12.903 -0.1866  2.4199  0.5046
   49DOPE   H6Y 6286   1.415   6.121  12.909  0.3473 -0.8975  1.1866
   49DOPE   C37 6287   1.383   5.980  13.063  0.4980  0.4050  0.1392
   49DOPE   H7X 6288   1.318   5.893  13.085 -2.2330  2.5693  1.3649
   49DOPE   H7Y 6289   1.488   5.948  13.080  0.2963 -0.2208  0.2155
   49DOPE   C38 6290   1.341   6.084  13.171  0.0707 -0.7067  0.3414
   49DOPE   H8X 6291   1.400   6.178  13.163 -0.0053 -0.7911 -1.8376
   49DOPE   H8Y 6292   1.371   6.040  13.269  1.1829  0.6331  0.6338
   49DOPE   C39 6293   1.194   6.102  13.154  0.1615 -0.1417 -0.1875
   49DOPE   H9X 6294   1.161   6.153  13.062  0.3842  1.1056  0.4014
   49DOPE  C310 6295   1.103   6.091  13.254 -0.8501  0.7270 -0.9663
   49DOPE  H10X 6296   0.996   6.094  13.232 -1.7731  3.4365  2.8746
   49DOPE  C311 6297   1.135   6.049  13.400 -0.5149 -0.1955  0.5509
   49DOPE  H11X 6298   1.145   5.938  13.409 -0.1376 -0.1537  0.6700
   49DOPE  H11Y 6299   1.238   6.081  13.428 -0.7326 -0.1268  1.2830
   49DOPE  C312 6300   1.028   6.094  13.505  0.4741  0.2021 -0.0193
   49DOPE  H12X 6301   1.049   6.026  13.591  0.0246 -0.9696 -0.8114
   49DOPE  H12Y 6302   0.931   6.052  13.471  0.1051  1.1390 -0.1297
   49DOPE  C313 6303   1.026   6.244  13.521 -0.3042 -0.9502 -0.3397
   49DOPE  H13X 6304   1.126   6.292  13.528 -1.6473  2.2422 -1.4245
   49DOPE  H13Y 6305   0.963   6.301  13.451  1.0475  1.2669  0.1614
   49DOPE  C314 6306   0.971   6.282  13.654  0.0398 -0.3173 -0.8880
   49DOPE  H14X 6307   1.036   6.250  13.739  1.1083 -1.2720 -2.0148
   49DOPE  H14Y 6308   0.878   6.223  13.670  0.6877 -0.8826  1.1397
   49DOPE  C315 6309   0.934   6.429  13.661 -0.1004  0.3621 -0.0060
   49DOPE  H15X 6310   0.854   6.450  13.587 -1.3126 -0.2112  1.0971
   49DOPE  H15Y 6311   1.015   6.503  13.641 -1.0833  1.0418 -1.6671
   49DOPE  C316 6312   0.870   6.470  13.798  0.0219 -0.4636 -0.2495
   49DOPE  H16X 6313   0.937   6.442  13.882 -1.2149 -0.7592  0.6652
   49DOPE  H16Y 6314   0.773   6.417  13.809  0.2258 -1.4329 -2.6766
   49DOPE  C317 6315   0.850   6.625  13.806 -0.3785  0.2063  0.1938
   49DOPE  H17X 6316   0.946   6.678  13.817  0.3213 -0.6360 -1.4520
   49DOPE  H17Y 6317   0.818   6.651  13.703  2.0111 -0.4424 -0.7809
   49DOPE  C318 6318   0.744   6.662  13.909 -0.6812 -0.1133 -0.8467
   49DOPE  H18X 6319   0.646   6.620  13.876 -1.1426  0.0080  0.2980
   49DOPE  H18Y 6320   0.766   6.620  14.010 -1.1594  0.4350 -0.5133
   49DOPE  H18Z 6321   0.734   6.772  13.898  1.3626  0.0958 -0.9502
   50DOPE     N 6322   3.276   4.550  12.640  0.6251  0.6195  0.0794
   50DOPE   HN1 6323   3.247   4.536  12.541  0.1704  0.3800  0.2462
   50DOPE   HN2 6324   3.362   4.608  12.648  1.2203 -0.2251 -0.0417
   50DOPE   HN3 6325   3.304   4.462  12.687  3.0684  2.0384  1.5127
   50DOPE   C12 6326   3.155   4.611  12.700 -0.4995 -0.9945 -0.0925
   50DOPE  H12A 6327   3.080   4.617  12.618 -1.9468  0.5672  1.2455
   50DOPE  H12B 6328   3.185   4.711  12.738  0.5238 -1.3173 -0.0280
   50DOPE   C11 6329   3.102   4.519  12.811 -0.3435 -0.5114 -0.0145
   50DOPE  H11A 6330   3.036   4.570  12.884 -1.2439 -3.1035  1.1283
   50DOPE  H11B 6331   3.193   4.513  12.875  0.6181  0.9207 -1.1909
   50DOPE     P 6332   2.895   4.367  12.767  0.4350  0.1976  0.1878
   50DOPE   O13 6333   2.866   4.223  12.741 -0.0494 -0.2015 -0.2277
   50DOPE   O14 6334   2.821   4.470  12.686  0.5463  0.3375 -0.0232
   50DOPE   O11 6335   2.869   4.396  12.913 -0.0661  0.6978 -0.2619
   50DOPE   O12 6336   3.051   4.392  12.765  0.1290 -0.4625  0.4060
   50DOPE    C1 6337   2.755   4.479  12.938  0.1169  0.0735 -0.0493
   50DOPE    HA 6338   2.669   4.438  12.881 -0.2138  0.1096  0.4149
   50DOPE    HB 6339   2.772   4.588  12.930 -1.8163  0.5859  1.9020
   50DOPE    C2 6340   2.707   4.475  13.091  0.0423  0.4030  0.4233
   50DOPE    HS 6341   2.712   4.365  13.108  3.5735 -0.2055 -3.3096
   50DOPE   O21 6342   2.568   4.525  13.085 -0.5437  0.4544 -0.6331
   50DOPE   C21 6343   2.474   4.458  13.150  0.6316 -0.1464 -0.2700
   50DOPE   O22 6344   2.485   4.360  13.221 -0.4242  0.0827 -0.0718
   50DOPE   C22 6345   2.348   4.537  13.133 -0.0652 -0.0960  0.3200
   50DOPE   H2R 6346   2.324   4.543  13.025  1.0479  0.5661  0.0973
   50DOPE   H2S 6347   2.367   4.641  13.167  0.1442  0.1741 -0.5946
   50DOPE    C3 6348   2.800   4.568  13.173 -0.2560  0.4760  0.0019
   50DOPE    HX 6349   2.782   4.673  13.141 -3.9649  0.3413  1.1159
   50DOPE    HY 6350   2.902   4.539  13.142 -0.1124 -0.4742  1.2622
   50DOPE   O31 6351   2.780   4.552  13.314  0.8749 -0.0316 -0.2713
   50DOPE   C31 6352   2.679   4.627  13.365 -1.0664 -0.0370 -0.0403
   50DOPE   O32 6353   2.603   4.701  13.306  0.2551 -0.4112 -0.3969
   50DOPE   C32 6354   2.682   4.604  13.514 -0.6525 -0.1439 -0.1012
   50DOPE   H2X 6355   2.613   4.519  13.528  0.0748 -0.4337  2.0408
   50DOPE   H2Y 6356   2.779   4.560  13.544 -1.5779 -2.2639 -0.0881
   50DOPE   C23 6357   2.222   4.489  13.220  0.8019  0.6649 -0.2342
   50DOPE   H3R 6358   2.216   4.378  13.231  3.2183  0.5944  1.0149
   50DOPE   H3S 6359   2.133   4.515  13.159 -0.1260  0.4828  1.0080
   50DOPE   C24 6360   2.219   4.549  13.358 -0.0103 -0.2508  0.2480
   50DOPE   H4R 6361   2.192   4.657  13.358  0.9928  0.0656  2.3730
   50DOPE   H4S 6362   2.322   4.556  13.400 -1.1224  4.0305  2.9206
   50DOPE   C25 6363   2.134   4.478  13.462  0.1439 -0.0529  1.3416
   50DOPE   H5R 6364   2.170   4.376  13.487  0.0895 -0.4380 -0.0543
   50DOPE   H5S 6365   2.030   4.478  13.423  0.2607 -0.7751  1.0142
   50DOPE   C26 6366   2.147   4.552  13.596 -0.3175 -0.3968  0.7169
   50DOPE   H6R 6367   2.135   4.661  13.577 -1.8300 -0.8234 -1.0758
   50DOPE   H6S 6368   2.241   4.531  13.650 -2.1085 -2.8553  3.1624
   50DOPE   C27 6369   2.049   4.501  13.698  0.1011  0.5019  0.1039
   50DOPE   H7R 6370   2.026   4.396  13.671 -0.6312  0.4377  0.9255
   50DOPE   H7S 6371   1.951   4.554  13.696  0.7628  1.8023 -2.4226
   50DOPE   C28 6372   2.099   4.518  13.847 -0.5256  0.6195 -0.4060
   50DOPE   H8R 6373   2.200   4.476  13.862 -1.0464 -0.5110  0.0407
   50DOPE   H8S 6374   2.030   4.445  13.894 -0.1049 -0.2828 -1.1554
   50DOPE   C29 6375   2.083   4.654  13.909  0.3022  0.2417  0.2469
   50DOPE   H9R 6376   2.165   4.723  13.884 -0.5129  0.7148 -1.2547
   50DOPE  C210 6377   1.983   4.700  13.985 -0.5919 -0.5250  0.0855
   50DOPE  H10R 6378   1.993   4.801  14.026 -1.4991 -0.5290  0.3380
   50DOPE  C211 6379   1.863   4.623  14.045  0.3089 -0.0718 -0.3653
   50DOPE  H11R 6380   1.866   4.514  14.026  1.8623 -0.0484 -0.3534
   50DOPE  H11S 6381   1.765   4.660  14.007 -0.9914 -2.1631  0.7407
   50DOPE  C212 6382   1.855   4.639  14.201 -0.1859 -0.1642  0.7404
   50DOPE  H12R 6383   1.758   4.594  14.230 -0.6915  0.5618  0.2098
   50DOPE  H12S 6384   1.838   4.743  14.238 -1.4022 -1.0315  2.8455
   50DOPE  C213 6385   1.949   4.551  14.283  0.3477  0.4189  0.2197
   50DOPE  H13R 6386   2.051   4.592  14.268  0.4275  0.0695 -0.2328
   50DOPE  H13S 6387   1.949   4.455  14.227 -0.1143  0.6438 -0.1731
   50DOPE  C214 6388   1.910   4.537  14.427 -1.0089 -0.7467  0.7883
   50DOPE  H14R 6389   1.812   4.488  14.440 -1.2943 -0.0598  1.2982
   50DOPE  H14S 6390   1.889   4.634  14.476 -1.7347  0.7452 -2.2618
   50DOPE  C215 6391   2.018   4.467  14.513 -0.1760  0.5819 -0.6360
   50DOPE  H15R 6392   2.107   4.532  14.520  2.1178 -1.8234 -4.2737
   50DOPE  H15S 6393   2.067   4.385  14.457  0.7316  0.8804 -0.2823
   50DOPE  C216 6394   1.968   4.416  14.652  0.9184 -0.0087 -0.6663
   50DOPE  H16R 6395   1.891   4.337  14.650 -0.0434  0.9161 -1.0162
   50DOPE  H16S 6396   1.915   4.499  14.704  0.4043  0.6159 -2.1380
   50DOPE  C217 6397   2.082   4.362  14.737 -0.1547  0.5765 -0.0045
   50DOPE  H17R 6398   2.147   4.302  14.670  1.2614 -0.8283  2.4664
   50DOPE  H17S 6399   2.039   4.289  14.810  2.1421  0.8416  1.7148
   50DOPE  C218 6400   2.170   4.459  14.814 -0.4472 -0.2582  0.2441
   50DOPE  H18R 6401   2.258   4.411  14.862  0.2065 -1.4070 -1.9824
   50DOPE  H18S 6402   2.112   4.521  14.886 -0.0487 -0.8063  1.0523
   50DOPE  H18T 6403   2.220   4.519  14.735 -1.1046  0.3672  0.2838
   50DOPE   C33 6404   2.631   4.719  13.601  0.5632  0.1592 -0.5593
   50DOPE   H3X 6405   2.530   4.752  13.565  0.0585 -0.3017  0.4039
   50DOPE   H3Y 6406   2.696   4.807  13.583  0.0972  0.6877  0.2517
   50DOPE   C34 6407   2.637   4.683  13.752 -0.0732  0.0689 -0.2554
   50DOPE   H4X 6408   2.568   4.598  13.769  0.4661 -0.0422  1.7005
   50DOPE   H4Y 6409   2.740   4.654  13.782 -0.5083 -1.8384 -0.4866
   50DOPE   C35 6410   2.598   4.813  13.836  0.0661 -0.5231  0.5071
   50DOPE   H5X 6411   2.506   4.865  13.801 -0.3229 -1.6840 -0.2777
   50DOPE   H5Y 6412   2.672   4.893  13.812 -0.8733  0.3734  0.5398
   50DOPE   C36 6413   2.591   4.799  13.986 -0.2384 -0.0289 -0.3030
   50DOPE   H6X 6414   2.574   4.902  14.023  2.2884  0.6349 -0.7893
   50DOPE   H6Y 6415   2.697   4.778  14.013  0.1619  0.2089 -1.6076
   50DOPE   C37 6416   2.491   4.686  14.018 -0.2589 -0.0774 -0.4610
   50DOPE   H7X 6417   2.429   4.679  13.926  1.4025  0.8619 -1.7063
   50DOPE   H7Y 6418   2.554   4.595  14.027 -0.1291  0.2107  3.0917
   50DOPE   C38 6419   2.412   4.700  14.145 -0.0446  0.0753  0.1142
   50DOPE   H8X 6420   2.367   4.802  14.151  0.3921  0.1813  2.1189
   50DOPE   H8Y 6421   2.482   4.700  14.231 -0.2246 -0.1508  0.2588
   50DOPE   C39 6422   2.309   4.587  14.152  0.1297 -0.4643 -0.6672
   50DOPE   H9X 6423   2.271   4.553  14.054  1.1504 -3.1996 -0.1919
   50DOPE  C310 6424   2.307   4.490  14.249 -0.0441 -0.1930 -0.3094
   50DOPE  H10X 6425   2.231   4.412  14.237 -0.8877  0.5732 -0.0219
   50DOPE  C311 6426   2.386   4.492  14.377 -0.5149  0.2438  0.4867
   50DOPE  H11X 6427   2.492   4.519  14.358  0.4032 -2.9033  0.5244
   50DOPE  H11Y 6428   2.335   4.569  14.439 -0.1873  1.8602 -1.1856
   50DOPE  C312 6429   2.392   4.356  14.453 -1.1480  0.1192  0.1088
   50DOPE  H12X 6430   2.443   4.281  14.388  0.6482 -0.8520  2.4721
   50DOPE  H12Y 6431   2.289   4.337  14.489 -1.2791  1.5297  0.5459
   50DOPE  C313 6432   2.495   4.364  14.569 -0.1031 -0.7089 -0.0821
   50DOPE  H13X 6433   2.593   4.364  14.516 -0.1232  0.6833 -0.1584
   50DOPE  H13Y 6434   2.483   4.457  14.628  0.6187 -1.0947  0.6828
   50DOPE  C314 6435   2.488   4.241  14.658 -0.1865  0.3599  0.4165
   50DOPE  H14X 6436   2.494   4.146  14.600  2.1511  0.0886  0.9847
   50DOPE  H14Y 6437   2.388   4.229  14.706 -0.7924 -1.6180 -1.2027
   50DOPE  C315 6438   2.610   4.225  14.752  0.3852  0.8036 -0.3658
   50DOPE  H15X 6439   2.708   4.228  14.699  0.9973 -0.0096  0.6811
   50DOPE  H15Y 6440   2.615   4.127  14.805 -0.8382  1.2331  0.5678
   50DOPE  C316 6441   2.619   4.337  14.860  0.5774  0.4127  0.6178
   50DOPE  H16X 6442   2.541   4.305  14.931  1.1139 -0.7407  0.7180
   50DOPE  H16Y 6443   2.584   4.433  14.817 -1.7723 -0.7771 -0.3074
   50DOPE  C317 6444   2.761   4.344  14.922 -0.1025  0.2220  0.4144
   50DOPE  H17X 6445   2.787   4.237  14.933  1.2672  0.5247  0.2976
   50DOPE  H17Y 6446   2.844   4.379  14.856  0.5075 -0.7122  0.6699
   50DOPE  C318 6447   2.761   4.415  15.054  0.2681 -0.1962  0.1816
   50DOPE  H18X 6448   2.717   4.517  15.049  0.6866 -0.0704 -1.9063
   50DOPE  H18Y 6449   2.697   4.365  15.130  1.2827 -0.0418  1.1574
   50DOPE  H18Z 6450   2.863   4.428  15.095 -0.3430  2.8050  0.9865
   51DOPE     N 6451   3.007   6.309  11.659  0.8430  0.2922 -0.6535
   51DOPE   HN1 6452   3.103   6.271  11.647  1.6809  2.4034 -1.2590
   51DOPE   HN2 6453   2.941   6.234  11.687  1.9780 -0.4449  0.1147
   51DOPE   HN3 6454   2.964   6.362  11.580 -1.2659  0.5128  0.5799
   51DOPE   C12 6455   3.040   6.403  11.781  0.4519 -0.7913  0.0802
   51DOPE  H12A 6456   2.949   6.459  11.811  0.6407 -0.8869  0.8705
   51DOPE  H12B 6457   3.129   6.463  11.753  0.6450 -1.6958 -1.3524
   51DOPE   C11 6458   3.078   6.331  11.914 -0.0097  0.8386  0.7186
   51DOPE  H11A 6459   3.017   6.239  11.918  1.3206 -0.5396 -4.1983
   51DOPE  H11B 6460   3.052   6.403  11.995  0.2579 -0.9753  2.4847
   51DOPE     P 6461   3.334   6.358  11.994  0.3056 -0.1560 -0.4954
   51DOPE   O13 6462   3.330   6.500  11.969  1.1587  0.0199 -0.3327
   51DOPE   O14 6463   3.460   6.285  11.959 -0.0450 -0.2565  0.2106
   51DOPE   O11 6464   3.307   6.322  12.144  0.1899 -0.5824  0.3851
   51DOPE   O12 6465   3.217   6.290  11.924 -0.4271  0.0151 -0.2122
   51DOPE    C1 6466   3.266   6.190  12.173 -0.1189 -0.5006 -0.1861
   51DOPE    HA 6467   3.329   6.118  12.116  0.7365 -0.4014  0.6094
   51DOPE    HB 6468   3.157   6.178  12.152 -0.8355  2.0734  1.5279
   51DOPE    C2 6469   3.291   6.168  12.326  0.3582  0.1663 -0.7021
   51DOPE    HS 6470   3.226   6.245  12.373  1.6352  0.6984  0.2592
   51DOPE   O21 6471   3.427   6.191  12.368 -0.4104 -0.3019 -0.6529
   51DOPE   C21 6472   3.447   6.277  12.468 -0.1284  0.1990  0.3321
   51DOPE   O22 6473   3.360   6.315  12.542 -0.1140 -0.2236  0.0201
   51DOPE   C22 6474   3.591   6.300  12.487 -0.4068 -0.0707  0.0540
   51DOPE   H2R 6475   3.620   6.407  12.478  0.8807 -0.4497 -0.6447
   51DOPE   H2S 6476   3.651   6.256  12.404  1.8873  1.2128  0.9112
   51DOPE    C3 6477   3.245   6.024  12.375 -0.4407 -0.2503 -0.0719
   51DOPE    HX 6478   3.321   5.949  12.344  0.4488 -0.4804  2.4777
   51DOPE    HY 6479   3.143   6.008  12.335 -0.7169 -1.2862  0.9954
   51DOPE   O31 6480   3.259   6.030  12.521  0.1809  0.2051  0.3764
   51DOPE   C31 6481   3.159   6.092  12.586 -0.5996  0.6162  0.5374
   51DOPE   O32 6482   3.060   6.146  12.535 -0.0633  0.1815 -0.2841
   51DOPE   C32 6483   3.189   6.087  12.737 -0.5440 -0.6837  0.0172
   51DOPE   H2X 6484   3.148   5.991  12.772  1.1283 -2.2196 -1.9723
   51DOPE   H2Y 6485   3.297   6.092  12.764  0.0520 -2.1821 -1.8458
   51DOPE   C23 6486   3.646   6.247  12.619  0.9637 -0.1393  0.2042
   51DOPE   H3R 6487   3.754   6.265  12.605  1.8696 -4.7160 -0.0948
   51DOPE   H3S 6488   3.632   6.137  12.613 -1.5873  0.0482  1.3697
   51DOPE   C24 6489   3.597   6.315  12.753  0.2448  0.7801  0.1502
   51DOPE   H4R 6490   3.486   6.312  12.746  0.3267  0.6433 -2.0410
   51DOPE   H4S 6491   3.627   6.421  12.758  2.2657  0.2258  0.8797
   51DOPE   C25 6492   3.634   6.248  12.877  0.2595 -0.0449 -0.6428
   51DOPE   H5R 6493   3.744   6.238  12.887  0.3748 -0.2327 -1.9839
   51DOPE   H5S 6494   3.589   6.147  12.867  2.1465 -0.9718 -0.2474
   51DOPE   C26 6495   3.568   6.294  13.010  0.1861 -0.0625 -0.2009
   51DOPE   H6R 6496   3.459   6.276  13.007  0.0841  0.0325  1.7560
   51DOPE   H6S 6497   3.590   6.402  13.027 -0.6791 -0.2016  2.2457
   51DOPE   C27 6498   3.625   6.210  13.127 -0.2419 -0.0740 -1.0717
   51DOPE   H7R 6499   3.735   6.223  13.130 -0.3190  0.5728 -0.9300
   51DOPE   H7S 6500   3.613   6.102  13.107  0.2734 -0.4104  0.3313
   51DOPE   C28 6501   3.563   6.224  13.267  0.1541 -0.7691  0.1992
   51DOPE   H8R 6502   3.605   6.154  13.342  0.1788  0.4662  1.3841
   51DOPE   H8S 6503   3.458   6.191  13.252 -0.5418  1.1587  0.6000
   51DOPE   C29 6504   3.559   6.365  13.333 -0.0338 -0.5477  0.4100
   51DOPE   H9R 6505   3.506   6.438  13.270 -2.1612  0.0295  2.6948
   51DOPE  C210 6506   3.607   6.412  13.447  0.4095 -0.1023 -0.0423
   51DOPE  H10R 6507   3.581   6.517  13.466 -1.6777 -0.8171  1.3431
   51DOPE  C211 6508   3.692   6.327  13.540 -0.6338 -0.6550  0.9185
   51DOPE  H11R 6509   3.770   6.393  13.584  0.5068 -0.9658 -0.5606
   51DOPE  H11S 6510   3.747   6.243  13.492  0.5856  0.2797  0.6546
   51DOPE  C212 6511   3.618   6.280  13.671  0.3056 -0.2905  0.0786
   51DOPE  H12R 6512   3.533   6.212  13.648  1.1807 -1.3408 -0.1646
   51DOPE  H12S 6513   3.581   6.369  13.726  0.8869 -0.0133  0.0327
   51DOPE  C213 6514   3.714   6.203  13.761 -0.2366  0.0922 -0.2697
   51DOPE  H13R 6515   3.806   6.256  13.793  0.4803 -0.2889 -1.6266
   51DOPE  H13S 6516   3.754   6.115  13.707 -1.5882  1.1192 -3.1518
   51DOPE  C214 6517   3.630   6.166  13.887 -0.3351 -0.1416  0.1550
   51DOPE  H14R 6518   3.548   6.101  13.849 -1.1024  1.3591 -0.8382
   51DOPE  H14S 6519   3.584   6.260  13.924  0.6064  1.0257 -1.5188
   51DOPE  C215 6520   3.709   6.090  13.996 -0.0762  0.3587 -0.2348
   51DOPE  H15R 6521   3.815   6.120  14.005  0.0046 -0.4528  2.9163
   51DOPE  H15S 6522   3.693   5.985  13.964 -1.4659 -0.2113  2.0738
   51DOPE  C216 6523   3.635   6.102  14.129  0.4902  0.6264  0.4825
   51DOPE  H16R 6524   3.624   6.206  14.168 -2.4767 -0.2664  2.4010
   51DOPE  H16S 6525   3.700   6.052  14.203  2.4263  0.1141 -1.4747
   51DOPE  C217 6526   3.485   6.049  14.137 -0.1457  0.3097  0.3940
   51DOPE  H17R 6527   3.424   6.077  14.048  3.3354 -0.0201 -2.3102
   51DOPE  H17S 6528   3.440   6.098  14.227 -2.4586  1.0517 -1.0718
   51DOPE  C218 6529   3.467   5.891  14.155 -0.3324 -0.4587 -0.2907
   51DOPE  H18R 6530   3.359   5.866  14.163  0.0895 -2.8739 -1.2689
   51DOPE  H18S 6531   3.515   5.863  14.251 -1.1204  0.9499  0.5366
   51DOPE  H18T 6532   3.511   5.838  14.067  1.0399 -0.3659  0.3240
   51DOPE   C33 6533   3.121   6.203  12.817 -0.0551  0.0862 -0.0496
   51DOPE   H3X 6534   3.017   6.224  12.784  0.1575  1.8721  0.3475
   51DOPE   H3Y 6535   3.173   6.297  12.790 -2.6344  1.0384 -2.1594
   51DOPE   C34 6536   3.126   6.184  12.969 -0.9062 -0.2551  0.0141
   51DOPE   H4X 6537   3.220   6.135  13.001  0.7886  1.9034 -1.3282
   51DOPE   H4Y 6538   3.130   6.279  13.026  2.3618  0.2336 -0.8629
   51DOPE   C35 6539   2.995   6.119  13.026 -0.3190 -0.0688 -0.3234
   51DOPE   H5X 6540   3.006   6.009  13.010  0.7489 -0.1163  0.6194
   51DOPE   H5Y 6541   2.912   6.152  12.961  0.0156  2.0118  0.2241
   51DOPE   C36 6542   2.991   6.147  13.178  1.1785 -0.6981 -0.3226
   51DOPE   H6X 6543   3.090   6.122  13.220  1.2327  2.0973  1.4571
   51DOPE   H6Y 6544   2.910   6.080  13.214 -0.7733  1.5255 -0.3012
   51DOPE   C37 6545   2.974   6.295  13.221 -0.0848  0.4249  0.3127
   51DOPE   H7X 6546   3.063   6.354  13.193 -0.5994  0.0135 -2.4934
   51DOPE   H7Y 6547   2.893   6.338  13.157  0.3040 -0.5767 -0.8960
   51DOPE   C38 6548   2.946   6.304  13.375 -0.3512  0.3444 -0.0382
   51DOPE   H8X 6549   2.857   6.244  13.403  0.4994 -1.0165 -0.1515
   51DOPE   H8Y 6550   2.925   6.410  13.402 -2.1772  0.9387 -3.2832
   51DOPE   C39 6551   3.068   6.248  13.450  0.7761 -0.1963 -0.4364
   51DOPE   H9X 6552   3.073   6.138  13.457  2.0992 -0.2024 -1.2033
   51DOPE  C310 6553   3.171   6.317  13.500 -0.1040  0.3460  0.4112
   51DOPE  H10X 6554   3.249   6.259  13.552 -1.2553 -0.9701  0.7183
   51DOPE  C311 6555   3.183   6.459  13.506  0.8399 -0.4827 -0.0831
   51DOPE  H11X 6556   3.272   6.477  13.443  0.8907 -1.2468 -0.2352
   51DOPE  H11Y 6557   3.111   6.521  13.448  1.6130 -0.5939 -1.2039
   51DOPE  C312 6558   3.189   6.531  13.642  0.5411  0.2857  0.0468
   51DOPE  H12X 6559   3.101   6.519  13.709  0.3146  2.4637  0.2315
   51DOPE  H12Y 6560   3.208   6.640  13.625  0.0233  0.5114  0.8658
   51DOPE  C313 6561   3.312   6.493  13.724 -0.2901  0.1819  0.0570
   51DOPE  H13X 6562   3.284   6.391  13.758 -2.7632  0.9400  0.5416
   51DOPE  H13Y 6563   3.393   6.487  13.649 -0.6147  4.1927 -0.8381
   51DOPE  C314 6564   3.337   6.582  13.843  0.8461 -0.4100  0.5867
   51DOPE  H14X 6565   3.240   6.622  13.881  2.0562  1.7141  1.5818
   51DOPE  H14Y 6566   3.388   6.671  13.801 -0.6627  0.2243 -0.0047
   51DOPE  C315 6567   3.415   6.521  13.956 -0.3850  0.5241 -0.3159
   51DOPE  H15X 6568   3.514   6.506  13.909 -0.6911  1.1567 -1.1972
   51DOPE  H15Y 6569   3.368   6.423  13.979 -3.0484  1.0691 -2.7454
   51DOPE  C316 6570   3.430   6.607  14.083  0.1021  0.0282  0.2837
   51DOPE  H16X 6571   3.330   6.643  14.116  0.4802  1.8916 -0.4697
   51DOPE  H16Y 6572   3.501   6.692  14.071  2.0539 -1.1332  2.7897
   51DOPE  C317 6573   3.497   6.533  14.210 -0.0479  0.0774 -0.4051
   51DOPE  H17X 6574   3.452   6.433  14.225  0.8346 -0.3688 -0.6501
   51DOPE  H17Y 6575   3.604   6.530  14.179 -0.2803  0.1963 -1.2252
   51DOPE  C318 6576   3.473   6.621  14.336 -0.5982 -0.0621 -0.5498
   51DOPE  H18X 6577   3.368   6.655  14.353 -0.7550 -1.0354  0.5775
   51DOPE  H18Y 6578   3.513   6.580  14.431 -1.7805 -1.1244 -0.4753
   51DOPE  H18Z 6579   3.528   6.716  14.319 -1.3705  0.5920  0.4807
   52DOPE     N 6580   1.913   2.790  11.917  0.4882 -0.0700 -0.4045
   52DOPE   HN1 6581   1.911   2.690  11.887 -1.2364 -1.0618  2.5268
   52DOPE   HN2 6582   1.961   2.797  12.009 -1.4331  0.2796  0.6482
   52DOPE   HN3 6583   1.813   2.797  11.947  0.2868 -2.6167 -0.1837
   52DOPE   C12 6584   1.935   2.903  11.817 -0.4237  0.1622  0.1356
   52DOPE  H12A 6585   1.964   2.861  11.719 -3.0313  1.0094 -1.0807
   52DOPE  H12B 6586   2.014   2.964  11.866 -1.6230  2.3514 -0.4745
   52DOPE   C11 6587   1.805   2.987  11.819 -0.2605  0.3569  0.6502
   52DOPE  H11A 6588   1.738   2.918  11.763  0.9226  0.9403 -1.6353
   52DOPE  H11B 6589   1.810   3.082  11.760  0.1963 -0.5795 -0.8888
   52DOPE     P 6590   1.759   3.139  12.041 -0.1561  0.1592 -0.0834
   52DOPE   O13 6591   1.666   3.233  11.971  0.1599  0.1127 -0.2245
   52DOPE   O14 6592   1.900   3.188  12.072 -0.2491 -0.1135  0.9145
   52DOPE   O11 6593   1.688   3.074  12.166  0.0299  0.2176 -0.1335
   52DOPE   O12 6594   1.760   3.009  11.949  0.0144  0.2647 -0.0922
   52DOPE    C1 6595   1.747   2.945  12.220  0.4969 -1.4199 -0.4426
   52DOPE    HA 6596   1.857   2.956  12.231  0.4408 -0.5369 -0.6318
   52DOPE    HB 6597   1.718   2.861  12.154 -2.3712  0.2769 -1.5297
   52DOPE    C2 6598   1.698   2.917  12.362 -0.2112  0.3465  0.4057
   52DOPE    HS 6599   1.592   2.892  12.339 -0.4159  1.4498  0.1254
   52DOPE   O21 6600   1.709   3.038  12.446  0.1864 -0.0669  0.2030
   52DOPE   C21 6601   1.614   3.048  12.537 -0.0287 -0.1627 -0.0335
   52DOPE   O22 6602   1.520   2.972  12.545 -0.4469 -0.0642 -0.0922
   52DOPE   C22 6603   1.631   3.180  12.611  0.2957 -0.6270 -0.2207
   52DOPE   H2R 6604   1.662   3.255  12.535  0.5863 -1.9373 -1.4328
   52DOPE   H2S 6605   1.717   3.182  12.682 -0.2442 -1.0379  0.4600
   52DOPE    C3 6606   1.778   2.798  12.423  0.1079 -0.9035  0.3763
   52DOPE    HX 6607   1.874   2.836  12.464 -1.2253 -0.9339  3.8846
   52DOPE    HY 6608   1.813   2.733  12.341  2.3835 -0.7408  1.1496
   52DOPE   O31 6609   1.706   2.720  12.522 -0.9810 -0.6031  0.7747
   52DOPE   C31 6610   1.737   2.771  12.644  0.4967  0.0927 -0.4977
   52DOPE   O32 6611   1.821   2.850  12.676  0.5885 -0.5996  0.3249
   52DOPE   C32 6612   1.651   2.697  12.740 -1.8337  0.1856 -0.1581
   52DOPE   H2X 6613   1.547   2.681  12.704 -1.5902 -1.5530 -0.1971
   52DOPE   H2Y 6614   1.679   2.589  12.745 -0.8978  0.4523  2.6280
   52DOPE   C23 6615   1.509   3.229  12.687 -0.2821 -0.1308 -0.3070
   52DOPE   H3R 6616   1.414   3.210  12.633  0.8316 -1.2566 -1.9922
   52DOPE   H3S 6617   1.515   3.339  12.698 -0.5603 -0.2044  0.6142
   52DOPE   C24 6618   1.490   3.170  12.825  0.0625 -0.6394  0.2159
   52DOPE   H4R 6619   1.590   3.175  12.871  0.1943 -0.9181 -0.0373
   52DOPE   H4S 6620   1.459   3.065  12.809 -1.1150 -0.8962  3.4264
   52DOPE   C25 6621   1.376   3.241  12.910  0.1649  0.5066 -0.5468
   52DOPE   H5R 6622   1.277   3.209  12.871  1.1295 -2.7376 -0.6118
   52DOPE   H5S 6623   1.367   3.352  12.912  0.4467  0.5870 -2.2211
   52DOPE   C26 6624   1.383   3.190  13.057 -0.3444  0.6610  0.0287
   52DOPE   H6R 6625   1.470   3.216  13.121 -1.8451  0.7686  2.1403
   52DOPE   H6S 6626   1.388   3.080  13.052 -1.3771  0.5223  1.3180
   52DOPE   C27 6627   1.264   3.245  13.151 -0.2605  0.2280  0.4895
   52DOPE   H7R 6628   1.163   3.229  13.109 -0.2840 -0.5012  0.8093
   52DOPE   H7S 6629   1.282   3.354  13.162  1.7579  0.0255 -0.4163
   52DOPE   C28 6630   1.267   3.184  13.294 -0.0474  0.3917 -0.1078
   52DOPE   H8R 6631   1.361   3.209  13.347 -0.4563 -0.4975  1.0521
   52DOPE   H8S 6632   1.260   3.074  13.286  0.1114  0.2237  1.8189
   52DOPE   C29 6633   1.153   3.219  13.377 -0.6715 -0.3790 -0.2787
   52DOPE   H9R 6634   1.053   3.190  13.342 -1.0454 -0.6429  0.9562
   52DOPE  C210 6635   1.151   3.280  13.495  0.5437  0.4033 -0.0828
   52DOPE  H10R 6636   1.051   3.289  13.539  0.9475  0.2221  0.9072
   52DOPE  C211 6637   1.267   3.330  13.575 -0.1293  0.1186  0.0285
   52DOPE  H11R 6638   1.259   3.439  13.594  0.5169  0.1423  0.1759
   52DOPE  H11S 6639   1.368   3.316  13.530 -1.9575 -0.2369 -4.4985
   52DOPE  C212 6640   1.271   3.281  13.722  0.1685  0.2691  0.1762
   52DOPE  H12R 6641   1.357   3.334  13.768  0.4947 -0.2612  0.1850
   52DOPE  H12S 6642   1.289   3.171  13.715  1.2726  0.4947 -0.6641
   52DOPE  C213 6643   1.141   3.302  13.801  0.4989  0.1741  0.7694
   52DOPE  H13R 6644   1.068   3.232  13.754  2.0104  0.1746 -1.7693
   52DOPE  H13S 6645   1.105   3.405  13.778  0.4964 -0.4146 -2.2721
   52DOPE  C214 6646   1.155   3.273  13.950 -0.0224 -0.3549  0.2214
   52DOPE  H14R 6647   1.245   3.324  13.990  1.5630 -2.4522 -0.4911
   52DOPE  H14S 6648   1.175   3.166  13.972  1.4453 -0.2637 -0.5344
   52DOPE  C215 6649   1.036   3.304  14.038 -0.1831 -0.2306 -0.0289
   52DOPE  H15R 6650   0.942   3.252  14.011 -1.5544  0.8065  2.4111
   52DOPE  H15S 6651   1.017   3.412  14.021 -1.0454 -0.4781 -0.7283
   52DOPE  C216 6652   1.060   3.301  14.191 -0.2119 -0.4548  0.2227
   52DOPE  H16R 6653   1.014   3.389  14.241 -1.6999  0.3561 -2.3917
   52DOPE  H16S 6654   1.168   3.324  14.201  0.0751 -1.2940 -0.7758
   52DOPE  C217 6655   1.017   3.174  14.263  0.0456 -0.5143  0.0680
   52DOPE  H17R 6656   1.081   3.090  14.227 -1.6634 -2.1074  0.5835
   52DOPE  H17S 6657   0.913   3.144  14.237  0.5594 -0.7341 -1.9258
   52DOPE  C218 6658   1.028   3.193  14.420  0.3914 -0.6404  0.6795
   52DOPE  H18R 6659   1.116   3.260  14.432 -0.7093  0.8696  0.4903
   52DOPE  H18S 6660   0.938   3.244  14.461 -2.7429 -3.2447 -2.3248
   52DOPE  H18T 6661   1.039   3.097  14.475  0.8815 -0.1803  1.4109
   52DOPE   C33 6662   1.641   2.752  12.880  0.4200  0.3026 -0.7270
   52DOPE   H3X 6663   1.603   2.856  12.884 -0.7482 -0.1478  1.2253
   52DOPE   H3Y 6664   1.743   2.769  12.923 -0.2329  0.4251  0.8434
   52DOPE   C34 6665   1.562   2.663  12.976  0.5033 -0.1763 -0.3157
   52DOPE   H4X 6666   1.460   2.643  12.936  0.4375 -0.8939  0.1883
   52DOPE   H4Y 6667   1.604   2.561  12.968  0.4058 -0.1663 -0.9361
   52DOPE   C35 6668   1.533   2.711  13.116 -0.0185 -0.3044 -0.1379
   52DOPE   H5X 6669   1.471   2.803  13.110  0.6068  0.2665  1.5739
   52DOPE   H5Y 6670   1.623   2.742  13.174 -0.0860  1.0568 -0.7079
   52DOPE   C36 6671   1.466   2.603  13.201  0.3404 -0.9375  0.3297
   52DOPE   H6X 6672   1.539   2.520  13.197 -1.1196 -2.3332  1.3107
   52DOPE   H6Y 6673   1.380   2.569  13.139 -0.3769  0.2305  0.6385
   52DOPE   C37 6674   1.433   2.649  13.349 -0.0444  0.4229 -0.4030
   52DOPE   H7X 6675   1.518   2.698  13.401  1.6880 -3.2963  0.6437
   52DOPE   H7Y 6676   1.354   2.727  13.341 -1.5447 -0.7643  1.6119
   52DOPE   C38 6677   1.389   2.532  13.436  0.0468  0.9557  0.1480
   52DOPE   H8X 6678   1.397   2.549  13.545 -0.6591  0.1821  0.3265
   52DOPE   H8Y 6679   1.469   2.457  13.418  0.4236  0.3268  3.7939
   52DOPE   C39 6680   1.245   2.493  13.405 -0.4809  0.5030  0.1460
   52DOPE   H9X 6681   1.178   2.576  13.380  0.1523  0.6568 -1.1343
   52DOPE  C310 6682   1.187   2.374  13.425 -0.1855 -0.3186 -0.0803
   52DOPE  H10X 6683   1.078   2.362  13.416 -0.2663 -1.0796  1.5838
   52DOPE  C311 6684   1.256   2.263  13.495 -0.3749  0.3382  0.0546
   52DOPE  H11X 6685   1.234   2.167  13.442  0.2391 -0.0702  0.5303
   52DOPE  H11Y 6686   1.365   2.275  13.508 -0.6200  1.6183  1.1958
   52DOPE  C312 6687   1.195   2.244  13.640 -0.3405 -0.4318 -0.3974
   52DOPE  H12X 6688   1.178   2.348  13.676 -1.4377 -0.3964 -0.9701
   52DOPE  H12Y 6689   1.280   2.196  13.693 -0.8072 -0.4904  0.3059
   52DOPE  C313 6690   1.084   2.144  13.662  0.1047  0.4654  0.0367
   52DOPE  H13X 6691   1.115   2.042  13.629  4.1073  1.4428  0.2112
   52DOPE  H13Y 6692   1.054   2.136  13.769 -0.8079 -0.4039 -0.2666
   52DOPE  C314 6693   0.956   2.172  13.588 -0.3666 -0.1246  0.3586
   52DOPE  H14X 6694   0.964   2.158  13.478  2.4993  1.1160  0.3131
   52DOPE  H14Y 6695   0.922   2.277  13.602  0.4163  0.2777 -0.6081
   52DOPE  C315 6696   0.837   2.089  13.639  0.1628 -0.1301  0.1851
   52DOPE  H15X 6697   0.748   2.110  13.575  0.1748 -1.9746 -0.4866
   52DOPE  H15Y 6698   0.808   2.140  13.733  2.3572 -0.8593  1.3132
   52DOPE  C316 6699   0.866   1.937  13.658 -0.4677 -0.4073 -0.0552
   52DOPE  H16X 6700   0.936   1.923  13.743  2.5849  3.4792 -1.6117
   52DOPE  H16Y 6701   0.923   1.897  13.571  1.5682  1.8207  0.1720
   52DOPE  C317 6702   0.745   1.853  13.685  0.0768  0.5148 -0.2966
   52DOPE  H17X 6703   0.662   1.876  13.615 -0.1422 -0.2615 -0.3066
   52DOPE  H17Y 6704   0.769   1.748  13.657 -0.6580  0.3091 -0.1763
   52DOPE  C318 6705   0.700   1.845  13.828 -0.3283  0.1740 -0.1631
   52DOPE  H18X 6706   0.776   1.799  13.896  0.4287  0.3768 -0.8554
   52DOPE  H18Y 6707   0.666   1.943  13.868  2.4524  0.9256  0.6113
   52DOPE  H18Z 6708   0.612   1.779  13.815  0.6485 -0.9722 -1.1532
   53DOPE     N 6709   5.522   6.213  12.054  0.8466 -0.1630  0.1693
   53DOPE   HN1 6710   5.600   6.187  11.990 -0.5160 -0.2613 -1.5475
   53DOPE   HN2 6711   5.555   6.254  12.144  0.5462  0.9443 -0.1981
   53DOPE   HN3 6712   5.477   6.122  12.074  0.1645  0.4348  1.4896
   53DOPE   C12 6713   5.441   6.315  11.974 -0.7973  0.6917 -0.2776
   53DOPE  H12A 6714   5.372   6.366  12.044  0.4766  1.0031  0.7897
   53DOPE  H12B 6715   5.381   6.258  11.900 -0.1199  0.5950 -0.7621
   53DOPE   C11 6716   5.538   6.406  11.905 -0.1759  0.2247 -0.2405
   53DOPE  H11A 6717   5.480   6.482  11.849 -1.6148  0.3541  1.3273
   53DOPE  H11B 6718   5.586   6.353  11.820 -0.8669  1.0634 -1.1804
   53DOPE     P 6719   5.588   6.606  12.059  0.0125  0.0160  0.2116
   53DOPE   O13 6720   5.441   6.615  12.083 -1.0578  0.0911  0.2613
   53DOPE   O14 6721   5.657   6.709  11.977 -0.0770 -0.3896  0.0047
   53DOPE   O11 6722   5.670   6.607  12.189 -0.0155  0.4008 -0.6815
   53DOPE   O12 6723   5.631   6.475  11.988 -0.2034  0.1109 -0.2904
   53DOPE    C1 6724   5.811   6.596  12.209 -0.2699 -0.0697 -0.0513
   53DOPE    HA 6725   5.845   6.679  12.274  0.4647 -0.0028 -0.5005
   53DOPE    HB 6726   5.867   6.604  12.113 -1.6479  1.7850 -0.7654
   53DOPE    C2 6727   5.849   6.457  12.278  0.2629 -0.0642  0.0815
   53DOPE    HS 6728   5.825   6.373  12.210  1.9013  0.5111 -1.3001
   53DOPE   O21 6729   5.771   6.453  12.400  0.2937 -0.1983  0.5029
   53DOPE   C21 6730   5.650   6.402  12.383  0.3362  0.3535  0.0537
   53DOPE   O22 6731   5.617   6.330  12.288 -0.0104 -0.0169 -0.3229
   53DOPE   C22 6732   5.565   6.432  12.504  0.7206 -0.1376 -0.3593
   53DOPE   H2R 6733   5.468   6.382  12.485  0.0459  1.3445 -0.9493
   53DOPE   H2S 6734   5.542   6.537  12.477 -0.3951 -0.3885 -0.4200
   53DOPE    C3 6735   6.003   6.443  12.303 -0.6680 -0.1967  0.6708
   53DOPE    HX 6736   6.040   6.526  12.367  1.6310 -0.4232 -0.2582
   53DOPE    HY 6737   6.064   6.438  12.211 -0.1100 -1.8367  1.0875
   53DOPE   O31 6738   6.037   6.304  12.358  0.1252 -0.2749  0.5217
   53DOPE   C31 6739   6.161   6.289  12.411 -0.2716  0.5236 -0.1276
   53DOPE   O32 6740   6.254   6.369  12.421 -0.3329 -0.2884 -0.7319
   53DOPE   C32 6741   6.175   6.148  12.472  0.6229  0.6192  0.2374
   53DOPE   H2X 6742   6.070   6.111  12.477 -0.0055  2.3963  0.9562
   53DOPE   H2Y 6743   6.239   6.079  12.413 -0.9978  0.2984 -1.2594
   53DOPE   C23 6744   5.625   6.417  12.650 -0.1630 -0.5040  0.2338
   53DOPE   H3R 6745   5.714   6.484  12.650 -2.6543  3.1096 -0.4343
   53DOPE   H3S 6746   5.654   6.311  12.665  1.1720 -0.4445 -1.6007
   53DOPE   C24 6747   5.522   6.462  12.755 -0.6369  0.7317 -0.6884
   53DOPE   H4R 6748   5.427   6.410  12.727 -0.9238  0.4227  0.7770
   53DOPE   H4S 6749   5.515   6.573  12.743 -0.5827  0.5309 -3.0314
   53DOPE   C25 6750   5.565   6.420  12.896 -0.4236  0.5221  0.6375
   53DOPE   H5R 6751   5.668   6.458  12.910 -0.4789  0.6150  0.7993
   53DOPE   H5S 6752   5.559   6.310  12.909 -0.2436  0.4640  0.2384
   53DOPE   C26 6753   5.472   6.487  13.002 -0.6063  0.0461 -0.2508
   53DOPE   H6R 6754   5.366   6.464  12.979 -0.7983 -1.6515  1.9791
   53DOPE   H6S 6755   5.489   6.596  12.984  1.7113 -0.1022  0.7169
   53DOPE   C27 6756   5.497   6.447  13.143 -0.5755  0.6644 -0.2595
   53DOPE   H7R 6757   5.600   6.467  13.180  0.5706 -2.8595 -1.1383
   53DOPE   H7S 6758   5.486   6.337  13.135  1.3305  0.3334  1.0493
   53DOPE   C28 6759   5.400   6.508  13.254  0.5124 -0.3073 -0.3553
   53DOPE   H8R 6760   5.390   6.433  13.335  2.1324  0.0011  0.1725
   53DOPE   H8S 6761   5.300   6.515  13.208  0.5036  0.2113 -0.2631
   53DOPE   C29 6762   5.454   6.636  13.309 -0.2780  0.2988  0.4665
   53DOPE   H9R 6763   5.499   6.697  13.229 -0.1425 -0.9199 -0.4164
   53DOPE  C210 6764   5.447   6.679  13.437 -0.3557 -0.5614  0.4721
   53DOPE  H10R 6765   5.501   6.768  13.474  1.1942 -1.4359  0.4190
   53DOPE  C211 6766   5.382   6.602  13.552  0.0053 -0.1604  0.9745
   53DOPE  H11R 6767   5.455   6.577  13.632 -0.3840 -0.3781  1.2620
   53DOPE  H11S 6768   5.335   6.507  13.518 -0.5062  0.5094 -0.2283
   53DOPE  C212 6769   5.266   6.681  13.620  0.1309 -0.1491 -0.5961
   53DOPE  H12R 6770   5.173   6.677  13.561  0.0133 -0.6841 -0.3766
   53DOPE  H12S 6771   5.291   6.789  13.629  0.5540 -0.3105  0.4049
   53DOPE  C213 6772   5.217   6.631  13.763  0.4407 -0.3487 -0.2704
   53DOPE  H13R 6773   5.306   6.612  13.827  0.4552 -1.5250 -0.6087
   53DOPE  H13S 6774   5.177   6.528  13.753  1.4061 -0.8271  0.5248
   53DOPE  C214 6775   5.103   6.717  13.822  0.5926 -0.1259 -0.6921
   53DOPE  H14R 6776   5.018   6.712  13.750 -0.9637  1.2374  0.9741
   53DOPE  H14S 6777   5.130   6.825  13.823  0.4467 -0.0823  0.5548
   53DOPE  C215 6778   5.066   6.695  13.965  0.4050 -0.7228  0.0094
   53DOPE  H15R 6779   5.151   6.704  14.036 -1.0030  0.3101  1.6851
   53DOPE  H15S 6780   5.033   6.589  13.963 -1.4212 -0.1922  0.1749
   53DOPE  C216 6781   4.945   6.785  14.013  0.6370  0.0581  0.1342
   53DOPE  H16R 6782   4.889   6.731  14.093  0.8201 -0.1237  0.1389
   53DOPE  H16S 6783   4.878   6.811  13.928  1.0008  1.0182  0.1322
   53DOPE  C217 6784   4.988   6.928  14.063 -0.1289  0.4517  0.0804
   53DOPE  H17R 6785   5.020   6.981  13.971  1.5663  0.1066  0.4459
   53DOPE  H17S 6786   5.075   6.913  14.129 -0.8920  1.9077  1.4992
   53DOPE  C218 6787   4.894   7.015  14.143  0.6545 -0.4281  0.1043
   53DOPE  H18R 6788   4.949   7.097  14.193  1.4940 -0.8278 -0.1419
   53DOPE  H18S 6789   4.852   6.961  14.231  0.6932 -0.9337 -0.1815
   53DOPE  H18T 6790   4.809   7.058  14.086  1.2073  0.1447 -0.3048
   53DOPE   C33 6791   6.220   6.157  12.616  0.7926  0.0262  0.0845
   53DOPE   H3X 6792   6.149   6.211  12.683  0.6248  0.3819 -0.3743
   53DOPE   H3Y 6793   6.320   6.205  12.622  1.4705 -1.4147  1.0692
   53DOPE   C34 6794   6.228   6.018  12.675  0.1549 -0.7576  0.7370
   53DOPE   H4X 6795   6.125   5.979  12.665 -0.2254  0.4012 -0.1609
   53DOPE   H4Y 6796   6.289   5.953  12.608 -1.3696 -0.9298 -0.5256
   53DOPE   C35 6797   6.272   6.015  12.823 -0.0226  0.4411 -0.2322
   53DOPE   H5X 6798   6.243   6.111  12.871  0.9379 -0.2802  1.9479
   53DOPE   H5Y 6799   6.383   6.023  12.827 -0.1401  2.2939  0.4916
   53DOPE   C36 6800   6.226   5.884  12.890 -0.3213  0.2248 -0.1383
   53DOPE   H6X 6801   6.266   5.794  12.839 -0.9852 -0.6405  0.8225
   53DOPE   H6Y 6802   6.115   5.893  12.880 -0.1647  0.9778 -1.4154
   53DOPE   C37 6803   6.274   5.873  13.038  0.1323 -0.1806  0.1888
   53DOPE   H7X 6804   6.228   5.779  13.076  2.5929 -1.0668  1.1715
   53DOPE   H7Y 6805   6.383   5.851  13.039  0.5415  1.3450 -2.7310
   53DOPE   C38 6806   6.223   5.986  13.125  0.3229 -0.1335 -0.1800
   53DOPE   H8X 6807   6.113   6.002  13.132  0.1440 -1.5581  0.5121
   53DOPE   H8Y 6808   6.267   6.076  13.077  1.4156  0.1766  1.3572
   53DOPE   C39 6809   6.286   5.964  13.261  0.3524  0.0394  0.0446
   53DOPE   H9X 6810   6.381   6.020  13.264  0.3513  0.1525 -1.3125
   53DOPE  C310 6811   6.228   5.921  13.374 -0.2004  0.8554  0.0632
   53DOPE  H10X 6812   6.300   5.902  13.455 -2.8388 -0.5926  2.2724
   53DOPE  C311 6813   6.088   5.858  13.389 -0.3173  1.3156  0.3981
   53DOPE  H11X 6814   6.035   5.853  13.291  2.9351  0.3580 -1.4563
   53DOPE  H11Y 6815   6.094   5.752  13.422  3.2806  1.4449  0.5118
   53DOPE  C312 6816   5.999   5.932  13.492 -0.3934 -0.1257  0.6106
   53DOPE  H12X 6817   5.893   5.900  13.477  0.4529 -1.9470 -2.4187
   53DOPE  H12Y 6818   6.012   6.038  13.460  3.1022 -0.3806  0.8478
   53DOPE  C313 6819   6.050   5.928  13.637  0.7733 -0.2052  0.1278
   53DOPE  H13X 6820   6.075   5.823  13.660  1.6825 -0.6004 -2.3620
   53DOPE  H13Y 6821   6.146   5.984  13.640 -0.0010  1.3526 -1.9472
   53DOPE  C314 6822   5.946   5.990  13.725 -0.4874  0.4233  0.9196
   53DOPE  H14X 6823   5.854   5.940  13.690  0.4438 -0.7586  0.0644
   53DOPE  H14Y 6824   5.937   6.100  13.707 -0.2851  0.7405  2.6013
   53DOPE  C315 6825   5.972   5.962  13.875 -0.2368  0.7627  0.1997
   53DOPE  H15X 6826   6.072   6.007  13.893 -0.6860  2.4910 -1.3033
   53DOPE  H15Y 6827   5.969   5.854  13.902 -1.7290  0.5503 -0.6868
   53DOPE  C316 6828   5.854   6.019  13.969  0.4193  0.1732  0.1268
   53DOPE  H16X 6829   5.774   6.032  13.892  0.6912 -2.3462 -0.6945
   53DOPE  H16Y 6830   5.886   6.117  14.009 -0.3724  0.9942 -1.1598
   53DOPE  C317 6831   5.800   5.928  14.077  0.5207  0.1883 -0.1775
   53DOPE  H17X 6832   5.750   5.836  14.038  1.1913  0.6391 -2.2039
   53DOPE  H17Y 6833   5.884   5.880  14.131  0.8134  0.1886 -0.6262
   53DOPE  C318 6834   5.699   5.988  14.171 -0.2395  0.0009 -0.2324
   53DOPE  H18X 6835   5.735   6.085  14.212 -0.7649  0.0747  0.0634
   53DOPE  H18Y 6836   5.612   6.012  14.106 -1.0247  1.5253  1.3069
   53DOPE  H18Z 6837   5.676   5.916  14.252 -1.2285  1.5559  0.9184
   54DOPE     N 6838   2.328   3.526  12.688  0.2500  0.1430 -0.0062
   54DOPE   HN1 6839   2.409   3.562  12.742 -0.1148  0.5036  0.3042
   54DOPE   HN2 6840   2.350   3.433  12.647  0.9854 -0.2481  1.2108
   54DOPE   HN3 6841   2.307   3.595  12.613  1.4145 -0.5975 -1.0661
   54DOPE   C12 6842   2.203   3.505  12.774  0.0575  0.0666  0.3412
   54DOPE  H12A 6843   2.119   3.482  12.706  0.0789  0.3234  0.2291
   54DOPE  H12B 6844   2.196   3.591  12.844  0.2728  0.6219 -0.3109
   54DOPE   C11 6845   2.219   3.377  12.864  0.1274 -0.0122 -0.6346
   54DOPE  H11A 6846   2.127   3.340  12.915  0.7766 -1.8085 -0.6969
   54DOPE  H11B 6847   2.300   3.402  12.935  0.2531 -1.2256 -0.3317
   54DOPE     P 6848   2.317   3.129  12.849 -0.1584 -0.2197  0.5659
   54DOPE   O13 6849   2.448   3.147  12.909 -0.0999  0.2185  0.1357
   54DOPE   O14 6850   2.296   3.028  12.744 -0.2918 -0.2605  0.2118
   54DOPE   O11 6851   2.204   3.097  12.956  0.1637 -0.2631  0.3433
   54DOPE   O12 6852   2.267   3.268  12.784  0.5324 -0.7140  0.2380
   54DOPE    C1 6853   2.228   3.050  13.091 -0.1827 -0.1066 -0.2933
   54DOPE    HA 6854   2.334   3.040  13.121 -0.3684  0.4825  0.5942
   54DOPE    HB 6855   2.181   2.950  13.099 -2.6070  1.0703  1.3561
   54DOPE    C2 6856   2.157   3.138  13.202  0.1254 -0.6505  0.8418
   54DOPE    HS 6857   2.178   3.077  13.293 -0.7891 -0.4502  1.1994
   54DOPE   O21 6858   2.011   3.150  13.192  0.1199 -0.7112 -0.4800
   54DOPE   C21 6859   1.941   3.038  13.198 -0.2412 -0.0283  0.1110
   54DOPE   O22 6860   1.987   2.930  13.225  0.0549 -0.3814  0.7043
   54DOPE   C22 6861   1.795   3.061  13.179 -0.3719  0.1122  0.7279
   54DOPE   H2R 6862   1.771   3.040  13.072 -0.0904  0.6947  0.5468
   54DOPE   H2S 6863   1.771   3.168  13.199 -1.4121 -0.1462  0.9631
   54DOPE    C3 6864   2.213   3.278  13.228  0.3069  0.1172  0.2239
   54DOPE    HX 6865   2.152   3.341  13.160  0.9118 -0.3480 -0.7694
   54DOPE    HY 6866   2.321   3.283  13.204  0.3470 -1.8274 -0.1061
   54DOPE   O31 6867   2.194   3.301  13.371  0.3129  0.0943  0.3187
   54DOPE   C31 6868   2.163   3.427  13.404 -0.7768  0.0381 -0.0802
   54DOPE   O32 6869   2.155   3.518  13.322 -0.1855  0.0352  0.5493
   54DOPE   C32 6870   2.146   3.444  13.557 -0.2508 -0.4275  0.1858
   54DOPE   H2X 6871   2.128   3.343  13.598 -0.8153 -0.4222 -0.0502
   54DOPE   H2Y 6872   2.239   3.488  13.600  0.3159 -0.8670 -0.5724
   54DOPE   C23 6873   1.707   2.991  13.272 -0.8877 -0.1868 -0.1977
   54DOPE   H3R 6874   1.748   2.888  13.279  0.1418  0.3322  2.7186
   54DOPE   H3S 6875   1.606   2.974  13.228  0.2727 -1.6070 -2.4765
   54DOPE   C24 6876   1.705   3.047  13.414 -0.0362  0.1390  0.5861
   54DOPE   H4R 6877   1.622   3.121  13.413  1.3966  1.8483 -1.0498
   54DOPE   H4S 6878   1.800   3.096  13.444  0.3539  0.5245 -1.1421
   54DOPE   C25 6879   1.669   2.938  13.519 -0.7250 -0.4843 -0.2338
   54DOPE   H5R 6880   1.771   2.897  13.539 -0.1890  0.1820 -1.5246
   54DOPE   H5S 6881   1.600   2.861  13.479  0.9777 -1.3310 -1.6725
   54DOPE   C26 6882   1.602   2.996  13.648  0.5444 -0.0456 -0.3457
   54DOPE   H6R 6883   1.508   3.045  13.615  0.7716  0.6920  0.0793
   54DOPE   H6S 6884   1.666   3.081  13.681 -0.5627  0.6580  0.0271
   54DOPE   C27 6885   1.597   2.903  13.770 -0.2419 -0.7924  0.3488
   54DOPE   H7R 6886   1.532   2.959  13.841 -2.9089 -2.2316 -0.7959
   54DOPE   H7S 6887   1.701   2.898  13.809  0.0798  1.3284 -0.1290
   54DOPE   C28 6888   1.552   2.765  13.731  0.1927 -0.0421  0.1740
   54DOPE   H8R 6889   1.557   2.705  13.824 -0.3508 -0.1299  0.1488
   54DOPE   H8S 6890   1.623   2.711  13.664 -0.3606  1.5280 -1.7741
   54DOPE   C29 6891   1.403   2.768  13.683 -0.3468  0.4274  0.0376
   54DOPE   H9R 6892   1.406   2.809  13.581 -2.0983 -1.2781 -0.7435
   54DOPE  C210 6893   1.291   2.726  13.737  0.7403 -0.3395 -0.3390
   54DOPE  H10R 6894   1.197   2.723  13.680  0.7978 -0.9275 -0.4166
   54DOPE  C211 6895   1.274   2.673  13.881 -0.6349 -0.0779  0.1990
   54DOPE  H11R 6896   1.370   2.673  13.937 -1.1036 -1.0669  1.0460
   54DOPE  H11S 6897   1.230   2.571  13.873 -0.6955  0.1000 -2.2469
   54DOPE  C212 6898   1.181   2.777  13.950  0.0372  0.3195  0.2089
   54DOPE  H12R 6899   1.115   2.833  13.880  0.3632  1.7856  1.0282
   54DOPE  H12S 6900   1.241   2.850  14.009  0.4015 -1.2805  1.9374
   54DOPE  C213 6901   1.076   2.711  14.041  0.6021 -0.6416 -0.3235
   54DOPE  H13R 6902   1.131   2.650  14.115  2.6500  1.6539  0.1435
   54DOPE  H13S 6903   0.998   2.652  13.988  0.6301 -0.8660 -0.1109
   54DOPE  C214 6904   0.993   2.823  14.117  0.1373 -0.2725 -0.7342
   54DOPE  H14R 6905   0.925   2.874  14.045  0.7067  1.4851 -0.0791
   54DOPE  H14S 6906   1.059   2.892  14.174  1.1319 -1.1040 -0.8405
   54DOPE  C215 6907   0.902   2.770  14.229  0.1193 -0.1133  0.5784
   54DOPE  H15R 6908   0.867   2.853  14.293  0.8488  1.8190 -1.4153
   54DOPE  H15S 6909   0.959   2.702  14.297  0.6978  1.8197  2.1162
   54DOPE  C216 6910   0.775   2.701  14.173  0.6103 -0.2980  0.2007
   54DOPE  H16R 6911   0.801   2.610  14.113  0.9304  0.0308 -0.1703
   54DOPE  H16S 6912   0.717   2.773  14.112  0.8610 -0.0039  0.3066
   54DOPE  C217 6913   0.690   2.645  14.291  0.1010 -0.0685  0.5577
   54DOPE  H17R 6914   0.667   2.725  14.364  0.9556  0.1703  0.5676
   54DOPE  H17S 6915   0.745   2.565  14.344  0.9658 -0.7567 -1.2799
   54DOPE  C218 6916   0.564   2.572  14.245 -0.5697  0.9153 -0.0298
   54DOPE  H18R 6917   0.577   2.519  14.148 -0.6574  1.0442 -0.1134
   54DOPE  H18S 6918   0.489   2.650  14.221 -1.4181 -0.7334 -3.3297
   54DOPE  H18T 6919   0.525   2.507  14.326  1.5691 -2.9110 -1.8167
   54DOPE   C33 6920   2.020   3.519  13.585  0.1821  0.1543 -0.0588
   54DOPE   H3X 6921   1.935   3.470  13.534  0.0556  0.6153 -0.2903
   54DOPE   H3Y 6922   2.013   3.622  13.545 -0.9228 -0.1865 -0.7828
   54DOPE   C34 6923   1.984   3.528  13.734  0.3069  0.4985  0.0569
   54DOPE   H4X 6924   2.067   3.481  13.790  1.1278  0.4767 -1.1403
   54DOPE   H4Y 6925   1.983   3.634  13.769 -1.9247  0.2763  0.8642
   54DOPE   C35 6926   1.848   3.466  13.776  0.4141  0.1354 -0.0488
   54DOPE   H5X 6927   1.785   3.471  13.685 -2.7387 -0.1658  1.9693
   54DOPE   H5Y 6928   1.788   3.528  13.846 -1.2159 -0.7666 -0.6218
   54DOPE   C36 6929   1.866   3.334  13.843  0.6796 -0.5114 -0.3445
   54DOPE   H6X 6930   1.927   3.342  13.935 -0.5763 -0.7756  0.5494
   54DOPE   H6Y 6931   1.927   3.270  13.775  0.2191  1.0083 -2.2757
   54DOPE   C37 6932   1.735   3.263  13.873 -0.3267  0.5843  0.5111
   54DOPE   H7X 6933   1.669   3.253  13.785  0.2656 -0.1362  0.1383
   54DOPE   H7Y 6934   1.753   3.162  13.915 -1.1348  0.2182 -0.0079
   54DOPE   C38 6935   1.653   3.326  13.997  0.3699  0.1972 -0.2856
   54DOPE   H8X 6936   1.607   3.423  13.970 -2.1093 -1.1789 -1.2840
   54DOPE   H8Y 6937   1.717   3.340  14.087 -2.7241  1.1059  1.9131
   54DOPE   C39 6938   1.538   3.231  14.029 -0.1596  0.1538 -0.2573
   54DOPE   H9X 6939   1.436   3.248  13.992 -0.6375  0.2006  1.0497
   54DOPE  C310 6940   1.550   3.123  14.110  0.3769 -0.2927  0.1830
   54DOPE  H10X 6941   1.453   3.072  14.121 -0.1175  0.4785 -0.4683
   54DOPE  C311 6942   1.677   3.077  14.184  0.6860  0.1429 -0.1188
   54DOPE  H11X 6943   1.756   3.045  14.113  0.3219 -1.7633  0.2865
   54DOPE  H11Y 6944   1.720   3.157  14.249 -1.6145  1.0010  0.4266
   54DOPE  C312 6945   1.644   2.960  14.279  0.4356  0.6940 -0.1841
   54DOPE  H12X 6946   1.565   2.993  14.350  1.8331  0.0106  1.7905
   54DOPE  H12Y 6947   1.728   2.934  14.348  0.0504  1.9196  0.7934
   54DOPE  C313 6948   1.604   2.833  14.207  0.0387  0.3031  0.6878
   54DOPE  H13X 6949   1.517   2.840  14.139  1.1723 -0.0717 -0.8330
   54DOPE  H13Y 6950   1.679   2.816  14.127 -0.8781 -2.6085  0.2983
   54DOPE  C314 6951   1.587   2.709  14.302 -0.5234  0.2570  0.0802
   54DOPE  H14X 6952   1.502   2.723  14.372 -0.4926  0.2564  0.1175
   54DOPE  H14Y 6953   1.686   2.694  14.350 -0.9727 -3.1361  0.2128
   54DOPE  C315 6954   1.553   2.587  14.216 -0.3218 -0.6520 -0.1151
   54DOPE  H15X 6955   1.616   2.586  14.125  0.5434 -2.0268  0.4567
   54DOPE  H15Y 6956   1.453   2.605  14.172  0.6264 -0.7219 -2.4461
   54DOPE  C316 6957   1.578   2.459  14.280  0.2522 -0.0777  0.4700
   54DOPE  H16X 6958   1.685   2.443  14.303  0.1397 -2.6557 -0.4422
   54DOPE  H16Y 6959   1.547   2.377  14.213  2.5908  0.0902 -0.9242
   54DOPE  C317 6960   1.510   2.452  14.422  0.2574  0.6642  0.2048
   54DOPE  H17X 6961   1.576   2.503  14.495 -1.4546  1.9977  0.8728
   54DOPE  H17Y 6962   1.408   2.495  14.418 -1.4310 -2.9788 -0.0472
   54DOPE  C318 6963   1.490   2.308  14.475  0.0731 -0.7905  0.4346
   54DOPE  H18X 6964   1.408   2.265  14.414  0.9193  0.2253 -1.4936
   54DOPE  H18Y 6965   1.574   2.241  14.445 -0.6104 -2.4533  2.0523
   54DOPE  H18Z 6966   1.474   2.296  14.585 -1.7922  2.0179  0.5617
   55DOPE     N 6967   1.619   3.503  11.981  0.1727  0.2086 -0.2589
   55DOPE   HN1 6968   1.531   3.540  12.023  0.3673  0.8544 -0.4180
   55DOPE   HN2 6969   1.622   3.545  11.885  2.6023  0.1142 -0.2703
   55DOPE   HN3 6970   1.607   3.400  11.969 -1.5161  0.5399 -1.9609
   55DOPE   C12 6971   1.745   3.555  12.058 -0.1433 -0.1609  0.7334
   55DOPE  H12A 6972   1.831   3.521  11.996 -0.2600 -1.2144  1.1361
   55DOPE  H12B 6973   1.751   3.506  12.157 -0.1230  2.7903  2.3127
   55DOPE   C11 6974   1.739   3.706  12.074 -0.0531 -0.6423  1.0672
   55DOPE  H11A 6975   1.783   3.758  11.987 -1.4237 -1.5869 -0.2365
   55DOPE  H11B 6976   1.797   3.728  12.166  1.0465 -0.6823  0.3957
   55DOPE     P 6977   1.596   3.914  12.116  0.2790 -0.3773  0.1040
   55DOPE   O13 6978   1.599   3.990  11.990  0.4320  0.3693 -0.6129
   55DOPE   O14 6979   1.701   3.949  12.216  0.0715  0.1949  0.1219
   55DOPE   O11 6980   1.453   3.917  12.178  0.2336 -0.4497 -0.4047
   55DOPE   O12 6981   1.607   3.761  12.082 -0.6842  0.0043  0.5321
   55DOPE    C1 6982   1.427   3.877  12.308 -0.4542  0.1029 -0.6118
   55DOPE    HA 6983   1.494   3.797  12.345 -2.2967 -0.6543  1.2528
   55DOPE    HB 6984   1.327   3.831  12.323  0.3200 -2.1053 -1.8098
   55DOPE    C2 6985   1.430   3.993  12.412 -0.3517  0.3831  0.4177
   55DOPE    HS 6986   1.533   4.033  12.421 -0.8590  1.7860  0.2090
   55DOPE   O21 6987   1.368   3.934  12.525  0.5791 -0.2858  0.1695
   55DOPE   C21 6988   1.410   3.972  12.644  0.0301 -0.3356 -0.6170
   55DOPE   O22 6989   1.485   4.063  12.668 -0.1075 -0.4216  0.3071
   55DOPE   C22 6990   1.358   3.869  12.739 -0.1530  0.0866 -0.4421
   55DOPE   H2R 6991   1.351   3.775  12.681 -2.3354  0.7608 -1.3398
   55DOPE   H2S 6992   1.256   3.896  12.773  0.3822  1.1728  0.3743
   55DOPE    C3 6993   1.340   4.113  12.355 -0.5638  0.0373 -0.7799
   55DOPE    HX 6994   1.247   4.059  12.329 -0.1738 -0.9531 -0.1998
   55DOPE    HY 6995   1.396   4.159  12.271  0.9552 -2.1468 -1.0514
   55DOPE   O31 6996   1.314   4.204  12.466  0.5300 -0.5733  0.5494
   55DOPE   C31 6997   1.393   4.305  12.481  0.6179 -0.3642 -0.1590
   55DOPE   O32 6998   1.498   4.329  12.432 -0.3425 -0.2087 -0.4060
   55DOPE   C32 6999   1.325   4.399  12.575  0.1902 -0.2346  0.3671
   55DOPE   H2X 7000   1.410   4.464  12.605  0.2769  0.0340 -0.4458
   55DOPE   H2Y 7001   1.267   4.476  12.520 -0.4086 -1.8155 -1.3252
   55DOPE   C23 7002   1.446   3.846  12.865  0.8967 -0.4894  0.1773
   55DOPE   H3R 7003   1.448   3.938  12.928 -0.9503  0.9503 -1.7477
   55DOPE   H3S 7004   1.554   3.822  12.854  0.7891 -0.6772 -0.5155
   55DOPE   C24 7005   1.407   3.727  12.956 -0.1008 -0.7524  0.0837
   55DOPE   H4R 7006   1.494   3.702  13.019  0.7585  0.0773 -0.7502
   55DOPE   H4S 7007   1.381   3.641  12.890 -2.9076 -2.9607  3.6337
   55DOPE   C25 7008   1.279   3.766  13.040 -0.3752  0.1489  0.2333
   55DOPE   H5R 7009   1.193   3.719  12.990 -0.2461  0.4851 -0.3126
   55DOPE   H5S 7010   1.277   3.877  13.048  2.3944  0.1769  2.3048
   55DOPE   C26 7011   1.291   3.717  13.186 -0.1002 -0.6642 -0.3121
   55DOPE   H6R 7012   1.365   3.778  13.242  0.8285 -1.7917 -0.2782
   55DOPE   H6S 7013   1.335   3.616  13.191 -0.2324 -0.6710  3.0915
   55DOPE   C27 7014   1.154   3.697  13.256 -0.9253 -0.0977 -0.0266
   55DOPE   H7R 7015   1.103   3.620  13.194  2.6361 -0.9534 -2.1505
   55DOPE   H7S 7016   1.096   3.791  13.260  0.6174  0.8456  1.2748
   55DOPE   C28 7017   1.168   3.648  13.403 -0.4837 -0.1253 -0.1371
   55DOPE   H8R 7018   1.231   3.723  13.456 -1.2420  1.6849 -1.6834
   55DOPE   H8S 7019   1.216   3.548  13.392  0.2010  0.1710  0.0609
   55DOPE   C29 7020   1.037   3.633  13.476  0.4034  0.3611 -0.1112
   55DOPE   H9R 7021   0.954   3.594  13.415  0.1356 -0.4988  0.7743
   55DOPE  C210 7022   1.008   3.659  13.605 -0.3983  0.7423 -0.7212
   55DOPE  H10R 7023   0.905   3.654  13.642  0.0281 -1.3531  0.3106
   55DOPE  C211 7024   1.121   3.698  13.702  0.4076  0.0535  0.7501
   55DOPE  H11R 7025   1.144   3.802  13.671  2.6332  0.2616  2.8559
   55DOPE  H11S 7026   1.219   3.649  13.684 -0.2544 -1.1941  0.4208
   55DOPE  C212 7027   1.072   3.681  13.842 -0.0114 -0.1366  0.0199
   55DOPE  H12R 7028   1.062   3.574  13.868  0.6550  0.2896  2.2290
   55DOPE  H12S 7029   0.973   3.732  13.847 -0.3166 -0.6114 -1.0236
   55DOPE  C213 7030   1.167   3.740  13.943  0.2468  0.2138  0.0534
   55DOPE  H13R 7031   1.174   3.851  13.930 -0.1701  0.2804  0.3824
   55DOPE  H13S 7032   1.264   3.692  13.920  0.4832  0.9989 -0.6407
   55DOPE  C214 7033   1.124   3.714  14.088 -0.0021 -0.7449 -0.2012
   55DOPE  H14R 7034   1.117   3.606  14.113  1.8987 -1.3323 -1.9223
   55DOPE  H14S 7035   1.025   3.762  14.102  1.0728  1.9229 -1.0540
   55DOPE  C215 7036   1.221   3.775  14.189 -0.0458 -0.3452 -0.1044
   55DOPE  H15R 7037   1.214   3.885  14.177  2.0594 -0.0820  0.6271
   55DOPE  H15S 7038   1.325   3.744  14.162 -0.2521 -0.0310 -1.3226
   55DOPE  C216 7039   1.190   3.736  14.335  0.1984 -0.0051 -0.1254
   55DOPE  H16R 7040   1.085   3.753  14.366  0.1826  0.1081 -0.2384
   55DOPE  H16S 7041   1.226   3.813  14.407 -0.3836  2.8034 -2.6770
   55DOPE  C217 7042   1.239   3.595  14.374  0.1234  0.6298 -0.1865
   55DOPE  H17R 7043   1.206   3.522  14.298 -0.9952  2.4463 -1.5357
   55DOPE  H17S 7044   1.201   3.565  14.474  1.3064 -1.6755 -0.3839
   55DOPE  C218 7045   1.388   3.581  14.390  0.6880  0.4277 -0.4802
   55DOPE  H18R 7046   1.433   3.609  14.292  0.6395 -0.4121 -0.7569
   55DOPE  H18S 7047   1.426   3.478  14.408 -0.8951 -0.3956 -1.6357
   55DOPE  H18T 7048   1.418   3.640  14.479  2.1500 -2.2484  0.9313
   55DOPE   C33 7049   1.263   4.331  12.700 -0.1205 -0.0636  0.0528
   55DOPE   H3X 7050   1.339   4.266  12.748 -0.3599 -0.2563  0.1706
   55DOPE   H3Y 7051   1.180   4.267  12.664  2.2043 -2.7687 -0.8874
   55DOPE   C34 7052   1.226   4.430  12.811  0.1594 -0.0068  0.4727
   55DOPE   H4X 7053   1.317   4.454  12.870 -0.1297  1.3206  0.4113
   55DOPE   H4Y 7054   1.202   4.526  12.760 -0.4720 -1.9297 -3.2476
   55DOPE   C35 7055   1.121   4.385  12.903  0.9205  0.3278 -0.4185
   55DOPE   H5X 7056   1.148   4.281  12.932 -2.9693 -1.0668 -1.1748
   55DOPE   H5Y 7057   1.025   4.373  12.848  1.7718  1.1441 -2.1517
   55DOPE   C36 7058   1.106   4.479  13.025  0.4112 -0.3092 -0.0173
   55DOPE   H6X 7059   1.054   4.567  12.982  1.0256  0.4359  0.7573
   55DOPE   H6Y 7060   1.205   4.520  13.054  0.9302 -1.1651 -0.4979
   55DOPE   C37 7061   1.007   4.419  13.133 -0.4008 -1.0383 -0.2105
   55DOPE   H7X 7062   0.942   4.356  13.069  1.1806 -2.8279 -0.1339
   55DOPE   H7Y 7063   1.067   4.357  13.202 -0.6200 -1.1965 -0.1616
   55DOPE   C38 7064   0.933   4.525  13.207 -0.3764 -0.4814 -0.3289
   55DOPE   H8X 7065   0.855   4.570  13.142  0.4373  2.0237  0.3102
   55DOPE   H8Y 7066   1.001   4.612  13.214 -1.3111  0.2546 -0.1696
   55DOPE   C39 7067   0.879   4.493  13.348  0.2675  0.0950 -0.2035
   55DOPE   H9X 7068   0.771   4.471  13.340 -0.2420  1.1976  2.5379
   55DOPE  C310 7069   0.928   4.508  13.466  0.3526 -0.6616  0.0662
   55DOPE  H10X 7070   0.862   4.491  13.552 -1.1905  1.6735 -0.5661
   55DOPE  C311 7071   1.064   4.568  13.493  0.7044  0.0080 -0.1732
   55DOPE  H11X 7072   1.124   4.498  13.556  2.0964  1.5016  0.2359
   55DOPE  H11Y 7073   1.113   4.590  13.395 -0.7593 -0.0280 -0.9419
   55DOPE  C312 7074   1.071   4.706  13.566 -0.2737 -0.1322 -1.3105
   55DOPE  H12X 7075   1.008   4.781  13.513 -2.6199 -2.1248 -1.5466
   55DOPE  H12Y 7076   1.177   4.736  13.574  0.7212 -3.3881 -0.5444
   55DOPE  C313 7077   1.012   4.695  13.712 -0.3081 -0.2593  0.4672
   55DOPE  H13X 7078   1.015   4.799  13.752  0.2233  0.3454 -1.0718
   55DOPE  H13Y 7079   0.908   4.657  13.703 -0.0356 -0.7148 -0.9079
   55DOPE  C314 7080   1.091   4.607  13.807 -0.8045 -0.2969  0.4800
   55DOPE  H14X 7081   1.196   4.639  13.792 -1.0775 -0.4307 -2.1559
   55DOPE  H14Y 7082   1.070   4.501  13.779 -5.4212  0.2541  1.0086
   55DOPE  C315 7083   1.046   4.631  13.952  0.8488 -0.0442 -0.7053
   55DOPE  H15X 7084   1.062   4.738  13.979 -2.1317  0.5555 -0.9022
   55DOPE  H15Y 7085   1.107   4.571  14.023  1.7526  0.7445 -0.8017
   55DOPE  C316 7086   0.899   4.591  13.971  0.6183  0.1520  0.2952
   55DOPE  H16X 7087   0.872   4.495  13.921  1.2405 -0.0279  0.3012
   55DOPE  H16Y 7088   0.837   4.669  13.923 -0.7714 -0.1959  1.4274
   55DOPE  C317 7089   0.862   4.584  14.121  0.2793  0.3205  0.8913
   55DOPE  H17X 7090   0.935   4.509  14.156  0.1182 -1.3763 -2.0621
   55DOPE  H17Y 7091   0.869   4.683  14.173 -1.8697  0.7743  0.4101
   55DOPE  C318 7092   0.717   4.531  14.150 -0.4096 -0.2656  0.2122
   55DOPE  H18X 7093   0.650   4.601  14.096 -1.0557 -0.6294  0.5371
   55DOPE  H18Y 7094   0.694   4.428  14.118 -1.1432  0.1117 -0.4936
   55DOPE  H18Z 7095   0.702   4.541  14.260 -2.3170  2.6063 -0.2033
   56DOPE     N 7096   1.390   5.427  11.725  0.0202 -0.0155 -0.5406
   56DOPE   HN1 7097   1.413   5.517  11.678  0.1053 -0.5635 -1.5691
   56DOPE   HN2 7098   1.442   5.419  11.814  2.3044 -0.3910 -1.8443
   56DOPE   HN3 7099   1.415   5.348  11.662 -0.0235  0.2851 -0.9377
   56DOPE   C12 7100   1.239   5.430  11.740  0.3153 -0.3996 -0.8273
   56DOPE  H12A 7101   1.197   5.329  11.720  0.6736 -0.7073 -0.0438
   56DOPE  H12B 7102   1.205   5.504  11.664  0.4047 -0.7902 -1.2504
   56DOPE   C11 7103   1.201   5.495  11.876  0.0649 -0.1994 -0.8056
   56DOPE  H11A 7104   1.233   5.419  11.951  0.1351  0.3945 -0.2243
   56DOPE  H11B 7105   1.091   5.508  11.882  0.1456  0.1319  0.3552
   56DOPE     P 7106   1.218   5.754  11.905 -0.2200 -0.0467  0.1433
   56DOPE   O13 7107   1.098   5.759  11.815  0.0432  0.3799  0.0853
   56DOPE   O14 7108   1.332   5.841  11.861  0.0537  0.0519 -0.0938
   56DOPE   O11 7109   1.168   5.799  12.047  0.0374 -0.1144 -0.5893
   56DOPE   O12 7110   1.277   5.611  11.910  0.0612 -0.1684 -0.0698
   56DOPE    C1 7111   1.111   5.709  12.143 -0.4346  0.0049  0.7267
   56DOPE    HA 7112   1.152   5.733  12.243  0.4085  0.2215  0.3349
   56DOPE    HB 7113   1.132   5.606  12.108  2.2042  0.0590  1.9635
   56DOPE    C2 7114   0.954   5.738  12.163  0.2380 -0.0778  0.1138
   56DOPE    HS 7115   0.906   5.738  12.063 -2.0646  1.6110  1.1281
   56DOPE   O21 7116   0.943   5.866  12.220 -0.0664 -0.0690  0.1385
   56DOPE   C21 7117   0.824   5.934  12.189 -0.4000 -0.0174  0.7844
   56DOPE   O22 7118   0.740   5.883  12.122  0.3834 -0.3671  0.0387
   56DOPE   C22 7119   0.833   6.074  12.240  0.1269  0.4800 -0.1318
   56DOPE   H2R 7120   0.887   6.129  12.160 -1.3405 -1.3928 -2.5327
   56DOPE   H2S 7121   0.906   6.081  12.324 -1.3545  1.0755  1.1557
   56DOPE    C3 7122   0.882   5.634  12.251  0.2426  0.0746 -0.2916
   56DOPE    HX 7123   0.898   5.536  12.200  0.1612  0.3648 -0.8758
   56DOPE    HY 7124   0.772   5.644  12.258  0.1905 -0.5452 -0.1078
   56DOPE   O31 7125   0.949   5.606  12.381  0.5758  0.4518  0.2656
   56DOPE   C31 7126   0.894   5.686  12.476 -0.4458  0.3280 -0.3077
   56DOPE   O32 7127   0.780   5.730  12.466  0.4688  0.1641  0.2411
   56DOPE   C32 7128   0.990   5.692  12.595 -0.2137  0.5810 -0.2346
   56DOPE   H2X 7129   1.046   5.596  12.601  1.2081  1.3943 -0.0994
   56DOPE   H2Y 7130   1.067   5.765  12.565 -0.3472  2.4465  3.3768
   56DOPE   C23 7131   0.706   6.134  12.288  0.3722  0.3544  0.4756
   56DOPE   H3R 7132   0.617   6.104  12.229  0.7504 -1.9865  0.9965
   56DOPE   H3S 7133   0.716   6.243  12.272 -1.2402  0.7574  1.9132
   56DOPE   C24 7134   0.670   6.107  12.438  0.5106 -0.2318 -0.3916
   56DOPE   H4R 7135   0.757   6.137  12.499  0.4838  0.7851 -0.8287
   56DOPE   H4S 7136   0.663   5.998  12.457 -1.8488 -0.2263 -0.8899
   56DOPE   C25 7137   0.539   6.176  12.479  0.6335 -0.1060  0.8166
   56DOPE   H5R 7138   0.451   6.128  12.432  1.5013 -0.0864 -0.9025
   56DOPE   H5S 7139   0.539   6.275  12.430  0.9854 -0.0959  0.8310
   56DOPE   C26 7140   0.529   6.195  12.631 -0.4398 -0.1729 -0.0551
   56DOPE   H6R 7141   0.452   6.273  12.646 -1.1023 -0.3897 -2.0473
   56DOPE   H6S 7142   0.629   6.235  12.660  1.9537 -2.6382 -3.9951
   56DOPE   C27 7143   0.492   6.073  12.716 -0.1582  0.3134 -0.2585
   56DOPE   H7R 7144   0.560   5.994  12.679 -0.1452  1.2955 -2.5283
   56DOPE   H7S 7145   0.384   6.048  12.712 -0.1337  0.2265 -0.3580
   56DOPE   C28 7146   0.525   6.090  12.864 -0.2571  0.0806 -0.3300
   56DOPE   H8R 7147   0.464   6.024  12.929  1.2551  0.0646  1.1387
   56DOPE   H8S 7148   0.489   6.191  12.896  0.3962 -0.5854  2.8025
   56DOPE   C29 7149   0.673   6.080  12.904 -0.1332  0.4437 -0.4420
   56DOPE   H9R 7150   0.750   6.085  12.825  1.5124  2.2749  1.1900
   56DOPE  C210 7151   0.714   6.068  13.031 -0.8666  0.4014  0.4185
   56DOPE  H10R 7152   0.822   6.074  13.054 -0.6683 -2.2870  0.4773
   56DOPE  C211 7153   0.627   6.066  13.151  0.5931  0.3491 -0.8558
   56DOPE  H11R 7154   0.603   5.961  13.180 -3.8252  0.5294 -3.1155
   56DOPE  H11S 7155   0.531   6.118  13.134  0.5919  0.3256 -0.9229
   56DOPE  C212 7156   0.685   6.135  13.276  0.2643 -0.1474  0.1332
   56DOPE  H12R 7157   0.695   6.244  13.257  1.0719 -0.4145 -1.0914
   56DOPE  H12S 7158   0.787   6.099  13.302 -0.0156 -2.0878 -1.2386
   56DOPE  C213 7159   0.581   6.113  13.385 -0.0227 -0.6799 -0.0913
   56DOPE  H13R 7160   0.557   6.005  13.386  2.0140 -1.1851 -0.6817
   56DOPE  H13S 7161   0.488   6.160  13.348  0.6673 -0.3902 -1.5365
   56DOPE  C214 7162   0.621   6.161  13.523 -0.3546  0.0405  0.4649
   56DOPE  H14R 7163   0.664   6.263  13.511  1.3709 -0.9641 -3.0002
   56DOPE  H14S 7164   0.694   6.093  13.571 -1.2626 -0.9916  0.4269
   56DOPE  C215 7165   0.503   6.156  13.626 -0.2382 -0.3660 -0.3599
   56DOPE  H15R 7166   0.477   6.049  13.643 -0.2449 -0.0774  1.5617
   56DOPE  H15S 7167   0.409   6.211  13.605 -0.3003  0.7660  2.4933
   56DOPE  C216 7168   0.544   6.222  13.760 -0.7894  0.0427  0.0644
   56DOPE  H16R 7169   0.561   6.331  13.748  1.1982 -0.0661  1.3542
   56DOPE  H16S 7170   0.638   6.174  13.797 -0.2220  0.4055 -0.8505
   56DOPE  C217 7171   0.432   6.202  13.868 -0.3049  0.6788  0.1051
   56DOPE  H17R 7172   0.433   6.093  13.890 -0.4590  0.9398  1.4362
   56DOPE  H17S 7173   0.330   6.229  13.832 -0.2577  1.5038  0.5714
   56DOPE  C218 7174   0.449   6.278  14.001 -0.6872  0.0646  0.1624
   56DOPE  H18R 7175   0.518   6.217  14.064  1.0332  0.7235 -1.0107
   56DOPE  H18S 7176   0.345   6.285  14.042 -0.9038 -0.4974 -0.2801
   56DOPE  H18T 7177   0.511   6.365  13.973 -0.0416 -0.5027 -0.2042
   56DOPE   C33 7178   0.929   5.736  12.724 -0.8612  0.8771 -0.0264
   56DOPE   H3X 7179   0.881   5.654  12.782  0.8218  0.5771  1.0227
   56DOPE   H3Y 7180   0.850   5.812  12.712 -1.3777  0.0607 -2.2165
   56DOPE   C34 7181   1.031   5.806  12.819 -0.0244  0.0409 -0.2715
   56DOPE   H4X 7182   1.108   5.726  12.819 -1.1294 -1.1313  2.1522
   56DOPE   H4Y 7183   1.075   5.899  12.775 -0.3192  0.9191  1.2217
   56DOPE   C35 7184   0.998   5.822  12.967  0.6829 -0.3057  0.1680
   56DOPE   H5X 7185   0.915   5.895  12.981 -0.5021 -1.6172  0.2496
   56DOPE   H5Y 7186   1.082   5.869  13.023 -0.3772 -0.7480  2.2735
   56DOPE   C36 7187   0.936   5.699  13.039 -0.2904  0.5168 -0.1436
   56DOPE   H6X 7188   0.979   5.607  12.993 -0.5884 -0.2505  1.0809
   56DOPE   H6Y 7189   0.828   5.699  13.016 -0.5247  0.9309  0.9017
   56DOPE   C37 7190   0.952   5.702  13.188  0.1573  0.6338 -0.4605
   56DOPE   H7X 7191   1.057   5.698  13.224 -1.3489  0.4141  4.8289
   56DOPE   H7Y 7192   0.922   5.802  13.227  0.7119  0.1384  1.3283
   56DOPE   C38 7193   0.881   5.579  13.256  0.5482 -1.0652  0.1010
   56DOPE   H8X 7194   0.918   5.494  13.194 -0.9383  0.4767 -3.1442
   56DOPE   H8Y 7195   0.772   5.592  13.242  0.9791  0.6439 -2.1437
   56DOPE   C39 7196   0.926   5.579  13.398 -0.0357  0.2831  0.2454
   56DOPE   H9X 7197   0.994   5.495  13.420 -0.0914 -0.1823 -1.2308
   56DOPE  C310 7198   0.889   5.653  13.502 -0.0505 -0.5161  0.1329
   56DOPE  H10X 7199   0.931   5.631  13.602 -1.4715 -1.4540  0.5691
   56DOPE  C311 7200   0.784   5.761  13.501  0.1843  0.0583  0.1649
   56DOPE  H11X 7201   0.838   5.854  13.473  1.9628 -1.1565 -0.5947
   56DOPE  H11Y 7202   0.703   5.750  13.425  1.5656  1.8263 -1.6714
   56DOPE  C312 7203   0.714   5.777  13.637  0.1127  0.2249 -0.7347
   56DOPE  H12X 7204   0.663   5.682  13.664 -2.8057  2.1766  1.2289
   56DOPE  H12Y 7205   0.644   5.864  13.634 -1.4804 -0.9060  1.0693
   56DOPE  C313 7206   0.810   5.810  13.754  0.4815 -0.1150 -0.1583
   56DOPE  H13X 7207   0.906   5.755  13.748  1.1379  1.1610 -2.4081
   56DOPE  H13Y 7208   0.848   5.914  13.759 -1.0237  0.4396  0.5362
   56DOPE  C314 7209   0.745   5.777  13.894 -0.8394  0.5296  0.5105
   56DOPE  H14X 7210   0.825   5.794  13.970 -0.9621 -1.9373  1.2899
   56DOPE  H14Y 7211   0.730   5.668  13.883 -0.2243  0.4066  0.8150
   56DOPE  C315 7212   0.618   5.852  13.928 -0.3148  0.0289 -0.0375
   56DOPE  H15X 7213   0.531   5.834  13.861  0.0252 -0.7164 -0.2939
   56DOPE  H15Y 7214   0.635   5.958  13.900 -0.7118  0.6124  1.8206
   56DOPE  C316 7215   0.574   5.847  14.073 -0.6675  0.7546 -0.2884
   56DOPE  H16X 7216   0.479   5.903  14.083 -0.1005  1.9192 -1.1750
   56DOPE  H16Y 7217   0.641   5.905  14.141 -1.7769  0.6467  0.9395
   56DOPE  C317 7218   0.540   5.703  14.120 -0.2690 -0.3188  1.0146
   56DOPE  H17X 7219   0.477   5.660  14.040  1.4459 -1.9658  0.4778
   56DOPE  H17Y 7220   0.631   5.641  14.108 -1.1366 -1.2299 -1.5769
   56DOPE  C318 7221   0.473   5.702  14.252 -0.6132  0.3774  0.0637
   56DOPE  H18X 7222   0.382   5.763  14.234 -1.0466 -1.0641 -3.3280
   56DOPE  H18Y 7223   0.434   5.603  14.282 -0.3903  0.9722  2.5859
   56DOPE  H18Z 7224   0.539   5.738  14.334  1.8720 -3.0559 -0.2270
   57DOPE     N 7225   2.195   1.931  11.432  0.1800  0.3805 -0.5971
   57DOPE   HN1 7226   2.195   1.881  11.524 -0.5632  0.2329 -0.6746
   57DOPE   HN2 7227   2.094   1.930  11.406 -0.7890 -4.3170  1.9829
   57DOPE   HN3 7228   2.237   1.861  11.368 -0.4363 -0.3539 -0.2193
   57DOPE   C12 7229   2.273   2.062  11.441  0.9241  0.7350 -0.4710
   57DOPE  H12A 7230   2.271   2.117  11.345  2.5835  0.3995 -0.7320
   57DOPE  H12B 7231   2.377   2.029  11.461  1.3093  1.2870 -1.4824
   57DOPE   C11 7232   2.216   2.144  11.559  0.4139  0.0297 -0.1144
   57DOPE  H11A 7233   2.295   2.220  11.574 -0.6546  1.0409  0.6123
   57DOPE  H11B 7234   2.217   2.081  11.650 -2.5150 -0.0898 -0.0731
   57DOPE     P 7235   2.038   2.310  11.636 -0.3504  0.1242  0.0019
   57DOPE   O13 7236   1.892   2.337  11.612  0.3805 -0.4702  0.0081
   57DOPE   O14 7237   2.131   2.423  11.624 -0.1367  0.5349  0.7146
   57DOPE   O11 7238   2.056   2.241  11.778 -0.4010  0.1602 -0.2209
   57DOPE   O12 7239   2.089   2.200  11.539 -0.0258  0.0922  0.4845
   57DOPE    C1 7240   1.968   2.124  11.793 -0.1804 -0.1073  0.3663
   57DOPE    HA 7241   2.032   2.049  11.741 -0.4741 -0.1520  0.0642
   57DOPE    HB 7242   1.867   2.130  11.746 -1.0522 -1.5660  1.9566
   57DOPE    C2 7243   1.952   2.077  11.940 -0.1362  0.4484  0.7253
   57DOPE    HS 7244   1.885   1.988  11.938 -1.2821  1.2928 -0.1334
   57DOPE   O21 7245   1.905   2.185  12.024 -0.7171 -0.2673  0.0161
   57DOPE   C21 7246   1.776   2.217  12.008  0.2669 -0.8156  0.3501
   57DOPE   O22 7247   1.692   2.163  11.940 -0.0288  0.1359 -0.5726
   57DOPE   C22 7248   1.753   2.342  12.088 -0.4454 -0.4853 -0.3261
   57DOPE   H2R 7249   1.738   2.430  12.023  0.1193  0.7899  1.1815
   57DOPE   H2S 7250   1.842   2.348  12.155 -0.7024  0.4585 -0.0563
   57DOPE    C3 7251   2.084   2.022  11.993  0.5349  0.3803  0.1502
   57DOPE    HX 7252   2.162   2.100  11.983  1.2374 -0.1069  1.5831
   57DOPE    HY 7253   2.116   1.943  11.921 -0.9609 -0.5180  0.4179
   57DOPE   O31 7254   2.066   1.971  12.129 -0.5543  0.3025  0.6022
   57DOPE   C31 7255   2.146   2.029  12.219  0.0107  0.0171 -0.0978
   57DOPE   O32 7256   2.201   2.137  12.201  0.3158  0.0602 -0.1936
   57DOPE   C32 7257   2.149   1.946  12.350 -0.6469 -0.5996  0.4170
   57DOPE   H2X 7258   2.048   1.921  12.387 -0.3513 -2.1840  0.2172
   57DOPE   H2Y 7259   2.199   1.851  12.321 -0.6099 -1.2422  2.4556
   57DOPE   C23 7260   1.621   2.332  12.176 -0.6603 -0.8045 -1.0274
   57DOPE   H3R 7261   1.608   2.242  12.241  0.1894  0.1426  0.5200
   57DOPE   H3S 7262   1.528   2.338  12.115 -1.4420  0.8894  0.2624
   57DOPE   C24 7263   1.618   2.454  12.282  0.0259  0.8142  1.0578
   57DOPE   H4R 7264   1.667   2.539  12.231  2.9094 -1.8157 -0.9848
   57DOPE   H4S 7265   1.689   2.435  12.366  1.2903  0.0459 -0.1370
   57DOPE   C25 7266   1.481   2.480  12.346  0.0108  0.0413 -0.3344
   57DOPE   H5R 7267   1.402   2.495  12.270 -0.1797  2.7042  0.2937
   57DOPE   H5S 7268   1.482   2.566  12.417 -1.3649  0.6190 -0.9822
   57DOPE   C26 7269   1.436   2.358  12.439  0.7474  0.1861  0.3505
   57DOPE   H6R 7270   1.518   2.336  12.511 -1.1111 -0.7959  2.3026
   57DOPE   H6S 7271   1.414   2.269  12.378 -0.2254  0.0363  0.8884
   57DOPE   C27 7272   1.301   2.372  12.516  0.3499 -0.2044  0.3272
   57DOPE   H7R 7273   1.270   2.271  12.549 -1.2441 -0.2001 -1.0327
   57DOPE   H7S 7274   1.225   2.405  12.442 -1.2939 -1.2493  1.4979
   57DOPE   C28 7275   1.310   2.478  12.632 -0.0441  0.4824  0.6480
   57DOPE   H8R 7276   1.209   2.521  12.648 -0.3079  0.4539 -0.7991
   57DOPE   H8S 7277   1.366   2.562  12.586 -0.4857  0.4684  0.0670
   57DOPE   C29 7278   1.372   2.420  12.756 -0.3515 -1.0695 -1.0193
   57DOPE   H9R 7279   1.467   2.367  12.743  1.2439  1.1893  0.5813
   57DOPE  C210 7280   1.313   2.405  12.879  0.1459 -0.3434 -0.4338
   57DOPE  H10R 7281   1.371   2.373  12.967  1.2553  1.2579 -0.5529
   57DOPE  C211 7282   1.173   2.431  12.925 -0.6859  0.7897  0.2665
   57DOPE  H11R 7283   1.097   2.455  12.848 -2.3879 -0.3072  1.5334
   57DOPE  H11S 7284   1.188   2.519  12.991  2.6000  1.3813 -1.1009
   57DOPE  C212 7285   1.116   2.307  12.996  0.1416  0.3101 -0.0335
   57DOPE  H12R 7286   1.189   2.259  13.065  1.6245 -1.5178 -2.6920
   57DOPE  H12S 7287   1.107   2.235  12.912 -0.5869 -1.2919  1.3529
   57DOPE  C213 7288   0.995   2.344  13.084  0.2988  0.2537  0.7587
   57DOPE  H13R 7289   0.921   2.391  13.016  0.3569  0.6534  0.9695
   57DOPE  H13S 7290   1.021   2.419  13.162  1.6740  0.8147 -0.2037
   57DOPE  C214 7291   0.922   2.226  13.151  0.5578  0.5057 -0.7566
   57DOPE  H14R 7292   0.988   2.155  13.205  0.5993 -0.0859 -1.5679
   57DOPE  H14S 7293   0.873   2.160  13.076  1.9546 -0.1711 -1.0975
   57DOPE  C215 7294   0.807   2.270  13.252 -0.2185 -0.0105 -0.2425
   57DOPE  H15R 7295   0.736   2.346  13.213 -0.2410  0.2909  0.3783
   57DOPE  H15S 7296   0.855   2.315  13.341 -0.6544 -0.8214  0.4229
   57DOPE  C216 7297   0.723   2.143  13.280 -0.3202 -0.1058 -0.0908
   57DOPE  H16R 7298   0.784   2.081  13.349  0.1777  3.6857  3.2255
   57DOPE  H16S 7299   0.705   2.094  13.182 -0.5536  0.1447 -0.1742
   57DOPE  C217 7300   0.596   2.179  13.349 -0.0967 -0.4523  0.4954
   57DOPE  H17R 7301   0.544   2.264  13.300  1.8119  0.2438 -0.4027
   57DOPE  H17S 7302   0.613   2.215  13.453 -0.6655  0.7437  0.1894
   57DOPE  C218 7303   0.499   2.056  13.360 -0.7822  0.1380  0.3381
   57DOPE  H18R 7304   0.462   2.058  13.464  1.8559 -1.6481  1.4260
   57DOPE  H18S 7305   0.554   1.960  13.348 -2.2792 -0.5677 -1.3575
   57DOPE  H18T 7306   0.416   2.052  13.286 -0.9585  0.0307  0.5423
   57DOPE   C33 7307   2.239   1.999  12.460  0.3115  0.3364  0.0107
   57DOPE   H3X 7308   2.199   2.101  12.477  1.4038  0.7980 -0.1243
   57DOPE   H3Y 7309   2.348   1.999  12.436  0.4638  0.4899  0.6817
   57DOPE   C34 7310   2.215   1.913  12.589  0.4486 -0.5563  0.0132
   57DOPE   H4X 7311   2.110   1.878  12.600  0.7284 -0.8995  2.0609
   57DOPE   H4Y 7312   2.282   1.824  12.584  1.2831  0.0790 -0.2159
   57DOPE   C35 7313   2.236   1.997  12.718  0.1168  0.3525  0.7056
   57DOPE   H5X 7314   2.191   2.093  12.684  2.1533  0.6572 -1.3886
   57DOPE   H5Y 7315   2.341   2.032  12.735 -0.2813  1.6169  0.7259
   57DOPE   C36 7316   2.163   1.946  12.841  0.6748  0.4241 -0.5518
   57DOPE   H6X 7317   2.205   1.847  12.867  0.1025  0.6630  1.4732
   57DOPE   H6Y 7318   2.060   1.922  12.808  1.4132 -1.0807 -1.9143
   57DOPE   C37 7319   2.169   2.053  12.948  0.4520 -0.0628 -0.1386
   57DOPE   H7X 7320   2.275   2.067  12.978  0.0301  1.9840  0.5677
   57DOPE   H7Y 7321   2.139   2.151  12.907  1.9871  0.8954  0.8856
   57DOPE   C38 7322   2.081   2.014  13.066 -0.3119 -0.9271  0.6886
   57DOPE   H8X 7323   2.110   1.915  13.107 -1.5762 -1.0167  1.3990
   57DOPE   H8Y 7324   1.975   2.036  13.044 -0.3344  0.4356  2.0152
   57DOPE   C39 7325   2.113   2.119  13.175  0.1540 -0.2323  0.1284
   57DOPE   H9X 7326   2.120   2.224  13.143  0.2970  0.5256  2.4169
   57DOPE  C310 7327   2.131   2.090  13.305  0.1798 -0.0367 -0.1856
   57DOPE  H10X 7328   2.156   2.174  13.372 -2.0436  0.5792 -0.0600
   57DOPE  C311 7329   2.143   1.957  13.373  0.1709  0.0843  0.4831
   57DOPE  H11X 7330   2.133   1.870  13.306  1.9486  0.6379 -0.5593
   57DOPE  H11Y 7331   2.239   1.942  13.427 -0.9596 -0.3238  2.4883
   57DOPE  C312 7332   2.028   1.931  13.477 -0.0195 -0.2743 -0.3939
   57DOPE  H12X 7333   1.997   1.825  13.488 -0.5174  0.0399  1.5751
   57DOPE  H12Y 7334   1.939   1.987  13.441 -0.2475  0.5433  1.3698
   57DOPE  C313 7335   2.072   1.988  13.613 -0.0585 -0.5714  0.1354
   57DOPE  H13X 7336   2.168   1.941  13.642 -0.7033 -1.9302  0.1792
   57DOPE  H13Y 7337   2.072   2.099  13.614 -2.9923 -0.4986  0.1029
   57DOPE  C314 7338   1.966   1.955  13.722  0.1307  0.1838 -0.1857
   57DOPE  H14X 7339   1.929   1.850  13.715 -1.8474  0.8683 -0.7513
   57DOPE  H14Y 7340   1.876   2.015  13.699 -0.1893 -0.4939 -0.7325
   57DOPE  C315 7341   2.011   2.002  13.861 -0.1013  0.6948  0.0502
   57DOPE  H15X 7342   2.032   2.111  13.852  1.6295  0.7048  3.0399
   57DOPE  H15Y 7343   2.105   1.955  13.896 -0.2968  1.5669  1.8640
   57DOPE  C316 7344   1.909   1.982  13.976 -0.3525 -0.4190  0.5088
   57DOPE  H16X 7345   1.895   1.872  13.988  0.5639 -0.8303 -1.7637
   57DOPE  H16Y 7346   1.812   2.027  13.946  1.0709  1.2361 -1.9405
   57DOPE  C317 7347   1.948   2.042  14.108  0.5748 -0.5582  0.9106
   57DOPE  H17X 7348   2.055   2.027  14.132  2.0298  3.1673 -2.1397
   57DOPE  H17Y 7349   1.928   2.152  14.108  0.3822 -0.5767  2.2659
   57DOPE  C318 7350   1.855   1.981  14.216 -0.4944 -0.1169 -0.1788
   57DOPE  H18X 7351   1.845   1.870  14.211 -0.0253 -0.1244 -1.1473
   57DOPE  H18Y 7352   1.889   2.009  14.318 -2.0893 -1.1266  0.6730
   57DOPE  H18Z 7353   1.755   2.027  14.206  0.9873  3.0728 -1.3740
   58DOPE     N 7354   1.207   3.075  11.881  0.6300 -0.1599 -0.2248
   58DOPE   HN1 7355   1.260   2.986  11.875  0.2854 -0.3376 -0.7330
   58DOPE   HN2 7356   1.118   3.065  11.828  0.2451 -0.6875  0.5117
   58DOPE   HN3 7357   1.263   3.158  11.852  1.2525 -0.3541  0.4044
   58DOPE   C12 7358   1.183   3.108  12.027  0.1334  0.1514 -0.2137
   58DOPE  H12A 7359   1.268   3.081  12.094  0.4150  1.2621 -0.1030
   58DOPE  H12B 7360   1.102   3.040  12.060  0.3382  0.1701  0.3339
   58DOPE   C11 7361   1.152   3.251  12.056 -0.0537 -0.0168  0.0774
   58DOPE  H11A 7362   1.144   3.248  12.166 -0.7248 -0.4181  0.0294
   58DOPE  H11B 7363   1.053   3.284  12.017 -0.0727  0.5853  0.6263
   58DOPE     P 7364   1.233   3.490  11.981 -0.2284 -0.1083 -0.2836
   58DOPE   O13 7365   1.120   3.492  11.890 -0.4746 -0.5668 -0.9798
   58DOPE   O14 7366   1.352   3.565  11.941 -0.2443  0.0143 -0.5141
   58DOPE   O11 7367   1.174   3.531  12.124 -0.0287  0.6744 -0.4745
   58DOPE   O12 7368   1.262   3.334  12.011 -0.3498  0.3623 -0.5234
   58DOPE    C1 7369   1.260   3.540  12.232  0.3839 -0.1595 -0.4533
   58DOPE    HA 7370   1.328   3.628  12.225  0.1365 -0.0980 -2.6321
   58DOPE    HB 7371   1.321   3.448  12.245  0.7670  0.1570  0.0685
   58DOPE    C2 7372   1.173   3.549  12.361  0.3375 -0.3384  0.1863
   58DOPE    HS 7373   1.093   3.473  12.352  1.0524 -1.2096  0.9977
   58DOPE   O21 7374   1.119   3.681  12.350  0.0830  0.2751  0.2314
   58DOPE   C21 7375   0.991   3.697  12.380 -0.2932 -0.0560  0.4070
   58DOPE   O22 7376   0.917   3.608  12.414 -0.2775 -0.2449  0.2966
   58DOPE   C22 7377   0.956   3.837  12.335  0.3993  0.5940 -0.0354
   58DOPE   H2R 7378   0.886   3.829  12.249  0.3674  0.6743 -0.0172
   58DOPE   H2S 7379   1.034   3.899  12.285  1.0188  0.4451  0.7346
   58DOPE    C3 7380   1.255   3.526  12.490  0.5478 -0.1480  1.2152
   58DOPE    HX 7381   1.340   3.598  12.491  0.9856 -0.6479  2.4750
   58DOPE    HY 7382   1.315   3.433  12.486  0.3117 -0.2644 -2.4534
   58DOPE   O31 7383   1.180   3.521  12.611  0.2254 -0.0702 -0.1907
   58DOPE   C31 7384   1.114   3.407  12.623  0.0870  0.1039  0.4353
   58DOPE   O32 7385   1.126   3.308  12.555 -0.7202 -0.3683  0.7034
   58DOPE   C32 7386   1.023   3.420  12.743  0.3699 -0.1288 -0.5029
   58DOPE   H2X 7387   0.979   3.319  12.759 -0.3905  0.2788  0.0781
   58DOPE   H2Y 7388   1.089   3.439  12.830 -0.5264 -0.8301  0.3622
   58DOPE   C23 7389   0.908   3.916  12.460 -0.2138 -0.3465 -0.3006
   58DOPE   H3R 7390   0.847   3.847  12.524  0.8620  0.9263  2.2434
   58DOPE   H3S 7391   0.843   4.002  12.433  1.1243  1.2587  1.3565
   58DOPE   C24 7392   1.030   3.957  12.547  0.5164  0.5717  0.0263
   58DOPE   H4R 7393   1.106   4.015  12.491  0.6398  1.3574  0.9753
   58DOPE   H4S 7394   1.058   3.858  12.589  1.5040  1.2852  1.1130
   58DOPE   C25 7395   0.998   4.045  12.672  0.2614  0.4768 -0.7576
   58DOPE   H5R 7396   0.934   4.134  12.655  1.8902  1.6366 -0.9678
   58DOPE   H5S 7397   1.096   4.087  12.702  1.5959 -3.3921  0.9206
   58DOPE   C26 7398   0.950   3.958  12.789 -1.0486  0.0074  0.0870
   58DOPE   H6R 7399   1.030   3.884  12.810 -1.8103 -0.3080  2.0452
   58DOPE   H6S 7400   0.855   3.903  12.770 -1.3593  0.4253  0.4040
   58DOPE   C27 7401   0.929   4.040  12.917  0.4836  0.3610  0.1695
   58DOPE   H7R 7402   0.837   4.099  12.896  0.5381  0.5572  0.4806
   58DOPE   H7S 7403   1.013   4.112  12.922  1.1398 -0.3460 -0.4909
   58DOPE   C28 7404   0.906   3.967  13.046  0.1940  0.1560 -0.1603
   58DOPE   H8R 7405   0.971   3.878  13.059 -2.2259 -1.4656  1.9289
   58DOPE   H8S 7406   0.802   3.929  13.035 -0.2592  1.6155 -1.1308
   58DOPE   C29 7407   0.920   4.056  13.170 -0.1767 -0.5949 -0.4105
   58DOPE   H9R 7408   1.004   4.126  13.172 -1.8676  1.5665 -0.2664
   58DOPE  C210 7409   0.820   4.077  13.261  0.9180  0.0213 -0.2429
   58DOPE  H10R 7410   0.848   4.143  13.344 -1.2010 -0.1973  0.7089
   58DOPE  C211 7411   0.684   4.005  13.263 -0.3025  0.5292  0.0831
   58DOPE  H11R 7412   0.666   3.934  13.180  0.5289 -1.3100  1.4310
   58DOPE  H11S 7413   0.607   4.086  13.266  0.3473  1.1832 -0.4264
   58DOPE  C212 7414   0.673   3.914  13.390 -0.0883  0.1946 -0.8908
   58DOPE  H12R 7415   0.766   3.853  13.394  0.6403  1.3159  1.2279
   58DOPE  H12S 7416   0.594   3.839  13.374 -1.6780  1.9374 -1.6098
   58DOPE  C213 7417   0.664   3.995  13.519 -0.5368 -0.0591  0.4383
   58DOPE  H13R 7418   0.561   4.030  13.539 -0.8597 -1.3632  1.1693
   58DOPE  H13S 7419   0.733   4.083  13.520 -0.3801 -0.1750  0.0121
   58DOPE  C214 7420   0.703   3.918  13.649  0.3207  0.0695 -0.1895
   58DOPE  H14R 7421   0.803   3.869  13.641  0.4157  0.2821 -0.3027
   58DOPE  H14S 7422   0.627   3.843  13.680  0.5025  0.6021  1.6776
   58DOPE  C215 7423   0.706   4.017  13.769 -0.0123  0.0496  0.1897
   58DOPE  H15R 7424   0.615   4.081  13.758 -0.0330  0.0830  0.5638
   58DOPE  H15S 7425   0.800   4.076  13.771  1.0127 -1.5421  1.2472
   58DOPE  C216 7426   0.698   3.950  13.905  0.2965  0.2347 -0.3197
   58DOPE  H16R 7427   0.797   3.898  13.913  0.7071  1.2104  1.8970
   58DOPE  H16S 7428   0.617   3.874  13.900 -1.1836  1.8386 -1.5781
   58DOPE  C217 7429   0.671   4.050  14.013 -0.0693 -0.9572 -0.5615
   58DOPE  H17R 7430   0.567   4.081  13.991  0.4869  0.7152 -0.9757
   58DOPE  H17S 7431   0.736   4.139  14.001  0.5434 -1.0116  1.7712
   58DOPE  C218 7432   0.683   4.009  14.160 -0.1318 -0.4031 -0.9572
   58DOPE  H18R 7433   0.689   4.098  14.226 -1.8003 -0.9781  0.0187
   58DOPE  H18S 7434   0.773   3.944  14.173 -2.2291 -3.7216 -1.7422
   58DOPE  H18T 7435   0.589   3.968  14.201 -0.8882  1.2515 -0.9547
   58DOPE   C33 7436   0.918   3.537  12.742 -0.0123 -0.0258  0.2883
   58DOPE   H3X 7437   0.860   3.518  12.649  1.1147  0.2743 -0.4998
   58DOPE   H3Y 7438   0.981   3.627  12.726 -0.3613  0.2612  0.5118
   58DOPE   C34 7439   0.820   3.548  12.856 -0.0454  0.2188  0.7240
   58DOPE   H4X 7440   0.742   3.625  12.838 -2.1281 -1.3985  2.3788
   58DOPE   H4Y 7441   0.766   3.452  12.868  0.1903  0.2018  1.7000
   58DOPE   C35 7442   0.882   3.593  12.987 -0.0407  0.4673  0.2002
   58DOPE   H5X 7443   0.929   3.693  12.985  0.8457  0.0812  1.1025
   58DOPE   H5Y 7444   0.959   3.517  13.014  0.3329  0.6502 -0.3354
   58DOPE   C36 7445   0.784   3.593  13.101  0.2121  0.3460  0.5679
   58DOPE   H6X 7446   0.697   3.659  13.083 -1.4446 -1.7037  0.6629
   58DOPE   H6Y 7447   0.841   3.634  13.186 -0.0909  1.9529  0.0256
   58DOPE   C37 7448   0.727   3.450  13.137 -0.1708 -0.2872 -0.0607
   58DOPE   H7X 7449   0.636   3.425  13.079 -1.2758  0.5295  1.2448
   58DOPE   H7Y 7450   0.804   3.376  13.107 -1.2312 -1.5033  0.1288
   58DOPE   C38 7451   0.702   3.429  13.290 -0.9793  0.0364 -0.2343
   58DOPE   H8X 7452   0.787   3.481  13.341  0.1441 -1.0982 -0.9029
   58DOPE   H8Y 7453   0.715   3.320  13.300  2.4542  0.1407 -2.0957
   58DOPE   C39 7454   0.563   3.466  13.336 -0.2535  0.1100  0.3522
   58DOPE   H9X 7455   0.487   3.441  13.261 -0.5279  1.4315  0.1730
   58DOPE  C310 7456   0.535   3.524  13.455 -0.3319 -0.4807 -0.1802
   58DOPE  H10X 7457   0.426   3.532  13.470 -0.5557 -0.1729 -1.7574
   58DOPE  C311 7458   0.630   3.558  13.564 -0.3052  0.0331  0.1266
   58DOPE  H11X 7459   0.730   3.510  13.558 -0.4468 -0.7584  2.6610
   58DOPE  H11Y 7460   0.649   3.667  13.573  0.9643  0.0512 -2.1123
   58DOPE  C312 7461   0.581   3.506  13.706 -0.8613 -0.6442  0.7700
   58DOPE  H12X 7462   0.574   3.395  13.716 -2.1321 -0.7556 -0.9850
   58DOPE  H12Y 7463   0.487   3.554  13.742 -0.2191  0.4136  1.0559
   58DOPE  C313 7464   0.697   3.540  13.813 -0.0823 -0.3183  0.6699
   58DOPE  H13X 7465   0.782   3.470  13.803  1.0580  1.2186 -1.1659
   58DOPE  H13Y 7466   0.742   3.639  13.790 -0.7756  0.5965  3.0195
   58DOPE  C314 7467   0.632   3.548  13.950  0.6754  0.0317  0.0724
   58DOPE  H14X 7468   0.589   3.448  13.973 -0.9573  0.9063  0.9662
   58DOPE  H14Y 7469   0.550   3.622  13.956  0.7901  0.0190  3.6777
   58DOPE  C315 7470   0.727   3.582  14.066 -0.5419 -0.4294 -0.3861
   58DOPE  H15X 7471   0.778   3.674  14.032 -1.7359  0.0637 -0.9147
   58DOPE  H15Y 7472   0.793   3.495  14.088 -1.4544 -0.6175  1.9480
   58DOPE  C316 7473   0.654   3.614  14.198 -0.1189 -0.4246 -0.1603
   58DOPE  H16X 7474   0.580   3.538  14.230 -1.8979  1.9141  1.6635
   58DOPE  H16Y 7475   0.603   3.710  14.174  1.5544  0.4653 -0.3261
   58DOPE  C317 7476   0.750   3.636  14.318  0.9885  0.2142  0.1196
   58DOPE  H17X 7477   0.791   3.543  14.363  1.0219  0.5733  0.8524
   58DOPE  H17Y 7478   0.831   3.694  14.269  1.9140 -0.2325  1.0582
   58DOPE  C318 7479   0.682   3.717  14.437  0.2263  0.2858  0.2525
   58DOPE  H18X 7480   0.616   3.801  14.406 -0.3026 -0.5676 -1.0601
   58DOPE  H18Y 7481   0.627   3.639  14.493  1.2624  0.0396  0.9548
   58DOPE  H18Z 7482   0.755   3.749  14.514  0.0819  1.7825 -0.2025
   59DOPE     N 7483   6.569   1.693  10.834 -0.1552 -0.0044 -0.0829
   59DOPE   HN1 7484   6.671   1.710  10.843 -0.4878  1.0465  2.7269
   59DOPE   HN2 7485   6.554   1.619  10.763 -0.3030 -0.0567  0.0024
   59DOPE   HN3 7486   6.523   1.782  10.807 -1.6081 -0.5346  0.5630
   59DOPE   C12 7487   6.498   1.638  10.955 -0.1621  0.5028 -0.7517
   59DOPE  H12A 7488   6.571   1.569  11.001 -1.0215 -0.2009 -0.4031
   59DOPE  H12B 7489   6.410   1.578  10.922 -0.1775 -0.2313  0.5694
   59DOPE   C11 7490   6.473   1.736  11.076 -0.4157 -0.3486 -0.2884
   59DOPE  H11A 7491   6.435   1.684  11.167  0.3986  2.0570  1.5241
   59DOPE  H11B 7492   6.399   1.815  11.049  0.5903  0.7881  0.1927
   59DOPE     P 7493   6.644   1.854  11.247 -0.0545 -0.0602  0.3911
   59DOPE   O13 7494   6.548   1.812  11.348  0.1647 -0.1881  0.4439
   59DOPE   O14 7495   6.686   1.994  11.244 -0.1271 -0.3401 -0.0259
   59DOPE   O11 7496   6.772   1.762  11.268 -0.0720 -0.4751  0.1922
   59DOPE   O12 7497   6.592   1.798  11.104 -0.3162 -0.4962 -0.1260
   59DOPE    C1 7498   6.777   1.622  11.277 -0.0073  0.1248  0.2198
   59DOPE    HA 7499   6.738   1.566  11.189 -0.6637 -1.6817  1.5910
   59DOPE    HB 7500   6.700   1.592  11.351 -1.6731 -0.1742 -1.5620
   59DOPE    C2 7501   6.924   1.584  11.312 -0.3819  0.0310  0.2279
   59DOPE    HS 7502   6.978   1.609  11.218  0.2208 -0.4736  0.4348
   59DOPE   O21 7503   6.932   1.440  11.344 -0.8223  0.1880  0.0017
   59DOPE   C21 7504   7.054   1.393  11.336  0.0433  0.6579  0.0807
   59DOPE   O22 7505   7.156   1.453  11.307 -0.1329 -0.1284  0.5292
   59DOPE   C22 7506   7.039   1.244  11.364 -0.6670 -0.4310 -0.3394
   59DOPE   H2R 7507   7.114   1.190  11.302  0.0694 -0.2077  0.3330
   59DOPE   H2S 7508   6.944   1.206  11.321 -0.6174 -0.4231 -0.4569
   59DOPE    C3 7509   6.980   1.673  11.423  0.1716 -0.4885  0.0110
   59DOPE    HX 7510   6.975   1.777  11.382 -1.1443 -1.2978 -2.0403
   59DOPE    HY 7511   7.086   1.642  11.436  0.6299  1.1194  0.3073
   59DOPE   O31 7512   6.913   1.639  11.548 -0.2133 -0.5309 -0.1116
   59DOPE   C31 7513   6.938   1.731  11.638  0.1251 -0.7622  0.2057
   59DOPE   O32 7514   7.002   1.834  11.619 -0.6815 -0.1943 -0.5205
   59DOPE   C32 7515   6.870   1.704  11.772 -0.2962  0.2512  0.3514
   59DOPE   H2X 7516   6.762   1.732  11.766 -0.0987  1.5615  2.2453
   59DOPE   H2Y 7517   6.873   1.594  11.791 -1.3963  0.5148  2.3094
   59DOPE   C23 7518   7.052   1.220  11.517 -0.4904 -0.3276 -0.0553
   59DOPE   H3R 7519   6.973   1.145  11.539 -1.0377  0.0772 -0.6178
   59DOPE   H3S 7520   7.007   1.301  11.578  2.2063 -1.1736  3.4483
   59DOPE   C24 7521   7.192   1.181  11.574  0.1439 -0.0782 -0.0026
   59DOPE   H4R 7522   7.262   1.267  11.559  0.0405  0.1466  0.7788
   59DOPE   H4S 7523   7.239   1.103  11.510 -2.9846 -1.7970 -0.3789
   59DOPE   C25 7524   7.191   1.122  11.716 -0.0542  0.5506  0.2880
   59DOPE   H5R 7525   7.172   1.013  11.706  2.3296 -0.1417  2.2459
   59DOPE   H5S 7526   7.105   1.169  11.769 -0.1886  2.8796 -1.8085
   59DOPE   C26 7527   7.312   1.146  11.811 -0.2244 -0.5232  0.1073
   59DOPE   H6R 7528   7.304   1.114  11.917  0.2988 -0.7981  0.0675
   59DOPE   H6S 7529   7.333   1.255  11.820  2.1869 -1.0033  1.2663
   59DOPE   C27 7530   7.432   1.082  11.758 -0.7254  0.2075  0.7017
   59DOPE   H7R 7531   7.460   1.107  11.653 -0.5892 -0.6999  0.5077
   59DOPE   H7S 7532   7.410   0.974  11.741 -1.9148  0.6867 -1.0122
   59DOPE   C28 7533   7.563   1.075  11.836  0.5272 -0.0943 -0.4872
   59DOPE   H8R 7534   7.639   1.018  11.778 -0.2830 -0.1631 -1.5265
   59DOPE   H8S 7535   7.548   1.038  11.939  1.1326  1.5184  0.2164
   59DOPE   C29 7536   7.615   1.218  11.847  0.6513  0.1542 -0.3315
   59DOPE   H9R 7537   7.655   1.255  11.751 -1.4148 -0.7244 -1.5951
   59DOPE  C210 7538   7.626   1.295  11.958  0.0527  0.1123 -0.5139
   59DOPE  H10R 7539   7.689   1.385  11.949 -0.0156  0.2178  0.0587
   59DOPE  C211 7540   7.589   1.267  12.104 -0.2718 -0.2549  0.2460
   59DOPE  H11R 7541   7.503   1.199  12.121 -1.5080  1.3298  0.4876
   59DOPE  H11S 7542   7.546   1.362  12.143 -0.8521 -0.2397 -0.4197
   59DOPE  C212 7543   7.705   1.222  12.199 -0.6259  0.3580  0.1996
   59DOPE  H12R 7544   7.679   1.239  12.305  1.0440 -1.6234  0.9887
   59DOPE  H12S 7545   7.797   1.284  12.189 -0.4816  0.7505  3.1268
   59DOPE  C213 7546   7.734   1.075  12.166  0.0772  0.0510 -0.3097
   59DOPE  H13R 7547   7.774   1.060  12.063 -2.5107  1.8641 -1.7105
   59DOPE  H13S 7548   7.628   1.041  12.160 -0.0125 -0.0798  1.5733
   59DOPE  C214 7549   7.817   1.006  12.281 -1.3941  0.0467  0.3599
   59DOPE  H14R 7550   7.765   1.000  12.379  1.0763  0.9296  1.8321
   59DOPE  H14S 7551   7.907   1.068  12.303 -1.5047  0.1106  0.6340
   59DOPE  C215 7552   7.855   0.867  12.239 -0.3534  0.2651  0.1606
   59DOPE  H15R 7553   7.764   0.814  12.202 -0.3037 -0.8463  1.5605
   59DOPE  H15S 7554   7.882   0.805  12.327 -1.2719 -0.8298 -0.2950
   59DOPE  C216 7555   7.961   0.857  12.134 -0.6941 -0.3167  0.3888
   59DOPE  H16R 7556   7.934   0.910  12.041  0.4344  0.5896  0.5446
   59DOPE  H16S 7557   7.971   0.748  12.113  0.5024 -0.1956  0.2572
   59DOPE  C217 7558   8.106   0.900  12.169 -0.3789  0.3499 -0.2643
   59DOPE  H17R 7559   8.147   0.855  12.262 -0.0751  0.7745 -0.1920
   59DOPE  H17S 7560   8.106   1.010  12.179  0.5428  0.3874 -0.6453
   59DOPE  C218 7561   8.217   0.870  12.059  0.1201  0.3065  0.3341
   59DOPE  H18R 7562   8.213   0.763  12.030 -1.5502  0.7854 -1.4638
   59DOPE  H18S 7563   8.320   0.884  12.098 -0.4202  2.3029  1.1809
   59DOPE  H18T 7564   8.209   0.931  11.966 -0.7847  0.6507  0.6252
   59DOPE   C33 7565   6.920   1.795  11.887 -0.0892  0.2215  0.2433
   59DOPE   H3X 7566   6.887   1.898  11.864  1.6132  0.6262 -0.5673
   59DOPE   H3Y 7567   7.031   1.794  11.897 -0.1166  0.4693  0.5529
   59DOPE   C34 7568   6.860   1.779  12.023  0.2342  0.3788 -0.3525
   59DOPE   H4X 7569   6.900   1.858  12.090 -1.8553  1.0315  0.2034
   59DOPE   H4Y 7570   6.749   1.786  12.015  0.3700  0.7570 -2.4035
   59DOPE   C35 7571   6.900   1.649  12.092 -0.4779  0.4284  0.0890
   59DOPE   H5X 7572   7.010   1.635  12.100 -0.6569 -2.2303 -1.2176
   59DOPE   H5Y 7573   6.872   1.568  12.022 -0.3387  1.4123 -1.1588
   59DOPE   C36 7574   6.822   1.626  12.224 -0.0777 -0.1414 -0.1586
   59DOPE   H6X 7575   6.841   1.519  12.251 -1.0324  0.1181  1.7227
   59DOPE   H6Y 7576   6.713   1.645  12.218  0.2355  2.1224  0.4016
   59DOPE   C37 7577   6.873   1.719  12.340 -0.3945  0.0285  0.8359
   59DOPE   H7X 7578   6.983   1.707  12.353 -0.0810  0.5546 -1.0839
   59DOPE   H7Y 7579   6.847   1.824  12.316 -2.0445 -0.3336  0.9019
   59DOPE   C38 7580   6.806   1.687  12.480  0.0655 -0.0887 -0.1956
   59DOPE   H8X 7581   6.696   1.677  12.465 -0.0978  0.7686  0.3328
   59DOPE   H8Y 7582   6.824   1.771  12.550 -0.0436  2.4186 -2.9860
   59DOPE   C39 7583   6.849   1.546  12.525 -0.0449 -0.0482 -0.6847
   59DOPE   H9X 7584   6.798   1.461  12.478 -1.6051  1.2524 -1.4564
   59DOPE  C310 7585   6.926   1.515  12.629  0.1546 -0.2429  0.0906
   59DOPE  H10X 7586   6.946   1.407  12.639  0.3030 -0.2618 -0.3624
   59DOPE  C311 7587   6.986   1.600  12.738 -0.4657 -0.4305 -0.2869
   59DOPE  H11X 7588   7.097   1.601  12.728 -0.6650 -0.7136 -4.0489
   59DOPE  H11Y 7589   6.948   1.704  12.732 -2.1068 -1.0494 -1.6725
   59DOPE  C312 7590   6.948   1.540  12.881 -0.3499 -0.0542  0.1662
   59DOPE  H12X 7591   7.003   1.444  12.890  0.8902  0.4640 -1.4392
   59DOPE  H12Y 7592   6.838   1.520  12.880 -0.3493 -0.1846 -2.1918
   59DOPE  C313 7593   6.990   1.626  12.996  0.0345 -0.5016  0.4254
   59DOPE  H13X 7594   7.099   1.646  12.985  0.5677 -0.8496  4.0512
   59DOPE  H13Y 7595   6.928   1.716  12.977 -1.4131 -1.0451  2.2535
   59DOPE  C314 7596   6.974   1.564  13.131 -0.0741  0.0473 -0.1389
   59DOPE  H14X 7597   7.039   1.474  13.143 -1.5964 -1.1805 -0.6995
   59DOPE  H14Y 7598   6.868   1.533  13.145 -0.2667  1.4505  1.9613
   59DOPE  C315 7599   7.017   1.662  13.242  0.5584 -0.0662  0.0016
   59DOPE  H15X 7600   6.972   1.762  13.228  2.6028  1.3188  2.4417
   59DOPE  H15Y 7601   7.126   1.673  13.228  0.9693  0.3566  2.9255
   59DOPE  C316 7602   6.981   1.634  13.383  0.3184 -0.2761  0.3278
   59DOPE  H16X 7603   7.048   1.549  13.409 -0.1380 -0.4000  1.1151
   59DOPE  H16Y 7604   6.873   1.607  13.388  0.8543 -2.3696  2.2307
   59DOPE  C317 7605   7.013   1.759  13.477 -0.0565 -0.3353 -0.3362
   59DOPE  H17X 7606   7.109   1.799  13.436 -0.2420  0.2630 -0.1866
   59DOPE  H17Y 7607   6.935   1.837  13.470 -0.6277 -0.8452  0.2880
   59DOPE  C318 7608   7.022   1.728  13.628 -0.1346  0.1301  0.3402
   59DOPE  H18X 7609   6.928   1.687  13.670 -0.8068  1.7247  0.4378
   59DOPE  H18Y 7610   7.092   1.642  13.632  0.0702  0.0803 -2.3000
   59DOPE  H18Z 7611   7.071   1.798  13.699 -0.9196 -0.7799  1.8183
   60DOPE     N 7612   0.462   5.998  11.382 -0.3104  0.4530  0.4931
   60DOPE   HN1 7613   0.560   5.962  11.377 -1.0678 -1.5367 -2.0803
   60DOPE   HN2 7614   0.406   5.939  11.319 -1.8717  0.7214  1.5737
   60DOPE   HN3 7615   0.470   6.097  11.351 -0.2447 -0.2463 -1.8933
   60DOPE   C12 7616   0.409   5.995  11.518  0.6142 -0.5778 -0.7205
   60DOPE  H12A 7617   0.414   5.893  11.561  0.8248 -0.2869 -0.0549
   60DOPE  H12B 7618   0.303   6.026  11.503  0.5092  0.4123  1.5951
   60DOPE   C11 7619   0.469   6.090  11.628  0.1483 -0.0988  0.2631
   60DOPE  H11A 7620   0.560   6.043  11.671 -0.7129 -1.5593  0.5734
   60DOPE  H11B 7621   0.391   6.087  11.707 -0.0723 -2.4689  0.0460
   60DOPE     P 7622   0.378   6.335  11.591  0.1517 -0.2862 -0.1334
   60DOPE   O13 7623   0.247   6.283  11.552 -0.0230 -0.3227  0.3106
   60DOPE   O14 7624   0.423   6.458  11.517 -0.5538  0.2028  0.4131
   60DOPE   O11 7625   0.379   6.367  11.745  0.5197 -0.3562 -0.4836
   60DOPE   O12 7626   0.493   6.219  11.574  0.6552 -0.9449  0.1481
   60DOPE    C1 7627   0.502   6.386  11.825  0.2559 -0.0359  1.1849
   60DOPE    HA 7628   0.544   6.488  11.812  1.7164 -0.9793 -3.4106
   60DOPE    HB 7629   0.583   6.319  11.789  0.6239  0.2042  1.5673
   60DOPE    C2 7630   0.472   6.365  11.980 -0.1250  0.4300  0.4085
   60DOPE    HS 7631   0.564   6.381  12.040  0.8648 -0.5476 -0.7889
   60DOPE   O21 7632   0.398   6.244  12.007 -0.4617  0.1233  0.3758
   60DOPE   C21 7633   0.469   6.144  12.002 -0.6234  0.5782 -0.1084
   60DOPE   O22 7634   0.587   6.135  11.984 -0.0922  0.2372 -0.1828
   60DOPE   C22 7635   0.385   6.013  12.019 -0.2893 -0.4954  1.0190
   60DOPE   H2R 7636   0.434   5.928  11.967  0.6826  0.1476  0.8762
   60DOPE   H2S 7637   0.288   6.031  11.968  0.5984 -0.2091 -0.6484
   60DOPE    C3 7638   0.383   6.481  12.038  1.1229  0.3577  0.5548
   60DOPE    HX 7639   0.282   6.485  11.993  0.9965  0.9100  0.8782
   60DOPE    HY 7640   0.431   6.576  12.006 -1.0816  0.9144 -1.3617
   60DOPE   O31 7641   0.377   6.475  12.177 -0.2085  0.8331 -0.4309
   60DOPE   C31 7642   0.260   6.482  12.245  0.6686  0.5140  0.4610
   60DOPE   O32 7643   0.149   6.497  12.193  0.0827 -0.0801 -0.2038
   60DOPE   C32 7644   0.298   6.468  12.393  0.2915 -0.2209  0.0811
   60DOPE   H2X 7645   0.242   6.386  12.443 -1.1864  1.8190  2.0422
   60DOPE   H2Y 7646   0.408   6.454  12.398  0.4435  0.9177  0.2610
   60DOPE   C23 7647   0.367   5.983  12.170 -0.2523 -0.1032  0.2856
   60DOPE   H3R 7648   0.299   6.058  12.216 -1.4792 -0.3408 -1.0813
   60DOPE   H3S 7649   0.468   5.984  12.216  0.4793  0.2413 -1.2689
   60DOPE   C24 7650   0.316   5.838  12.180 -0.2543 -0.1656 -0.4268
   60DOPE   H4R 7651   0.369   5.768  12.113  1.3955 -0.9264  1.5733
   60DOPE   H4S 7652   0.213   5.841  12.137  0.0503 -0.4917 -1.1923
   60DOPE   C25 7653   0.324   5.778  12.320  0.1401  1.0017  0.3441
   60DOPE   H5R 7654   0.302   5.848  12.403  0.0345 -1.8687  2.8911
   60DOPE   H5S 7655   0.423   5.737  12.348 -0.6614 -1.5204 -0.1783
   60DOPE   C26 7656   0.216   5.665  12.330 -0.2364  0.0170 -0.0107
   60DOPE   H6R 7657   0.253   5.583  12.265  2.3939  1.7258 -0.8381
   60DOPE   H6S 7658   0.118   5.705  12.297 -1.4281 -0.8040  2.2778
   60DOPE   C27 7659   0.191   5.603  12.471  0.3239  0.0399 -0.4657
   60DOPE   H7R 7660   0.104   5.534  12.459 -1.8917  2.8427 -1.8637
   60DOPE   H7S 7661   0.145   5.684  12.532  1.6803  0.6183 -0.1885
   60DOPE   C28 7662   0.307   5.536  12.538 -0.6159  0.2413  0.1385
   60DOPE   H8R 7663   0.356   5.473  12.462  0.5263 -0.1853  1.1974
   60DOPE   H8S 7664   0.264   5.458  12.605  2.4479  1.5721  4.0053
   60DOPE   C29 7665   0.408   5.638  12.609  0.6098  0.5959 -0.1828
   60DOPE   H9R 7666   0.484   5.683  12.542  1.1973  0.9994  0.7311
   60DOPE  C210 7667   0.413   5.684  12.735  0.1769 -0.3927 -0.6422
   60DOPE  H10R 7668   0.500   5.748  12.757 -0.8636  0.6006  0.8327
   60DOPE  C211 7669   0.321   5.650  12.852 -0.2196  0.4613 -0.1827
   60DOPE  H11R 7670   0.271   5.552  12.837  1.8273 -0.6433 -0.2044
   60DOPE  H11S 7671   0.240   5.723  12.874 -1.2410 -0.9960  1.0502
   60DOPE  C212 7672   0.410   5.648  12.974 -0.4394  0.2873  0.1169
   60DOPE  H12R 7673   0.450   5.750  12.987 -1.7186  0.6834  1.1853
   60DOPE  H12S 7674   0.490   5.574  12.950 -1.7220 -1.4005  0.8135
   60DOPE  C213 7675   0.339   5.617  13.110  0.0871  0.1736  0.7590
   60DOPE  H13R 7676   0.330   5.506  13.115  0.1117  0.0909 -0.6093
   60DOPE  H13S 7677   0.234   5.652  13.093 -0.6922 -2.9356 -1.9369
   60DOPE  C214 7678   0.397   5.694  13.226  0.1472 -0.6899 -0.3314
   60DOPE  H14R 7679   0.422   5.799  13.201 -1.3599 -0.2824 -0.1792
   60DOPE  H14S 7680   0.489   5.640  13.258  0.8101  1.3112  1.3178
   60DOPE  C215 7681   0.312   5.698  13.349  0.3780 -0.5958  0.7224
   60DOPE  H15R 7682   0.271   5.598  13.377 -0.5112 -0.1154  1.2105
   60DOPE  H15S 7683   0.220   5.752  13.316  1.7767  1.9032  0.6998
   60DOPE  C216 7684   0.362   5.781  13.462 -0.1344 -0.4730 -0.0949
   60DOPE  H16R 7685   0.363   5.886  13.427  0.6849 -0.2165  0.6454
   60DOPE  H16S 7686   0.468   5.762  13.487  0.0692  1.1902  0.4190
   60DOPE  C217 7687   0.291   5.773  13.599  0.2553 -0.2549  0.1796
   60DOPE  H17R 7688   0.182   5.790  13.594 -0.1637 -2.7051  0.0548
   60DOPE  H17S 7689   0.340   5.853  13.660 -1.3097  0.4271  0.5774
   60DOPE  C218 7690   0.318   5.638  13.660  0.7480 -0.3260 -0.6075
   60DOPE  H18R 7691   0.427   5.614  13.658  0.6313 -1.2709  1.5279
   60DOPE  H18S 7692   0.240   5.570  13.620 -0.5273 -0.5236  2.0406
   60DOPE  H18T 7693   0.287   5.635  13.766  0.4033  1.9591 -0.5924
   60DOPE   C33 7694   0.254   6.592  12.472 -0.0856 -0.1523 -1.1178
   60DOPE   H3X 7695   0.149   6.619  12.449 -0.2181 -0.0931 -0.4590
   60DOPE   H3Y 7696   0.307   6.680  12.430  0.3753  0.1711  0.0925
   60DOPE   C34 7697   0.289   6.574  12.617  0.2754  0.3158 -0.2738
   60DOPE   H4X 7698   0.238   6.658  12.669 -0.1196  0.2122 -0.4899
   60DOPE   H4Y 7699   0.246   6.478  12.652 -1.0131  1.4167  1.3084
   60DOPE   C35 7700   0.441   6.583  12.644  0.1326 -0.3839  1.1003
   60DOPE   H5X 7701   0.483   6.670  12.589  0.4319 -0.2151  1.5963
   60DOPE   H5Y 7702   0.495   6.496  12.600  0.9086  1.8293 -2.8365
   60DOPE   C36 7703   0.482   6.616  12.790  0.1360  0.0337 -0.2019
   60DOPE   H6X 7704   0.455   6.720  12.817 -0.5327  0.0525 -0.9273
   60DOPE   H6Y 7705   0.594   6.618  12.789  0.1551  0.6672 -2.9962
   60DOPE   C37 7706   0.429   6.523  12.897  0.3909 -0.6288  0.6099
   60DOPE   H7X 7707   0.320   6.505  12.883  0.4681  0.2241 -1.6328
   60DOPE   H7Y 7708   0.475   6.424  12.879 -1.5899 -1.3316 -1.0224
   60DOPE   C38 7709   0.471   6.545  13.042 -0.1368  0.1294  0.0409
   60DOPE   H8X 7710   0.418   6.635  13.079  1.0286  1.0425 -0.4339
   60DOPE   H8Y 7711   0.580   6.566  13.050 -0.0667  0.1611 -0.8799
   60DOPE   C39 7712   0.435   6.432  13.131 -0.8434  0.2946  0.2650
   60DOPE   H9X 7713   0.421   6.340  13.073  1.1643  1.8623 -2.9708
   60DOPE  C310 7714   0.400   6.445  13.263 -0.1083  0.1915  0.4322
   60DOPE  H10X 7715   0.384   6.348  13.313  1.0023  0.6144  1.6861
   60DOPE  C311 7716   0.404   6.560  13.352  0.6243 -0.1812 -0.1050
   60DOPE  H11X 7717   0.441   6.650  13.299 -0.7317  0.2432 -0.3906
   60DOPE  H11Y 7718   0.304   6.584  13.395  1.5774  0.6675  1.7294
   60DOPE  C312 7719   0.502   6.545  13.470  0.2785  0.7567  0.1175
   60DOPE  H12X 7720   0.597   6.497  13.437 -0.5743 -1.0991  0.2190
   60DOPE  H12Y 7721   0.450   6.480  13.544 -0.5369  2.9123  1.5449
   60DOPE  C313 7722   0.523   6.668  13.553 -0.2854 -0.4442 -1.0344
   60DOPE  H13X 7723   0.601   6.642  13.628 -1.0978 -1.8521 -0.6365
   60DOPE  H13Y 7724   0.564   6.744  13.483 -0.1500  0.7963  0.3259
   60DOPE  C314 7725   0.398   6.727  13.629  0.2958 -0.4210  0.2766
   60DOPE  H14X 7726   0.395   6.643  13.701 -0.8474 -1.8267 -1.3343
   60DOPE  H14Y 7727   0.306   6.716  13.567  1.1950 -0.2421 -1.1274
   60DOPE  C315 7728   0.408   6.862  13.698  0.3249  0.0489 -0.0436
   60DOPE  H15X 7729   0.423   6.932  13.613  3.0220 -1.7224 -1.1450
   60DOPE  H15Y 7730   0.492   6.873  13.771 -0.9173  0.3715  1.3934
   60DOPE  C316 7731   0.275   6.892  13.767  1.2345 -0.5265  0.0192
   60DOPE  H16X 7732   0.253   6.808  13.837  0.4065 -0.9892 -0.7770
   60DOPE  H16Y 7733   0.201   6.899  13.684  1.6296  0.9113 -0.2399
   60DOPE  C317 7734   0.263   7.023  13.841  0.3366  0.5437  0.5690
   60DOPE  H17X 7735   0.336   7.023  13.924  1.8773  0.9300 -0.7293
   60DOPE  H17Y 7736   0.287   7.113  13.780  0.3205  0.0539 -0.1822
   60DOPE  C318 7737   0.128   7.041  13.907  0.5659  0.2915 -0.0376
   60DOPE  H18X 7738   0.095   7.147  13.919 -1.6373 -0.0053 -2.6091
   60DOPE  H18Y 7739   0.056   6.973  13.856  0.7106  1.2711 -1.6194
   60DOPE  H18Z 7740   0.144   7.007  14.012  1.4085  2.2689  0.5257
   6123SM     N 7741   2.534   5.082  17.654 -0.5290 -0.3026 -0.1086
   6123SM   C15 7742   2.396   5.103  17.606  0.2281  0.2913 -0.4001
   6123SM  H15A 7743   2.357   5.017  17.553  0.2662 -0.4923  0.7998
   6123SM  H15B 7744   2.393   5.188  17.539  0.3030  0.5900 -0.0250
   6123SM  H15C 7745   2.327   5.125  17.686 -1.4837 -0.3255 -1.6389
   6123SM   C14 7746   2.587   5.214  17.705  0.0788 -0.1760 -0.0903
   6123SM  H14A 7747   2.594   5.287  17.625 -1.0455  1.4797  1.2461
   6123SM  H14B 7748   2.686   5.209  17.748  0.2424  0.7061 -0.3333
   6123SM  H14C 7749   2.524   5.248  17.785  0.1862  0.3232 -0.2141
   6123SM   C13 7750   2.521   4.982  17.767 -0.1594 -0.3565 -0.0650
   6123SM  H13A 7751   2.496   4.884  17.728  1.6324 -0.0074 -2.3643
   6123SM  H13B 7752   2.444   5.007  17.837 -2.5512 -1.9072 -1.9649
   6123SM  H13C 7753   2.618   4.977  17.814 -0.4032  0.1260  0.4865
   6123SM   C12 7754   2.626   5.025  17.545  0.1934 -0.6429  0.5025
   6123SM  H12A 7755   2.601   4.924  17.516  2.4268 -0.9310 -0.6352
   6123SM  H12B 7756   2.727   5.016  17.581  0.5374  0.0195 -0.2747
   6123SM   C11 7757   2.638   5.104  17.408 -0.0220 -0.5240 -0.3507
   6123SM  H11A 7758   2.540   5.100  17.355  0.1499  0.9464 -0.8303
   6123SM  H11B 7759   2.696   5.042  17.337 -1.0525 -1.3156 -0.5388
   6123SM     P 7760   2.654   5.361  17.355  0.4225  0.0955  0.0182
   6123SM   O13 7761   2.567   5.433  17.443  0.2700 -0.0301  0.6234
   6123SM   O14 7762   2.771   5.431  17.297  0.2665  0.6461  0.0618
   6123SM   O11 7763   2.570   5.308  17.241  0.0341  0.5865 -0.0610
   6123SM   O12 7764   2.699   5.230  17.431 -0.4443 -0.2780  0.2909
   6123SM   C1S 7765   2.565   5.367  17.114  0.3512 -0.0045  1.0710
   6123SM   H1S 7766   2.647   5.437  17.089 -2.8271  3.1864 -1.3621
   6123SM   H1T 7767   2.468   5.420  17.099 -0.1766 -1.1166  0.4090
   6123SM    NF 7768   2.589   5.329  16.876  0.1676 -0.6461 -0.0947
   6123SM   HNF 7769   2.512   5.351  16.817 -0.2341  1.0470  1.0027
   6123SM   C2S 7770   2.572   5.261  17.005 -0.2633 -0.4062  0.6218
   6123SM   H2S 7771   2.664   5.206  17.034  0.4554  2.1407  3.7674
   6123SM   C3S 7772   2.442   5.175  16.998  0.1452  0.0203  1.0383
   6123SM   H3S 7773   2.361   5.249  16.978 -0.4406 -0.4779  1.5397
   6123SM    O3 7774   2.404   5.118  17.120  0.0824  0.4797 -0.0127
   6123SM   HO3 7775   2.457   5.160  17.188  0.2340 -0.7233  0.6414
   6123SM   C4S 7776   2.439   5.080  16.879 -0.4070  0.5249 -0.2170
   6123SM   H4S 7777   2.396   5.123  16.787 -2.2368 -3.1318 -1.2347
   6123SM   C5S 7778   2.496   4.957  16.883  0.5951 -0.0119 -0.3515
   6123SM   H5S 7779   2.550   4.943  16.978  0.5788  2.3002  0.0369
   6123SM   C6S 7780   2.517   4.867  16.767 -0.1532 -0.0757 -0.5945
   6123SM   H6S 7781   2.476   4.770  16.804  2.1304 -0.6934  0.5129
   6123SM   H6T 7782   2.626   4.851  16.749  0.3801  1.7262  0.7642
   6123SM   C7S 7783   2.443   4.893  16.634  0.5530  0.3398 -0.0222
   6123SM   H7S 7784   2.479   4.995  16.611  1.9233 -0.0442  0.3493
   6123SM   H7T 7785   2.333   4.902  16.645  0.5319 -1.0124  1.1755
   6123SM   C8S 7786   2.470   4.799  16.521  0.4970  0.3223  0.0955
   6123SM   H8S 7787   2.433   4.697  16.545  1.7481 -0.0819  0.4248
   6123SM   H8T 7788   2.577   4.780  16.496  0.0395  0.2404 -2.0024
   6123SM   C9S 7789   2.402   4.837  16.390  0.4309  0.4454 -0.1526
   6123SM   H9S 7790   2.452   4.932  16.360 -1.4369  0.7705 -2.5780
   6123SM   H9T 7791   2.297   4.868  16.406  0.6198  1.3665 -0.6120
   6123SM  C10S 7792   2.418   4.726  16.282 -0.4108 -0.3765 -0.1358
   6123SM  H10S 7793   2.339   4.656  16.317 -1.3918  0.7532 -0.0148
   6123SM  H10T 7794   2.520   4.687  16.301 -0.3079  0.6299  1.6297
   6123SM  C11S 7795   2.384   4.772  16.139 -0.1338  0.1841 -0.4687
   6123SM  H11S 7796   2.448   4.860  16.113  0.4939 -0.3159 -0.6605
   6123SM  H11T 7797   2.278   4.804  16.133 -0.4474 -0.4999  0.9605
   6123SM  C12S 7798   2.411   4.653  16.041  0.8165 -0.2897 -0.3008
   6123SM  H12S 7799   2.354   4.566  16.079 -1.3818  0.5602 -1.4552
   6123SM  H12T 7800   2.520   4.630  16.034  1.0544  0.7429 -0.1990
   6123SM  C13S 7801   2.361   4.679  15.897 -0.3060 -0.8262 -1.3000
   6123SM  H13S 7802   2.372   4.786  15.869  0.7059  0.2022  2.4015
   6123SM  H13T 7803   2.251   4.661  15.902 -0.2776 -0.9773 -1.2145
   6123SM  C14S 7804   2.429   4.592  15.789 -0.3693 -0.0110  0.3038
   6123SM  H14S 7805   2.427   4.487  15.826  0.8244 -0.0347  0.3244
   6123SM  H14T 7806   2.534   4.627  15.785 -0.6198  0.7522  0.1585
   6123SM  C15S 7807   2.384   4.606  15.642 -0.4852 -0.4370 -0.0320
   6123SM  H15S 7808   2.346   4.707  15.617 -1.5004 -0.8878 -0.3839
   6123SM  H15T 7809   2.285   4.555  15.640 -0.1683 -1.0532 -1.2190
   6123SM  C16S 7810   2.477   4.547  15.534  0.1367  0.2166 -0.2238
   6123SM  H16S 7811   2.490   4.443  15.570 -2.4365  0.0101  0.2543
   6123SM  H16T 7812   2.580   4.586  15.517  1.2595 -1.8820  1.3224
   6123SM  C17S 7813   2.406   4.527  15.400 -0.1971  0.0261  0.3462
   6123SM  H17S 7814   2.383   4.624  15.353  1.2319  0.3290  0.2192
   6123SM  H17T 7815   2.314   4.469  15.424  0.0858  0.2737  2.1421
   6123SM  C18S 7816   2.488   4.443  15.304 -0.3384 -0.5677 -0.0916
   6123SM  H18S 7817   2.509   4.338  15.334  0.9032 -0.4360 -0.4336
   6123SM  H18T 7818   2.589   4.489  15.304  0.3376 -1.9786  0.7498
   6123SM  H18U 7819   2.443   4.441  15.202  0.8023  0.3008 -0.6245
   6123SM   C1F 7820   2.710   5.367  16.835  1.1701 -0.6623 -0.3650
   6123SM    OF 7821   2.801   5.362  16.913  0.6657  0.6286 -0.7831
   6123SM   C2F 7822   2.730   5.407  16.689 -0.1612  0.1311  0.1958
   6123SM   H2F 7823   2.658   5.489  16.667 -1.0428 -1.5221 -4.1830
   6123SM   H2G 7824   2.705   5.320  16.624  0.5665 -0.0153  0.0947
   6123SM   C3F 7825   2.874   5.454  16.661 -0.0873 -0.0575 -0.6904
   6123SM   H3F 7826   2.952   5.386  16.701  0.3517  1.6292  1.5482
   6123SM   H3G 7827   2.889   5.556  16.701 -0.1319 -0.7620  1.2127
   6123SM   C4F 7828   2.916   5.465  16.514  0.5020  0.1205 -0.3149
   6123SM   H4F 7829   2.937   5.361  16.482  1.7687 -0.6904  2.8038
   6123SM   H4G 7830   3.010   5.523  16.515  1.4982 -1.4646  0.2994
   6123SM   C5F 7831   2.814   5.521  16.410  1.2323 -0.3660 -0.0209
   6123SM   H5F 7832   2.808   5.629  16.434  1.3417 -0.3896  0.1111
   6123SM   H5G 7833   2.714   5.473  16.427 -0.3970  2.4785 -0.9596
   6123SM   C6F 7834   2.868   5.498  16.271  0.5352 -0.2178 -0.4050
   6123SM   H6F 7835   2.878   5.389  16.251  0.1421 -0.3925  0.3142
   6123SM   H6G 7836   2.969   5.544  16.266  0.9901 -1.3124 -2.3004
   6123SM   C7F 7837   2.774   5.572  16.176  0.6450 -0.0950  0.1320
   6123SM   H7F 7838   2.759   5.678  16.206 -1.1723  0.4053 -2.2175
   6123SM   H7G 7839   2.672   5.529  16.184  1.5379 -2.2080  0.8466
   6123SM   C8F 7840   2.818   5.577  16.028 -0.1741  0.0210  0.2015
   6123SM   H8F 7841   2.921   5.616  16.017 -0.9956  1.4457 -4.8299
   6123SM   H8G 7842   2.751   5.658  15.991 -0.7413  0.5422  2.2237
   6123SM   C9F 7843   2.792   5.457  15.938 -0.2746 -0.2007  0.2765
   6123SM   H9F 7844   2.686   5.424  15.948 -0.1014 -1.8252 -2.3126
   6123SM   H9G 7845   2.844   5.364  15.970 -0.1919 -0.2900 -0.1240
   6123SM  C10F 7846   2.809   5.490  15.791  0.0221  0.1348 -0.0704
   6123SM  H10F 7847   2.898   5.555  15.781  1.6428 -1.7023  1.5595
   6123SM  H10G 7848   2.716   5.544  15.762 -1.3111 -1.5612  0.8154
   6123SM  C11F 7849   2.824   5.380  15.684  0.0003 -0.3739 -0.1173
   6123SM  H11F 7850   2.724   5.342  15.654 -0.5088 -0.4014  1.5281
   6123SM  H11G 7851   2.887   5.293  15.711 -1.1338 -1.0984  0.2649
   6123SM  C12F 7852   2.894   5.434  15.555 -0.2556 -0.1938 -0.6845
   6123SM  H12F 7853   2.995   5.474  15.575 -0.5705  0.3522 -0.1469
   6123SM  H12G 7854   2.836   5.524  15.525 -2.6061 -1.3194  0.1595
   6123SM  C13F 7855   2.893   5.329  15.444  0.1799  0.1451  0.5397
   6123SM  H13F 7856   2.796   5.283  15.418  0.3404  0.0705  0.0645
   6123SM  H13G 7857   2.966   5.250  15.472 -0.1643 -1.4563 -2.6944
   6123SM  C14F 7858   2.954   5.396  15.318  0.5539  1.0035 -0.7672
   6123SM  H14F 7859   3.056   5.429  15.348 -0.4961  0.8960  3.5282
   6123SM  H14G 7860   2.900   5.491  15.297  1.1998  1.5317 -0.0855
   6123SM  C15F 7861   2.945   5.307  15.192  0.8439  0.0325  0.2584
   6123SM  H15F 7862   2.994   5.357  15.105  0.3155 -0.6063 -0.4204
   6123SM  H15G 7863   2.839   5.291  15.165  0.7231  0.5354  0.4289
   6123SM  C16F 7864   3.010   5.166  15.202  0.3549 -0.4644  0.4676
   6123SM  H16F 7865   2.932   5.107  15.255 -0.8720  0.2955 -0.4151
   6123SM  H16G 7866   3.085   5.159  15.283 -0.3551  1.4956  1.3526
   6123SM  C17F 7867   3.057   5.101  15.070 -0.3419  0.3286  0.3451
   6123SM  H17F 7868   3.158   5.137  15.040 -0.2697 -0.3399 -0.2372
   6123SM  H17G 7869   2.993   5.144  14.989 -1.6323  0.9916  1.6742
   6123SM  C18F 7870   3.062   4.945  15.071 -0.1565  0.0880  0.3204
   6123SM  H18F 7871   2.960   4.910  15.099  0.6901 -0.8330  2.4978
   6123SM  H18G 7872   3.127   4.920  15.158 -0.1628  0.3284  0.3936
   6123SM  C19F 7873   3.107   4.890  14.933 -0.2917 -0.6204 -0.4527
   6123SM  H19F 7874   3.140   4.972  14.866 -0.3246 -0.5351 -0.3631
   6123SM  H19G 7875   3.019   4.846  14.881 -1.0917  0.5621 -0.1351
   6123SM  C20F 7876   3.215   4.778  14.938  0.3761  0.4376 -0.7968
   6123SM  H20F 7877   3.295   4.812  15.008  0.1733 -0.4307 -0.1207
   6123SM  H20G 7878   3.266   4.761  14.841 -0.0774 -0.3259 -0.9029
   6123SM  C21F 7879   3.155   4.640  14.974  0.1443  0.4382 -0.5451
   6123SM  H21F 7880   3.094   4.601  14.889 -0.0287 -2.0457  0.6033
   6123SM  H21G 7881   3.091   4.643  15.065 -1.2673  0.0295 -1.4797
   6123SM  C22F 7882   3.258   4.527  15.009 -0.0342 -0.4389 -0.4725
   6123SM  H22F 7883   3.303   4.556  15.106 -2.0245  1.7361 -0.1061
   6123SM  H22G 7884   3.340   4.510  14.936  1.3236  2.4404  0.2479
   6123SM  C23F 7885   3.192   4.395  15.049  0.3221 -0.0100  0.2253
   6123SM  H23F 7886   3.265   4.321  15.087  0.3503 -0.6435 -1.0142
   6123SM  H23G 7887   3.129   4.358  14.965 -1.6505 -2.2093  2.5418
   6123SM  H23H 7888   3.131   4.413  15.140  0.8467 -1.8020  0.9582
   6223SM     N 7889   2.708   4.355  17.713 -0.0143 -0.2782 -0.7752
   6223SM   C15 7890   2.592   4.432  17.768 -0.5159 -0.6518  0.4223
   6223SM  H15A 7891   2.498   4.381  17.753 -1.7929  1.8072 -0.5067
   6223SM  H15B 7892   2.575   4.525  17.716 -2.0121 -0.7137  0.7678
   6223SM  H15C 7893   2.595   4.456  17.873  1.0719  2.0519 -0.1567
   6223SM   C14 7894   2.834   4.433  17.736  0.0632 -0.3446  0.0144
   6223SM  H14A 7895   2.914   4.390  17.678 -0.1751  1.3710 -1.6731
   6223SM  H14B 7896   2.863   4.422  17.840  0.1777 -0.3834 -0.0230
   6223SM  H14C 7897   2.827   4.539  17.714 -0.2538 -0.5558 -0.9396
   6223SM   C13 7898   2.716   4.234  17.800  0.2914  0.0806 -0.1592
   6223SM  H13A 7899   2.790   4.167  17.759 -1.2532 -1.1316 -1.0965
   6223SM  H13B 7900   2.626   4.174  17.812  0.3379  0.1992  0.9462
   6223SM  H13C 7901   2.742   4.265  17.900 -1.0766 -0.4398  0.3921
   6223SM   C12 7902   2.689   4.315  17.567  0.6761  0.0753  0.4154
   6223SM  H12A 7903   2.599   4.256  17.563 -0.6063  1.8628  1.6070
   6223SM  H12B 7904   2.772   4.255  17.532  1.4053 -0.4323  2.7972
   6223SM   C11 7905   2.667   4.429  17.472  0.5021 -1.0088 -0.2231
   6223SM  H11A 7906   2.677   4.402  17.364  1.7187 -1.0137 -0.1251
   6223SM  H11B 7907   2.747   4.504  17.493 -1.1755  0.0103  3.1656
   6223SM     P 7908   2.414   4.403  17.462 -0.4310 -0.2678 -0.1106
   6223SM   O13 7909   2.370   4.331  17.580 -0.4342  0.6200  0.2858
   6223SM   O14 7910   2.315   4.501  17.405  0.0028 -0.1629  0.1550
   6223SM   O11 7911   2.460   4.295  17.358 -0.4078  0.2409 -0.4612
   6223SM   O12 7912   2.540   4.484  17.495  0.0918 -0.0852  0.2081
   6223SM   C1S 7913   2.383   4.192  17.314 -0.3601  0.0880  0.2582
   6223SM   H1S 7914   2.296   4.179  17.382  0.2447  1.0426  1.2394
   6223SM   H1T 7915   2.445   4.101  17.302 -1.3430 -0.4263 -1.3056
   6223SM    NF 7916   2.243   4.116  17.122 -0.0811  0.1236 -0.2427
   6223SM   HNF 7917   2.295   4.040  17.083  0.0554  1.2413 -2.3718
   6223SM   C2S 7918   2.335   4.217  17.166 -0.0243  0.0081  0.4054
   6223SM   H2S 7919   2.271   4.307  17.179 -1.7369 -0.9434 -1.0561
   6223SM   C3S 7920   2.446   4.251  17.070  0.4445  0.6614 -0.1877
   6223SM   H3S 7921   2.510   4.162  17.050 -1.0928 -0.2895 -1.0023
   6223SM    O3 7922   2.538   4.342  17.123  0.2801 -0.3088 -0.4208
   6223SM   HO3 7923   2.509   4.342  17.215  1.6114  0.9860  0.0485
   6223SM   C4S 7924   2.398   4.304  16.936  0.2741 -0.4507  0.0416
   6223SM   H4S 7925   2.338   4.396  16.945  0.7306 -0.0450 -0.9025
   6223SM   C5S 7926   2.415   4.244  16.815 -0.1648 -0.9386  0.0129
   6223SM   H5S 7927   2.483   4.158  16.803  0.5734 -0.0821 -2.5593
   6223SM   C6S 7928   2.358   4.309  16.688 -0.0338  0.4433 -0.4766
   6223SM   H6S 7929   2.393   4.414  16.677 -1.7390  1.2237  0.8582
   6223SM   H6T 7930   2.247   4.299  16.693 -0.0850  1.0529 -0.2835
   6223SM   C7S 7931   2.410   4.222  16.568  0.2661  0.0762  0.3797
   6223SM   H7S 7932   2.392   4.114  16.583 -1.4584  0.3628  0.5968
   6223SM   H7T 7933   2.520   4.236  16.559  0.4384 -1.0232  0.7103
   6223SM   C8S 7934   2.338   4.268  16.444 -0.2421 -0.1522 -0.1378
   6223SM   H8S 7935   2.346   4.379  16.436 -2.3985 -0.0501 -1.7873
   6223SM   H8T 7936   2.231   4.240  16.455 -0.1157  0.0527  1.9590
   6223SM   C9S 7937   2.390   4.204  16.315  0.1338  0.4855 -0.0116
   6223SM   H9S 7938   2.388   4.094  16.327 -1.5816  0.1343 -2.7087
   6223SM   H9T 7939   2.496   4.236  16.304 -0.1466  1.0822 -1.1526
   6223SM  C10S 7940   2.306   4.233  16.192  0.6954  0.6529  0.4025
   6223SM  H10S 7941   2.298   4.344  16.190 -1.7883  0.5422  0.8244
   6223SM  H10T 7942   2.201   4.203  16.212  0.4271  1.9792  1.1372
   6223SM  C11S 7943   2.345   4.167  16.060 -0.2614 -0.2358  0.3103
   6223SM  H11S 7944   2.308   4.062  16.063  0.7756 -0.8864 -3.8322
   6223SM  H11T 7945   2.456   4.153  16.059 -0.1975  0.2379 -0.8249
   6223SM  C12S 7946   2.271   4.234  15.942 -0.0958 -0.0210 -0.2876
   6223SM  H12S 7947   2.281   4.344  15.954  0.0303 -0.0375 -0.2409
   6223SM  H12T 7948   2.163   4.213  15.959  0.6283 -1.2485  4.0429
   6223SM  C13S 7949   2.287   4.182  15.800 -0.8622 -0.5027  0.5000
   6223SM  H13S 7950   2.274   4.071  15.797  1.1488 -0.7890  1.1463
   6223SM  H13T 7951   2.384   4.201  15.750 -1.5646  1.6557 -0.1459
   6223SM  C14S 7952   2.186   4.245  15.702  0.2049 -0.1464  0.6345
   6223SM  H14S 7953   2.204   4.355  15.703  1.0574 -0.2679 -0.0949
   6223SM  H14T 7954   2.085   4.238  15.748  0.7714  2.6009  2.5524
   6223SM  C15S 7955   2.208   4.180  15.558  0.6152  0.1297  0.0905
   6223SM  H15S 7956   2.177   4.073  15.562 -1.6787  0.7356  0.4250
   6223SM  H15T 7957   2.317   4.182  15.537  1.4321 -3.7700  2.7480
   6223SM  C16S 7958   2.114   4.226  15.443  0.6789  0.3839  0.5094
   6223SM  H16S 7959   2.173   4.187  15.357  1.2564 -1.6987  1.7849
   6223SM  H16T 7960   2.117   4.337  15.440 -0.1138  0.4527  1.6467
   6223SM  C17S 7961   1.967   4.193  15.437  0.0457  0.4073 -0.4990
   6223SM  H17S 7962   1.920   4.232  15.529  0.5266 -0.7995  0.2933
   6223SM  H17T 7963   1.946   4.084  15.431 -0.3555  0.5738 -2.5916
   6223SM  C18S 7964   1.894   4.256  15.307  0.0645  1.1167  0.0240
   6223SM  H18S 7965   1.786   4.233  15.293  0.5581 -0.6254 -1.2221
   6223SM  H18T 7966   1.934   4.224  15.209 -1.8076  1.5506 -0.9292
   6223SM  H18U 7967   1.913   4.364  15.324 -0.5137  0.9371  2.1939
   6223SM   C1F 7968   2.118   4.105  17.163  1.0959  0.6217  0.4116
   6223SM    OF 7969   2.076   4.188  17.243  0.4707 -0.4538 -0.7180
   6223SM   C2F 7970   2.041   3.988  17.122  0.0910 -0.3198 -0.1635
   6223SM   H2F 7971   2.008   3.924  17.207  0.1931 -1.4384 -0.9517
   6223SM   H2G 7972   2.111   3.920  17.070  1.9216 -1.0895  3.0308
   6223SM   C3F 7973   1.910   4.026  17.047  0.7934 -0.8562  0.0329
   6223SM   H3F 7974   1.835   4.076  17.112  0.1572  0.2081 -1.4575
   6223SM   H3G 7975   1.853   3.933  17.027 -5.3504  2.1528  1.2106
   6223SM   C4F 7976   1.925   4.110  16.910  0.2202  1.1568 -0.6935
   6223SM   H4F 7977   1.971   4.210  16.922 -0.2789  1.0551  3.8518
   6223SM   H4G 7978   1.819   4.129  16.884 -0.3784 -0.0840  0.6812
   6223SM   C5F 7979   1.997   4.030  16.796  0.4925 -0.5621 -0.7232
   6223SM   H5F 7980   1.955   3.927  16.796 -0.5073 -0.1573 -0.6207
   6223SM   H5G 7981   2.105   4.017  16.819 -0.2692 -0.9614  3.3060
   6223SM   C6F 7982   1.971   4.087  16.662 -0.0921 -0.8843  0.4368
   6223SM   H6F 7983   2.051   4.158  16.633 -1.2973  0.3607  0.1053
   6223SM   H6G 7984   1.868   4.128  16.658  0.9539  1.8674 -0.1508
   6223SM   C7F 7985   1.973   3.977  16.554 -0.5068 -0.6161 -0.4278
   6223SM   H7F 7986   1.889   3.908  16.579 -2.1042  1.0914 -0.8162
   6223SM   H7G 7987   2.073   3.929  16.559  0.9317  1.9785 -2.0161
   6223SM   C8F 7988   1.952   4.033  16.412 -0.8646 -0.1759  0.6773
   6223SM   H8F 7989   2.018   4.122  16.405 -2.2742  0.8975  0.5584
   6223SM   H8G 7990   1.845   4.061  16.402 -0.3732  2.1472  1.4502
   6223SM   C9F 7991   1.997   3.936  16.310  0.5498  0.4194  0.2257
   6223SM   H9F 7992   1.949   3.838  16.327 -0.7116  1.2602  1.8123
   6223SM   H9G 7993   2.106   3.917  16.317  0.8936  0.1650 -3.7085
   6223SM  C10F 7994   1.973   3.979  16.162  0.2197 -0.0426  0.5847
   6223SM  H10F 7995   2.033   4.070  16.144  0.5215 -0.7590 -2.4159
   6223SM  H10G 7996   1.863   3.993  16.155  0.4146  1.4729  0.1884
   6223SM  C11F 7997   2.019   3.877  16.057 -0.0141 -0.5483 -0.4238
   6223SM  H11F 7998   1.969   3.783  16.092  0.4519 -0.7728 -0.3595
   6223SM  H11G 7999   2.129   3.877  16.072 -0.3312  1.4461  3.1997
   6223SM  C12F 8000   1.987   3.913  15.913  0.0140  0.3205  0.5372
   6223SM  H12F 8001   1.999   4.022  15.891 -2.0639  0.5442  0.2954
   6223SM  H12G 8002   1.877   3.903  15.901 -0.2024  0.6074  2.0525
   6223SM  C13F 8003   2.063   3.824  15.813  0.2124 -0.5197  0.4197
   6223SM  H13F 8004   2.081   3.720  15.846  1.3757 -0.2701  0.6177
   6223SM  H13G 8005   2.160   3.878  15.807 -0.1389  0.0421 -0.6284
   6223SM  C14F 8006   2.013   3.835  15.665  0.0091 -0.2016 -0.5306
   6223SM  H14F 8007   2.105   3.801  15.612  0.5294  0.7460 -0.2491
   6223SM  H14G 8008   1.987   3.938  15.635 -1.0573 -0.3016  0.0139
   6223SM  C15F 8009   1.895   3.742  15.626  0.2387 -0.3863 -0.3057
   6223SM  H15F 8010   1.833   3.767  15.715  1.8351 -0.6401  0.9169
   6223SM  H15G 8011   1.937   3.639  15.631  1.0121 -0.0613 -0.0405
   6223SM  C16F 8012   1.829   3.775  15.499  0.0170  0.0566 -0.0034
   6223SM  H16F 8013   1.840   3.883  15.475 -0.0176  0.3636  1.3303
   6223SM  H16G 8014   1.723   3.744  15.507  0.1244 -0.8211 -1.4389
   6223SM  C17F 8015   1.892   3.705  15.380 -0.2452  0.5240  0.4548
   6223SM  H17F 8016   1.866   3.597  15.381 -0.5837  0.5809  2.3346
   6223SM  H17G 8017   2.001   3.707  15.400 -0.8403  0.6163  4.6305
   6223SM  C18F 8018   1.857   3.755  15.236  0.1199  0.1722 -0.1152
   6223SM  H18F 8019   1.761   3.812  15.229 -0.8532 -1.4664 -0.8598
   6223SM  H18G 8020   1.849   3.675  15.159 -0.7532  0.8701 -0.7761
   6223SM  C19F 8021   1.963   3.858  15.196  0.0217 -0.1249  0.2707
   6223SM  H19F 8022   2.066   3.817  15.201  0.1523 -0.0627 -1.4190
   6223SM  H19G 8023   1.966   3.943  15.266 -1.8907 -0.2349  0.5476
   6223SM  C20F 8024   1.947   3.915  15.051  0.5262  0.6115 -0.0808
   6223SM  H20F 8025   1.839   3.943  15.052 -0.1524 -1.7127 -1.1636
   6223SM  H20G 8026   1.943   3.828  14.982 -0.4590  1.1995 -0.7863
   6223SM  C21F 8027   2.037   4.025  15.016  0.6328  0.3941 -0.0473
   6223SM  H21F 8028   2.063   4.088  15.104  1.6580  0.6037 -0.4825
   6223SM  H21G 8029   1.981   4.093  14.948  0.7795  1.6103  1.0225
   6223SM  C22F 8030   2.163   3.979  14.944 -0.0263  0.1006  1.5370
   6223SM  H22F 8031   2.137   3.955  14.839 -0.5492 -0.1312  1.7138
   6223SM  H22G 8032   2.194   3.885  14.995 -0.6865  0.4314  2.5942
   6223SM  C23F 8033   2.271   4.088  14.951 -0.2677  0.4497 -0.7310
   6223SM  H23F 8034   2.359   4.060  14.889  1.2095  1.5988  0.7589
   6223SM  H23G 8035   2.315   4.109  15.051  1.2725 -1.4161 -0.9620
   6223SM  H23H 8036   2.234   4.181  14.901 -0.8938 -0.6663 -2.4218
   6323SM     N 8037   3.299   6.267  17.310  0.0739 -0.2245  0.0884
   6323SM   C15 8038   3.417   6.301  17.401  0.4210 -0.2210  0.4398
   6323SM  H15A 8039   3.508   6.263  17.356 -1.0790 -2.2545 -1.0479
   6323SM  H15B 8040   3.404   6.241  17.491 -1.2129  0.3057  0.5795
   6323SM  H15C 8041   3.423   6.403  17.435  0.1709  0.1169 -0.5038
   6323SM   C14 8042   3.294   6.117  17.315 -0.1396 -0.2493 -0.0770
   6323SM  H14A 8043   3.224   6.082  17.241  0.2913  1.0411 -1.1437
   6323SM  H14B 8044   3.266   6.087  17.415 -1.7597 -0.6344 -0.6076
   6323SM  H14C 8045   3.395   6.082  17.297 -0.6729 -0.8440 -2.1524
   6323SM   C13 8046   3.175   6.330  17.347 -0.1157 -0.4947  0.0131
   6323SM  H13A 8047   3.093   6.305  17.283 -0.1319  0.6044 -0.4285
   6323SM  H13B 8048   3.177   6.437  17.328  1.5914 -0.1760  1.6183
   6323SM  H13C 8049   3.160   6.308  17.452  1.5959 -3.3999 -0.2490
   6323SM   C12 8050   3.328   6.315  17.172 -0.3945 -0.2509 -0.2887
   6323SM  H12A 8051   3.428   6.301  17.135 -1.0505 -1.4717 -1.6890
   6323SM  H12B 8052   3.319   6.422  17.171 -0.9182 -0.2709 -2.3570
   6323SM   C11 8053   3.232   6.286  17.051 -0.7123  0.4979 -0.0349
   6323SM  H11A 8054   3.237   6.176  17.035 -1.5099  0.4721 -0.1668
   6323SM  H11B 8055   3.281   6.339  16.967 -2.0354 -1.1544 -1.9393
   6323SM     P 8056   2.985   6.241  17.034  0.6054 -0.2112 -0.1939
   6323SM   O13 8057   3.000   6.116  17.116  0.4967  0.3573  0.3092
   6323SM   O14 8058   2.860   6.317  17.051 -0.3093  0.9047 -0.5094
   6323SM   O11 8059   2.993   6.210  16.880 -0.2490 -0.0157 -0.2417
   6323SM   O12 8060   3.104   6.335  17.071  0.3418 -0.3001  0.2346
   6323SM   C1S 8061   2.963   6.318  16.797 -0.1988 -0.1068 -0.3362
   6323SM   H1S 8062   3.026   6.408  16.817 -1.0696  0.3119  0.6033
   6323SM   H1T 8063   2.862   6.359  16.816  0.9190  2.1275  1.3129
   6323SM    NF 8064   2.939   6.420  16.579  0.1711 -0.0773  0.5659
   6323SM   HNF 8065   2.849   6.439  16.540  0.7552 -1.2675 -1.5522
   6323SM   C2S 8066   2.966   6.295  16.645  0.3060  0.8011  0.1557
   6323SM   H2S 8067   3.074   6.271  16.636  0.4354  0.0215  2.9806
   6323SM   C3S 8068   2.877   6.171  16.602  0.7530  0.1873 -0.0424
   6323SM   H3S 8069   2.771   6.202  16.613  0.8627  0.5516  0.0012
   6323SM    O3 8070   2.863   6.062  16.692 -0.5639 -0.6975 -0.2991
   6323SM   HO3 8071   2.890   6.091  16.780 -0.7830 -1.5047  0.0403
   6323SM   C4S 8072   2.895   6.130  16.459 -0.0369  0.2493  0.0738
   6323SM   H4S 8073   2.832   6.187  16.390  1.2391  0.3632 -1.0333
   6323SM   C5S 8074   2.974   6.032  16.404  0.5602 -0.1840  0.1646
   6323SM   H5S 8075   3.041   5.976  16.471 -0.6300  0.0436  1.5845
   6323SM   C6S 8076   2.976   6.002  16.255  0.2016  0.4974 -0.4607
   6323SM   H6S 8077   3.020   5.901  16.244  0.0043  0.3778 -0.1645
   6323SM   H6T 8078   3.049   6.070  16.205  0.2900  1.1303  0.4873
   6323SM   C7S 8079   2.842   5.995  16.188  0.3639 -0.1352 -0.6025
   6323SM   H7S 8080   2.794   6.095  16.197  0.4602 -0.2261  1.1250
   6323SM   H7T 8081   2.775   5.918  16.231 -1.9166  2.1313  0.1768
   6323SM   C8S 8082   2.851   5.953  16.036  0.1205 -0.2581 -0.4978
   6323SM   H8S 8083   2.745   5.949  16.004  0.1763 -0.0811 -0.7079
   6323SM   H8T 8084   2.903   5.855  16.024 -0.9824 -0.9024 -0.1715
   6323SM   C9S 8085   2.925   6.050  15.942  0.1725 -0.4581 -0.2271
   6323SM   H9S 8086   3.035   6.043  15.958  0.2362  0.2500 -0.3076
   6323SM   H9T 8087   2.901   6.158  15.956  0.0214 -0.2706 -1.7971
   6323SM  C10S 8088   2.887   6.020  15.799 -0.5277 -0.0038  0.0944
   6323SM  H10S 8089   2.854   5.914  15.798  0.2737 -0.2562 -0.0935
   6323SM  H10T 8090   2.982   6.024  15.741  0.6197 -1.7804  1.7360
   6323SM  C11S 8091   2.777   6.110  15.744  0.2177 -0.5949 -0.1759
   6323SM  H11S 8092   2.800   6.216  15.770  2.4181 -0.7733 -1.1521
   6323SM  H11T 8093   2.675   6.089  15.781 -0.9558  1.2441 -2.1077
   6323SM  C12S 8094   2.770   6.108  15.594 -0.7315  0.3731  0.7770
   6323SM  H12S 8095   2.872   6.143  15.567 -1.6077  2.1270 -0.3777
   6323SM  H12T 8096   2.701   6.191  15.570 -0.0846  0.5057 -0.7747
   6323SM  C13S 8097   2.729   5.975  15.523 -0.6794  0.7572 -0.0273
   6323SM  H13S 8098   2.620   5.959  15.539 -0.8356  1.0547 -0.7366
   6323SM  H13T 8099   2.784   5.885  15.558 -1.9241 -0.1958 -0.4407
   6323SM  C14S 8100   2.740   5.963  15.370  0.3667 -0.5324  0.6829
   6323SM  H14S 8101   2.728   5.858  15.338 -1.7686 -0.1648  0.0857
   6323SM  H14T 8102   2.843   5.987  15.335  0.4580 -0.8520  0.7271
   6323SM  C15S 8103   2.625   6.046  15.300  0.4406 -0.5373 -0.2037
   6323SM  H15S 8104   2.633   6.150  15.338  0.7769 -0.2938 -0.9222
   6323SM  H15T 8105   2.527   6.008  15.336  0.8384 -1.5133 -0.1459
   6323SM  C16S 8106   2.635   6.066  15.147  0.1382  0.5199  0.4958
   6323SM  H16S 8107   2.593   5.983  15.087  1.4836  0.7114 -0.7832
   6323SM  H16T 8108   2.745   6.072  15.133  0.3806 -0.9860  1.5593
   6323SM  C17S 8109   2.588   6.200  15.089 -0.0048  0.1901  0.2067
   6323SM  H17S 8110   2.637   6.283  15.145  0.1945  0.2299 -0.0231
   6323SM  H17T 8111   2.479   6.208  15.111  0.3345 -0.1982  2.2526
   6323SM  C18S 8112   2.623   6.210  14.938  0.6326 -0.5210  0.2836
   6323SM  H18S 8113   2.728   6.179  14.917  0.5951 -0.1317 -0.5098
   6323SM  H18T 8114   2.625   6.313  14.896  3.5072 -0.8026 -0.5089
   6323SM  H18U 8115   2.559   6.146  14.874  0.5928 -0.1366 -0.0641
   6323SM   C1F 8116   3.028   6.519  16.574 -0.1704  0.7312  0.2187
   6323SM    OF 8117   3.141   6.497  16.612 -0.0236 -0.2387  0.1632
   6323SM   C2F 8118   2.977   6.651  16.532  0.4262 -0.3358  0.9698
   6323SM   H2F 8119   2.994   6.728  16.610  0.2995  0.6488  0.0554
   6323SM   H2G 8120   2.867   6.651  16.523  0.4639 -2.9190 -0.8239
   6323SM   C3F 8121   3.039   6.686  16.394  0.1011 -0.3429  0.0084
   6323SM   H3F 8122   3.149   6.675  16.408 -0.0249 -1.0986  0.4517
   6323SM   H3G 8123   3.001   6.785  16.361  0.1909 -0.3644 -0.1619
   6323SM   C4F 8124   2.989   6.589  16.288 -0.0323  0.5238  0.6627
   6323SM   H4F 8125   2.879   6.572  16.297 -0.0525  0.2683 -0.0335
   6323SM   H4G 8126   3.031   6.486  16.294 -0.0857  0.3474 -1.3401
   6323SM   C5F 8127   3.006   6.638  16.146 -0.3664  0.2945  0.0724
   6323SM   H5F 8128   3.110   6.666  16.122 -0.0305 -2.2090 -1.8135
   6323SM   H5G 8129   2.939   6.727  16.147 -0.1052  0.5350 -1.5944
   6323SM   C6F 8130   2.968   6.523  16.055 -0.9278 -0.1006  0.5558
   6323SM   H6F 8131   2.863   6.487  16.060  0.0980 -3.3751  0.3589
   6323SM   H6G 8132   3.035   6.438  16.078 -2.7387 -1.1319  2.4586
   6323SM   C7F 8133   2.984   6.559  15.909  0.5652 -0.4099 -0.2650
   6323SM   H7F 8134   3.084   6.602  15.887 -0.5664  1.3122 -2.5296
   6323SM   H7G 8135   2.918   6.644  15.881  1.6718  0.0413 -1.6267
   6323SM   C8F 8136   2.954   6.442  15.817  0.0178 -0.1362 -0.0039
   6323SM   H8F 8137   2.845   6.430  15.834 -0.1143  1.6983  0.6415
   6323SM   H8G 8138   3.011   6.358  15.863  0.3178  1.8718  3.6033
   6323SM   C9F 8139   2.988   6.474  15.669 -0.9170 -0.7137  0.7475
   6323SM   H9F 8140   3.008   6.377  15.618  0.1491 -0.0216 -0.2088
   6323SM   H9G 8141   3.081   6.534  15.659 -2.1666  0.9944 -1.4736
   6323SM  C10F 8142   2.875   6.553  15.598 -0.1271  0.5827 -1.1482
   6323SM  H10F 8143   2.851   6.642  15.660 -0.4176 -0.9429  1.0376
   6323SM  H10G 8144   2.779   6.498  15.597 -1.0297  1.9561  1.4819
   6323SM  C11F 8145   2.914   6.584  15.458 -0.4832 -0.5134 -0.0608
   6323SM  H11F 8146   3.017   6.625  15.460 -1.0733  1.0231  0.3711
   6323SM  H11G 8147   2.852   6.664  15.414  1.1821  1.0526  0.3124
   6323SM  C12F 8148   2.904   6.462  15.362 -0.1214  0.0262  0.6335
   6323SM  H12F 8149   2.814   6.457  15.297  0.1346  0.7392  0.2079
   6323SM  H12G 8150   2.904   6.368  15.421 -0.0268  0.1691  0.8636
   6323SM  C13F 8151   3.005   6.466  15.241  0.1591  0.8755 -0.1886
   6323SM  H13F 8152   3.103   6.491  15.286 -0.1344  0.2288  0.8455
   6323SM  H13G 8153   2.980   6.543  15.164 -0.6949 -0.8579 -1.7229
   6323SM  C14F 8154   3.011   6.324  15.170  0.3397  0.1948 -0.0965
   6323SM  H14F 8155   2.908   6.286  15.155 -0.7191  1.9552  2.0069
   6323SM  H14G 8156   3.052   6.248  15.240 -0.7003 -0.0645  0.2458
   6323SM  C15F 8157   3.092   6.325  15.040 -0.0269  1.2281  0.7261
   6323SM  H15F 8158   3.197   6.317  15.077 -0.2083 -0.7227  0.9519
   6323SM  H15G 8159   3.100   6.418  14.981  0.4394  1.1753  0.7010
   6323SM  C16F 8160   3.041   6.221  14.939  0.4328 -0.0160 -0.1219
   6323SM  H16F 8161   2.968   6.271  14.873  0.0793  2.0995  1.7331
   6323SM  H16G 8162   2.992   6.139  14.996 -1.9997  1.6049  0.2817
   6323SM  C17F 8163   3.150   6.168  14.850  0.1139  0.0535 -0.0504
   6323SM  H17F 8164   3.248   6.177  14.903 -0.4661  0.8727  0.9208
   6323SM  H17G 8165   3.152   6.247  14.772 -3.3537 -0.1193 -0.4505
   6323SM  C18F 8166   3.129   6.020  14.809  0.2337  0.0257 -0.0643
   6323SM  H18F 8167   3.026   5.995  14.775  0.3785 -1.2383  0.3702
   6323SM  H18G 8168   3.145   5.952  14.895 -1.5405  2.0902  2.0526
   6323SM  C19F 8169   3.220   5.969  14.689 -0.4271  0.3286  0.3422
   6323SM  H19F 8170   3.324   5.983  14.724  0.1825 -1.2145 -0.7238
   6323SM  H19G 8171   3.200   6.035  14.602  1.2792  0.7953  0.2748
   6323SM  C20F 8172   3.194   5.824  14.661  0.8792 -0.2453 -0.1409
   6323SM  H20F 8173   3.262   5.794  14.578  1.5813  1.4004 -0.2091
   6323SM  H20G 8174   3.087   5.817  14.632  0.6492  0.9486  0.3634
   6323SM  C21F 8175   3.237   5.738  14.782 -0.4472  0.3219 -0.1090
   6323SM  H21F 8176   3.165   5.741  14.867  0.5357 -0.2504  0.7739
   6323SM  H21G 8177   3.342   5.752  14.817  0.3535  0.7563 -2.5126
   6323SM  C22F 8178   3.232   5.588  14.751  0.2994 -0.6388 -0.3207
   6323SM  H22F 8179   3.296   5.574  14.661  1.3131  3.0188 -0.3321
   6323SM  H22G 8180   3.130   5.547  14.730  0.3848 -0.3295 -1.4436
   6323SM  C23F 8181   3.289   5.510  14.875  0.1853 -0.1731 -0.1279
   6323SM  H23F 8182   3.396   5.531  14.892 -0.0858  0.5466  0.7256
   6323SM  H23G 8183   3.282   5.402  14.848  0.1788  0.1669 -1.5970
   6323SM  H23H 8184   3.238   5.544  14.968  1.6054 -2.1957  1.4691
   6423SM     N 8185   3.922   5.563  17.547 -0.7352 -0.0824 -0.0732
   6423SM   C15 8186   3.919   5.409  17.531 -0.2504  0.3234 -0.1940
   6423SM  H15A 8187   3.817   5.381  17.509 -0.1393  0.4198 -0.8581
   6423SM  H15B 8188   3.966   5.353  17.610  1.1976  0.8483 -0.6408
   6423SM  H15C 8189   3.970   5.375  17.442 -2.8566 -1.2593 -1.1769
   6423SM   C14 8190   3.816   5.589  17.652 -0.0763 -0.5788 -0.6068
   6423SM  H14A 8191   3.797   5.695  17.662  2.1216 -0.2854  1.4410
   6423SM  H14B 8192   3.857   5.575  17.751 -2.3724 -1.1924  0.3228
   6423SM  H14C 8193   3.725   5.533  17.639 -0.4906  0.1433 -0.8878
   6423SM   C13 8194   4.056   5.610  17.610  0.0037  0.4913  0.4132
   6423SM  H13A 8195   4.063   5.568  17.710  1.6865  0.4903  0.3070
   6423SM  H13B 8196   4.057   5.717  17.625  3.2187  0.6822 -0.5699
   6423SM  H13C 8197   4.142   5.596  17.547 -0.8139 -0.6795 -0.4947
   6423SM   C12 8198   3.907   5.638  17.413  0.3543  0.4415  0.0719
   6423SM  H12A 8199   3.895   5.744  17.429 -1.6631  0.2452  0.1058
   6423SM  H12B 8200   3.811   5.612  17.372 -0.7430  0.8429  2.2807
   6423SM   C11 8201   4.008   5.608  17.297 -0.0127 -1.0457 -0.4085
   6423SM  H11A 8202   3.963   5.660  17.209 -0.6069  2.7821  1.9565
   6423SM  H11B 8203   4.019   5.499  17.275  2.0700 -0.6712 -1.4912
   6423SM     P 8204   4.265   5.602  17.241  0.2522  0.0770 -0.1150
   6423SM   O13 8205   4.374   5.701  17.247  0.0084  0.9089 -0.3578
   6423SM   O14 8206   4.291   5.461  17.281 -0.2073 -0.4661 -0.0061
   6423SM   O11 8207   4.208   5.603  17.094 -0.1183 -0.3507  0.1664
   6423SM   O12 8208   4.144   5.657  17.320 -0.2961  0.0292 -0.7983
   6423SM   C1S 8209   4.250   5.516  16.992 -0.0868  0.1787  0.5862
   6423SM   H1S 8210   4.344   5.465  17.021  1.3340  2.4487  0.2387
   6423SM   H1T 8211   4.257   5.569  16.894 -2.2127  1.4651  1.0659
   6423SM    NF 8212   4.210   5.322  16.842 -0.2053  0.1181 -0.1013
   6423SM   HNF 8213   4.171   5.340  16.752 -2.5459 -1.3450  0.5185
   6423SM   C2S 8214   4.150   5.402  16.947  0.1380  0.0596  0.8855
   6423SM   H2S 8215   4.134   5.329  17.029 -0.6172 -3.7057 -2.2948
   6423SM   C3S 8216   4.011   5.469  16.896  0.0286  0.1683 -0.8245
   6423SM   H3S 8217   4.032   5.522  16.800  0.9405  2.7300  0.6856
   6423SM    O3 8218   3.958   5.570  16.972 -0.4745 -0.4835  0.0203
   6423SM   HO3 8219   4.034   5.586  17.029 -0.1232  0.9768 -0.8116
   6423SM   C4S 8220   3.912   5.364  16.888  0.5286  0.0499  0.1555
   6423SM   H4S 8221   3.846   5.342  16.973 -1.3514 -0.8033 -1.4477
   6423SM   C5S 8222   3.875   5.311  16.767  0.4593 -0.5807 -0.8833
   6423SM   H5S 8223   3.920   5.347  16.673 -0.5907  0.4378 -1.0216
   6423SM   C6S 8224   3.770   5.207  16.752 -0.0671  0.2559  0.1288
   6423SM   H6S 8225   3.728   5.199  16.649 -1.9293  0.4065  0.8497
   6423SM   H6T 8226   3.682   5.228  16.816 -0.1176  1.1917 -0.2291
   6423SM   C7S 8227   3.813   5.061  16.798 -0.4199 -0.0920 -0.3534
   6423SM   H7S 8228   3.878   5.063  16.888  2.0964 -4.2935 -1.7869
   6423SM   H7T 8229   3.870   5.018  16.713 -1.0426  0.6542 -1.1567
   6423SM   C8S 8230   3.701   4.962  16.827 -0.5135  0.0266 -0.2096
   6423SM   H8S 8231   3.638   5.008  16.906 -0.2693  1.5245 -0.8634
   6423SM   H8T 8232   3.737   4.863  16.860 -0.4489 -0.0873 -0.6093
   6423SM   C9S 8233   3.606   4.941  16.704 -0.3790  0.7647  0.2907
   6423SM   H9S 8234   3.664   4.914  16.612 -1.2034 -1.3028  0.3209
   6423SM   H9T 8235   3.551   5.036  16.685  1.0225  1.6861  0.6739
   6423SM  C10S 8236   3.496   4.841  16.730 -0.1901  0.4146 -0.0728
   6423SM  H10S 8237   3.419   4.885  16.797 -1.0840 -0.4319 -0.5115
   6423SM  H10T 8238   3.529   4.746  16.777  0.7229  0.3933 -0.7163
   6423SM  C11S 8239   3.416   4.802  16.603 -0.3841  0.3755 -0.5112
   6423SM  H11S 8240   3.483   4.764  16.523  0.9270  0.1689  0.6474
   6423SM  H11T 8241   3.371   4.896  16.566  1.4993  0.6744 -2.2705
   6423SM  C12S 8242   3.331   4.678  16.624  0.1931  0.3813 -0.4841
   6423SM  H12S 8243   3.278   4.652  16.529 -1.2049 -2.9100  1.0444
   6423SM  H12T 8244   3.252   4.699  16.699 -0.8758 -2.4167 -0.7149
   6423SM  C13S 8245   3.407   4.544  16.655 -0.0307 -0.1519 -0.1164
   6423SM  H13S 8246   3.457   4.553  16.754  0.7067  1.7135 -0.6033
   6423SM  H13T 8247   3.476   4.534  16.569  0.9302  1.5878  0.3987
   6423SM  C14S 8248   3.314   4.425  16.643 -0.9734  0.0594  0.2496
   6423SM  H14S 8249   3.371   4.330  16.627 -1.6948 -0.3758  0.2040
   6423SM  H14T 8250   3.255   4.443  16.551  0.9906 -0.7968 -1.2536
   6423SM  C15S 8251   3.213   4.417  16.752  0.0943 -0.7984 -0.4457
   6423SM  H15S 8252   3.156   4.512  16.753  3.1099  1.2241 -2.8006
   6423SM  H15T 8253   3.262   4.426  16.851  2.1412  2.7228 -1.6009
   6423SM  C16S 8254   3.112   4.300  16.737  0.0362  0.1851 -0.8480
   6423SM  H16S 8255   3.048   4.321  16.648 -0.2580  0.7233 -0.5142
   6423SM  H16T 8256   3.051   4.307  16.830  0.5453 -1.1302 -0.3893
   6423SM  C17S 8257   3.187   4.164  16.732  0.1785  0.4827 -0.1303
   6423SM  H17S 8258   3.239   4.160  16.633  1.2373  2.2038  0.2956
   6423SM  H17T 8259   3.110   4.086  16.744  0.5307  0.0730 -0.4653
   6423SM  C18S 8260   3.302   4.151  16.837  0.3707 -0.6523  0.5257
   6423SM  H18S 8261   3.378   4.232  16.828 -3.5821  3.4298  0.2533
   6423SM  H18T 8262   3.346   4.050  16.851  3.1273  0.3300 -0.2225
   6423SM  H18U 8263   3.252   4.180  16.932 -0.1559  1.9635 -0.4745
   6423SM   C1F 8264   4.300   5.227  16.865 -0.7964  0.8222 -0.0476
   6423SM    OF 8265   4.323   5.187  16.980 -0.2378 -0.0403 -0.2246
   6423SM   C2F 8266   4.367   5.160  16.746  0.3651 -0.4900 -0.5754
   6423SM   H2F 8267   4.445   5.095  16.791 -0.9893 -2.6119 -1.1847
   6423SM   H2G 8268   4.412   5.224  16.667  1.9663 -0.7218  0.1131
   6423SM   C3F 8269   4.258   5.084  16.677 -0.0648  0.4965  0.0950
   6423SM   H3F 8270   4.197   5.165  16.631  0.1751  0.9724  0.6026
   6423SM   H3G 8271   4.204   5.024  16.753  2.4661 -0.2592  1.4130
   6423SM   C4F 8272   4.309   4.985  16.565  0.2642  0.1580 -0.0518
   6423SM   H4F 8273   4.212   4.936  16.539 -0.1538  0.8819  0.1146
   6423SM   H4G 8274   4.373   4.906  16.610 -0.4749 -2.5155 -3.2946
   6423SM   C5F 8275   4.356   5.058  16.441 -0.0945 -0.2006 -0.8027
   6423SM   H5F 8276   4.453   5.102  16.475  0.6210 -0.2428 -2.6894
   6423SM   H5G 8277   4.293   5.140  16.402  0.5545  1.9453  2.3074
   6423SM   C6F 8278   4.388   4.971  16.324  0.0731  0.3910 -0.3130
   6423SM   H6F 8279   4.411   4.867  16.356 -1.7986  0.5001  1.6311
   6423SM   H6G 8280   4.474   5.014  16.269  0.9951 -0.5387  0.3429
   6423SM   C7F 8281   4.263   4.959  16.226  0.2887  0.3361 -0.2335
   6423SM   H7F 8282   4.235   5.060  16.190 -0.8230  1.1243  2.6197
   6423SM   H7G 8283   4.181   4.919  16.290  0.5565  0.1983  0.0277
   6423SM   C8F 8284   4.294   4.864  16.112 -0.3929  1.2520  0.3573
   6423SM   H8F 8285   4.286   4.761  16.153 -0.4259  1.1800  0.1704
   6423SM   H8G 8286   4.399   4.876  16.075 -0.3167 -0.8896 -0.2422
   6423SM   C9F 8287   4.203   4.873  15.990  0.6421 -0.3876  0.0025
   6423SM   H9F 8288   4.170   4.977  15.971 -0.0418 -0.3515  1.2838
   6423SM   H9G 8289   4.117   4.803  16.002  1.8052 -2.2454 -1.8341
   6423SM  C10F 8290   4.278   4.827  15.863 -0.0782  0.7377 -0.3112
   6423SM  H10F 8291   4.326   4.733  15.899  0.0967  1.0357  0.2521
   6423SM  H10G 8292   4.358   4.901  15.844  1.0004 -0.0549  0.9176
   6423SM  C11F 8293   4.186   4.808  15.752 -0.7174 -0.2443 -0.6005
   6423SM  H11F 8294   4.152   4.910  15.726  0.6888  0.2444 -0.6026
   6423SM  H11G 8295   4.097   4.751  15.788 -0.9534  1.2988  1.4719
   6423SM  C12F 8296   4.247   4.751  15.626 -0.1166 -0.5440 -0.5841
   6423SM  H12F 8297   4.310   4.665  15.659 -0.8074 -0.7864  0.1271
   6423SM  H12G 8298   4.317   4.814  15.567 -1.2282 -0.3346 -1.7253
   6423SM  C13F 8299   4.146   4.698  15.522  0.8663 -0.0545  0.5014
   6423SM  H13F 8300   4.072   4.765  15.474 -0.5363 -3.2942 -2.3298
   6423SM  H13G 8301   4.082   4.625  15.576  0.6007  0.3975  0.8013
   6423SM  C14F 8302   4.222   4.630  15.410 -0.0728  0.0293 -0.4105
   6423SM  H14F 8303   4.281   4.548  15.456 -0.6084 -0.0802  0.0919
   6423SM  H14G 8304   4.290   4.705  15.364 -0.8114  1.3942  0.6176
   6423SM  C15F 8305   4.120   4.584  15.307  0.5465  0.1076  0.0946
   6423SM  H15F 8306   4.063   4.672  15.269  0.1237 -0.7439 -1.3161
   6423SM  H15G 8307   4.047   4.513  15.352  0.5267 -0.0467 -0.1753
   6423SM  C16F 8308   4.187   4.513  15.185 -0.2232  0.3597 -0.2998
   6423SM  H16F 8309   4.104   4.489  15.115 -1.6918  1.0691  1.1346
   6423SM  H16G 8310   4.223   4.414  15.221 -1.1495  0.1432  0.0585
   6423SM  C17F 8311   4.299   4.599  15.127  0.1199 -1.0880  0.2507
   6423SM  H17F 8312   4.388   4.573  15.189 -0.2173 -3.0279 -0.0134
   6423SM  H17G 8313   4.269   4.705  15.126 -1.1823 -1.3582 -3.3639
   6423SM  C18F 8314   4.331   4.558  14.983 -0.5052  0.0869  0.0944
   6423SM  H18F 8315   4.241   4.556  14.918  0.2230 -0.8628 -0.9206
   6423SM  H18G 8316   4.360   4.451  14.987 -0.7848  0.0435  1.3566
   6423SM  C19F 8317   4.437   4.648  14.913  0.0861 -0.5491 -0.0882
   6423SM  H19F 8318   4.512   4.677  14.989  0.4411  3.3146 -1.7002
   6423SM  H19G 8319   4.390   4.744  14.883  2.2832 -0.1214 -2.5018
   6423SM  C20F 8320   4.507   4.595  14.791 -0.5705  0.2691 -0.1824
   6423SM  H20F 8321   4.438   4.593  14.705 -0.3207 -1.2390 -0.3707
   6423SM  H20G 8322   4.530   4.488  14.808 -0.7640 -0.0100 -1.5713
   6423SM  C21F 8323   4.639   4.664  14.750 -0.1117 -0.0045  0.3640
   6423SM  H21F 8324   4.688   4.660  14.850 -0.4181 -0.0215  0.5121
   6423SM  H21G 8325   4.612   4.770  14.730 -0.5285  0.0162  1.0212
   6423SM  C22F 8326   4.718   4.603  14.635 -0.6018  0.2330 -0.3424
   6423SM  H22F 8327   4.718   4.493  14.655  0.1419  0.1269 -0.8830
   6423SM  H22G 8328   4.823   4.637  14.637 -0.3358 -0.4948 -1.2193
   6423SM  C23F 8329   4.673   4.623  14.491 -0.1635  0.3443 -0.1547
   6423SM  H23F 8330   4.572   4.583  14.469 -0.1669  0.3974 -0.2368
   6423SM  H23G 8331   4.756   4.582  14.429  0.9807  3.1748 -0.6488
   6423SM  H23H 8332   4.676   4.734  14.484 -1.2327  0.5214  1.5832
   6523SM     N 8333   4.048   5.960  17.008 -0.5652 -0.1145  0.8332
   6523SM   C15 8334   4.104   6.007  17.137 -0.2076  0.5456  0.4335
   6523SM  H15A 8335   4.045   6.078  17.192 -0.2043 -0.2454  1.4845
   6523SM  H15B 8336   4.196   6.060  17.123 -1.3188  2.8248  1.3601
   6523SM  H15C 8337   4.126   5.930  17.209 -0.7055 -1.4367 -1.4073
   6523SM   C14 8338   4.006   6.080  16.932  0.4419 -0.1874  0.1470
   6523SM  H14A 8339   3.950   6.062  16.841 -2.7943 -1.3960  2.2256
   6523SM  H14B 8340   4.082   6.156  16.920  0.8955 -0.6440  0.0841
   6523SM  H14C 8341   3.928   6.133  16.984  0.3352 -1.1381  0.9732
   6523SM   C13 8342   4.154   5.885  16.930 -0.5088  0.3437  0.3789
   6523SM  H13A 8343   4.186   5.802  16.991 -2.7304 -1.7321 -1.0943
   6523SM  H13B 8344   4.239   5.949  16.912 -1.8377  1.7129 -1.3986
   6523SM  H13C 8345   4.129   5.850  16.831  1.0755 -0.0017  0.0728
   6523SM   C12 8346   3.929   5.866  17.027  0.3587 -0.2275 -0.3829
   6523SM  H12A 8347   3.967   5.769  17.053  0.1670 -0.2558 -0.2016
   6523SM  H12B 8348   3.874   5.847  16.936  1.6123  1.2372 -1.5047
   6523SM   C11 8349   3.831   5.899  17.141 -0.1433  0.4655 -0.2779
   6523SM  H11A 8350   3.881   5.914  17.239 -2.0671 -0.8950  0.9815
   6523SM  H11B 8351   3.758   5.817  17.159 -2.4194  2.4732  0.1575
   6523SM     P 8352   3.638   6.077  17.153  0.0169 -0.0298  0.2688
   6523SM   O13 8353   3.584   5.992  17.264 -0.4107 -0.1378 -0.0847
   6523SM   O14 8354   3.660   6.217  17.179 -0.5046  0.0582 -0.0313
   6523SM   O11 8355   3.553   6.069  17.018  0.9620  0.5746  0.1449
   6523SM   O12 8356   3.772   6.019  17.102  0.1627  0.0978  0.1734
   6523SM   C1S 8357   3.578   6.169  16.914  0.7406 -0.2094 -0.0825
   6523SM   H1S 8358   3.683   6.203  16.909  0.4941  0.4122 -1.3369
   6523SM   H1T 8359   3.512   6.257  16.932  1.9258  0.5377  0.7024
   6523SM    NF 8360   3.576   6.190  16.669  0.8611  0.2319  0.6970
   6523SM   HNF 8361   3.511   6.264  16.650 -0.5583 -1.3894 -1.0633
   6523SM   C2S 8362   3.537   6.102  16.779 -0.3247  0.0048 -0.2605
   6523SM   H2S 8363   3.594   6.008  16.759  0.2706  0.5127 -0.9977
   6523SM   C3S 8364   3.391   6.071  16.778 -0.5067  0.4617 -0.4657
   6523SM   H3S 8365   3.338   6.168  16.782 -0.6540  0.4101 -1.1186
   6523SM    O3 8366   3.342   6.009  16.896  0.3515 -0.4522 -0.4124
   6523SM   HO3 8367   3.410   6.022  16.963  0.2452  2.3556 -0.7139
   6523SM   C4S 8368   3.340   6.002  16.647  0.7525 -0.9845 -0.3180
   6523SM   H4S 8369   3.333   6.063  16.556  1.4673  2.6165  1.8491
   6523SM   C5S 8370   3.315   5.870  16.632  0.1493  0.3343  0.2023
   6523SM   H5S 8371   3.329   5.800  16.716 -1.9092 -0.1204  0.2029
   6523SM   C6S 8372   3.260   5.808  16.509 -0.3111  0.2562 -0.0370
   6523SM   H6S 8373   3.235   5.886  16.434 -1.8460  0.2740  0.4586
   6523SM   H6T 8374   3.172   5.743  16.527  0.7119 -1.4356 -0.9049
   6523SM   C7S 8375   3.363   5.714  16.449 -0.9091 -0.3679  0.0477
   6523SM   H7S 8376   3.391   5.630  16.517  0.9294  1.0382  1.1422
   6523SM   H7T 8377   3.453   5.776  16.428 -1.0205 -0.2669 -0.1323
   6523SM   C8S 8378   3.318   5.650  16.313  0.2656  0.3965  0.2117
   6523SM   H8S 8379   3.209   5.630  16.319  0.4924 -0.4465  3.4255
   6523SM   H8T 8380   3.375   5.557  16.291 -1.4735 -0.0268 -3.1187
   6523SM   C9S 8381   3.338   5.736  16.194  0.1338 -0.5581 -0.0411
   6523SM   H9S 8382   3.446   5.751  16.177 -0.0401  0.0293 -0.6860
   6523SM   H9T 8383   3.286   5.833  16.207  1.0762 -0.3097  2.3363
   6523SM  C10S 8384   3.288   5.664  16.063 -0.1487 -0.0209  0.2168
   6523SM  H10S 8385   3.196   5.602  16.060 -0.0465 -0.1481 -0.8229
   6523SM  H10T 8386   3.368   5.601  16.018 -1.3036  0.1717 -2.2713
   6523SM  C11S 8387   3.272   5.770  15.953  0.5859 -0.3598  1.0424
   6523SM  H11S 8388   3.366   5.827  15.939  0.0049  0.9422  2.1943
   6523SM  H11T 8389   3.199   5.849  15.981 -0.2107  0.5441 -2.9757
   6523SM  C12S 8390   3.223   5.714  15.814 -0.3556 -0.1381  0.3898
   6523SM  H12S 8391   3.123   5.668  15.830 -0.7906  1.4030  2.5339
   6523SM  H12T 8392   3.285   5.629  15.780 -1.8520 -0.4566 -1.7412
   6523SM  C13S 8393   3.222   5.818  15.703  0.6459 -0.1578 -0.5091
   6523SM  H13S 8394   3.323   5.864  15.713 -0.0274  1.3800 -0.5700
   6523SM  H13T 8395   3.148   5.895  15.730  0.6902 -0.2807 -0.0247
   6523SM  C14S 8396   3.173   5.765  15.569 -0.3566 -0.0492 -0.2504
   6523SM  H14S 8397   3.074   5.724  15.600  0.9562 -3.5406 -0.1959
   6523SM  H14T 8398   3.235   5.675  15.551 -1.4938 -1.4316  2.1634
   6523SM  C15S 8399   3.166   5.855  15.452 -0.0486 -0.3245 -0.2903
   6523SM  H15S 8400   3.264   5.874  15.402  0.1141  1.7044  0.7079
   6523SM  H15T 8401   3.120   5.951  15.484  1.3495  0.2256  0.1534
   6523SM  C16S 8402   3.079   5.794  15.342  0.3183 -0.4254 -0.5283
   6523SM  H16S 8403   2.972   5.800  15.370  0.3273 -1.8734 -0.0980
   6523SM  H16T 8404   3.106   5.688  15.325  2.1866 -0.1549  0.4407
   6523SM  C17S 8405   3.074   5.870  15.213 -0.1442  0.5102  0.1367
   6523SM  H17S 8406   3.175   5.874  15.167  0.4005 -1.6956  1.0082
   6523SM  H17T 8407   3.038   5.973  15.235 -0.4190  0.0796  1.8338
   6523SM  C18S 8408   2.983   5.804  15.114  0.1241  0.4529 -0.4691
   6523SM  H18S 8409   2.989   5.849  15.012 -0.8584  0.4305 -0.5469
   6523SM  H18T 8410   2.878   5.798  15.149  0.3715  1.6575  0.5197
   6523SM  H18U 8411   3.001   5.694  15.110  0.7821  0.5864 -1.9332
   6523SM   C1F 8412   3.701   6.220  16.630  0.3659  0.1126 -0.6638
   6523SM    OF 8413   3.794   6.181  16.704 -0.5278 -0.3800 -0.0749
   6523SM   C2F 8414   3.718   6.304  16.508 -0.1876  1.1503 -0.3717
   6523SM   H2F 8415   3.742   6.410  16.530 -1.8095  1.2442  1.0943
   6523SM   H2G 8416   3.627   6.312  16.445 -1.6461 -0.9059  1.3206
   6523SM   C3F 8417   3.843   6.246  16.441  0.3080  0.3669 -0.7510
   6523SM   H3F 8418   3.808   6.152  16.393 -0.7766  0.2175  0.2932
   6523SM   H3G 8419   3.926   6.222  16.509 -0.9641 -3.2325 -0.2692
   6523SM   C4F 8420   3.887   6.347  16.333 -0.6864  0.0683  0.3473
   6523SM   H4F 8421   3.931   6.444  16.365 -0.5803 -0.3087  1.3765
   6523SM   H4G 8422   3.804   6.376  16.264 -1.1554 -0.5648  0.6314
   6523SM   C5F 8423   3.998   6.280  16.247 -0.8399 -0.0913 -0.2087
   6523SM   H5F 8424   3.959   6.195  16.188 -2.3556 -1.2158  2.2895
   6523SM   H5G 8425   4.079   6.243  16.314 -0.6833  0.0235 -0.3340
   6523SM   C6F 8426   4.067   6.375  16.159 -0.3232 -0.5616 -0.2204
   6523SM   H6F 8427   4.162   6.330  16.120 -0.5300  1.4637 -3.4487
   6523SM   H6G 8428   4.090   6.472  16.206  2.4825  0.2452 -2.8695
   6523SM   C7F 8429   3.983   6.422  16.036 -0.2909 -0.3535 -0.4855
   6523SM   H7F 8430   3.890   6.470  16.072 -1.6478 -3.1196 -0.0278
   6523SM   H7G 8431   3.956   6.331  15.977  0.4276 -0.6000 -0.4477
   6523SM   C8F 8432   4.068   6.529  15.957  0.5393  0.3242  0.2946
   6523SM   H8F 8433   4.168   6.487  15.933  0.2389  0.4841 -1.3496
   6523SM   H8G 8434   4.081   6.620  16.019  1.6507 -0.6076  1.4724
   6523SM   C9F 8435   4.016   6.564  15.819 -0.2072  0.8413 -0.8987
   6523SM   H9F 8436   4.063   6.656  15.780 -0.0268  0.7660 -0.8619
   6523SM   H9G 8437   3.906   6.581  15.823 -0.6996 -2.0081  1.3326
   6523SM  C10F 8438   4.039   6.439  15.721  0.7187 -0.8077 -0.0528
   6523SM  H10F 8439   4.019   6.351  15.786 -1.1852 -0.9618 -0.7995
   6523SM  H10G 8440   4.146   6.427  15.694  0.5111 -1.5466 -0.5859
   6523SM  C11F 8441   3.956   6.443  15.594 -0.3222  0.1184  0.2279
   6523SM  H11F 8442   4.000   6.514  15.521  0.2961  0.9492  1.3570
   6523SM  H11G 8443   3.853   6.481  15.605 -0.4424  1.3451 -3.8422
   6523SM  C12F 8444   3.950   6.299  15.529  0.0783  0.4817  0.0781
   6523SM  H12F 8445   3.889   6.239  15.601  0.7690  2.5288  2.5037
   6523SM  H12G 8446   4.054   6.261  15.538  0.2871  0.6864 -1.2917
   6523SM  C13F 8447   3.885   6.288  15.387 -0.1691 -0.4805  1.2659
   6523SM  H13F 8448   3.775   6.294  15.398 -0.2892  1.5790 -0.3939
   6523SM  H13G 8449   3.918   6.192  15.342  0.9788  0.6395 -0.3784
   6523SM  C14F 8450   3.911   6.389  15.279  0.2694  0.6676  0.0126
   6523SM  H14F 8451   3.873   6.490  15.305 -1.1958  0.4722 -1.2656
   6523SM  H14G 8452   3.860   6.359  15.185  1.1954  1.3064 -0.7138
   6523SM  C15F 8453   4.057   6.394  15.245  0.7463  0.0633 -0.2200
   6523SM  H15F 8454   4.100   6.292  15.240  1.0092  0.1283  0.5465
   6523SM  H15G 8455   4.118   6.443  15.324 -0.7782  0.0747  0.9888
   6523SM  C16F 8456   4.083   6.467  15.113 -0.4698  0.0064  0.6632
   6523SM  H16F 8457   4.045   6.571  15.117 -0.4188  0.3093 -3.0330
   6523SM  H16G 8458   4.033   6.416  15.028 -1.8253  1.2826  0.6641
   6523SM  C17F 8459   4.235   6.488  15.078  0.2470 -0.0400  0.5059
   6523SM  H17F 8460   4.294   6.393  15.084  0.0710 -0.1056  1.3800
   6523SM  H17G 8461   4.281   6.553  15.155  1.8291 -1.5207  0.8729
   6523SM  C18F 8462   4.266   6.540  14.931  0.6257 -0.4621  0.3032
   6523SM  H18F 8463   4.376   6.551  14.917  0.2363  1.7107 -1.6951
   6523SM  H18G 8464   4.222   6.642  14.927 -1.4629 -1.3479 -0.9065
   6523SM  C19F 8465   4.215   6.453  14.820  0.3732  0.4065  0.1430
   6523SM  H19F 8466   4.115   6.478  14.778 -0.2864  0.8333  1.8885
   6523SM  H19G 8467   4.207   6.348  14.855  1.8825 -0.3758 -1.6566
   6523SM  C20F 8468   4.305   6.447  14.692 -0.2823  0.2137 -0.1447
   6523SM  H20F 8469   4.278   6.363  14.625  0.8206  0.8685 -1.4836
   6523SM  H20G 8470   4.409   6.433  14.730 -0.1839 -0.0257 -0.4926
   6523SM  C21F 8471   4.296   6.585  14.617 -0.0332 -0.5905 -0.4122
   6523SM  H21F 8472   4.306   6.659  14.699  2.2775 -1.8079  0.5213
   6523SM  H21G 8473   4.196   6.586  14.570 -0.6505 -2.0656  0.7939
   6523SM  C22F 8474   4.412   6.606  14.524 -0.7703 -0.0094  1.2412
   6523SM  H22F 8475   4.509   6.602  14.578  0.2171 -0.6356 -0.4840
   6523SM  H22G 8476   4.406   6.710  14.483 -0.0449 -0.9091 -1.4040
   6523SM  C23F 8477   4.422   6.516  14.399  0.4721  0.2168 -0.0668
   6523SM  H23F 8478   4.414   6.408  14.425 -0.9795  0.2788 -0.1925
   6523SM  H23G 8479   4.518   6.531  14.345 -0.2549 -0.1637 -1.5058
   6523SM  H23H 8480   4.347   6.551  14.325 -1.1209 -0.7272  1.0501
   6623SM     N 8481   3.699   2.006  17.460 -0.1215  0.1251 -0.2697
   6623SM   C15 8482   3.568   2.054  17.509 -0.2056  0.4529 -0.0761
   6623SM  H15A 8483   3.504   1.967  17.514 -0.5051  0.6365 -0.6224
   6623SM  H15B 8484   3.539   2.126  17.434  1.3945  2.2720  0.9530
   6623SM  H15C 8485   3.566   2.103  17.605 -2.4258  1.1757 -0.4318
   6623SM   C14 8486   3.766   1.959  17.583 -0.5095  0.7956 -0.9399
   6623SM  H14A 8487   3.860   1.910  17.564 -0.7298 -0.4644  0.9293
   6623SM  H14B 8488   3.710   1.884  17.638  1.3024  0.0800 -0.0078
   6623SM  H14C 8489   3.781   2.044  17.649 -1.5313 -0.1012  0.5316
   6623SM   C13 8490   3.682   1.896  17.358  0.0541 -0.5793 -0.6626
   6623SM  H13A 8491   3.625   1.933  17.274 -0.8502  1.6041  0.8240
   6623SM  H13B 8492   3.630   1.811  17.399 -0.0441  0.0810  0.6271
   6623SM  H13C 8493   3.771   1.853  17.314  0.0952 -0.0015 -1.1578
   6623SM   C12 8494   3.777   2.116  17.405 -0.5563 -0.7956  0.3114
   6623SM  H12A 8495   3.877   2.077  17.391 -0.6800 -0.1776 -3.1765
   6623SM  H12B 8496   3.789   2.186  17.486 -0.4241 -1.6202  1.0158
   6623SM   C11 8497   3.734   2.189  17.281  0.0724 -0.2063  0.2796
   6623SM  H11A 8498   3.724   2.126  17.190  0.7348  0.1861 -0.0765
   6623SM  H11B 8499   3.807   2.265  17.248 -1.9202  1.5847 -0.1970
   6623SM     P 8500   3.586   2.400  17.321 -0.0091  0.5757  0.2683
   6623SM   O13 8501   3.450   2.427  17.371  0.2323 -0.6043 -0.2097
   6623SM   O14 8502   3.701   2.455  17.398  0.0271 -0.5525  0.2532
   6623SM   O11 8503   3.585   2.453  17.179  0.4104 -0.2514  0.2113
   6623SM   O12 8504   3.606   2.246  17.294 -0.3256 -0.1445  0.3211
   6623SM   C1S 8505   3.685   2.443  17.074  0.1932  0.0728 -0.4888
   6623SM   H1S 8506   3.705   2.341  17.035  1.6849  0.6776 -1.3863
   6623SM   H1T 8507   3.785   2.476  17.110  1.3768 -2.2187 -1.4376
   6623SM    NF 8508   3.715   2.478  16.827 -0.0817 -0.4731 -0.3396
   6623SM   HNF 8509   3.800   2.520  16.796 -0.1735 -1.5535 -2.1906
   6623SM   C2S 8510   3.639   2.523  16.946 -0.2806 -0.0513  0.1877
   6623SM   H2S 8511   3.532   2.498  16.927 -0.1150 -0.9552  0.3602
   6623SM   C3S 8512   3.648   2.670  16.978 -0.2952  0.3404 -0.5986
   6623SM   H3S 8513   3.754   2.696  17.000 -0.4406 -1.2328  2.5444
   6623SM    O3 8514   3.572   2.714  17.093 -0.2977 -0.1157 -0.1001
   6623SM   HO3 8515   3.532   2.630  17.119  0.8589  0.0453  2.5439
   6623SM   C4S 8516   3.597   2.741  16.858 -0.9349 -1.0991  0.0040
   6623SM   H4S 8517   3.488   2.746  16.842 -0.8835  0.6308 -0.0436
   6623SM   C5S 8518   3.685   2.814  16.781  0.4722 -0.0453 -0.5873
   6623SM   H5S 8519   3.790   2.806  16.815  0.9865  0.2800 -2.0005
   6623SM   C6S 8520   3.661   2.911  16.663 -1.1705  0.3350 -0.5298
   6623SM   H6S 8521   3.694   2.862  16.569  1.8016  2.2536 -0.6441
   6623SM   H6T 8522   3.722   3.001  16.687  0.9847 -0.5642 -2.3135
   6623SM   C7S 8523   3.514   2.945  16.639  0.3131  0.0011  0.1228
   6623SM   H7S 8524   3.464   2.963  16.736 -0.2553 -2.2685  0.3111
   6623SM   H7T 8525   3.461   2.860  16.591 -0.6129  1.2376 -1.1285
   6623SM   C8S 8526   3.496   3.059  16.537  0.0928  0.3474  0.2366
   6623SM   H8S 8527   3.534   3.154  16.582 -0.4032 -0.2286  1.9743
   6623SM   H8T 8528   3.387   3.062  16.518 -0.0316 -0.2218  0.8189
   6623SM   C9S 8529   3.566   3.035  16.408  0.3055  0.9649  0.4837
   6623SM   H9S 8530   3.555   2.935  16.362  0.7616  0.7663  0.7944
   6623SM   H9T 8531   3.676   3.045  16.414  0.8496 -1.8111 -2.4285
   6623SM  C10S 8532   3.518   3.135  16.307  0.1719 -0.0058  0.8256
   6623SM  H10S 8533   3.523   3.238  16.347  0.3727 -0.6419  2.5612
   6623SM  H10T 8534   3.408   3.128  16.318 -0.1921  4.2594  1.5826
   6623SM  C11S 8535   3.565   3.133  16.159  0.1169  0.2261  0.4442
   6623SM  H11S 8536   3.557   3.029  16.123 -3.6686  0.1372  1.1915
   6623SM  H11T 8537   3.672   3.166  16.154  0.4636 -0.9220  0.0425
   6623SM  C12S 8538   3.482   3.230  16.072 -0.4353 -0.2371 -0.1406
   6623SM  H12S 8539   3.490   3.338  16.096 -1.7877 -0.0355 -0.5138
   6623SM  H12T 8540   3.377   3.202  16.094  0.3714 -2.3542  1.2931
   6623SM  C13S 8541   3.526   3.216  15.920  0.8059  0.1198 -0.1920
   6623SM  H13S 8542   3.502   3.111  15.891 -0.8883  0.3609  0.1748
   6623SM  H13T 8543   3.634   3.234  15.906  1.3933 -2.3265  0.6543
   6623SM  C14S 8544   3.451   3.320  15.835  0.6741  0.7191 -0.5572
   6623SM  H14S 8545   3.489   3.417  15.872  0.0874  1.3072 -1.4637
   6623SM  H14T 8546   3.341   3.309  15.845  0.9497 -1.5420  0.6811
   6623SM  C15S 8547   3.489   3.305  15.687  0.2427 -0.1020 -0.9621
   6623SM  H15S 8548   3.457   3.211  15.638  2.1770  0.3168 -3.2474
   6623SM  H15T 8549   3.600   3.298  15.687  0.2103 -1.2340  0.8092
   6623SM  C16S 8550   3.443   3.416  15.594 -0.4602 -0.2578  0.3581
   6623SM  H16S 8551   3.469   3.517  15.634 -0.8412  0.4366 -1.0810
   6623SM  H16T 8552   3.333   3.423  15.579 -0.3060 -0.5270 -1.0235
   6623SM  C17S 8553   3.514   3.402  15.459 -0.5831  0.3883 -0.3836
   6623SM  H17S 8554   3.519   3.305  15.404  2.0966  0.9452 -1.2966
   6623SM  H17T 8555   3.624   3.411  15.474 -0.7330 -1.3824  2.5988
   6623SM  C18S 8556   3.466   3.506  15.356  0.0525  0.4673  0.5691
   6623SM  H18S 8557   3.356   3.506  15.339  0.3504  0.9587 -1.6911
   6623SM  H18T 8558   3.508   3.478  15.257 -0.3552 -0.2554  0.5867
   6623SM  H18U 8559   3.495   3.610  15.382 -1.0090  0.6230  1.2332
   6623SM   C1F 8560   3.686   2.361  16.766  0.1163  1.2229  0.5102
   6623SM    OF 8561   3.572   2.315  16.780  0.1327  0.0100 -0.4573
   6623SM   C2F 8562   3.782   2.289  16.682 -0.5059  0.5066  0.1752
   6623SM   H2F 8563   3.873   2.260  16.740 -0.2053  2.3793  0.7437
   6623SM   H2G 8564   3.824   2.369  16.616 -1.5170 -0.4046 -1.6294
   6623SM   C3F 8565   3.729   2.173  16.612  0.5713 -0.0254  0.1499
   6623SM   H3F 8566   3.674   2.201  16.520 -0.0550  0.2185  0.5946
   6623SM   H3G 8567   3.666   2.111  16.679  1.5445  0.1306  1.2577
   6623SM   C4F 8568   3.837   2.066  16.568  0.4314 -0.5260  0.4865
   6623SM   H4F 8569   3.781   1.985  16.515  0.6088  0.2388 -0.8965
   6623SM   H4G 8570   3.886   2.043  16.665  1.2987  0.7423  0.3679
   6623SM   C5F 8571   3.933   2.119  16.463 -0.0685 -0.0568  0.6580
   6623SM   H5F 8572   3.999   2.041  16.420 -2.0506 -0.7570 -1.2762
   6623SM   H5G 8573   3.995   2.188  16.524 -2.0541 -0.9855  4.0246
   6623SM   C6F 8574   3.863   2.190  16.335  0.1965  0.0736 -0.2959
   6623SM   H6F 8575   3.806   2.274  16.381  1.8108  1.0207  0.0937
   6623SM   H6G 8576   3.791   2.121  16.287 -0.1144 -0.3979  0.8125
   6623SM   C7F 8577   3.965   2.227  16.234 -0.9648  0.2546  0.7201
   6623SM   H7F 8578   4.057   2.166  16.222 -0.0224  1.5825  0.9933
   6623SM   H7G 8579   4.012   2.321  16.269  3.3820 -1.0967 -0.7808
   6623SM   C8F 8580   3.896   2.260  16.103 -0.5671  0.1563  0.1152
   6623SM   H8F 8581   3.832   2.350  16.112 -0.5852  0.0718  0.9634
   6623SM   H8G 8582   3.833   2.172  16.076 -1.2015  0.3315  0.9491
   6623SM   C9F 8583   4.011   2.279  15.999  0.4861  0.5561 -0.7267
   6623SM   H9F 8584   4.089   2.202  16.018 -1.7192 -1.3774  1.2276
   6623SM   H9G 8585   4.051   2.379  16.025  0.1804  0.2517  1.0722
   6623SM  C10F 8586   3.957   2.285  15.860 -0.2039  1.0115  0.4149
   6623SM  H10F 8587   3.890   2.370  15.836 -0.5908  0.2844 -1.2499
   6623SM  H10G 8588   3.891   2.196  15.851 -0.4877  1.2683 -0.0713
   6623SM  C11F 8589   4.073   2.271  15.755  0.3948  0.6085 -0.1013
   6623SM  H11F 8590   4.106   2.165  15.767  2.1584  0.9321 -1.6711
   6623SM  H11G 8591   4.152   2.342  15.787  0.2962 -0.4106  2.7879
   6623SM  C12F 8592   4.013   2.292  15.615 -0.3755 -0.0937  0.4167
   6623SM  H12F 8593   3.914   2.242  15.608  0.2177 -1.1167 -3.0058
   6623SM  H12G 8594   4.083   2.240  15.545  0.3415  1.7368 -0.2874
   6623SM  C13F 8595   4.001   2.439  15.573 -0.0564  0.2697 -0.0530
   6623SM  H13F 8596   4.101   2.480  15.600  1.0031 -1.3812 -1.2211
   6623SM  H13G 8597   3.920   2.477  15.638  0.0194  3.3116 -1.5233
   6623SM  C14F 8598   3.967   2.463  15.426  0.7606  0.7636 -0.2695
   6623SM  H14F 8599   3.931   2.567  15.412  0.9734  0.6426 -1.9287
   6623SM  H14G 8600   3.877   2.399  15.416 -0.5573  2.4916  0.0893
   6623SM  C15F 8601   4.074   2.420  15.330  0.5799  0.0293  1.2355
   6623SM  H15F 8602   4.089   2.310  15.329 -1.3864 -0.2786  0.5032
   6623SM  H15G 8603   4.169   2.478  15.338  1.1902 -0.7138 -0.2656
   6623SM  C16F 8604   4.011   2.439  15.189 -0.0299  0.5698 -0.0611
   6623SM  H16F 8605   4.004   2.549  15.172 -1.5263  0.4641 -0.2166
   6623SM  H16G 8606   3.917   2.382  15.178  0.6035 -0.2529 -1.4939
   6623SM  C17F 8607   4.106   2.364  15.083 -0.1019 -0.2587  0.1924
   6623SM  H17F 8608   4.076   2.258  15.073  0.0449 -0.1158 -2.3870
   6623SM  H17G 8609   4.213   2.380  15.108 -0.1691  1.2905 -0.3750
   6623SM  C18F 8610   4.085   2.415  14.941 -0.2307  0.3694  0.4791
   6623SM  H18F 8611   4.125   2.519  14.935  0.4265  0.2591  2.3469
   6623SM  H18G 8612   3.975   2.425  14.928 -0.4338  0.0532  1.7991
   6623SM  C19F 8613   4.149   2.325  14.841  0.7792  0.3758 -0.3761
   6623SM  H19F 8614   4.241   2.279  14.885 -1.1965 -1.4096  2.1890
   6623SM  H19G 8615   4.169   2.373  14.742  1.4808  1.1711  0.1398
   6623SM  C20F 8616   4.073   2.192  14.820 -0.0663  0.0106  0.3482
   6623SM  H20F 8617   3.964   2.210  14.831  0.0739 -0.0730  2.2316
   6623SM  H20G 8618   4.107   2.123  14.900  0.0796  0.6127  0.8147
   6623SM  C21F 8619   4.097   2.135  14.680 -0.5363 -0.8188  0.4279
   6623SM  H21F 8620   4.204   2.107  14.675 -0.3817 -0.1954  0.2387
   6623SM  H21G 8621   4.069   2.211  14.604 -0.2738 -0.0975  1.0362
   6623SM  C22F 8622   4.014   2.003  14.654 -0.2154  0.3811  0.7031
   6623SM  H22F 8623   3.911   2.029  14.623 -1.1540 -4.2412 -0.8943
   6623SM  H22G 8624   4.019   1.920  14.728 -0.6120 -1.1079 -0.8837
   6623SM  C23F 8625   4.074   1.929  14.528 -0.4896 -0.2762  0.4821
   6623SM  H23F 8626   4.101   2.013  14.461 -1.1233  0.3244  0.9700
   6623SM  H23G 8627   3.996   1.869  14.475  0.2267  0.7463 -1.8504
   6623SM  H23H 8628   4.161   1.862  14.546  0.1253 -0.3314 -2.2345
   6723SM     N 8629   2.596   6.672  17.399 -0.9536  0.1635 -0.4587
   6723SM   C15 8630   2.689   6.696  17.514 -0.1910 -0.0773 -0.3102
   6723SM  H15A 8631   2.701   6.801  17.535 -1.9362  0.2569 -0.8433
   6723SM  H15B 8632   2.791   6.662  17.506 -0.6281 -1.3121 -0.9245
   6723SM  H15C 8633   2.646   6.657  17.605  0.5916  0.5668  0.3511
   6723SM   C14 8634   2.591   6.528  17.361  0.3116  0.3250  0.0370
   6723SM  H14A 8635   2.677   6.491  17.306 -0.6791 -1.1361 -0.6156
   6723SM  H14B 8636   2.509   6.500  17.295  0.0175 -1.8385  1.2058
   6723SM  H14C 8637   2.572   6.462  17.444 -1.3549 -1.4604 -1.6321
   6723SM   C13 8638   2.458   6.729  17.433  0.8289  0.3891  0.7051
   6723SM  H13A 8639   2.466   6.837  17.443  0.7312  0.4350  0.3135
   6723SM  H13B 8640   2.412   6.687  17.521  0.5684 -0.1871  0.3001
   6723SM  H13C 8641   2.389   6.719  17.350 -0.3217 -0.7097  1.7547
   6723SM   C12 8642   2.668   6.755  17.279 -0.8882 -0.0636  0.1522
   6723SM  H12A 8643   2.766   6.712  17.268 -0.3870  1.0715  0.0407
   6723SM  H12B 8644   2.676   6.854  17.322  0.3078  0.3983 -1.0760
   6723SM   C11 8645   2.597   6.774  17.146 -0.0505  0.0745  0.9619
   6723SM  H11A 8646   2.570   6.670  17.116 -1.9228  0.7222  0.2130
   6723SM  H11B 8647   2.655   6.817  17.062  0.0396 -1.7218  0.0602
   6723SM     P 8648   2.490   7.002  17.155  0.2778  0.2749 -0.4060
   6723SM   O13 8649   2.359   7.053  17.207  0.2250  0.3169 -0.1973
   6723SM   O14 8650   2.613   7.049  17.222 -0.5348  0.3163 -0.3646
   6723SM   O11 8651   2.501   7.023  16.998 -0.0483  0.4409  0.1939
   6723SM   O12 8652   2.482   6.849  17.170  0.2305  0.6017 -0.1297
   6723SM   C1S 8653   2.409   6.957  16.911 -0.4899  0.7102 -0.2521
   6723SM   H1S 8654   2.309   7.001  16.929  0.4070  2.8865 -0.3358
   6723SM   H1T 8655   2.415   6.846  16.908  1.2642  0.7872 -1.1853
   6723SM    NF 8656   2.321   6.962  16.678  0.1959 -0.4493 -0.3147
   6723SM   HNF 8657   2.309   6.868  16.649 -0.4397 -1.0248  1.6786
   6723SM   C2S 8658   2.436   6.992  16.761  0.6442  0.3238  0.0303
   6723SM   H2S 8659   2.448   7.102  16.753 -1.2468  0.5338 -0.6906
   6723SM   C3S 8660   2.566   6.922  16.721  0.1540 -0.4298 -0.4606
   6723SM   H3S 8661   2.560   6.812  16.738  0.4615 -0.0762  2.4514
   6723SM    O3 8662   2.678   6.968  16.794  0.1890  0.0063  0.1526
   6723SM   HO3 8663   2.645   7.030  16.860  4.5682  1.2327  1.4821
   6723SM   C4S 8664   2.591   6.951  16.570  1.0341 -0.3397  0.0108
   6723SM   H4S 8665   2.605   7.053  16.533  0.8078 -0.4494 -0.3942
   6723SM   C5S 8666   2.603   6.851  16.476 -0.6264 -0.5460  0.0639
   6723SM   H5S 8667   2.619   6.745  16.501  3.0384 -0.3548 -1.0125
   6723SM   C6S 8668   2.645   6.868  16.329 -0.6148  0.4936 -0.2018
   6723SM   H6S 8669   2.571   6.813  16.268 -1.1790 -1.4869  2.1093
   6723SM   H6T 8670   2.736   6.807  16.307 -0.4976  1.2719 -2.0061
   6723SM   C7S 8671   2.672   7.004  16.270 -0.3503 -0.0024  0.1078
   6723SM   H7S 8672   2.731   7.061  16.345 -0.4163  0.2854 -0.0595
   6723SM   H7T 8673   2.574   7.052  16.249 -0.7728 -1.0962 -0.5188
   6723SM   C8S 8674   2.761   7.009  16.145  0.0887  0.0305 -0.1919
   6723SM   H8S 8675   2.835   6.926  16.144  1.9304  1.6047 -1.2438
   6723SM   H8T 8676   2.812   7.107  16.131  1.4648 -0.9697 -2.6829
   6723SM   C9S 8677   2.693   6.965  16.018  0.3207 -0.5717  0.5314
   6723SM   H9S 8678   2.621   7.046  15.992 -0.6259 -1.5775 -0.0689
   6723SM   H9T 8679   2.633   6.873  16.037 -0.5748  0.1032  1.0362
   6723SM  C10S 8680   2.783   6.948  15.898 -0.0480  0.5616 -0.4551
   6723SM  H10S 8681   2.846   6.858  15.908 -0.0225  0.6722  0.4188
   6723SM  H10T 8682   2.841   7.042  15.887 -1.4769  1.3367 -1.8588
   6723SM  C11S 8683   2.709   6.952  15.761 -0.5662  0.3430  0.3849
   6723SM  H11S 8684   2.660   7.051  15.752  0.7559  1.1744  1.8398
   6723SM  H11T 8685   2.623   6.881  15.764 -0.1403 -0.2814 -1.0349
   6723SM  C12S 8686   2.806   6.951  15.638  0.2297 -0.2232  0.0514
   6723SM  H12S 8687   2.862   6.856  15.629  2.7084  0.9980  1.3333
   6723SM  H12T 8688   2.872   7.040  15.647  0.5990 -0.4092 -0.7687
   6723SM  C13S 8689   2.720   6.965  15.513 -0.1786 -0.8124 -0.8728
   6723SM  H13S 8690   2.654   7.052  15.530 -0.1935 -1.1407  0.9824
   6723SM  H13T 8691   2.663   6.870  15.512  0.1087 -0.9893 -1.7865
   6723SM  C14S 8692   2.803   6.989  15.387  1.1915  0.5496  0.2340
   6723SM  H14S 8693   2.832   6.885  15.360 -2.0035 -0.3950  0.0124
   6723SM  H14T 8694   2.890   7.056  15.403  0.5533  1.5892 -0.4726
   6723SM  C15S 8695   2.722   7.043  15.270  0.4519  0.3612 -0.1343
   6723SM  H15S 8696   2.697   7.150  15.288  2.6978  1.5528 -3.2604
   6723SM  H15T 8697   2.630   6.982  15.260 -0.3206  1.2799  1.0546
   6723SM  C16S 8698   2.805   7.037  15.149 -0.0760 -0.4921  0.2095
   6723SM  H16S 8699   2.857   6.943  15.120 -0.5263 -0.0150 -2.4050
   6723SM  H16T 8700   2.892   7.102  15.169  0.2481 -1.0158  0.5347
   6723SM  C17S 8701   2.728   7.084  15.027  0.1419 -0.4754  0.1203
   6723SM  H17S 8702   2.786   7.150  14.958 -1.7208  1.1321 -0.0012
   6723SM  H17T 8703   2.638   7.141  15.059 -1.4927 -1.5987 -2.1188
   6723SM  C18S 8704   2.680   6.967  14.945  0.4360  0.2614 -0.0913
   6723SM  H18S 8705   2.767   6.914  14.899  0.9066 -0.5914  1.7128
   6723SM  H18T 8706   2.611   6.999  14.864  0.6425  3.1644  0.7841
   6723SM  H18U 8707   2.631   6.887  15.004 -0.1870  1.2082  0.6979
   6723SM   C1F 8708   2.215   7.047  16.670 -0.4250 -0.8815 -0.3108
   6723SM    OF 8709   2.209   7.153  16.730 -0.3469  0.0950  0.1193
   6723SM   C2F 8710   2.099   6.998  16.588  0.3194 -0.3916 -0.6676
   6723SM   H2F 8711   2.002   6.990  16.641 -0.6596  1.2790 -2.1076
   6723SM   H2G 8712   2.117   6.896  16.547 -0.3700 -1.0154  0.5473
   6723SM   C3F 8713   2.079   7.100  16.466  0.0027 -0.1798 -0.2085
   6723SM   H3F 8714   2.056   7.201  16.505  1.9311  0.3213 -0.3014
   6723SM   H3G 8715   2.004   7.056  16.397 -2.0539 -0.2643  1.9197
   6723SM   C4F 8716   2.200   7.110  16.372 -0.3615  0.2135 -0.1227
   6723SM   H4F 8717   2.297   7.111  16.425 -0.2321 -0.3142 -0.3424
   6723SM   H4G 8718   2.194   7.206  16.316 -2.8876  2.0978  3.0127
   6723SM   C5F 8719   2.206   6.988  16.273 -0.4861 -0.2112 -0.3766
   6723SM   H5F 8720   2.123   6.916  16.290  1.1845 -1.9131  1.0439
   6723SM   H5G 8721   2.303   6.936  16.289  0.7698  1.7998 -1.1221
   6723SM   C6F 8722   2.241   7.032  16.135  0.2031  0.8313 -0.4831
   6723SM   H6F 8723   2.316   7.114  16.124  0.0989  1.0206  0.1787
   6723SM   H6G 8724   2.149   7.071  16.086 -2.0600  0.8641  3.4162
   6723SM   C7F 8725   2.301   6.919  16.045 -0.0559 -0.5634 -1.1106
   6723SM   H7F 8726   2.227   6.836  16.050 -1.5926  0.7998 -0.4440
   6723SM   H7G 8727   2.399   6.874  16.072  0.6158  1.2602 -0.3706
   6723SM   C8F 8728   2.331   6.963  15.899 -0.5920  0.0416  0.1697
   6723SM   H8F 8729   2.399   6.892  15.847  1.7405  3.0579 -1.1503
   6723SM   H8G 8730   2.392   7.056  15.904  0.2898 -0.5553  0.9054
   6723SM   C9F 8731   2.204   6.980  15.811  0.0796  0.4494  0.0784
   6723SM   H9F 8732   2.121   7.031  15.863  0.2774  0.6446  0.2035
   6723SM   H9G 8733   2.171   6.878  15.782  0.8281  0.4239 -0.7555
   6723SM  C10F 8734   2.231   7.036  15.675 -0.0064 -0.8889  0.1276
   6723SM  H10F 8735   2.259   7.144  15.677 -0.0748 -0.8690 -0.0033
   6723SM  H10G 8736   2.130   7.040  15.628  0.9014  0.2993 -1.8526
   6723SM  C11F 8737   2.328   6.955  15.588 -0.7165 -0.4782 -0.5859
   6723SM  H11F 8738   2.303   6.848  15.577  0.8917 -1.0350  0.8155
   6723SM  H11G 8739   2.418   6.954  15.653 -1.6582  0.8150  0.8100
   6723SM  C12F 8740   2.358   7.020  15.454  0.4116  0.0019  0.4453
   6723SM  H12F 8741   2.461   6.989  15.429  0.8690  1.0737  0.9559
   6723SM  H12G 8742   2.360   7.131  15.455  0.3549  0.0833 -1.9688
   6723SM  C13F 8743   2.257   6.971  15.343 -0.2007 -0.2263  0.3626
   6723SM  H13F 8744   2.152   6.993  15.368 -0.0492  0.7170  0.2083
   6723SM  H13G 8745   2.264   6.861  15.337  1.7521 -0.1714  0.7651
   6723SM  C14F 8746   2.277   7.026  15.200  0.0761  0.0852 -0.6137
   6723SM  H14F 8747   2.386   7.012  15.181 -0.0972 -0.9211 -0.8901
   6723SM  H14G 8748   2.263   7.136  15.212 -2.1044 -0.3498  1.5721
   6723SM  C15F 8749   2.206   6.957  15.084  0.0560 -0.5984 -0.2867
   6723SM  H15F 8750   2.097   6.981  15.086 -0.2983 -2.0122 -1.2192
   6723SM  H15G 8751   2.210   6.849  15.113  0.7408 -0.6056 -0.4036
   6723SM  C16F 8752   2.272   6.989  14.945  0.2122 -0.6951  0.6322
   6723SM  H16F 8753   2.217   6.944  14.859 -1.0998  1.4526  0.2657
   6723SM  H16G 8754   2.377   6.956  14.951  0.6734  0.7969  1.3757
   6723SM  C17F 8755   2.267   7.141  14.904 -0.3105 -0.0115 -0.0659
   6723SM  H17F 8756   2.295   7.202  14.993  1.0242  2.3351 -1.9687
   6723SM  H17G 8757   2.160   7.156  14.879 -1.0653  0.5058  2.9956
   6723SM  C18F 8758   2.363   7.184  14.787 -0.6475  0.8302  0.2109
   6723SM  H18F 8759   2.460   7.192  14.840 -0.0969  0.8220 -0.7669
   6723SM  H18G 8760   2.332   7.273  14.729  1.8373  0.0518 -2.6395
   6723SM  C19F 8761   2.382   7.070  14.683 -0.7784  0.2570  0.0912
   6723SM  H19F 8762   2.278   7.054  14.646 -0.8621  0.5704  0.1845
   6723SM  H19G 8763   2.412   6.972  14.728 -1.1309 -0.2011 -0.6602
   6723SM  C20F 8764   2.465   7.111  14.573  0.7517 -0.4620  0.7200
   6723SM  H20F 8765   2.570   7.130  14.607  0.2869  1.6317  1.1708
   6723SM  H20G 8766   2.422   7.205  14.531 -0.0839 -0.7441  0.9376
   6723SM  C21F 8767   2.458   7.007  14.461  0.2827 -0.2423  0.1263
   6723SM  H21F 8768   2.493   7.051  14.365 -0.5928  0.7454  0.2330
   6723SM  H21G 8769   2.350   6.988  14.445 -0.9614  5.7781 -0.9716
   6723SM  C22F 8770   2.544   6.885  14.491  0.5907  0.0118 -0.6766
   6723SM  H22F 8771   2.494   6.835  14.576  1.5291 -2.3018 -1.4161
   6723SM  H22G 8772   2.650   6.917  14.506  0.9621 -1.4222 -0.0980
   6723SM  C23F 8773   2.541   6.790  14.378 -0.9789  0.0012 -0.5483
   6723SM  H23F 8774   2.440   6.745  14.378 -1.3968  0.8924 -1.6800
   6723SM  H23G 8775   2.607   6.703  14.398  0.2136  1.4041  2.0939
   6723SM  H23H 8776   2.561   6.835  14.278  1.1618  2.4819  0.8752
   6823SM     N 8777   2.633   1.296  17.129 -0.4144 -0.0673  0.1020
   6823SM   C15 8778   2.775   1.305  17.181  0.1635 -0.3912 -0.0858
   6823SM  H15A 8779   2.783   1.311  17.289  0.8581 -0.0933 -0.1460
   6823SM  H15B 8780   2.823   1.396  17.148  0.2747 -0.3866  0.0859
   6823SM  H15C 8781   2.837   1.228  17.138  1.1208 -0.6761  1.6930
   6823SM   C14 8782   2.582   1.166  17.178  0.6848  0.4689 -0.2276
   6823SM  H14A 8783   2.607   1.161  17.283 -0.4902 -0.3356  0.0331
   6823SM  H14B 8784   2.625   1.084  17.122  0.8665  1.2358 -1.2440
   6823SM  H14C 8785   2.477   1.154  17.154  0.3791 -0.5767  1.4550
   6823SM   C13 8786   2.557   1.405  17.195  0.6120 -0.2935 -0.1726
   6823SM  H13A 8787   2.574   1.385  17.300  4.3326 -1.6434 -0.8795
   6823SM  H13B 8788   2.450   1.400  17.183  0.5534 -0.4088  0.3640
   6823SM  H13C 8789   2.595   1.500  17.161 -1.5734  0.8193  0.2923
   6823SM   C12 8790   2.624   1.312  16.979  0.2389  0.2204 -0.3902
   6823SM  H12A 8791   2.518   1.320  16.958  0.0663  0.2597  0.4628
   6823SM  H12B 8792   2.659   1.224  16.927 -1.1533  0.0176 -1.0389
   6823SM   C11 8793   2.685   1.438  16.915  0.2649 -0.9310  0.1908
   6823SM  H11A 8794   2.625   1.524  16.949 -0.6352 -1.4871  0.0387
   6823SM  H11B 8795   2.681   1.432  16.804 -0.2307 -0.7375  0.1998
   6823SM     P 8796   2.950   1.443  16.884  0.0546  0.1430  0.1865
   6823SM   O13 8797   3.052   1.515  16.957 -0.1334 -0.2295  0.3513
   6823SM   O14 8798   2.972   1.298  16.861  0.0680 -0.4288 -0.4938
   6823SM   O11 8799   2.926   1.514  16.743 -0.1077  0.1525 -0.0949
   6823SM   O12 8800   2.810   1.459  16.960 -0.7319 -0.6665 -0.0146
   6823SM   C1S 8801   2.883   1.654  16.744 -1.0616 -0.2645  0.2164
   6823SM   H1S 8802   2.945   1.713  16.815 -2.3588  0.7400  0.5311
   6823SM   H1T 8803   2.774   1.663  16.763 -1.1753 -1.9414  0.5662
   6823SM    NF 8804   2.914   1.874  16.641  0.0959  0.0901  0.6948
   6823SM   HNF 8805   2.831   1.920  16.608 -0.6286 -1.8205 -0.2746
   6823SM   C2S 8806   2.925   1.733  16.614 -0.3484  0.0021  0.0187
   6823SM   H2S 8807   3.029   1.705  16.587  0.4183  0.3645  2.4469
   6823SM   C3S 8808   2.824   1.687  16.505 -0.2624 -0.5502  0.6477
   6823SM   H3S 8809   2.720   1.720  16.525 -0.4019 -0.5235 -0.0879
   6823SM    O3 8810   2.827   1.543  16.497 -0.4098 -0.3374 -0.3518
   6823SM   HO3 8811   2.897   1.513  16.555 -0.1956 -0.0983 -0.4831
   6823SM   C4S 8812   2.876   1.747  16.377 -0.0020 -0.5358  0.3150
   6823SM   H4S 8813   2.979   1.727  16.347  0.4804  2.9585 -0.8105
   6823SM   C5S 8814   2.805   1.828  16.293 -0.3467 -0.4901 -0.6453
   6823SM   H5S 8815   2.703   1.862  16.314  0.4085  0.8248  1.1566
   6823SM   C6S 8816   2.857   1.875  16.159 -0.1879 -0.3241 -0.1728
   6823SM   H6S 8817   2.875   1.984  16.152 -0.3671 -0.2133  0.8840
   6823SM   H6T 8818   2.779   1.849  16.084 -0.1244 -1.4223  0.1253
   6823SM   C7S 8819   2.981   1.796  16.110 -0.0960  0.0053 -0.1785
   6823SM   H7S 8820   2.960   1.688  16.097  0.2091 -0.0803  0.0078
   6823SM   H7T 8821   3.062   1.820  16.183  1.2057  1.1998 -1.9335
   6823SM   C8S 8822   3.030   1.852  15.971 -0.0778 -0.2657 -0.4393
   6823SM   H8S 8823   3.124   1.796  15.948  0.4733  0.8598 -1.0459
   6823SM   H8T 8824   3.055   1.959  15.987  1.4287 -0.6906  0.2696
   6823SM   C9S 8825   2.929   1.854  15.856 -0.2082  0.0172 -0.2019
   6823SM   H9S 8826   2.847   1.923  15.886  0.1992  0.1801  0.5607
   6823SM   H9T 8827   2.892   1.749  15.846  0.6825 -0.3392  0.1546
   6823SM  C10S 8828   2.983   1.901  15.720 -0.3713  0.3507  0.2035
   6823SM  H10S 8829   3.050   1.988  15.735 -0.5924  0.1840  2.6343
   6823SM  H10T 8830   2.887   1.940  15.679 -2.3437 -1.8607  2.3736
   6823SM  C11S 8831   3.051   1.791  15.631  0.4015  0.8436  0.0733
   6823SM  H11S 8832   2.977   1.710  15.613 -0.0807  1.1887  0.4797
   6823SM  H11T 8833   3.142   1.746  15.676  1.0214 -0.3431 -2.2070
   6823SM  C12S 8834   3.109   1.837  15.497 -1.0151  0.4651  0.6202
   6823SM  H12S 8835   3.203   1.894  15.513 -0.6352 -0.4203  1.6942
   6823SM  H12T 8836   3.043   1.911  15.447 -0.4833 -0.1989 -1.1218
   6823SM  C13S 8837   3.126   1.721  15.395 -0.1746  0.3174 -0.3816
   6823SM  H13S 8838   3.036   1.657  15.380  0.1651 -0.7915  1.8574
   6823SM  H13T 8839   3.211   1.654  15.421  1.5994  2.2358 -1.0372
   6823SM  C14S 8840   3.150   1.786  15.259  0.7594  0.2394 -0.3111
   6823SM  H14S 8841   3.248   1.830  15.232 -0.3377  1.0262 -3.4993
   6823SM  H14T 8842   3.081   1.873  15.249 -1.2283 -1.3257 -1.0316
   6823SM  C15S 8843   3.105   1.702  15.135 -0.4981 -0.0414 -0.4045
   6823SM  H15S 8844   2.994   1.707  15.126 -0.6973  2.4043  2.0665
   6823SM  H15T 8845   3.141   1.597  15.143 -0.0045  0.2740  3.2195
   6823SM  C16S 8846   3.160   1.752  15.002  0.0612 -0.1208 -0.4563
   6823SM  H16S 8847   3.271   1.748  15.005  0.1538  1.8482  0.8856
   6823SM  H16T 8848   3.135   1.860  14.993 -0.2886 -0.2689 -1.4122
   6823SM  C17S 8849   3.109   1.665  14.890 -0.6718  0.2808  0.6263
   6823SM  H17S 8850   2.998   1.666  14.890 -0.7279 -1.1704 -1.1741
   6823SM  H17T 8851   3.129   1.559  14.918  2.0351  0.0620 -1.7724
   6823SM  C18S 8852   3.162   1.696  14.751 -0.2521  0.7951 -0.0237
   6823SM  H18S 8853   3.138   1.614  14.680 -1.0879 -1.0610  2.2602
   6823SM  H18T 8854   3.271   1.718  14.750 -0.2561  1.0942 -3.0913
   6823SM  H18U 8855   3.117   1.790  14.715 -0.9623  0.3032 -0.4429
   6823SM   C1F 8856   3.010   1.940  16.709 -0.2345 -0.3690  0.1793
   6823SM    OF 8857   3.111   1.885  16.741 -0.0865 -0.3584  0.1334
   6823SM   C2F 8858   2.996   2.088  16.729 -0.0258  0.3334  0.7355
   6823SM   H2F 8859   3.097   2.129  16.752 -0.4329  2.8424 -1.4646
   6823SM   H2G 8860   2.931   2.105  16.818 -3.0453  2.6034 -1.6772
   6823SM   C3F 8861   2.924   2.164  16.616 -0.4344  0.0614  0.3043
   6823SM   H3F 8862   2.921   2.271  16.645  1.0983  0.3153 -0.3697
   6823SM   H3G 8863   2.814   2.149  16.615 -0.5620  0.5970  2.0689
   6823SM   C4F 8864   2.990   2.143  16.484  0.1847 -0.7527  0.0476
   6823SM   H4F 8865   3.001   2.037  16.455 -1.3256 -1.2315  1.1001
   6823SM   H4G 8866   3.093   2.181  16.499 -0.4279  0.5720  1.1221
   6823SM   C5F 8867   2.927   2.221  16.369  0.4847 -0.6379 -0.2433
   6823SM   H5F 8868   2.924   2.329  16.397  1.7806 -1.1884  2.4109
   6823SM   H5G 8869   2.826   2.192  16.335 -0.2545  1.0099  0.4034
   6823SM   C6F 8870   3.028   2.221  16.252 -0.4706  0.3920  0.3390
   6823SM   H6F 8871   3.052   2.119  16.214 -0.8628 -0.1701  1.5111
   6823SM   H6G 8872   3.111   2.282  16.294 -0.2469 -0.0584  0.5630
   6823SM   C7F 8873   2.961   2.300  16.131 -0.3369  0.4513 -0.0743
   6823SM   H7F 8874   2.911   2.392  16.166 -2.0494 -0.2685 -0.5281
   6823SM   H7G 8875   2.880   2.238  16.088 -0.1490 -0.3806  0.7440
   6823SM   C8F 8876   3.075   2.326  16.022  0.2427 -0.2658  0.0223
   6823SM   H8F 8877   3.019   2.354  15.930  2.1454  0.8067 -0.8710
   6823SM   H8G 8878   3.136   2.237  15.996  0.4834  1.1070 -5.3940
   6823SM   C9F 8879   3.165   2.457  16.058  0.4162  0.9508 -0.5663
   6823SM   H9F 8880   3.223   2.442  16.152  0.2585 -2.9046 -0.9105
   6823SM   H9G 8881   3.094   2.541  16.073 -1.4503 -0.5940 -0.2358
   6823SM  C10F 8882   3.261   2.473  15.953  0.1172  0.1013  0.9826
   6823SM  H10F 8883   3.215   2.486  15.853  0.6618 -1.4312  0.5064
   6823SM  H10G 8884   3.314   2.376  15.947 -2.0603 -1.0526 -0.4098
   6823SM  C11F 8885   3.355   2.600  15.976  0.5341  0.3758  0.6039
   6823SM  H11F 8886   3.380   2.598  16.085  1.7109  0.1163  0.3371
   6823SM  H11G 8887   3.294   2.691  15.957  1.1754  1.4268  3.1195
   6823SM  C12F 8888   3.487   2.586  15.901 -0.7734  0.0580  0.3103
   6823SM  H12F 8889   3.550   2.503  15.941 -0.0193  0.9557  1.0542
   6823SM  H12G 8890   3.550   2.673  15.927 -0.7648  1.3007 -3.3482
   6823SM  C13F 8891   3.480   2.564  15.748  0.2772 -0.0136 -0.5545
   6823SM  H13F 8892   3.420   2.472  15.733 -1.1943  0.3431  2.3863
   6823SM  H13G 8893   3.584   2.538  15.718  0.4063  0.4322 -0.5148
   6823SM  C14F 8894   3.407   2.670  15.668 -0.0583  0.0105  0.8096
   6823SM  H14F 8895   3.429   2.770  15.713 -0.0277 -0.2875  1.4772
   6823SM  H14G 8896   3.296   2.660  15.674  0.1259 -2.0160  1.7082
   6823SM  C15F 8897   3.445   2.680  15.522 -0.1113  0.5083 -0.1633
   6823SM  H15F 8898   3.541   2.630  15.497  0.5050  1.8254 -0.5686
   6823SM  H15G 8899   3.431   2.783  15.482 -3.1585 -0.5383 -2.1981
   6823SM  C16F 8900   3.343   2.597  15.445  0.3165  0.5427  0.3692
   6823SM  H16F 8901   3.245   2.647  15.427 -0.5031 -1.5708 -1.6613
   6823SM  H16G 8902   3.310   2.502  15.491 -3.1367 -0.6483 -3.8178
   6823SM  C17F 8903   3.396   2.566  15.301  0.2763  0.1480  0.1231
   6823SM  H17F 8904   3.338   2.475  15.274 -1.6571  1.6885 -1.1603
   6823SM  H17G 8905   3.499   2.525  15.306 -0.0727 -0.6943  0.6115
   6823SM  C18F 8906   3.380   2.680  15.196  0.1742  0.2309  0.0363
   6823SM  H18F 8907   3.430   2.774  15.227  0.2009  1.3011 -2.9964
   6823SM  H18G 8908   3.272   2.706  15.204  0.8476  2.7988  3.4042
   6823SM  C19F 8909   3.404   2.631  15.057  0.4440  1.0033  1.3293
   6823SM  H19F 8910   3.381   2.714  14.987  0.0939 -1.5412 -1.8255
   6823SM  H19G 8911   3.344   2.542  15.028  3.4007 -0.9882  0.9305
   6823SM  C20F 8912   3.551   2.588  15.024 -0.0457  0.3818  0.2048
   6823SM  H20F 8913   3.563   2.488  15.071  0.1332 -0.9183 -2.4450
   6823SM  H20G 8914   3.622   2.662  15.068 -0.6917  1.2609 -0.2157
   6823SM  C21F 8915   3.579   2.581  14.873  0.2832 -0.5437 -0.2902
   6823SM  H21F 8916   3.579   2.683  14.828  1.6869 -0.7004 -0.6848
   6823SM  H21G 8917   3.496   2.519  14.831  0.6432 -0.0802 -1.7720
   6823SM  C22F 8918   3.716   2.514  14.849  0.6960  0.0324  0.3750
   6823SM  H22F 8919   3.715   2.405  14.871 -1.4989  0.0760  0.7145
   6823SM  H22G 8920   3.788   2.554  14.923  2.1496 -2.4506  0.4315
   6823SM  C23F 8921   3.782   2.533  14.711  0.1952 -0.2603  0.4538
   6823SM  H23F 8922   3.881   2.482  14.705 -1.2517 -3.1466 -1.3107
   6823SM  H23G 8923   3.804   2.636  14.677  1.8210 -1.6034 -3.0475
   6823SM  H23H 8924   3.727   2.483  14.628  2.0097  0.1928 -1.0949
   6923SM     N 8925   5.000   3.459  17.404  0.0120 -0.1094 -0.1270
   6923SM   C15 8926   5.062   3.326  17.443  0.6044  0.8923  0.3634
   6923SM  H15A 8927   5.038   3.305  17.546 -0.3657  0.7849  0.1337
   6923SM  H15B 8928   5.169   3.325  17.438  0.5498  0.8278 -1.8800
   6923SM  H15C 8929   5.023   3.244  17.385  0.1795  1.1372  0.2936
   6923SM   C14 8930   4.849   3.449  17.416  0.1877  0.1691  0.0156
   6923SM  H14A 8931   4.811   3.393  17.332  3.1720  0.0784 -1.4300
   6923SM  H14B 8932   4.825   3.554  17.416  0.1499  0.1902  1.8206
   6923SM  H14C 8933   4.828   3.404  17.512  1.4223 -0.9173 -0.1929
   6923SM   C13 8934   5.052   3.559  17.500  0.5523  0.1260  0.1669
   6923SM  H13A 8935   5.021   3.660  17.477 -2.4126 -0.8258 -0.4945
   6923SM  H13B 8936   5.160   3.558  17.496  0.5438  0.1203 -3.3362
   6923SM  H13C 8937   5.019   3.534  17.599 -1.0482 -2.2225 -0.8684
   6923SM   C12 8938   5.041   3.519  17.264  0.3838  0.3821 -0.0037
   6923SM  H12A 8939   5.027   3.442  17.189 -0.1279 -0.2855  0.7689
   6923SM  H12B 8940   5.147   3.540  17.265  0.7984 -1.1727 -2.4498
   6923SM   C11 8941   4.969   3.642  17.211  0.5130 -0.7751 -0.5266
   6923SM  H11A 8942   5.030   3.687  17.130  0.1285  2.2636  0.7074
   6923SM  H11B 8943   4.956   3.723  17.287 -1.2233 -0.7828 -0.7603
   6923SM     P 8944   4.700   3.657  17.161  0.7239  0.5392  0.2800
   6923SM   O13 8945   4.613   3.584  17.068  0.5697 -0.2093 -0.2475
   6923SM   O14 8946   4.656   3.652  17.302 -0.0258 -0.3943  0.0394
   6923SM   O11 8947   4.711   3.814  17.123 -0.0749  0.5722  0.1204
   6923SM   O12 8948   4.846   3.602  17.155 -0.5892 -0.5203  0.6195
   6923SM   C1S 8949   4.798   3.849  17.014  0.6100 -0.2378 -0.0076
   6923SM   H1S 8950   4.881   3.776  17.000  0.2871 -0.5838 -0.1238
   6923SM   H1T 8951   4.852   3.944  17.036  0.6487 -0.1420 -0.5081
   6923SM    NF 8952   4.821   3.865  16.763  0.1343  0.5489 -0.4929
   6923SM   HNF 8953   4.846   3.950  16.718  1.1989 -0.2455 -1.4605
   6923SM   C2S 8954   4.728   3.862  16.876 -0.0326  0.2233 -0.5818
   6923SM   H2S 8955   4.669   3.768  16.870 -0.5494  0.6149 -2.9352
   6923SM   C3S 8956   4.618   3.973  16.872 -0.1555  0.0999  0.2428
   6923SM   H3S 8957   4.669   4.070  16.852 -0.6454  0.2124 -0.4769
   6923SM    O3 8958   4.539   3.989  16.993 -0.1868  0.0129 -0.5459
   6923SM   HO3 8959   4.578   3.936  17.062 -0.1284  1.6100  0.6980
   6923SM   C4S 8960   4.533   3.965  16.748 -0.1689  0.0853 -0.3398
   6923SM   H4S 8961   4.495   3.866  16.717  0.0557  0.5837 -2.3460
   6923SM   C5S 8962   4.506   4.069  16.670 -0.1701 -0.6026  0.1403
   6923SM   H5S 8963   4.538   4.170  16.702  0.9205 -1.3645  1.5697
   6923SM   C6S 8964   4.417   4.060  16.552  0.3500 -0.0410 -0.3490
   6923SM   H6S 8965   4.429   3.960  16.504 -0.6984  0.4412 -1.6909
   6923SM   H6T 8966   4.439   4.142  16.480  0.9086 -0.1450 -0.3011
   6923SM   C7S 8967   4.263   4.081  16.589  0.0213 -0.5732 -0.5868
   6923SM   H7S 8968   4.244   4.161  16.663  0.3207  0.6115 -1.7430
   6923SM   H7T 8969   4.224   3.985  16.628  0.1999 -0.5474 -0.3416
   6923SM   C8S 8970   4.180   4.105  16.470 -0.5766 -0.5566 -0.3634
   6923SM   H8S 8971   4.196   4.023  16.397 -0.2735  2.1291 -3.5624
   6923SM   H8T 8972   4.217   4.196  16.418 -0.1981  1.6765  3.4603
   6923SM   C9S 8973   4.030   4.118  16.503 -0.5946 -0.7691  0.4504
   6923SM   H9S 8974   4.016   4.151  16.608  1.7543  1.7650  0.0877
   6923SM   H9T 8975   3.980   4.020  16.492 -1.7265 -0.1188 -0.3786
   6923SM  C10S 8976   3.954   4.209  16.414  0.6756  0.0113 -0.7817
   6923SM  H10S 8977   3.999   4.310  16.418 -2.3026  1.5696 -2.6278
   6923SM  H10T 8978   3.847   4.220  16.443  0.7382  1.7195 -1.1285
   6923SM  C11S 8979   3.956   4.165  16.268 -0.5301  0.0707  0.3044
   6923SM  H11S 8980   3.883   4.084  16.246 -0.7728  0.2330  0.5061
   6923SM  H11T 8981   4.050   4.112  16.241 -0.2355  0.3818  0.7095
   6923SM  C12S 8982   3.928   4.285  16.175  0.1363 -0.9751 -0.6766
   6923SM  H12S 8983   4.013   4.357  16.184  0.6241 -1.2498 -2.5988
   6923SM  H12T 8984   3.840   4.333  16.223 -0.1285 -0.8171 -1.3023
   6923SM  C13S 8985   3.906   4.242  16.029 -0.3223  0.3646  0.3558
   6923SM  H13S 8986   3.816   4.177  16.025 -0.1543 -0.4416  4.5178
   6923SM  H13T 8987   3.989   4.173  16.008 -1.9719 -2.0290  1.2658
   6923SM  C14S 8988   3.892   4.357  15.931  0.0160 -0.1750  0.5026
   6923SM  H14S 8989   3.978   4.427  15.929  0.6015 -0.8303  1.5896
   6923SM  H14T 8990   3.803   4.419  15.956 -1.4000 -1.5513 -0.8977
   6923SM  C15S 8991   3.879   4.315  15.781  0.0838  0.1177 -0.5466
   6923SM  H15S 8992   3.819   4.393  15.730  1.7589  2.1588  0.4938
   6923SM  H15T 8993   3.825   4.218  15.786 -0.7516  0.6214  0.5786
   6923SM  C16S 8994   4.014   4.296  15.714 -0.3149 -0.2798  0.6497
   6923SM  H16S 8995   4.077   4.216  15.759  1.3896  0.5016 -0.2411
   6923SM  H16T 8996   4.070   4.389  15.737  1.0612 -0.4407 -1.6719
   6923SM  C17S 8997   3.989   4.292  15.567 -0.0876 -0.0665  0.0495
   6923SM  H17S 8998   3.934   4.383  15.536 -0.5572 -0.0515  0.8956
   6923SM  H17T 8999   3.930   4.202  15.539  0.7365 -0.5518 -0.1744
   6923SM  C18S 9000   4.117   4.279  15.482 -0.2313  0.5335 -0.8463
   6923SM  H18S 9001   4.189   4.363  15.493 -2.1295  2.5554 -2.8405
   6923SM  H18T 9002   4.087   4.284  15.375  1.6685  0.3587 -1.4304
   6923SM  H18U 9003   4.160   4.178  15.499  0.5139  1.1500  1.2302
   6923SM   C1F 9004   4.899   3.763  16.733 -0.0430  0.1684 -0.5415
   6923SM    OF 9005   4.876   3.654  16.781  0.2002 -0.0280  0.1203
   6923SM   C2F 9006   5.006   3.786  16.638 -0.0226 -0.1288 -0.1286
   6923SM   H2F 9007   5.081   3.841  16.699 -0.7223  0.3508  0.3286
   6923SM   H2G 9008   4.963   3.846  16.555  1.6296  1.2904 -0.0229
   6923SM   C3F 9009   5.069   3.652  16.586  0.3314 -0.1136 -0.1658
   6923SM   H3F 9010   4.990   3.599  16.528  0.8632 -0.1731 -0.8370
   6923SM   H3G 9011   5.111   3.582  16.662 -1.3057 -1.2989 -0.2833
   6923SM   C4F 9012   5.175   3.679  16.469  0.2253 -0.0554 -0.8165
   6923SM   H4F 9013   5.215   3.588  16.418  3.0359  1.2702 -1.1611
   6923SM   H4G 9014   5.264   3.728  16.513 -2.0088  4.2905 -0.6182
   6923SM   C5F 9015   5.123   3.760  16.352 -0.9916 -0.3413 -0.0002
   6923SM   H5F 9016   5.137   3.868  16.375 -0.9361 -0.0208 -1.4670
   6923SM   H5G 9017   5.014   3.742  16.341 -1.2822  1.5180 -0.5307
   6923SM   C6F 9018   5.192   3.744  16.218  0.2667 -0.0705 -0.0173
   6923SM   H6F 9019   5.174   3.641  16.181 -0.5987  0.1284 -0.1531
   6923SM   H6G 9020   5.302   3.757  16.227  0.6429 -1.9953 -1.2828
   6923SM   C7F 9021   5.126   3.829  16.101  0.4649  0.2732 -0.8475
   6923SM   H7F 9022   5.145   3.933  16.135 -0.6214  0.4219 -0.6773
   6923SM   H7G 9023   5.016   3.812  16.101  0.3330  1.1123 -0.4560
   6923SM   C8F 9024   5.185   3.806  15.956 -0.4258  0.1051 -0.3396
   6923SM   H8F 9025   5.174   3.698  15.932  1.0299  0.2786 -1.9516
   6923SM   H8G 9026   5.295   3.815  15.949  0.1269 -4.8520 -1.5018
   6923SM   C9F 9027   5.125   3.892  15.846  0.1005  0.1970 -0.4635
   6923SM   H9F 9028   5.151   3.996  15.876  1.4327 -0.9012  2.5243
   6923SM   H9G 9029   5.014   3.890  15.832 -0.0921 -0.3639  1.0261
   6923SM  C10F 9030   5.185   3.854  15.711 -0.6393 -0.4468 -0.0366
   6923SM  H10F 9031   5.179   3.745  15.692  0.9826 -0.5561 -0.0513
   6923SM  H10G 9032   5.294   3.873  15.719 -0.5935 -1.5077  3.0683
   6923SM  C11F 9033   5.118   3.935  15.593 -0.4220 -0.5483  0.1167
   6923SM  H11F 9034   5.101   4.044  15.587  0.1688 -0.4703 -0.1399
   6923SM  H11G 9035   5.017   3.887  15.592 -0.1054 -1.2379  0.1520
   6923SM  C12F 9036   5.191   3.897  15.460 -0.3257 -0.1470 -0.1489
   6923SM  H12F 9037   5.196   3.787  15.450  0.6054 -0.0417 -0.9461
   6923SM  H12G 9038   5.293   3.940  15.465 -0.1716 -0.6701  1.6828
   6923SM  C13F 9039   5.120   3.944  15.334 -0.5083  0.9651 -0.1081
   6923SM  H13F 9040   5.053   4.032  15.344 -1.7382 -0.0776  1.4129
   6923SM  H13G 9041   5.065   3.850  15.309  3.2793 -1.9876  1.6371
   6923SM  C14F 9042   5.218   3.977  15.221 -0.7360  0.6766 -0.0251
   6923SM  H14F 9043   5.308   3.911  15.214 -2.7895 -2.1292 -2.5056
   6923SM  H14G 9044   5.259   4.078  15.241  1.9337 -0.6576  2.0448
   6923SM  C15F 9045   5.152   3.973  15.079 -0.2059  0.0754  0.3301
   6923SM  H15F 9046   5.053   4.021  15.093 -0.1859 -0.1013  1.1486
   6923SM  H15G 9047   5.130   3.865  15.063  0.5766 -0.1582  0.7610
   6923SM  C16F 9048   5.233   4.056  14.973 -0.8045 -0.1888 -0.0365
   6923SM  H16F 9049   5.328   4.003  14.952  0.0069  0.7573  1.1298
   6923SM  H16G 9050   5.255   4.144  15.036  1.9190 -1.8724  1.5466
   6923SM  C17F 9051   5.160   4.091  14.844  0.8843 -0.1166  0.4854
   6923SM  H17F 9052   5.212   4.177  14.796 -1.1389  1.1701  0.4689
   6923SM  H17G 9053   5.055   4.116  14.871  0.4671  1.2019 -2.0288
   6923SM  C18F 9054   5.160   3.970  14.743 -0.4891 -0.4715  0.3781
   6923SM  H18F 9055   5.101   3.882  14.778 -0.3396  0.6563  3.8907
   6923SM  H18G 9056   5.264   3.931  14.733  0.4183  1.5067  1.6594
   6923SM  C19F 9057   5.152   4.014  14.591 -0.5742  0.4245 -0.5355
   6923SM  H19F 9058   5.164   3.927  14.522 -0.1445 -1.3322  1.6351
   6923SM  H19G 9059   5.235   4.084  14.569 -0.3065  0.0925 -0.5813
   6923SM  C20F 9060   5.014   4.072  14.541 -0.1625 -0.2895 -0.3477
   6923SM  H20F 9061   4.967   4.129  14.624 -1.3644 -3.2015  1.1184
   6923SM  H20G 9062   4.945   3.987  14.521 -0.7751  0.1279 -0.0334
   6923SM  C21F 9063   5.026   4.164  14.420  0.4825  0.1909  0.4510
   6923SM  H21F 9064   5.023   4.093  14.335 -2.7659  1.6922 -0.8602
   6923SM  H21G 9065   5.119   4.225  14.426  0.1412  0.8428 -0.5681
   6923SM  C22F 9066   4.910   4.263  14.404 -0.1848 -0.2337 -0.3696
   6923SM  H22F 9067   4.906   4.333  14.490 -0.3549  0.2078 -0.7373
   6923SM  H22G 9068   4.814   4.208  14.405 -0.6531  0.5810 -0.2768
   6923SM  C23F 9069   4.902   4.334  14.271 -0.7636 -0.0699 -0.1273
   6923SM  H23F 9070   4.989   4.400  14.251 -1.6405  1.0010 -0.5157
   6923SM  H23G 9071   4.808   4.393  14.268  0.6284  2.2773  0.0154
   6923SM  H23H 9072   4.899   4.264  14.185 -1.9548  0.8951 -0.9095
   7023SM     N 9073   5.015   2.467  17.183 -0.0340  0.1872 -0.2332
   7023SM   C15 9074   5.120   2.413  17.268  0.8554  0.2961 -0.4313
   7023SM  H15A 9075   5.202   2.483  17.275  1.3320 -0.3211  0.3402
   7023SM  H15B 9076   5.156   2.318  17.230  0.6444 -0.0451  0.1915
   7023SM  H15C 9077   5.083   2.384  17.365  0.0490 -1.4228 -1.2004
   7023SM   C14 9078   5.058   2.433  17.043 -0.4315 -0.0744 -0.0686
   7023SM  H14A 9079   5.086   2.329  17.032  0.4514  0.0817  0.5914
   7023SM  H14B 9080   5.147   2.491  17.022 -0.2073 -0.5974 -0.5990
   7023SM  H14C 9081   4.991   2.483  16.974 -0.7130  0.7262  0.7618
   7023SM   C13 9082   4.887   2.388  17.203 -0.0093  0.0750 -0.3506
   7023SM  H13A 9083   4.799   2.445  17.178 -0.2280 -0.3844 -0.6467
   7023SM  H13B 9084   4.871   2.344  17.300  1.2658 -0.2635 -0.2811
   7023SM  H13C 9085   4.884   2.309  17.129 -0.0590  1.3893 -1.7952
   7023SM   C12 9086   5.002   2.618  17.203  0.7325  0.5799 -0.2685
   7023SM  H12A 9087   4.938   2.635  17.288 -0.7038  0.5645 -1.2998
   7023SM  H12B 9088   4.941   2.649  17.119  1.3669  0.2732 -0.8509
   7023SM   C11 9089   5.130   2.696  17.211 -0.1819 -0.2065 -0.5898
   7023SM  H11A 9090   5.188   2.650  17.294 -2.0063 -3.7138 -1.0895
   7023SM  H11B 9091   5.100   2.800  17.236 -0.9605 -0.4214 -0.6210
   7023SM     P 9092   5.169   2.781  16.970  0.0082 -0.2691  0.2745
   7023SM   O13 9093   5.185   2.923  17.009  0.1359 -0.0896  0.3756
   7023SM   O14 9094   5.239   2.733  16.847 -0.2976 -0.3180 -0.5893
   7023SM   O11 9095   5.013   2.749  16.949 -0.2373 -0.2910 -0.4421
   7023SM   O12 9096   5.196   2.681  17.088 -0.6167  0.2308 -0.4156
   7023SM   C1S 9097   4.939   2.844  16.868  0.3144  0.6838  0.0813
   7023SM   H1S 9098   4.982   2.947  16.868  2.4136 -0.1408 -0.8617
   7023SM   H1T 9099   4.839   2.854  16.916  0.1081 -0.0422 -0.1870
   7023SM    NF 9100   4.881   2.901  16.632  0.1189 -0.1064 -0.1703
   7023SM   HNF 9101   4.795   2.883  16.584 -1.4258  2.3345  1.4779
   7023SM   C2S 9102   4.919   2.793  16.720 -0.2426 -0.3224 -0.5329
   7023SM   H2S 9103   5.018   2.752  16.691  1.3725 -0.5734  4.3508
   7023SM   C3S 9104   4.826   2.667  16.735 -0.5295  0.5311 -0.1219
   7023SM   H3S 9105   4.731   2.697  16.783 -1.9230 -1.7599 -1.2895
   7023SM    O3 9106   4.889   2.571  16.816  0.4828  0.8510 -0.1397
   7023SM   HO3 9107   4.961   2.620  16.857  1.6798 -0.9993  0.0857
   7023SM   C4S 9108   4.797   2.598  16.598 -0.5588 -0.1762 -0.2017
   7023SM   H4S 9109   4.690   2.587  16.576 -0.2692 -2.3144 -0.7228
   7023SM   C5S 9110   4.894   2.538  16.519  0.7857 -1.2355  0.1594
   7023SM   H5S 9111   4.996   2.552  16.558  0.6638 -1.3933  0.5358
   7023SM   C6S 9112   4.884   2.475  16.381 -0.0394 -0.2110 -0.0752
   7023SM   H6S 9113   4.888   2.364  16.390  2.2037 -0.5980 -3.7858
   7023SM   H6T 9114   4.973   2.504  16.323 -1.2082 -0.4024 -2.0642
   7023SM   C7S 9115   4.764   2.524  16.294 -0.0827  0.3278 -0.0693
   7023SM   H7S 9116   4.772   2.635  16.286 -0.3287  0.2753 -1.1132
   7023SM   H7T 9117   4.670   2.499  16.347 -0.3634  0.6533 -0.4105
   7023SM   C8S 9118   4.778   2.465  16.153  0.1384  0.5236 -0.1578
   7023SM   H8S 9119   4.768   2.355  16.162 -0.4409  0.6712  1.1672
   7023SM   H8T 9120   4.882   2.492  16.121 -0.1118  0.2364 -1.2712
   7023SM   C9S 9121   4.678   2.504  16.053 -0.2527 -1.0261  0.3515
   7023SM   H9S 9122   4.660   2.613  16.040 -2.2868 -1.4008 -0.1898
   7023SM   H9T 9123   4.581   2.484  16.102 -1.2750  1.7649 -0.3100
   7023SM  C10S 9124   4.694   2.427  15.925 -0.3956  0.1919 -0.0164
   7023SM  H10S 9125   4.696   2.318  15.948 -1.0150 -0.0229 -0.8985
   7023SM  H10T 9126   4.790   2.460  15.881  0.3685 -1.4193  0.3883
   7023SM  C11S 9127   4.587   2.464  15.824 -0.6479  0.0164  0.7552
   7023SM  H11S 9128   4.568   2.574  15.828 -0.7343  0.1355 -1.6181
   7023SM  H11T 9129   4.492   2.414  15.851 -1.5484  0.8180 -0.8229
   7023SM  C12S 9130   4.637   2.441  15.676  0.6575  0.7595 -0.3528
   7023SM  H12S 9131   4.645   2.332  15.656 -0.0525  0.7824 -0.8117
   7023SM  H12T 9132   4.736   2.491  15.673  0.3298  1.4258 -0.3217
   7023SM  C13S 9133   4.541   2.506  15.571 -1.0360 -0.0841  0.4988
   7023SM  H13S 9134   4.544   2.615  15.591 -0.0225  0.1176 -0.6202
   7023SM  H13T 9135   4.436   2.473  15.586 -0.3471 -2.0142  1.4540
   7023SM  C14S 9136   4.579   2.479  15.429 -0.7527  0.2535 -0.0403
   7023SM  H14S 9137   4.555   2.373  15.404  0.5390  0.2166 -1.2729
   7023SM  H14T 9138   4.689   2.495  15.419 -0.3019  0.3659  3.8220
   7023SM  C15S 9139   4.498   2.559  15.319  0.6896  0.2903  0.0359
   7023SM  H15S 9140   4.497   2.666  15.348 -0.4447  0.5459 -0.8712
   7023SM  H15T 9141   4.393   2.522  15.317  1.0661 -1.0239 -3.4133
   7023SM  C16S 9142   4.560   2.548  15.180 -0.2992 -0.5095  0.2527
   7023SM  H16S 9143   4.564   2.441  15.152 -0.5371 -1.5275  3.6393
   7023SM  H16T 9144   4.660   2.595  15.171 -0.0014 -1.2384 -0.3416
   7023SM  C17S 9145   4.467   2.622  15.080 -0.3431  0.5185  1.0413
   7023SM  H17S 9146   4.461   2.728  15.114  0.3271  1.3555 -1.2742
   7023SM  H17T 9147   4.366   2.577  15.089  0.1913 -1.0974 -0.5410
   7023SM  C18S 9148   4.512   2.616  14.944 -0.2746  0.6480 -0.2579
   7023SM  H18S 9149   4.443   2.671  14.876 -0.3840  2.2957  1.1389
   7023SM  H18T 9150   4.520   2.513  14.902 -1.7189 -0.2119  1.4265
   7023SM  H18U 9151   4.608   2.672  14.935  0.2449  0.0585  1.3096
   7023SM   C1F 9152   4.952   3.007  16.602  0.9128 -0.3246 -0.0186
   7023SM    OF 9153   5.061   3.007  16.652 -0.4211 -0.1850 -0.4788
   7023SM   C2F 9154   4.892   3.106  16.513  0.3627 -0.5616 -0.2544
   7023SM   H2F 9155   4.798   3.127  16.566  1.0983  0.6852  0.5897
   7023SM   H2G 9156   4.863   3.061  16.415  1.7170  0.6658 -1.2801
   7023SM   C3F 9157   4.978   3.231  16.498 -0.1900 -0.3186  0.1449
   7023SM   H3F 9158   5.083   3.198  16.483  0.2493  1.6068 -1.2665
   7023SM   H3G 9159   4.970   3.295  16.589  1.4108  1.7995 -1.1409
   7023SM   C4F 9160   4.963   3.335  16.380  0.2777  0.1906 -0.8705
   7023SM   H4F 9161   5.035   3.419  16.396 -0.9142  0.8497  1.4960
   7023SM   H4G 9162   4.872   3.394  16.401  0.1641 -0.1201 -0.4817
   7023SM   C5F 9163   4.966   3.270  16.242  0.0068 -0.4687 -0.3642
   7023SM   H5F 9164   4.886   3.193  16.240 -0.7914  0.3482 -1.1957
   7023SM   H5G 9165   5.069   3.232  16.223 -0.4446 -0.5882 -2.8358
   7023SM   C6F 9166   4.935   3.369  16.133 -0.4387  0.2033 -0.1529
   7023SM   H6F 9167   5.018   3.442  16.123 -0.7564  0.5127 -0.5709
   7023SM   H6G 9168   4.842   3.429  16.144  0.6274  2.4472 -2.2472
   7023SM   C7F 9169   4.947   3.300  15.991 -0.2743  0.4559  0.3482
   7023SM   H7F 9170   4.871   3.220  15.981  1.8395 -1.6360  0.1601
   7023SM   H7G 9171   5.042   3.242  15.986  0.0609  1.1207 -2.0850
   7023SM   C8F 9172   4.931   3.399  15.874  0.3320 -0.4072 -0.0944
   7023SM   H8F 9173   5.007   3.479  15.883  0.6606 -0.6942 -0.2499
   7023SM   H8G 9174   4.837   3.457  15.877  0.8085  0.3241  1.1885
   7023SM   C9F 9175   4.936   3.322  15.743  0.1045 -0.1265 -0.6070
   7023SM   H9F 9176   4.859   3.243  15.735  0.3510 -0.5795  1.0643
   7023SM   H9G 9177   5.041   3.284  15.742  0.0873 -0.1675 -1.8972
   7023SM  C10F 9178   4.915   3.422  15.630 -0.2799 -0.1818  0.2955
   7023SM  H10F 9179   4.988   3.506  15.626  1.9773 -2.0550 -0.1735
   7023SM  H10G 9180   4.818   3.471  15.654  1.0634  2.6182  0.4518
   7023SM  C11F 9181   4.915   3.352  15.496  0.1780  0.1491  0.5067
   7023SM  H11F 9182   4.828   3.284  15.498 -0.4681  0.9570  0.2873
   7023SM  H11G 9183   5.011   3.298  15.479 -0.3195  0.0129 -2.3244
   7023SM  C12F 9184   4.894   3.444  15.380 -0.5227 -0.1558 -0.2387
   7023SM  H12F 9185   4.963   3.531  15.381 -1.5532  0.6891  0.6991
   7023SM  H12G 9186   4.793   3.490  15.379  0.3674  2.0647  2.2196
   7023SM  C13F 9187   4.929   3.373  15.247 -0.0609 -0.0342 -0.0502
   7023SM  H13F 9188   4.855   3.301  15.205 -0.6483 -1.4761  3.1951
   7023SM  H13G 9189   5.022   3.316  15.265 -0.3051  0.2813  2.5921
   7023SM  C14F 9190   4.965   3.471  15.133  0.0260 -0.6743  0.2260
   7023SM  H14F 9191   5.029   3.551  15.175 -0.4131 -0.7354  1.0393
   7023SM  H14G 9192   4.873   3.521  15.094  1.2885  0.8894 -0.8445
   7023SM  C15F 9193   5.032   3.400  15.012 -0.1685 -0.1340  0.2067
   7023SM  H15F 9194   4.986   3.301  14.992 -0.1669 -0.6179  2.4013
   7023SM  H15G 9195   5.137   3.376  15.040 -0.4517 -1.4102  0.2500
   7023SM  C16F 9196   5.036   3.483  14.880  0.4446 -0.3496 -0.2203
   7023SM  H16F 9197   5.107   3.568  14.878 -1.6023  1.4366 -1.9302
   7023SM  H16G 9198   4.933   3.522  14.863  0.5291  0.5479  1.1922
   7023SM  C17F 9199   5.077   3.387  14.761  0.3513  0.1070 -0.4808
   7023SM  H17F 9200   4.995   3.315  14.741 -0.8947  0.6204  2.3338
   7023SM  H17G 9201   5.160   3.321  14.793 -2.0254 -1.5891  2.7063
   7023SM  C18F 9202   5.115   3.475  14.637 -0.3032  0.0116  0.5538
   7023SM  H18F 9203   5.173   3.422  14.559  0.8879  2.7628 -0.5535
   7023SM  H18G 9204   5.183   3.553  14.678 -1.1838  1.2128 -0.1865
   7023SM  C19F 9205   4.985   3.528  14.573 -0.9727  0.3871 -0.4519
   7023SM  H19F 9206   5.014   3.604  14.498  0.6383 -0.2305 -0.4845
   7023SM  H19G 9207   4.938   3.584  14.657 -0.0581  2.0027 -0.9757
   7023SM  C20F 9208   4.904   3.414  14.506  0.5060 -0.1030  0.1326
   7023SM  H20F 9209   4.834   3.364  14.576 -0.3959 -0.3932 -0.9385
   7023SM  H20G 9210   4.982   3.343  14.471  0.0445 -0.8149  0.5240
   7023SM  C21F 9211   4.823   3.468  14.386 -0.1419 -0.0953  0.1280
   7023SM  H21F 9212   4.883   3.511  14.303 -2.7579 -1.3818 -2.6077
   7023SM  H21G 9213   4.788   3.562  14.435  0.0424 -0.7523  1.5671
   7023SM  C22F 9214   4.705   3.384  14.348 -0.3239 -0.2141 -0.9048
   7023SM  H22F 9215   4.684   3.318  14.434 -1.2130 -0.6951 -1.4806
   7023SM  H22G 9216   4.737   3.312  14.269  0.2342  0.4461 -1.2963
   7023SM  C23F 9217   4.582   3.453  14.304  0.2265 -0.5296  0.4625
   7023SM  H23F 9218   4.605   3.512  14.212 -1.2460  1.5159  1.3365
   7023SM  H23G 9219   4.546   3.529  14.377 -2.0085 -0.0876 -1.0160
   7023SM  H23H 9220   4.495   3.388  14.283  0.7464 -1.1027  0.0151
   7123SM     N 9221   4.377   1.690  17.349 -0.1104 -0.1157  0.9957
   7123SM   C15 9222   4.239   1.638  17.370  0.0546 -0.3574 -0.0597
   7123SM  H15A 9223   4.175   1.640  17.284 -1.1815  3.4207  0.7681
   7123SM  H15B 9224   4.184   1.704  17.435 -1.0049 -1.2224 -0.0583
   7123SM  H15C 9225   4.245   1.534  17.397  0.7495 -0.4546 -0.5614
   7123SM   C14 9226   4.378   1.815  17.272 -0.5348 -0.6794 -0.2544
   7123SM  H14A 9227   4.372   1.898  17.341  0.7716  0.5753 -1.5705
   7123SM  H14B 9228   4.301   1.808  17.196 -0.1967 -2.6039 -0.4710
   7123SM  H14C 9229   4.472   1.832  17.222  0.8500  1.3080  2.7560
   7123SM   C13 9230   4.458   1.705  17.479 -0.4817  0.3200 -0.6860
   7123SM  H13A 9231   4.561   1.732  17.458 -0.1008 -1.4049 -1.1428
   7123SM  H13B 9232   4.450   1.614  17.535  0.5651 -0.8441 -2.3460
   7123SM  H13C 9233   4.410   1.782  17.538 -0.5362 -1.1170  1.2451
   7123SM   C12 9234   4.453   1.594  17.251 -0.5991 -0.4981  0.0564
   7123SM  H12A 9235   4.558   1.615  17.258 -0.1727 -2.4435  0.2194
   7123SM  H12B 9236   4.402   1.605  17.156  1.1261 -1.7918 -1.0888
   7123SM   C11 9237   4.439   1.438  17.286 -0.6415 -0.4661 -0.1596
   7123SM  H11A 9238   4.465   1.418  17.393  0.2086  1.7104  0.0957
   7123SM  H11B 9239   4.523   1.386  17.234  0.6266 -0.0582  1.3884
   7123SM     P 9240   4.244   1.345  17.128  0.1788  0.3248  0.1463
   7123SM   O13 9241   4.257   1.193  17.124  0.5298  0.1917  0.0760
   7123SM   O14 9242   4.113   1.402  17.140 -0.0466  0.0644  0.0253
   7123SM   O11 9243   4.318   1.421  17.011  0.1462 -0.1634 -0.3521
   7123SM   O12 9244   4.311   1.380  17.262 -0.5696 -0.2906  0.0055
   7123SM   C1S 9245   4.386   1.347  16.907 -0.4359 -0.2600 -0.0587
   7123SM   H1S 9246   4.322   1.264  16.872  1.6713 -2.0072  0.0430
   7123SM   H1T 9247   4.477   1.309  16.958  0.1528 -0.6875 -1.3875
   7123SM    NF 9248   4.469   1.377  16.665 -0.5469 -0.0503  0.1564
   7123SM   HNF 9249   4.566   1.380  16.643 -0.7223 -1.5390 -0.9844
   7123SM   C2S 9250   4.425   1.446  16.790  0.2255  1.1838 -0.1861
   7123SM   H2S 9251   4.328   1.491  16.760  0.1720  0.5200 -1.0635
   7123SM   C3S 9252   4.523   1.551  16.845  0.2229 -0.7938  0.7811
   7123SM   H3S 9253   4.622   1.513  16.877  0.4602 -0.0977  0.8896
   7123SM    O3 9254   4.463   1.627  16.955  0.0162  0.0368  0.0054
   7123SM   HO3 9255   4.391   1.570  16.982 -0.3468  0.8331  0.7854
   7123SM   C4S 9256   4.546   1.649  16.727 -0.2113  0.0901 -0.4297
   7123SM   H4S 9257   4.463   1.716  16.702 -0.5339  0.0333  0.4855
   7123SM   C5S 9258   4.661   1.665  16.652 -0.3663 -0.2761  0.0878
   7123SM   H5S 9259   4.745   1.597  16.674  0.1181  0.3361  0.1684
   7123SM   C6S 9260   4.690   1.779  16.559 -0.0913  0.0620 -0.0218
   7123SM   H6S 9261   4.785   1.834  16.571 -2.1179  4.6183 -2.2996
   7123SM   H6T 9262   4.620   1.863  16.573 -0.4344  0.0830 -1.6133
   7123SM   C7S 9263   4.711   1.715  16.417  0.0808 -0.1824 -0.2440
   7123SM   H7S 9264   4.787   1.635  16.423  0.4179  0.0929 -0.7373
   7123SM   H7T 9265   4.736   1.796  16.345  0.0952 -0.7137 -0.8424
   7123SM   C8S 9266   4.578   1.652  16.368  0.4269  0.2916  0.7277
   7123SM   H8S 9267   4.513   1.742  16.362  0.0752  0.3616  3.8951
   7123SM   H8T 9268   4.538   1.598  16.457  3.1938  1.3002  2.7519
   7123SM   C9S 9269   4.595   1.569  16.250 -0.3148  0.0779 -0.4348
   7123SM   H9S 9270   4.495   1.541  16.209  0.5252  1.7546 -4.0050
   7123SM   H9T 9271   4.650   1.480  16.287  0.8009  1.1977  0.6922
   7123SM  C10S 9272   4.656   1.643  16.134 -0.3002 -0.4209 -0.1699
   7123SM  H10S 9273   4.767   1.641  16.134 -0.2821 -1.3277 -1.8973
   7123SM  H10T 9274   4.627   1.750  16.135 -2.0312 -0.8666  1.2031
   7123SM  C11S 9275   4.615   1.592  15.994 -0.3510  0.4324  0.5545
   7123SM  H11S 9276   4.508   1.562  15.991 -0.2801  0.1703 -2.5402
   7123SM  H11T 9277   4.661   1.495  15.963 -2.2312  0.0049 -1.0985
   7123SM  C12S 9278   4.654   1.686  15.874  0.6695 -0.4142  0.0755
   7123SM  H12S 9279   4.763   1.708  15.872  0.6609 -0.1108  1.7881
   7123SM  H12T 9280   4.595   1.778  15.894  2.0378 -0.0026  2.6505
   7123SM  C13S 9281   4.616   1.618  15.744 -0.7339 -0.3717 -0.6136
   7123SM  H13S 9282   4.509   1.591  15.752 -0.6946 -0.1388  1.1923
   7123SM  H13T 9283   4.677   1.529  15.722 -0.5362 -0.1607 -0.9288
   7123SM  C14S 9284   4.632   1.712  15.618 -0.3657 -0.5439  0.6322
   7123SM  H14S 9285   4.732   1.761  15.614 -1.4739  1.8790  0.9319
   7123SM  H14T 9286   4.549   1.785  15.627 -0.8482 -0.9706 -0.2558
   7123SM  C15S 9287   4.592   1.637  15.488  0.1925 -0.1340 -0.8961
   7123SM  H15S 9288   4.553   1.706  15.410 -1.4235 -1.4159 -1.2656
   7123SM  H15T 9289   4.516   1.561  15.514  2.9810 -2.2589  1.7298
   7123SM  C16S 9290   4.718   1.564  15.422 -0.1898  0.4844 -0.1398
   7123SM  H16S 9291   4.715   1.467  15.477 -0.9684  2.2696  3.2931
   7123SM  H16T 9292   4.812   1.622  15.436 -0.3131  0.4952  0.7044
   7123SM  C17S 9293   4.701   1.544  15.269 -0.0478 -0.5650  0.1129
   7123SM  H17S 9294   4.797   1.500  15.234  1.4098  1.8828  0.8256
   7123SM  H17T 9295   4.684   1.639  15.215 -1.3021  0.1060  1.5888
   7123SM  C18S 9296   4.590   1.442  15.230 -0.1594  0.0704 -0.4936
   7123SM  H18S 9297   4.620   1.387  15.138  1.4935  0.6951 -0.3577
   7123SM  H18T 9298   4.488   1.483  15.217  0.0235  1.3008  1.4705
   7123SM  H18U 9299   4.586   1.364  15.309  1.0334 -0.5322 -1.0027
   7123SM   C1F 9300   4.393   1.290  16.595  0.0238  0.1789  0.1169
   7123SM    OF 9301   4.288   1.250  16.640  0.9694  0.2789 -0.0954
   7123SM   C2F 9302   4.451   1.243  16.472  0.1298 -0.6127  0.0958
   7123SM   H2F 9303   4.466   1.133  16.470 -1.9050 -0.9218 -1.1118
   7123SM   H2G 9304   4.549   1.289  16.452 -0.2724  0.0181 -0.4602
   7123SM   C3F 9305   4.356   1.284  16.356 -0.0121  0.0891  0.6032
   7123SM   H3F 9306   4.336   1.393  16.343  0.9644  0.3388  1.1200
   7123SM   H3G 9307   4.262   1.231  16.382  0.7412 -1.0406  1.0772
   7123SM   C4F 9308   4.400   1.238  16.217 -0.0715 -0.2075 -0.1843
   7123SM   H4F 9309   4.386   1.128  16.218 -2.4970 -0.0135 -2.1598
   7123SM   H4G 9310   4.511   1.250  16.210  0.3437 -0.6626  3.5958
   7123SM   C5F 9311   4.320   1.308  16.111 -0.5892 -0.2223  0.4744
   7123SM   H5F 9312   4.323   1.415  16.140  1.0464 -0.0846 -0.1002
   7123SM   H5G 9313   4.216   1.270  16.119 -0.5648 -0.1063  1.3797
   7123SM   C6F 9314   4.375   1.301  15.967  0.6814 -0.4850  0.0386
   7123SM   H6F 9315   4.362   1.197  15.932  1.3784  0.5572 -3.7061
   7123SM   H6G 9316   4.483   1.327  15.954 -0.0750  2.5490 -0.8732
   7123SM   C7F 9317   4.299   1.389  15.881  0.5437 -0.3391  0.3434
   7123SM   H7F 9318   4.348   1.488  15.894 -0.2452 -0.0826  1.4297
   7123SM   H7G 9319   4.193   1.395  15.914  1.2485 -0.3208  2.7758
   7123SM   C8F 9320   4.306   1.337  15.738  0.1717  0.2165  0.3262
   7123SM   H8F 9321   4.259   1.237  15.726 -0.8181  0.8668 -1.8184
   7123SM   H8G 9322   4.413   1.323  15.711 -0.1794 -2.5906  0.1236
   7123SM   C9F 9323   4.233   1.441  15.649 -0.0325  0.0840  0.4856
   7123SM   H9F 9324   4.280   1.540  15.662  0.4423  0.1134 -1.1876
   7123SM   H9G 9325   4.131   1.453  15.692 -0.2112  1.6224 -0.2919
   7123SM  C10F 9326   4.229   1.391  15.505  0.3989 -1.0376 -0.1298
   7123SM  H10F 9327   4.148   1.316  15.492  0.0527 -0.3818 -2.1381
   7123SM  H10G 9328   4.322   1.342  15.471  1.5301 -0.1022  1.4882
   7123SM  C11F 9329   4.198   1.497  15.397 -0.0545 -0.1216 -0.5395
   7123SM  H11F 9330   4.290   1.557  15.379 -1.0229  1.3555 -0.8278
   7123SM  H11G 9331   4.119   1.566  15.433  1.0895  0.6222  0.6363
   7123SM  C12F 9332   4.150   1.435  15.263  0.6358  0.8457 -1.1312
   7123SM  H12F 9333   4.054   1.378  15.263  2.0411 -1.6728 -0.2773
   7123SM  H12G 9334   4.221   1.353  15.240 -2.0412 -1.3878 -1.9713
   7123SM  C13F 9335   4.139   1.525  15.138  0.3868 -0.3089 -0.3558
   7123SM  H13F 9336   4.226   1.593  15.146  1.1061 -1.1551 -0.8152
   7123SM  H13G 9337   4.046   1.586  15.135  0.5966  0.0691 -4.5121
   7123SM  C14F 9338   4.155   1.454  15.005  0.2939 -0.5705  0.6313
   7123SM  H14F 9339   4.083   1.372  14.984 -0.0485 -0.9787  3.0680
   7123SM  H14G 9340   4.259   1.415  15.002  1.2099  1.7104  0.8377
   7123SM  C15F 9341   4.131   1.558  14.888  0.0930  0.4077 -0.4955
   7123SM  H15F 9342   4.227   1.613  14.883  0.4928 -0.3488 -1.4308
   7123SM  H15G 9343   4.047   1.626  14.916 -0.3683 -1.2349  2.5310
   7123SM  C16F 9344   4.099   1.480  14.758 -0.1091  0.1867  0.5344
   7123SM  H16F 9345   4.002   1.427  14.754 -0.5997  1.0033 -3.9748
   7123SM  H16G 9346   4.176   1.403  14.741  0.2550  0.7003 -0.1922
   7123SM  C17F 9347   4.131   1.568  14.635 -1.2010  0.0855 -0.0574
   7123SM  H17F 9348   4.234   1.610  14.627 -0.3641 -1.9610 -0.6315
   7123SM  H17G 9349   4.063   1.655  14.645 -1.0210  0.2188  0.0082
   7123SM  C18F 9350   4.117   1.476  14.510  0.1139  0.4475  0.0800
   7123SM  H18F 9351   4.010   1.446  14.511  0.2886 -0.2181 -0.2270
   7123SM  H18G 9352   4.180   1.387  14.531  0.2981  0.8083  1.0653
   7123SM  C19F 9353   4.144   1.537  14.373  0.0623 -0.0056 -0.5130
   7123SM  H19F 9354   4.248   1.576  14.369  0.4256 -0.8281  0.4752
   7123SM  H19G 9355   4.083   1.629  14.362  0.1672  0.1718  0.3401
   7123SM  C20F 9356   4.121   1.447  14.248  0.0483  0.1579 -0.5850
   7123SM  H20F 9357   4.044   1.369  14.265  0.1005  0.4233  1.0777
   7123SM  H20G 9358   4.214   1.388  14.235  0.2024  0.3192 -0.2428
   7123SM  C21F 9359   4.088   1.525  14.124  0.1180  0.0082  0.4358
   7123SM  H21F 9360   4.164   1.605  14.107  1.2703 -1.5605 -2.3691
   7123SM  H21G 9361   3.988   1.572  14.136  0.9466  1.5579  1.6341
   7123SM  C22F 9362   4.061   1.444  13.993  0.0029 -0.4221 -0.2758
   7123SM  H22F 9363   4.009   1.505  13.915 -0.7748  1.3848  1.5674
   7123SM  H22G 9364   3.990   1.364  14.022 -0.6378 -0.4600 -1.8162
   7123SM  C23F 9365   4.192   1.384  13.930  1.0625 -0.0338 -0.5487
   7123SM  H23F 9366   4.163   1.332  13.836  0.4732 -1.2287  0.2598
   7123SM  H23G 9367   4.251   1.321  14.000 -1.7677 -2.3812 -0.0735
   7123SM  H23H 9368   4.256   1.469  13.901 -0.5266  1.6376  0.6250
   7223SM     N 9369   5.548   2.827  17.100  0.0236  0.5904 -0.2410
   7223SM   C15 9370   5.532   2.862  16.962 -0.2627  0.3868 -0.0301
   7223SM  H15A 9371   5.547   2.966  16.939 -1.7715  0.2741 -1.7554
   7223SM  H15B 9372   5.432   2.826  16.940 -0.2754 -0.0662  0.7314
   7223SM  H15C 9373   5.602   2.815  16.894  1.7209  0.8554  1.5973
   7223SM   C14 9374   5.467   2.921  17.180 -0.4449 -0.4614 -0.0173
   7223SM  H14A 9375   5.436   2.886  17.278 -1.2278  0.8261  0.2295
   7223SM  H14B 9376   5.369   2.937  17.136 -0.0080  1.8830 -0.2903
   7223SM  H14C 9377   5.508   3.018  17.203 -3.4275  0.7752  0.6108
   7223SM   C13 9378   5.491   2.683  17.125  1.2109 -0.6419 -0.4782
   7223SM  H13A 9379   5.385   2.700  17.117  1.3981  1.3340  0.6387
   7223SM  H13B 9380   5.499   2.657  17.230  0.0399 -0.7166 -0.4013
   7223SM  H13C 9381   5.532   2.610  17.056  2.5309 -0.1745 -0.2126
   7223SM   C12 9382   5.692   2.841  17.144 -0.2859 -0.0032 -0.4572
   7223SM  H12A 9383   5.756   2.779  17.084 -0.0889 -0.4126  0.1689
   7223SM  H12B 9384   5.700   2.802  17.245  0.4710 -0.6983 -0.7811
   7223SM   C11 9385   5.762   2.983  17.139  0.5812 -0.0434  0.4630
   7223SM  H11A 9386   5.774   3.016  17.034  0.2445 -1.4137 -0.0143
   7223SM  H11B 9387   5.860   2.955  17.183 -0.5372 -3.2640  1.2005
   7223SM     P 9388   5.736   3.229  17.231 -0.1972  0.3012 -0.1820
   7223SM   O13 9389   5.633   3.314  17.300 -0.2622 -0.1582  0.2913
   7223SM   O14 9390   5.877   3.233  17.281  0.2734 -0.5525  0.2794
   7223SM   O11 9391   5.739   3.266  17.078  0.1887  0.7918  0.2312
   7223SM   O12 9392   5.692   3.077  17.224  0.4936  0.1492  0.1712
   7223SM   C1S 9393   5.625   3.257  16.992  0.1401  0.0937  0.9111
   7223SM   H1S 9394   5.542   3.310  17.043 -0.2083  0.7351 -0.2945
   7223SM   H1T 9395   5.586   3.153  16.986  1.9744 -0.5554 -2.2153
   7223SM    NF 9396   5.541   3.282  16.746  0.1122 -0.8495  0.2347
   7223SM   HNF 9397   5.543   3.186  16.718  1.2828 -0.5567 -0.7666
   7223SM   C2S 9398   5.651   3.306  16.841  0.6526 -0.6889 -0.3138
   7223SM   H2S 9399   5.675   3.414  16.845 -1.8438 -0.0023 -1.8220
   7223SM   C3S 9400   5.782   3.226  16.782  0.6879  0.1541 -0.1670
   7223SM   H3S 9401   5.758   3.120  16.803  1.3790  0.2030  0.9587
   7223SM    O3 9402   5.896   3.251  16.864  0.2110  0.1899 -0.3387
   7223SM   HO3 9403   5.852   3.266  16.948  2.0314  2.5818  0.2869
   7223SM   C4S 9404   5.807   3.244  16.634 -0.5289  0.0427 -0.0051
   7223SM   H4S 9405   5.751   3.173  16.571  1.4279 -0.4561 -1.2736
   7223SM   C5S 9406   5.883   3.342  16.576 -0.2964 -0.4738  0.8052
   7223SM   H5S 9407   5.907   3.427  16.641 -1.9249  0.0443  0.7909
   7223SM   C6S 9408   5.902   3.368  16.431 -0.1212  0.3006  0.4545
   7223SM   H6S 9409   6.012   3.378  16.427 -0.3481  3.6003 -0.8050
   7223SM   H6T 9410   5.853   3.466  16.410  1.2772  1.3573  1.8655
   7223SM   C7S 9411   5.860   3.261  16.317 -0.0078 -0.6171 -0.5762
   7223SM   H7S 9412   5.750   3.244  16.319  0.2332 -2.4479  1.9046
   7223SM   H7T 9413   5.918   3.171  16.345  0.1713 -0.3635 -0.1281
   7223SM   C8S 9414   5.906   3.297  16.177 -0.2008  0.3256  0.0034
   7223SM   H8S 9415   6.017   3.294  16.170 -0.1627 -1.3065  0.7782
   7223SM   H8T 9416   5.873   3.399  16.152 -0.1355  0.7129  1.4235
   7223SM   C9S 9417   5.836   3.203  16.071  0.7892  0.0221 -0.4968
   7223SM   H9S 9418   5.726   3.206  16.088  0.7070  0.5395 -1.0847
   7223SM   H9T 9419   5.855   3.097  16.101 -1.9544 -0.5814 -0.6148
   7223SM  C10S 9420   5.875   3.232  15.928  0.5073 -0.1002  0.6335
   7223SM  H10S 9421   5.975   3.189  15.912  0.1311 -0.6153 -0.4026
   7223SM  H10T 9422   5.883   3.339  15.898  0.3272 -0.0403  0.7951
   7223SM  C11S 9423   5.769   3.159  15.833 -0.6915 -0.0697  0.0151
   7223SM  H11S 9424   5.673   3.201  15.869 -0.6966  0.7248 -0.8819
   7223SM  H11T 9425   5.777   3.055  15.870  2.7660  0.5854  1.5712
   7223SM  C12S 9426   5.797   3.157  15.682 -0.2810 -0.1395  0.5080
   7223SM  H12S 9427   5.740   3.080  15.626  1.0011  0.9697 -2.5286
   7223SM  H12T 9428   5.906   3.135  15.676 -0.4076 -0.4153 -1.5911
   7223SM  C13S 9429   5.795   3.295  15.619  0.1575 -0.2769  0.3713
   7223SM  H13S 9430   5.867   3.359  15.674  0.6372 -0.0096 -0.5409
   7223SM  H13T 9431   5.694   3.340  15.634  0.3602  0.5215 -0.5649
   7223SM  C14S 9432   5.835   3.299  15.466 -0.0810 -0.3171 -0.5538
   7223SM  H14S 9433   5.928   3.247  15.435 -0.4374 -0.2518 -1.7858
   7223SM  H14T 9434   5.852   3.406  15.443  1.9715 -0.8260 -1.6503
   7223SM  C15S 9435   5.717   3.246  15.375 -0.4474 -0.1012 -0.7163
   7223SM  H15S 9436   5.624   3.290  15.416 -0.6545 -1.4534  0.3233
   7223SM  H15T 9437   5.715   3.136  15.384  1.6982 -0.1364 -0.1759
   7223SM  C16S 9438   5.723   3.293  15.228  0.0581 -0.4948  0.5184
   7223SM  H16S 9439   5.748   3.401  15.235  0.0542 -0.4780  0.2748
   7223SM  H16T 9440   5.623   3.292  15.180 -0.1901  1.4694  0.9081
   7223SM  C17S 9441   5.823   3.206  15.146  0.2889  0.3201 -0.2808
   7223SM  H17S 9442   5.775   3.107  15.128  0.4129  0.2680 -0.3251
   7223SM  H17T 9443   5.912   3.182  15.209  0.2395 -0.5143 -0.5133
   7223SM  C18S 9444   5.872   3.275  15.020 -0.2062 -0.1139 -0.4840
   7223SM  H18S 9445   5.782   3.285  14.956 -0.4385 -0.0249 -0.1478
   7223SM  H18T 9446   5.945   3.211  14.966  1.7880  0.6493  1.1834
   7223SM  H18U 9447   5.919   3.372  15.045  1.9393 -1.2897  0.3601
   7223SM   C1F 9448   5.446   3.364  16.725 -0.5164 -0.1643  0.3434
   7223SM    OF 9449   5.443   3.463  16.787 -0.0427  0.0625  0.4693
   7223SM   C2F 9450   5.337   3.329  16.622  0.4642  0.5258 -0.3376
   7223SM   H2F 9451   5.282   3.423  16.599 -2.0141 -1.4116 -3.1887
   7223SM   H2G 9452   5.272   3.251  16.668  2.9058  0.1932  2.9213
   7223SM   C3F 9453   5.382   3.272  16.482  0.2170 -0.2157  0.4951
   7223SM   H3F 9454   5.283   3.259  16.434 -0.7073 -0.0923  2.2717
   7223SM   H3G 9455   5.428   3.171  16.476  0.7603  0.1156 -2.1518
   7223SM   C4F 9456   5.465   3.376  16.406  0.6103  0.6502 -0.4723
   7223SM   H4F 9457   5.552   3.381  16.475  1.0779 -0.9616 -0.9068
   7223SM   H4G 9458   5.407   3.471  16.409 -0.8136 -0.1968 -0.0076
   7223SM   C5F 9459   5.502   3.340  16.265  0.2150  0.0652  0.0435
   7223SM   H5F 9460   5.564   3.248  16.258 -0.5285 -0.4145 -0.4315
   7223SM   H5G 9461   5.553   3.429  16.221 -2.5988  1.1868 -1.2535
   7223SM   C6F 9462   5.382   3.306  16.172  0.3554 -0.2815 -0.0472
   7223SM   H6F 9463   5.327   3.403  16.174  1.5733  0.4556  2.5476
   7223SM   H6G 9464   5.326   3.217  16.207  1.1618  0.0021  2.1019
   7223SM   C7F 9465   5.427   3.286  16.025  0.5918  0.6497 -0.1803
   7223SM   H7F 9466   5.491   3.197  16.009 -0.9031 -1.8499  5.4301
   7223SM   H7G 9467   5.483   3.376  15.990 -0.5510  0.3503 -3.0389
   7223SM   C8F 9468   5.302   3.281  15.934 -0.3261 -0.2507 -0.0471
   7223SM   H8F 9469   5.235   3.363  15.968 -0.7191 -1.2923  1.8256
   7223SM   H8G 9470   5.260   3.181  15.959  3.2297 -1.5030  1.6044
   7223SM   C9F 9471   5.341   3.326  15.791  0.6784  0.1558  0.1358
   7223SM   H9F 9472   5.421   3.403  15.802  3.6224 -2.2893 -2.2215
   7223SM   H9G 9473   5.246   3.363  15.746  0.4556 -1.9199 -1.2664
   7223SM  C10F 9474   5.397   3.222  15.687  0.1981 -0.5347 -0.1175
   7223SM  H10F 9475   5.472   3.159  15.740 -0.4485 -1.8455 -0.7360
   7223SM  H10G 9476   5.452   3.278  15.608 -0.8465  1.4110  0.4621
   7223SM  C11F 9477   5.293   3.141  15.620 -0.1660 -0.2973  0.2409
   7223SM  H11F 9478   5.211   3.211  15.592 -0.9546 -1.4150 -0.3397
   7223SM  H11G 9479   5.249   3.065  15.687 -0.5379 -1.1067 -0.8783
   7223SM  C12F 9480   5.342   3.074  15.489  0.0868 -0.0137  0.1975
   7223SM  H12F 9481   5.269   2.998  15.456 -1.2049  1.3948 -0.2861
   7223SM  H12G 9482   5.442   3.028  15.504 -0.4042 -1.4734 -0.8447
   7223SM  C13F 9483   5.354   3.165  15.366  0.4497 -0.3827  0.1331
   7223SM  H13F 9484   5.425   3.246  15.390 -1.1178  1.0555  0.1379
   7223SM  H13G 9485   5.259   3.222  15.357 -0.7284 -2.0793  1.2820
   7223SM  C14F 9486   5.389   3.089  15.233  0.8681  0.6961 -0.3971
   7223SM  H14F 9487   5.329   2.995  15.232  1.6652  0.1757 -1.4755
   7223SM  H14G 9488   5.497   3.064  15.236  1.0916  1.4384 -1.6013
   7223SM  C15F 9489   5.359   3.162  15.108 -0.2793 -0.0686  1.1042
   7223SM  H15F 9490   5.407   3.261  15.124  3.0652 -1.1194 -1.2166
   7223SM  H15G 9491   5.248   3.171  15.100 -0.1107  0.6809 -1.4132
   7223SM  C16F 9492   5.417   3.091  14.982 -0.4240 -0.7250  0.3564
   7223SM  H16F 9493   5.369   3.002  14.936 -2.6055 -1.1515  3.1887
   7223SM  H16G 9494   5.523   3.066  15.005 -0.3769 -2.6616 -1.6906
   7223SM  C17F 9495   5.439   3.190  14.862  0.0486 -0.2100  0.3102
   7223SM  H17F 9496   5.490   3.279  14.904  0.8509 -1.5905  2.4711
   7223SM  H17G 9497   5.340   3.229  14.834  1.1764  1.8025 -1.1283
   7223SM  C18F 9498   5.507   3.113  14.747  0.6893 -0.0413 -0.0591
   7223SM  H18F 9499   5.440   3.030  14.717 -0.5687  0.1257  2.0617
   7223SM  H18G 9500   5.609   3.074  14.766  0.2986 -1.4286 -0.6594
   7223SM  C19F 9501   5.504   3.194  14.611 -0.9711  0.6507 -0.3169
   7223SM  H19F 9502   5.561   3.287  14.628  1.3249 -1.0149  1.8911
   7223SM  H19G 9503   5.400   3.212  14.574 -1.2076 -1.1141 -0.6067
   7223SM  C20F 9504   5.582   3.126  14.503  0.7822  0.7165  0.7695
   7223SM  H20F 9505   5.542   3.025  14.482  1.9730  0.6980 -1.7867
   7223SM  H20G 9506   5.688   3.105  14.527  1.2459 -0.8225 -2.1576
   7223SM  C21F 9507   5.583   3.203  14.368  0.1020 -0.0794  0.0527
   7223SM  H21F 9508   5.658   3.285  14.375  0.2858 -0.2525  0.1096
   7223SM  H21G 9509   5.483   3.246  14.349  0.9111  0.6572 -3.3069
   7223SM  C22F 9510   5.608   3.122  14.242  0.2172 -0.3083 -0.9141
   7223SM  H22F 9511   5.559   3.022  14.247  0.8885 -0.6388 -0.8696
   7223SM  H22G 9512   5.718   3.109  14.242  0.4507  0.4195  3.3084
   7223SM  C23F 9513   5.557   3.194  14.107 -0.3578  0.5373  0.8037
   7223SM  H23F 9514   5.568   3.141  14.010  0.9226 -0.1177  1.2717
   7223SM  H23G 9515   5.599   3.297  14.098 -0.2429  0.4456  0.2628
   7223SM  H23H 9516   5.448   3.215  14.111 -0.4334  0.0514  1.6646
   7323SM     N 9517   5.062   1.855  17.531  0.1754  0.5881 -0.0106
   7323SM   C15 9518   4.983   1.728  17.525  0.4323  0.4074  0.1061
   7323SM  H15A 9519   4.888   1.738  17.575 -0.3008  0.9512 -1.3326
   7323SM  H15B 9520   5.030   1.652  17.585  1.5236  1.4510  0.6317
   7323SM  H15C 9521   4.966   1.689  17.426  0.1153 -0.1290  0.3732
   7323SM   C14 9522   5.087   1.877  17.680 -0.7119  0.0007  0.3276
   7323SM  H14A 9523   4.993   1.910  17.722 -0.6213 -0.8562  1.2331
   7323SM  H14B 9524   5.162   1.951  17.703 -1.0332  0.0286  1.3007
   7323SM  H14C 9525   5.105   1.783  17.729 -0.1377  0.8154  1.7222
   7323SM   C13 9526   5.198   1.843  17.476  0.1114 -0.6238  0.4309
   7323SM  H13A 9527   5.191   1.811  17.373  1.6845  1.9203 -0.5619
   7323SM  H13B 9528   5.248   1.759  17.523 -0.9481 -1.3001  0.3844
   7323SM  H13C 9529   5.260   1.931  17.487 -0.3975 -0.2373  0.2422
   7323SM   C12 9530   4.987   1.974  17.476 -0.3014  0.6954 -0.2022
   7323SM  H12A 9531   5.028   2.054  17.537 -1.8059 -0.5831  2.6764
   7323SM  H12B 9532   4.883   1.956  17.499 -0.0132 -1.4860 -0.4013
   7323SM   C11 9533   5.001   1.995  17.324 -0.2691 -0.5164 -0.3055
   7323SM  H11A 9534   4.921   2.065  17.291  0.2392 -0.5334 -1.6407
   7323SM  H11B 9535   4.982   1.898  17.274  0.9983 -1.8061  1.5496
   7323SM     P 9536   5.176   2.042  17.145  0.5242 -0.0220  0.0877
   7323SM   O13 9537   5.237   2.169  17.099 -0.6847  0.0033 -0.4091
   7323SM   O14 9538   5.261   1.918  17.153 -0.2556 -0.1320 -0.1488
   7323SM   O11 9539   5.049   2.018  17.053  0.3382  0.4465 -0.1292
   7323SM   O12 9540   5.122   2.062  17.295 -0.4032  0.0183  0.5408
   7323SM   C1S 9541   5.081   1.999  16.913  0.0834 -0.0516  0.2161
   7323SM   H1S 9542   5.145   1.909  16.906  0.5506  0.2633  0.3864
   7323SM   H1T 9543   5.138   2.088  16.879  1.4014 -0.3210  1.5855
   7323SM    NF 9544   4.984   1.989  16.685  0.2351 -0.2599  0.0152
   7323SM   HNF 9545   4.982   2.070  16.627 -0.2321 -0.9575 -0.9717
   7323SM   C2S 9546   4.948   1.998  16.829  0.3851 -0.7320  0.1628
   7323SM   H2S 9547   4.884   1.911  16.858  0.5807 -0.8717  0.1742
   7323SM   C3S 9548   4.868   2.130  16.866 -0.8744 -0.1633  0.1584
   7323SM   H3S 9549   4.938   2.215  16.848 -1.2217 -0.0856 -0.9021
   7323SM    O3 9550   4.824   2.135  17.001 -0.1851 -0.1213 -0.0818
   7323SM   HO3 9551   4.895   2.087  17.044 -0.3006  1.2769  1.8087
   7323SM   C4S 9552   4.750   2.144  16.772 -0.1198  0.1192  1.1464
   7323SM   H4S 9553   4.661   2.083  16.792  0.1486 -0.9993 -0.9028
   7323SM   C5S 9554   4.743   2.224  16.662 -0.2897  0.2356 -0.3566
   7323SM   H5S 9555   4.833   2.283  16.638  0.4256 -0.6074  0.2184
   7323SM   C6S 9556   4.621   2.228  16.573 -0.0766 -0.2328 -0.0918
   7323SM   H6S 9557   4.603   2.335  16.549 -2.4423 -0.1774  1.5476
   7323SM   H6T 9558   4.527   2.180  16.609 -0.9498  1.9413  0.7217
   7323SM   C7S 9559   4.658   2.151  16.446  0.2880 -0.5636  0.5690
   7323SM   H7S 9560   4.679   2.045  16.473  0.1813 -0.6331  0.3792
   7323SM   H7T 9561   4.753   2.192  16.405  0.2231  1.0562  1.9167
   7323SM   C8S 9562   4.548   2.149  16.340  0.6664 -0.2137 -0.6231
   7323SM   H8S 9563   4.526   2.255  16.313  0.2158 -0.8377 -2.9175
   7323SM   H8T 9564   4.459   2.102  16.385  0.2246 -0.1611 -1.4157
   7323SM   C9S 9565   4.580   2.072  16.211 -1.1924  0.1873  0.2055
   7323SM   H9S 9566   4.574   1.963  16.231 -1.8764  0.0277 -0.8449
   7323SM   H9T 9567   4.679   2.107  16.173 -2.2010  1.9612 -0.8979
   7323SM  C10S 9568   4.469   2.104  16.108  0.3619  0.4181  0.1337
   7323SM  H10S 9569   4.467   2.214  16.090 -0.4595  0.2072 -1.2304
   7323SM  H10T 9570   4.374   2.074  16.157  0.0594  1.3450  0.1288
   7323SM  C11S 9571   4.478   2.034  15.971 -0.4369 -0.0485  0.7005
   7323SM  H11S 9572   4.432   1.933  15.979 -0.0218 -0.3188 -0.1521
   7323SM  H11T 9573   4.586   2.012  15.957 -0.9215 -4.3522  2.1769
   7323SM  C12S 9574   4.421   2.116  15.855  0.1685 -0.0145  0.1856
   7323SM  H12S 9575   4.487   2.202  15.830 -1.8842  1.1893 -1.4525
   7323SM  H12T 9576   4.317   2.153  15.867  0.5013  1.4194 -0.9660
   7323SM  C13S 9577   4.410   2.032  15.723  0.3519 -0.2860 -0.1494
   7323SM  H13S 9578   4.336   1.949  15.721  0.6625 -0.5816  0.3507
   7323SM  H13T 9579   4.510   1.986  15.713 -0.1701 -1.1703 -1.5832
   7323SM  C14S 9580   4.389   2.120  15.605  0.5957 -0.1172 -0.0644
   7323SM  H14S 9581   4.472   2.195  15.599  1.1267 -0.7611 -1.0916
   7323SM  H14T 9582   4.293   2.174  15.619  1.6813  2.5132 -1.7734
   7323SM  C15S 9583   4.397   2.040  15.478  0.4394 -0.4188 -0.1284
   7323SM  H15S 9584   4.305   1.977  15.485  0.7649 -0.8682  0.1870
   7323SM  H15T 9585   4.482   1.968  15.479  0.2667 -0.7920 -2.8997
   7323SM  C16S 9586   4.391   2.110  15.341  0.4062 -0.3129  1.2414
   7323SM  H16S 9587   4.492   2.153  15.325  0.6597 -1.1926  0.3907
   7323SM  H16T 9588   4.322   2.198  15.335  0.2713 -0.5100 -2.2168
   7323SM  C17S 9589   4.366   2.009  15.226  0.3125 -0.2728  0.6851
   7323SM  H17S 9590   4.269   1.957  15.241  0.3473 -0.3511  0.6361
   7323SM  H17T 9591   4.444   1.931  15.242  1.3414  0.5461 -0.1497
   7323SM  C18S 9592   4.395   2.053  15.084  0.4217  0.2893 -0.0246
   7323SM  H18S 9593   4.392   1.961  15.022 -2.1325 -0.5903  1.2562
   7323SM  H18T 9594   4.496   2.099  15.079 -0.6701  3.6731  3.7234
   7323SM  H18U 9595   4.332   2.136  15.044  1.2278  0.5592 -0.7571
   7323SM   C1F 9596   5.045   1.882  16.636 -0.0920  0.5177 -0.3374
   7323SM    OF 9597   5.051   1.776  16.698  0.0008  0.3802 -0.8228
   7323SM   C2F 9598   5.099   1.885  16.493  0.0104  0.0806 -0.3451
   7323SM   H2F 9599   5.104   1.786  16.442 -0.5425 -0.8654  1.3772
   7323SM   H2G 9600   5.204   1.920  16.506  0.8792 -2.1095 -0.9121
   7323SM   C3F 9601   5.037   1.987  16.406  0.3078 -0.5181  0.3535
   7323SM   H3F 9602   5.070   2.088  16.439  0.9357 -1.4838  2.8943
   7323SM   H3G 9603   4.926   1.991  16.407  0.2741 -1.2707  0.5132
   7323SM   C4F 9604   5.064   1.965  16.255 -0.1371 -0.3580 -0.0902
   7323SM   H4F 9605   5.049   1.856  16.241 -1.0094 -0.5924  2.2665
   7323SM   H4G 9606   5.170   1.988  16.229  0.0125 -2.8117 -2.1168
   7323SM   C5F 9607   4.967   2.043  16.168  0.1874  0.2865 -0.0758
   7323SM   H5F 9608   4.952   2.153  16.174 -0.4760  0.3462 -2.1729
   7323SM   H5G 9609   4.870   1.990  16.184  1.4780 -2.2377 -0.1733
   7323SM   C6F 9610   5.005   2.027  16.021  0.7414 -0.0465  0.5351
   7323SM   H6F 9611   5.031   1.920  16.008  0.7508 -0.1333  1.2562
   7323SM   H6G 9612   5.092   2.092  15.996 -1.6752  3.5267  0.7235
   7323SM   C7F 9613   4.888   2.069  15.925 -0.5343  0.2284 -0.1748
   7323SM   H7F 9614   4.868   2.177  15.940  0.7614  0.3592  0.7529
   7323SM   H7G 9615   4.803   1.998  15.936  1.1361 -2.3849 -2.5815
   7323SM   C8F 9616   4.946   2.044  15.777 -0.3098  0.1683  0.1541
   7323SM   H8F 9617   4.979   1.938  15.768  0.5817  0.4871 -0.5212
   7323SM   H8G 9618   5.044   2.097  15.773  0.2325 -0.5301  2.3649
   7323SM   C9F 9619   4.852   2.072  15.664 -0.0520  0.0528  0.3146
   7323SM   H9F 9620   4.849   2.180  15.637 -0.5992 -0.0186  0.0829
   7323SM   H9G 9621   4.750   2.035  15.685  0.1665 -0.5039  0.4088
   7323SM  C10F 9622   4.903   2.012  15.535 -0.1012  0.1745  0.3434
   7323SM  H10F 9623   4.914   1.902  15.545  0.2712  0.3524  2.4378
   7323SM  H10G 9624   5.007   2.041  15.507  0.8971 -3.1491  0.1540
   7323SM  C11F 9625   4.803   2.022  15.420 -0.0535 -0.1325 -0.4655
   7323SM  H11F 9626   4.764   2.126  15.422  1.0597  0.4652  4.4251
   7323SM  H11G 9627   4.717   1.953  15.431 -0.5022  0.1068 -2.1378
   7323SM  C12F 9628   4.867   1.986  15.293 -1.2784  0.7097  0.8068
   7323SM  H12F 9629   4.897   1.879  15.292 -1.3945  0.6717  1.2324
   7323SM  H12G 9630   4.954   2.048  15.264 -1.0593 -0.2919 -0.8286
   7323SM  C13F 9631   4.767   1.986  15.170  0.3832 -0.1509  0.5546
   7323SM  H13F 9632   4.737   2.091  15.149  1.0389 -0.4492 -2.3765
   7323SM  H13G 9633   4.677   1.925  15.193  1.3687 -2.1897 -0.7301
   7323SM  C14F 9634   4.829   1.919  15.042 -0.1957  0.6628  0.1218
   7323SM  H14F 9635   4.833   1.812  15.071  1.8415  0.5332 -0.4680
   7323SM  H14G 9636   4.928   1.965  15.021 -0.3804  1.6385  1.2748
   7323SM  C15F 9637   4.742   1.942  14.917 -0.4886 -0.0734 -0.4804
   7323SM  H15F 9638   4.751   2.042  14.870  0.2170 -0.1522 -0.5322
   7323SM  H15G 9639   4.639   1.942  14.958 -0.4585 -0.1754 -0.4018
   7323SM  C16F 9640   4.753   1.836  14.816 -0.0553  0.3941  0.2757
   7323SM  H16F 9641   4.693   1.747  14.845  1.1074  0.3093  2.5678
   7323SM  H16G 9642   4.855   1.794  14.823  0.5727  2.1084  1.9735
   7323SM  C17F 9643   4.745   1.881  14.671  0.2919 -0.2867  0.4935
   7323SM  H17F 9644   4.790   1.801  14.609 -0.0483  0.0774 -0.2347
   7323SM  H17G 9645   4.806   1.970  14.645  1.2688 -1.8589 -3.3171
   7323SM  C18F 9646   4.593   1.900  14.626 -0.5059  0.6501  0.7825
   7323SM  H18F 9647   4.535   1.954  14.703 -2.3924  0.5209 -0.4799
   7323SM  H18G 9648   4.550   1.797  14.631  2.5835 -0.8663 -0.9098
   7323SM  C19F 9649   4.578   1.952  14.483 -0.6612 -0.3765  0.1862
   7323SM  H19F 9650   4.605   1.873  14.409  2.7212  0.8205 -0.0296
   7323SM  H19G 9651   4.645   2.037  14.459 -0.9673 -0.2825 -0.3295
   7323SM  C20F 9652   4.440   1.999  14.466  0.3005  0.6607  0.5453
   7323SM  H20F 9653   4.414   2.079  14.538  1.9687 -0.2719  2.2476
   7323SM  H20G 9654   4.376   1.908  14.474  1.1479 -0.0035 -0.0829
   7323SM  C21F 9655   4.407   2.052  14.325  0.5037  0.1397  0.1773
   7323SM  H21F 9656   4.455   2.151  14.307  0.9149 -0.1430 -0.3180
   7323SM  H21G 9657   4.297   2.063  14.322  0.4316 -0.2831  0.9556
   7323SM  C22F 9658   4.441   1.952  14.214 -0.3253  0.3804 -0.4790
   7323SM  H22F 9659   4.410   1.851  14.248  0.1013  0.5742  0.5212
   7323SM  H22G 9660   4.550   1.934  14.203 -0.3765  0.1628 -0.6321
   7323SM  C23F 9661   4.369   1.977  14.081  0.5350  0.0117 -0.4356
   7323SM  H23F 9662   4.373   1.883  14.022 -0.9761 -1.5084  1.7527
   7323SM  H23G 9663   4.397   2.069  14.024 -2.5048 -0.1029 -2.3998
   7323SM  H23H 9664   4.263   2.005  14.103  0.5023  0.9046 -1.5646
   7423SM     N 9665   1.123   5.795  16.458  0.6888  0.0753  0.5727
   7423SM   C15 9666   1.062   5.922  16.399 -0.0695  0.0509 -0.0774
   7423SM  H15A 9667   0.955   5.927  16.412  0.1967  2.2221  1.8313
   7423SM  H15B 9668   1.079   5.927  16.292  1.4989  3.6600  0.2200
   7423SM  H15C 9669   1.103   6.013  16.438 -2.3233  2.6428 -3.1747
   7423SM   C14 9670   1.033   5.679  16.425 -0.3516  0.1796  0.6804
   7423SM  H14A 9671   1.037   5.664  16.318 -0.2784  0.6450  0.6156
   7423SM  H14B 9672   0.931   5.699  16.453 -1.5550 -2.3219 -1.5152
   7423SM  H14C 9673   1.069   5.592  16.478  1.9135  0.8591  0.3818
   7423SM   C13 9674   1.260   5.768  16.398 -0.0341  0.2075  0.2876
   7423SM  H13A 9675   1.292   5.669  16.427 -0.0511 -0.0844 -0.6817
   7423SM  H13B 9676   1.328   5.838  16.445  0.6874  0.0227 -0.4594
   7423SM  H13C 9677   1.266   5.783  16.292 -1.0746  1.1274  0.3421
   7423SM   C12 9678   1.129   5.795  16.606  0.0442  0.7106  0.3039
   7423SM  H12A 9679   1.029   5.820  16.640 -0.3012  0.5327 -0.5456
   7423SM  H12B 9680   1.201   5.868  16.637 -0.4035  0.8282  1.0944
   7423SM   C11 9681   1.177   5.662  16.674 -0.5073  0.5067  0.1904
   7423SM  H11A 9682   1.205   5.679  16.780 -0.7806 -0.7763  0.4893
   7423SM  H11B 9683   1.276   5.629  16.637 -0.5952 -0.3785  0.7065
   7423SM     P 9684   0.970   5.520  16.777 -0.0727 -0.4263  0.1675
   7423SM   O13 9685   1.027   5.405  16.845  0.0891 -0.1109 -0.2086
   7423SM   O14 9686   0.927   5.633  16.866 -0.3585  0.1593  0.1543
   7423SM   O11 9687   0.850   5.469  16.690 -0.1642 -0.4714  0.0000
   7423SM   O12 9688   1.073   5.559  16.669 -0.2590  0.8230  1.0839
   7423SM   C1S 9689   0.861   5.392  16.566 -0.5690  0.0533  0.4399
   7423SM   H1S 9690   0.904   5.297  16.605  1.8965  0.2468 -1.5258
   7423SM   H1T 9691   0.933   5.440  16.496 -1.6218  0.7055 -0.2264
   7423SM    NF 9692   0.731   5.281  16.389 -0.5957  0.3066 -0.0634
   7423SM   HNF 9693   0.745   5.320  16.298 -0.8857 -0.2654 -0.3634
   7423SM   C2S 9694   0.724   5.380  16.493  0.0905 -0.6170  0.3002
   7423SM   H2S 9695   0.657   5.352  16.577  1.8643 -0.1148  1.9470
   7423SM   C3S 9696   0.667   5.523  16.444  0.3749  0.0729  0.2538
   7423SM   H3S 9697   0.730   5.557  16.359  1.4316  1.7941  1.6795
   7423SM    O3 9698   0.679   5.626  16.541  0.3492  0.1988  0.1327
   7423SM   HO3 9699   0.725   5.585  16.613  0.2909 -2.2746 -1.1291
   7423SM   C4S 9700   0.519   5.521  16.395  0.5944  0.2490  0.2087
   7423SM   H4S 9701   0.451   5.462  16.457 -1.2912  1.8638 -0.2129
   7423SM   C5S 9702   0.464   5.574  16.285  0.2869 -0.3735  0.6392
   7423SM   H5S 9703   0.523   5.629  16.211 -2.0331 -0.3862 -1.3477
   7423SM   C6S 9704   0.323   5.569  16.235  0.0687  0.3490  0.7695
   7423SM   H6S 9705   0.249   5.523  16.304  0.4215  0.2008  1.0494
   7423SM   H6T 9706   0.317   5.493  16.154  1.5966  0.9271  0.0727
   7423SM   C7S 9707   0.260   5.704  16.181  0.0877 -0.1998  0.7666
   7423SM   H7S 9708   0.275   5.774  16.266  0.7112  0.6584 -0.0326
   7423SM   H7T 9709   0.150   5.688  16.175  0.2403 -1.1568  0.3558
   7423SM   C8S 9710   0.317   5.749  16.048  0.1231  0.5060 -0.3268
   7423SM   H8S 9711   0.425   5.727  16.040  0.5690  2.1101  0.7395
   7423SM   H8T 9712   0.316   5.860  16.035  0.4328  0.5390 -0.0786
   7423SM   C9S 9713   0.239   5.687  15.929 -0.7021  0.2361  0.2669
   7423SM   H9S 9714   0.131   5.713  15.933 -1.2325 -1.7020 -0.2855
   7423SM   H9T 9715   0.262   5.578  15.934 -2.6258 -0.1656  2.7966
   7423SM  C10S 9716   0.299   5.742  15.797 -0.2288 -0.0435  0.5241
   7423SM  H10S 9717   0.407   5.723  15.780  0.0088  1.7132 -0.1647
   7423SM  H10T 9718   0.283   5.852  15.792 -1.0656 -0.1389  0.8624
   7423SM  C11S 9719   0.225   5.696  15.671  0.1772  0.2542  0.6321
   7423SM  H11S 9720   0.120   5.732  15.683 -0.3046 -0.7252 -0.3802
   7423SM  H11T 9721   0.223   5.585  15.662  1.6272  0.2053  0.7140
   7423SM  C12S 9722   0.262   5.758  15.538 -0.0576 -0.9510 -0.4210
   7423SM  H12S 9723   0.371   5.744  15.522  0.4957  0.4806  1.6523
   7423SM  H12T 9724   0.237   5.866  15.538  0.0013 -0.8373  3.1441
   7423SM  C13S 9725   0.188   5.684  15.423 -0.9810 -0.1824  0.0135
   7423SM  H13S 9726   0.080   5.708  15.440 -1.0191  1.0613 -1.7009
   7423SM  H13T 9727   0.209   5.575  15.429 -0.4272 -0.1483 -1.1905
   7423SM  C14S 9728   0.237   5.739  15.287  0.3460  0.2237  0.1232
   7423SM  H14S 9729   0.343   5.711  15.270  0.3559 -0.3389  1.0157
   7423SM  H14T 9730   0.237   5.850  15.294 -1.2362  0.2887 -0.6098
   7423SM  C15S 9731   0.149   5.703  15.164 -0.3318 -0.1285 -0.4107
   7423SM  H15S 9732   0.065   5.773  15.148 -0.9780 -1.1563 -1.7492
   7423SM  H15T 9733   0.098   5.607  15.189  1.2378 -0.7017  0.7238
   7423SM  C16S 9734   0.224   5.687  15.031  0.1285 -0.4973  0.2304
   7423SM  H16S 9735   0.158   5.618  14.974  0.3125 -0.2374 -0.3048
   7423SM  H16T 9736   0.325   5.643  15.041  0.4239  0.3676  1.1543
   7423SM  C17S 9737   0.245   5.808  14.942  0.4109  0.0307 -0.6032
   7423SM  H17S 9738   0.335   5.857  14.985 -0.8362  1.4567  0.5207
   7423SM  H17T 9739   0.158   5.877  14.952 -0.2615 -0.9822  1.0113
   7423SM  C18S 9740   0.269   5.777  14.796 -0.4433  0.5767 -0.4115
   7423SM  H18S 9741   0.200   5.708  14.744  1.1166  0.5165 -2.5199
   7423SM  H18T 9742   0.370   5.735  14.777  0.3965  0.5514  3.4083
   7423SM  H18U 9743   0.254   5.866  14.730 -1.6025 -1.5248 -3.2036
   7423SM   C1F 9744   0.746   5.150  16.403  0.4808 -0.0155  0.0967
   7423SM    OF 9745   0.708   5.097  16.502  0.2412  0.0379  0.8797
   7423SM   C2F 9746   0.812   5.073  16.287  0.1319 -0.2893 -0.6660
   7423SM   H2F 9747   0.912   5.123  16.280  0.5533 -1.3476 -3.2591
   7423SM   H2G 9748   0.754   5.108  16.200 -0.3441  0.7650  0.0493
   7423SM   C3F 9749   0.807   4.926  16.311 -0.1611  0.2438  0.0921
   7423SM   H3F 9750   0.847   4.900  16.411 -0.8383  0.2344  0.3664
   7423SM   H3G 9751   0.872   4.882  16.233 -2.3664  1.3463 -2.5282
   7423SM   C4F 9752   0.671   4.855  16.295  0.1840  0.5138  0.1358
   7423SM   H4F 9753   0.598   4.881  16.374 -0.5963 -0.8912 -0.0959
   7423SM   H4G 9754   0.679   4.745  16.309  2.3106  0.3256 -1.8492
   7423SM   C5F 9755   0.592   4.886  16.171  0.8343  0.0311  0.3271
   7423SM   H5F 9756   0.598   4.991  16.138  3.0320 -0.7980 -2.2075
   7423SM   H5G 9757   0.484   4.858  16.178  1.1162 -0.8535  1.5068
   7423SM   C6F 9758   0.636   4.806  16.050 -0.3807  0.3894 -0.3507
   7423SM   H6F 9759   0.634   4.698  16.076  2.4221 -0.1530 -1.9696
   7423SM   H6G 9760   0.746   4.823  16.038  0.0969 -1.5065  0.8588
   7423SM   C7F 9761   0.556   4.816  15.919  0.6976  0.7449 -0.2397
   7423SM   H7F 9762   0.554   4.922  15.885 -1.0778  0.4636 -1.1091
   7423SM   H7G 9763   0.449   4.796  15.938 -0.0879  3.2505 -1.5469
   7423SM   C8F 9764   0.599   4.722  15.806 -0.6924 -0.2212 -0.0442
   7423SM   H8F 9765   0.520   4.728  15.727  0.6601  1.0120 -1.3767
   7423SM   H8G 9766   0.605   4.620  15.847 -0.0020  1.1259  3.5349
   7423SM   C9F 9767   0.731   4.765  15.752  0.3265  0.8286  0.1455
   7423SM   H9F 9768   0.803   4.726  15.826  0.6985  0.5529 -0.3533
   7423SM   H9G 9769   0.731   4.876  15.748 -0.2386  0.8633  0.9790
   7423SM  C10F 9770   0.768   4.728  15.611 -0.2396  0.5753 -0.3061
   7423SM  H10F 9771   0.771   4.620  15.588 -2.9251  0.6257 -1.2979
   7423SM  H10G 9772   0.868   4.770  15.588  0.0924  1.0358  1.7589
   7423SM  C11F 9773   0.681   4.801  15.508  0.1910  0.4933  0.9409
   7423SM  H11F 9774   0.690   4.912  15.504 -0.2780  0.5188 -1.6400
   7423SM  H11G 9775   0.579   4.782  15.545  0.3994  0.1890  1.3637
   7423SM  C12F 9776   0.707   4.742  15.365 -0.6745 -0.6346 -0.4530
   7423SM  H12F 9777   0.624   4.787  15.306 -0.5674  2.1519  1.3377
   7423SM  H12G 9778   0.698   4.632  15.370 -1.4355 -0.5398  0.5976
   7423SM  C13F 9779   0.847   4.781  15.308  0.4979 -0.0662 -0.2512
   7423SM  H13F 9780   0.924   4.723  15.362  0.5349 -0.8534 -1.1314
   7423SM  H13G 9781   0.869   4.890  15.316  1.8240  0.0502 -3.8363
   7423SM  C14F 9782   0.851   4.746  15.158 -0.1074 -0.0721  0.0919
   7423SM  H14F 9783   0.834   4.637  15.142  0.2029 -0.4932  2.3179
   7423SM  H14G 9784   0.952   4.777  15.125  0.3277  2.3793  3.3141
   7423SM  C15F 9785   0.745   4.811  15.068 -0.5720  0.0373 -0.2948
   7423SM  H15F 9786   0.762   4.921  15.070  0.0997 -0.0507  2.4953
   7423SM  H15G 9787   0.645   4.784  15.108 -0.6699  1.0634  0.1837
   7423SM  C16F 9788   0.753   4.764  14.924  0.2973  0.3013  0.2336
   7423SM  H16F 9789   0.723   4.657  14.923 -0.7949  0.5981 -0.6582
   7423SM  H16G 9790   0.858   4.767  14.886  0.2875  0.2456  0.2041
   7423SM  C17F 9791   0.681   4.846  14.816  0.8337 -0.3243 -0.0395
   7423SM  H17F 9792   0.739   4.930  14.772 -2.2558  3.1562  1.8774
   7423SM  H17G 9793   0.598   4.901  14.866  1.1202 -1.5718  1.9425
   7423SM  C18F 9794   0.631   4.758  14.700  0.7588 -0.4946  0.3493
   7423SM  H18F 9795   0.577   4.670  14.742 -0.4086 -0.3182 -0.7202
   7423SM  H18G 9796   0.724   4.730  14.646  0.0181 -0.5365 -0.9510
   7423SM  C19F 9797   0.532   4.832  14.610 -0.2771  0.0759  0.0581
   7423SM  H19F 9798   0.587   4.902  14.544 -1.4831  1.9216  0.9269
   7423SM  H19G 9799   0.455   4.890  14.667  0.7216  3.0064 -1.3763
   7423SM  C20F 9800   0.476   4.728  14.513  0.0694 -0.3278  0.5908
   7423SM  H20F 9801   0.432   4.646  14.574  1.1718 -1.3206  0.0864
   7423SM  H20G 9802   0.559   4.676  14.461 -0.5577  0.0428 -0.8445
   7423SM  C21F 9803   0.377   4.779  14.401  0.4281 -0.5196 -0.4290
   7423SM  H21F 9804   0.418   4.876  14.366 -0.4903  0.0166 -0.0674
   7423SM  H21G 9805   0.278   4.814  14.438  1.4998  0.1162  2.0595
   7423SM  C22F 9806   0.357   4.672  14.293 -0.1907 -0.2431 -0.2817
   7423SM  H22F 9807   0.454   4.626  14.264  0.6016  0.4678  1.1741
   7423SM  H22G 9808   0.308   4.718  14.205  0.8918  0.2899 -0.6231
   7423SM  C23F 9809   0.266   4.555  14.326 -0.6385 -0.0690 -0.0765
   7423SM  H23F 9810   0.260   4.488  14.238 -1.2785  0.6704 -0.6180
   7423SM  H23G 9811   0.158   4.583  14.337 -0.7150 -0.3511 -0.1200
   7423SM  H23H 9812   0.306   4.518  14.422 -0.4132  1.5651  0.4992
   7523SM     N 9813   5.795   6.243  16.582 -0.8015 -0.1919 -0.0833
   7523SM   C15 9814   5.740   6.187  16.703  0.5318 -0.0039  0.2089
   7523SM  H15A 9815   5.632   6.180  16.700  0.5543 -0.1621 -0.4104
   7523SM  H15B 9816   5.764   6.248  16.789  0.9314  0.7826 -0.4429
   7523SM  H15C 9817   5.776   6.086  16.717 -3.2454 -1.3986  1.2338
   7523SM   C14 9818   5.945   6.255  16.598 -0.6229  0.5375  1.1141
   7523SM  H14A 9819   5.995   6.289  16.508 -0.5094  1.8637  1.6508
   7523SM  H14B 9820   5.992   6.167  16.638  2.7319  1.1912 -0.9142
   7523SM  H14C 9821   5.971   6.325  16.676 -2.3112  2.7586 -0.1983
   7523SM   C13 9822   5.760   6.142  16.476  0.1397  0.3740 -0.4130
   7523SM  H13A 9823   5.658   6.150  16.441  0.0513  0.5263 -0.1225
   7523SM  H13B 9824   5.777   6.045  16.520  1.5716  1.3036  1.1901
   7523SM  H13C 9825   5.829   6.156  16.394  1.8270 -1.3985  0.6250
   7523SM   C12 9826   5.721   6.371  16.548 -0.2927  0.3228 -0.3736
   7523SM  H12A 9827   5.622   6.335  16.526 -0.1034 -2.5690  2.7684
   7523SM  H12B 9828   5.760   6.415  16.458 -0.0515 -0.3648 -0.6083
   7523SM   C11 9829   5.716   6.475  16.656 -0.1071  0.3074 -0.1467
   7523SM  H11A 9830   5.693   6.444  16.760 -2.1970  0.5043 -0.5031
   7523SM  H11B 9831   5.632   6.541  16.622  0.2687  0.2664 -1.1784
   7523SM     P 9832   5.849   6.708  16.633 -0.2441 -0.0823 -0.2484
   7523SM   O13 9833   5.719   6.770  16.673  0.1885 -0.1188 -0.1562
   7523SM   O14 9834   5.970   6.757  16.712  0.3296  0.1643  0.8423
   7523SM   O11 9835   5.881   6.712  16.477  0.6857 -0.1638 -0.1121
   7523SM   O12 9836   5.838   6.555  16.660  0.4620  0.5699 -0.4217
   7523SM   C1S 9837   5.962   6.625  16.398  0.0743 -0.1006 -0.0829
   7523SM   H1S 9838   5.941   6.523  16.435 -2.6766  0.4536  0.1207
   7523SM   H1T 9839   6.069   6.654  16.402  1.0421 -3.4019  2.4381
   7523SM    NF 9840   5.955   6.516  16.164 -0.7441  0.4412 -0.2742
   7523SM   HNF 9841   6.033   6.532  16.104  0.2131  0.5016  0.9489
   7523SM   C2S 9842   5.908   6.625  16.250  0.0025 -0.0107 -0.2523
   7523SM   H2S 9843   5.798   6.631  16.254  0.0877  1.8495  0.1658
   7523SM   C3S 9844   5.931   6.769  16.184  0.1758 -0.8602  0.2255
   7523SM   H3S 9845   6.038   6.796  16.170 -0.5002  1.1388 -1.7208
   7523SM    O3 9846   5.872   6.882  16.252  0.1909  0.2358 -0.2870
   7523SM   HO3 9847   5.856   6.851  16.342  2.2835  0.9834  0.4100
   7523SM   C4S 9848   5.877   6.773  16.037 -0.2391  0.5077  1.1272
   7523SM   H4S 9849   5.955   6.736  15.967 -0.9958 -1.4268  1.2337
   7523SM   C5S 9850   5.759   6.808  15.990  0.5016  0.4117  0.0724
   7523SM   H5S 9851   5.690   6.840  16.069  1.8656  1.9314  0.6998
   7523SM   C6S 9852   5.715   6.803  15.843 -0.1109  0.2532 -0.4658
   7523SM   H6S 9853   5.689   6.907  15.816 -2.2993 -0.3365 -0.8788
   7523SM   H6T 9854   5.629   6.733  15.844  0.0443  0.0511  0.9505
   7523SM   C7S 9855   5.817   6.751  15.737  0.1485 -0.2977 -0.2887
   7523SM   H7S 9856   5.844   6.650  15.773  1.4986 -0.4182 -1.5414
   7523SM   H7T 9857   5.909   6.812  15.755 -1.1494  1.0524  2.3150
   7523SM   C8S 9858   5.750   6.769  15.602 -0.3846 -0.0144  0.0578
   7523SM   H8S 9859   5.724   6.877  15.595 -4.4551 -0.9430 -2.6927
   7523SM   H8T 9860   5.648   6.724  15.595  0.7482 -2.6947 -0.3633
   7523SM   C9S 9861   5.842   6.731  15.482  0.5946  0.1584 -0.1799
   7523SM   H9S 9862   5.840   6.621  15.466  0.1798 -0.0500  1.2135
   7523SM   H9T 9863   5.946   6.766  15.502  1.3265 -1.7082 -0.5061
   7523SM  C10S 9864   5.805   6.799  15.348 -0.0002  0.7554 -0.5135
   7523SM  H10S 9865   5.806   6.908  15.368  0.8507  0.4480  1.4145
   7523SM  H10T 9866   5.702   6.764  15.325 -0.3709  1.2474  0.3230
   7523SM  C11S 9867   5.905   6.765  15.243 -0.2308  0.0834 -1.1027
   7523SM  H11S 9868   5.930   6.658  15.229  1.5646  0.3135  0.0231
   7523SM  H11T 9869   5.999   6.822  15.260 -0.4141  0.5343 -1.5662
   7523SM  C12S 9870   5.851   6.815  15.110 -0.0607  0.0091 -0.0171
   7523SM  H12S 9871   5.839   6.925  15.107  1.2549  0.1924  0.5182
   7523SM  H12T 9872   5.750   6.770  15.104 -0.0488 -0.0609  0.2776
   7523SM  C13S 9873   5.943   6.765  15.004 -0.9378 -0.1048  0.2415
   7523SM  H13S 9874   5.929   6.655  15.008  0.1085 -0.2825 -0.5821
   7523SM  H13T 9875   6.050   6.789  15.021 -1.1291  1.9253 -1.0902
   7523SM  C14S 9876   5.897   6.816  14.870  0.9667 -0.6705  0.5693
   7523SM  H14S 9877   5.903   6.927  14.868  1.2304 -0.6821 -1.2023
   7523SM  H14T 9878   5.787   6.804  14.855  0.2784  2.3460  2.2552
   7523SM  C15S 9879   5.966   6.753  14.751  0.5747 -0.0012  0.2199
   7523SM  H15S 9880   5.952   6.644  14.737 -0.2774  0.1787 -0.4116
   7523SM  H15T 9881   6.077   6.750  14.750  0.5797 -0.3551 -1.5775
   7523SM  C16S 9882   5.928   6.811  14.617 -0.2468 -0.4856 -0.0411
   7523SM  H16S 9883   5.975   6.910  14.602 -1.6919 -0.0713 -2.2323
   7523SM  H16T 9884   5.818   6.822  14.618 -0.2344 -0.0844 -1.4918
   7523SM  C17S 9885   5.954   6.725  14.494 -0.4504 -0.0737 -0.7121
   7523SM  H17S 9886   5.905   6.628  14.519  1.1789 -0.3838  1.6011
   7523SM  H17T 9887   6.062   6.700  14.489 -0.7123 -1.7600  0.9237
   7523SM  C18S 9888   5.906   6.794  14.365 -0.2521  0.6261 -0.8778
   7523SM  H18S 9889   5.931   6.736  14.274 -1.3856  0.2492 -0.9649
   7523SM  H18T 9890   5.925   6.903  14.350 -4.1539  1.9504  1.7985
   7523SM  H18U 9891   5.795   6.797  14.369 -0.3033 -1.4879  1.3466
   7523SM   C1F 9892   5.917   6.390  16.181  0.3511 -0.3551 -0.0629
   7523SM    OF 9893   5.838   6.367  16.268 -0.4254  0.1081 -0.8747
   7523SM   C2F 9894   5.992   6.289  16.102  0.0414  0.2964  0.0934
   7523SM   H2F 9895   6.022   6.204  16.166 -1.4612  0.9277  1.7330
   7523SM   H2G 9896   6.086   6.337  16.068  1.0952 -0.8490  1.2934
   7523SM   C3F 9897   5.914   6.242  15.977  0.2741 -0.0133  0.5997
   7523SM   H3F 9898   5.814   6.204  16.009  0.7822 -0.6006  1.5693
   7523SM   H3G 9899   5.972   6.154  15.942  1.1229  0.9199 -0.3821
   7523SM   C4F 9900   5.886   6.347  15.870 -0.2767  0.6198  0.8401
   7523SM   H4F 9901   5.984   6.394  15.846  1.6762 -2.7415  1.4795
   7523SM   H4G 9902   5.801   6.412  15.898 -0.3366  1.4191 -1.0542
   7523SM   C5F 9903   5.833   6.283  15.746  0.8482 -0.0838 -0.1798
   7523SM   H5F 9904   5.736   6.234  15.772  1.2981 -0.4508  0.8361
   7523SM   H5G 9905   5.897   6.201  15.708  1.7727 -0.4447  1.9879
   7523SM   C6F 9906   5.807   6.386  15.635  0.6668  0.7266  0.1561
   7523SM   H6F 9907   5.905   6.411  15.589  1.0340 -0.2386  0.3923
   7523SM   H6G 9908   5.759   6.470  15.689  1.3923  0.8061  0.6834
   7523SM   C7F 9909   5.723   6.333  15.522 -0.0591  0.5680 -0.1562
   7523SM   H7F 9910   5.684   6.422  15.466 -0.0915  1.3715  1.1183
   7523SM   H7G 9911   5.636   6.283  15.570 -0.2559 -0.0328 -1.1079
   7523SM   C8F 9912   5.803   6.250  15.425 -0.4978 -0.2134 -0.1707
   7523SM   H8F 9913   5.769   6.144  15.422  0.8125 -0.6348 -0.5874
   7523SM   H8G 9914   5.907   6.240  15.462 -0.8017 -1.0313  0.5011
   7523SM   C9F 9915   5.809   6.307  15.283 -0.6632 -0.7831  0.1665
   7523SM   H9F 9916   5.878   6.244  15.222  1.3618  1.1805  0.2749
   7523SM   H9G 9917   5.857   6.407  15.288 -0.7972 -0.6802 -0.5355
   7523SM  C10F 9918   5.669   6.317  15.222  0.5289 -0.4502 -0.3642
   7523SM  H10F 9919   5.597   6.364  15.293  0.6554  0.7588 -1.0066
   7523SM  H10G 9920   5.625   6.220  15.192 -1.8352  0.8665 -1.3878
   7523SM  C11F 9921   5.672   6.403  15.090 -0.0319 -0.4836  0.1013
   7523SM  H11F 9922   5.692   6.511  15.107 -1.1577 -0.0316 -1.3178
   7523SM  H11G 9923   5.572   6.394  15.044  0.0937  0.0959 -0.2936
   7523SM  C12F 9924   5.782   6.368  14.987 -0.0667  0.3714  0.2209
   7523SM  H12F 9925   5.764   6.262  14.957  0.5272  0.1653  0.5903
   7523SM  H12G 9926   5.879   6.374  15.041  0.9178 -2.0437 -1.1133
   7523SM  C13F 9927   5.785   6.453  14.854 -0.4497  0.0434 -0.1287
   7523SM  H13F 9928   5.875   6.430  14.793 -1.7145 -1.7272 -1.4397
   7523SM  H13G 9929   5.793   6.559  14.887 -0.0521  0.0537 -0.2527
   7523SM  C14F 9930   5.666   6.435  14.759 -0.1486  0.5305 -0.5933
   7523SM  H14F 9931   5.578   6.493  14.794 -0.5300  0.0471 -0.7550
   7523SM  H14G 9932   5.635   6.329  14.759 -0.2719  0.5660 -0.9387
   7523SM  C15F 9933   5.696   6.474  14.616  0.4036 -0.1878 -0.0684
   7523SM  H15F 9934   5.778   6.414  14.573  0.0879 -2.5064  2.3426
   7523SM  H15G 9935   5.728   6.581  14.618  2.1537 -0.6488 -1.0209
   7523SM  C16F 9936   5.565   6.450  14.534  0.1514  0.0981  0.5852
   7523SM  H16F 9937   5.529   6.347  14.557 -0.3436  0.2562  0.5322
   7523SM  H16G 9938   5.571   6.445  14.423 -1.5867 -1.0380  0.5016
   7523SM  C17F 9939   5.449   6.549  14.572 -0.0565 -0.4653 -0.4048
   7523SM  H17F 9940   5.408   6.552  14.675 -0.1593 -1.6527 -0.3907
   7523SM  H17G 9941   5.369   6.517  14.501 -0.3064 -2.6326  0.7531
   7523SM  C18F 9942   5.487   6.696  14.534  0.0739  0.2450 -0.4384
   7523SM  H18F 9943   5.588   6.716  14.574 -0.0593 -0.4345  0.2498
   7523SM  H18G 9944   5.414   6.752  14.595 -1.5936  0.0960 -2.1777
   7523SM  C19F 9945   5.464   6.746  14.390  0.1385 -0.3932  0.0255
   7523SM  H19F 9946   5.484   6.855  14.380 -2.1413 -0.1027 -2.3463
   7523SM  H19G 9947   5.354   6.737  14.378  0.2484 -0.3996 -1.1265
   7523SM  C20F 9948   5.530   6.662  14.280 -0.3920  0.0117  0.2730
   7523SM  H20F 9949   5.463   6.578  14.251  2.0072 -1.5896 -1.0052
   7523SM  H20G 9950   5.625   6.611  14.307 -0.7067  0.4203  2.2556
   7523SM  C21F 9951   5.560   6.737  14.155 -0.0841  1.2152  0.3888
   7523SM  H21F 9952   5.632   6.669  14.104 -1.4861 -0.6126  0.7678
   7523SM  H21G 9953   5.615   6.831  14.178  0.4482  0.5962  1.7190
   7523SM  C22F 9954   5.446   6.758  14.053  0.6310  0.3297  0.4435
   7523SM  H22F 9955   5.380   6.829  14.108 -0.0154 -1.0904  1.5837
   7523SM  H22G 9956   5.396   6.660  14.039 -0.0253  0.9146 -1.5617
   7523SM  C23F 9957   5.479   6.825  13.926  0.0807  0.1972  0.7322
   7523SM  H23F 9958   5.529   6.923  13.938  1.4383 -0.5546  1.4316
   7523SM  H23G 9959   5.382   6.828  13.873  0.5861  1.3865 -0.1720
   7523SM  H23H 9960   5.554   6.768  13.867  1.8012  0.5570  2.4474
   7623SM     N 9961   0.504   6.451  17.080  0.3205  0.3164  0.0455
   7623SM   C15 9962   0.628   6.524  17.023  0.3628  0.0985  0.3747
   7623SM  H15A 9963   0.627   6.625  17.062  0.2207 -0.1208  0.9373
   7623SM  H15B 9964   0.634   6.534  16.915  3.3936  1.6988  0.5710
   7623SM  H15C 9965   0.722   6.490  17.064  0.2144  0.5425  1.0934
   7623SM   C14 9966   0.522   6.458  17.225 -0.5066 -0.4245 -0.0740
   7623SM  H14A 9967   0.594   6.388  17.264 -1.2715 -1.4354 -0.4557
   7623SM  H14B 9968   0.425   6.434  17.266 -1.7545  2.6147 -0.8966
   7623SM  H14C 9969   0.554   6.552  17.269  0.7572 -1.4545  1.2653
   7623SM   C13 9970   0.379   6.520  17.047  0.3874 -0.1190 -0.5683
   7623SM  H13A 9971   0.380   6.623  17.081 -1.6085 -1.0154  2.7674
   7623SM  H13B 9972   0.296   6.473  17.098  0.3506 -1.0964 -1.4919
   7623SM  H13C 9973   0.360   6.515  16.941 -1.7601 -0.1136 -0.2299
   7623SM   C12 9974   0.492   6.307  17.034  0.0490 -0.2380  0.2596
   7623SM  H12A 9975   0.398   6.267  17.071 -1.1041  1.1341 -1.0725
   7623SM  H12B 9976   0.574   6.247  17.072  1.4091  0.3712 -1.6002
   7623SM   C11 9977   0.497   6.281  16.883 -0.4881  0.0059  0.0803
   7623SM  H11A 9978   0.503   6.171  16.873 -1.8405 -0.2894  1.9693
   7623SM  H11B 9979   0.594   6.319  16.844 -0.6217  1.1544  0.7952
   7623SM     P 9980   0.250   6.258  16.808  0.2162 -0.0690  0.0022
   7623SM   O13 9981   0.236   6.150  16.909  0.0972 -0.3148 -0.0053
   7623SM   O14 9982   0.134   6.349  16.795 -0.7201  0.4506  0.3243
   7623SM   O11 9983   0.268   6.186  16.674 -0.2847  0.1366  0.1352
   7623SM   O12 9984   0.388   6.337  16.817  0.1275 -0.1764 -0.4718
   7623SM   C1S 9985   0.331   6.255  16.570  0.2954 -0.0748  0.3168
   7623SM   H1S 9986   0.439   6.228  16.573 -0.1107 -1.9829 -0.8164
   7623SM   H1T 9987   0.310   6.364  16.564 -3.3507 -0.7106 -0.9305
   7623SM    NF 9988   0.349   6.244  16.323 -0.8465  0.8358  0.4297
   7623SM   HNF 9989   0.301   6.308  16.264  1.2949 -0.2493 -2.7646
   7623SM   C2S 9990   0.279   6.191  16.438  0.0364  0.2312  0.2450
   7623SM   H2S 9991   0.302   6.082  16.445  1.2934  0.4618 -0.0950
   7623SM   C3S 9992   0.126   6.192  16.429 -0.6658  0.2517 -0.3449
   7623SM   H3S 9993   0.100   6.300  16.430 -1.1924  0.1680  2.0818
   7623SM    O3 9994   0.052   6.135  16.540 -0.2919  0.2265  0.4679
   7623SM   HO3 9995   0.111   6.076  16.587 -0.7311  1.0224  2.1011
   7623SM   C4S 9996   0.069   6.130  16.308 -0.2658  0.0341 -0.0067
   7623SM   H4S 9997   0.083   6.023  16.287  2.0772  0.1795  0.5926
   7623SM   C5S 9998   0.011   6.209  16.213 -0.1557 -0.3693  0.2262
   7623SM   H5S 9999  -0.003   6.314  16.241 -0.9484 -0.4676  0.2356
   7623SM   C6S10000  -0.025   6.175  16.073  0.3613  0.2096  0.3830
   7623SM   H6S10001   0.028   6.250  16.010  0.9087 -0.3325  0.1876
   7623SM   H6T10002  -0.134   6.174  16.056  0.2382  0.4146  1.1233
   7623SM   C7S10003   0.019   6.040  16.021 -0.6082 -0.1716  0.0336
   7623SM   H7S10004  -0.012   5.964  16.095  0.9285  1.2116  2.2021
   7623SM   H7T10005   0.130   6.038  16.016 -0.5048 -0.7269  1.8753
   7623SM   C8S10006  -0.032   6.000  15.884  0.3035  0.3817  0.0307
   7623SM   H8S10007  -0.138   5.968  15.890  0.2327  0.3624 -1.0340
   7623SM   H8T10008   0.022   5.910  15.847 -2.0389 -1.0766 -0.0780
   7623SM   C9S10009  -0.045   6.114  15.783 -0.1475  0.6496 -0.2014
   7623SM   H9S10010   0.044   6.180  15.790  1.0430 -1.0799  2.8201
   7623SM   H9T10011  -0.139   6.172  15.799 -0.6540 -0.0906 -0.4429
   7623SM  C10S10012  -0.037   6.058  15.633  0.0538  0.2112 -0.1497
   7623SM  H10S10013  -0.112   5.977  15.628  1.0163 -0.7169  0.1857
   7623SM  H10T10014   0.057   6.006  15.608  1.2098  1.3980  1.4975
   7623SM  C11S10015  -0.075   6.157  15.529 -0.0561 -0.0960 -0.5209
   7623SM  H11S10016  -0.001   6.241  15.528 -0.0283  0.0620  2.8913
   7623SM  H11T10017  -0.172   6.201  15.561 -0.1515  0.6965 -1.8064
   7623SM  C12S10018  -0.097   6.088  15.388  0.2044  0.6193  0.1423
   7623SM  H12S10019  -0.184   6.020  15.398 -0.1190  0.6935 -1.8910
   7623SM  H12T10020  -0.004   6.030  15.366 -0.2613 -0.5268  1.0593
   7623SM  C13S10021  -0.121   6.208  15.288 -0.1037  0.6083  0.1170
   7623SM  H13S10022  -0.025   6.262  15.276  1.5554 -1.4826  2.6577
   7623SM  H13T10023  -0.190   6.280  15.336 -1.6057 -1.4907  1.2617
   7623SM  C14S10024  -0.173   6.150  15.155  0.8910 -0.7876  0.1133
   7623SM  H14S10025  -0.197   6.232  15.084 -0.4414 -0.7818  0.5547
   7623SM  H14T10026  -0.275   6.107  15.159 -0.2878  1.6508 -1.3583
   7623SM  C15S10027  -0.074   6.063  15.069  0.0387  0.0389 -0.4021
   7623SM  H15S10028  -0.083   5.959  15.109  1.0693 -0.0006 -0.2403
   7623SM  H15T10029   0.033   6.082  15.090  0.0135  0.7708 -0.9124
   7623SM  C16S10030  -0.091   6.057  14.919  0.3509  0.2769  0.3417
   7623SM  H16S10031  -0.196   6.028  14.901  0.1245  0.9099  0.6300
   7623SM  H16T10032  -0.022   5.977  14.883  1.9481  2.0523 -0.7402
   7623SM  C17S10033  -0.036   6.175  14.839 -0.3082  0.3610 -0.1045
   7623SM  H17S10034   0.074   6.180  14.852 -0.3687 -1.3470  1.3801
   7623SM  H17T10035  -0.078   6.271  14.875  2.6415  1.9922 -0.6497
   7623SM  C18S10036  -0.064   6.165  14.693  1.0124 -0.2314  0.6285
   7623SM  H18S10037  -0.027   6.067  14.656  1.4508 -0.0400  0.5453
   7623SM  H18T10038  -0.011   6.245  14.636 -0.8496  1.0428  0.5936
   7623SM  H18U10039  -0.173   6.163  14.675  1.3010 -2.7007 -1.4889
   7623SM   C1F10040   0.482   6.217  16.301  0.5844  0.0327 -0.0847
   7623SM    OF10041   0.545   6.155  16.391 -0.1350  0.0843 -0.3889
   7623SM   C2F10042   0.541   6.285  16.182  0.6941 -0.3720 -0.3605
   7623SM   H2F10043   0.638   6.234  16.162  1.2953  0.0530  1.2752
   7623SM   H2G10044   0.577   6.383  16.222 -0.9092  0.0111  0.2012
   7623SM   C3F10045   0.444   6.302  16.061 -0.4733  0.0591  0.4096
   7623SM   H3F10046   0.484   6.382  15.995 -0.5616 -0.5873 -0.4319
   7623SM   H3G10047   0.353   6.357  16.097 -0.2229  0.4530  0.4461
   7623SM   C4F10048   0.392   6.178  16.002  0.0119  0.1270 -0.3780
   7623SM   H4F10049   0.317   6.136  16.073 -0.6856 -0.6194 -1.5199
   7623SM   H4G10050   0.469   6.098  15.993  0.7994  0.9829 -1.5999
   7623SM   C5F10051   0.318   6.187  15.865 -0.4858  0.3183  0.2965
   7623SM   H5F10052   0.251   6.275  15.850 -2.0402 -1.2103 -2.5500
   7623SM   H5G10053   0.267   6.090  15.851  0.1636  0.0716 -0.4429
   7623SM   C6F10054   0.421   6.188  15.746  0.4431  0.5671 -0.5811
   7623SM   H6F10055   0.484   6.100  15.770  1.0931  1.1394 -0.1371
   7623SM   H6G10056   0.486   6.276  15.762  1.8165 -0.1889 -1.7916
   7623SM   C7F10057   0.349   6.191  15.610  0.1008  0.2436  0.0911
   7623SM   H7F10058   0.266   6.264  15.615  1.4205  1.7645  0.5920
   7623SM   H7G10059   0.313   6.087  15.595  1.4836 -0.1739 -0.4962
   7623SM   C8F10060   0.440   6.220  15.493  0.2925 -0.2996  0.6381
   7623SM   H8F10061   0.532   6.161  15.512  1.7863  1.1583 -1.5794
   7623SM   H8G10062   0.473   6.326  15.485  0.2202 -0.3010  0.2786
   7623SM   C9F10063   0.372   6.185  15.356  0.3551  0.4072 -0.7359
   7623SM   H9F10064   0.274   6.237  15.358  1.3142  2.3358  1.5628
   7623SM   H9G10065   0.346   6.078  15.350  1.6738  0.1113 -1.6750
   7623SM  C10F10066   0.458   6.228  15.234  0.5992  0.2147 -0.4488
   7623SM  H10F10067   0.560   6.187  15.243  0.2215 -0.2973  2.3778
   7623SM  H10G10068   0.472   6.338  15.236  0.4872  0.2301 -0.5154
   7623SM  C11F10069   0.400   6.171  15.107 -0.6310  0.3609  0.5856
   7623SM  H11F10070   0.293   6.203  15.105 -0.5020  0.8061  0.7385
   7623SM  H11G10071   0.413   6.061  15.112 -0.8974  0.3498  1.1623
   7623SM  C12F10072   0.479   6.218  14.982 -0.3190  0.8383  0.4752
   7623SM  H12F10073   0.588   6.215  15.007 -0.0853  2.8672 -0.1622
   7623SM  H12G10074   0.466   6.326  14.962  2.3264  0.7199 -2.6686
   7623SM  C13F10075   0.442   6.142  14.853 -0.0478  0.4441 -0.1738
   7623SM  H13F10076   0.335   6.165  14.837  0.1759  1.3725 -0.3773
   7623SM  H13G10077   0.462   6.034  14.871  0.0293  0.3343 -0.8890
   7623SM  C14F10078   0.529   6.185  14.728 -0.5280 -0.3581 -0.4501
   7623SM  H14F10079   0.634   6.146  14.725 -0.8454 -1.4070  1.1271
   7623SM  H14G10080   0.526   6.295  14.737  1.7892 -0.3669  1.6804
   7623SM  C15F10081   0.453   6.138  14.600  1.2380 -0.4733  0.4030
   7623SM  H15F10082   0.354   6.094  14.624  1.1565 -1.0854 -1.0091
   7623SM  H15G10083   0.520   6.062  14.555  2.2803  0.6779 -0.0661
   7623SM  C16F10084   0.444   6.251  14.505 -0.0476  0.4903 -0.9715
   7623SM  H16F10085   0.545   6.273  14.466 -0.3032  0.8825 -1.4190
   7623SM  H16G10086   0.403   6.346  14.547  0.3944  0.5557 -0.6845
   7623SM  C17F10087   0.364   6.213  14.377  0.2337  0.2401  0.5158
   7623SM  H17F10088   0.405   6.123  14.328  0.8686  0.9240 -0.2353
   7623SM  H17G10089   0.364   6.300  14.307 -2.7836  1.1062  1.4407
   7623SM  C18F10090   0.210   6.194  14.403  0.1820  0.1226 -0.2867
   7623SM  H18F10091   0.171   6.290  14.445 -0.8874 -0.1717 -0.5820
   7623SM  H18G10092   0.186   6.109  14.470 -0.0170  0.0507 -0.4506
   7623SM  C19F10093   0.137   6.162  14.269 -0.3145  0.2169  0.7560
   7623SM  H19F10094   0.184   6.208  14.180  1.1295 -1.6480  0.4872
   7623SM  H19G10095   0.031   6.195  14.270 -0.2256  0.5610 -0.1512
   7623SM  C20F10096   0.135   6.012  14.233 -0.1887  0.1635  0.0238
   7623SM  H20F10097   0.086   5.955  14.315 -0.5714  0.6444  0.1294
   7623SM  H20G10098   0.241   5.981  14.226  1.0023  3.3250  2.0353
   7623SM  C21F10099   0.065   5.987  14.097 -0.2444 -0.5560  0.2916
   7623SM  H21F10100   0.106   6.062  14.026 -1.1912  1.5562  1.8649
   7623SM  H21G10101  -0.044   6.008  14.091 -0.1413 -0.1434 -0.2889
   7623SM  C22F10102   0.092   5.840  14.055  0.5572 -1.0066  0.0856
   7623SM  H22F10103   0.036   5.769  14.119  0.7406 -0.5333  0.7932
   7623SM  H22G10104   0.200   5.816  14.056  0.3016 -2.1687  0.2689
   7623SM  C23F10105   0.054   5.813  13.909 -0.1790 -0.2219  1.1092
   7623SM  H23F10106   0.068   5.705  13.885 -1.9791  0.0030 -1.4783
   7623SM  H23G10107   0.110   5.875  13.836 -1.0226  0.5865  1.1337
   7623SM  H23H10108  -0.051   5.840  13.886 -0.3152 -0.5973  1.2714
   7723SM     N10109   0.762   2.239  17.100  0.2284  0.4240 -0.1734
   7723SM   C1510110   0.640   2.312  17.157  0.2152  0.2434 -0.2044
   7723SM  H15A10111   0.564   2.334  17.083 -1.0039  1.6287  1.4062
   7723SM  H15B10112   0.665   2.398  17.216  1.3231 -0.1995  0.0021
   7723SM  H15C10113   0.594   2.245  17.228  0.2202 -0.8111 -1.1657
   7723SM   C1410114   0.864   2.216  17.209  0.0053  0.1600  0.0096
   7723SM  H14A10115   0.889   2.306  17.264  0.0253 -0.0837  0.4002
   7723SM  H14B10116   0.955   2.170  17.172  0.2866  0.3412  0.4636
   7723SM  H14C10117   0.840   2.145  17.287  0.4047 -1.2562 -1.1141
   7723SM   C1310118   0.718   2.109  17.048  0.5618  0.0045  0.0299
   7723SM  H13A10119   0.801   2.049  17.014 -0.1568 -1.8531  1.3791
   7723SM  H13B10120   0.653   2.136  16.966  2.0606  2.5545 -0.4525
   7723SM  H13C10121   0.664   2.054  17.123  0.2728 -0.1682 -0.3049
   7723SM   C1210122   0.829   2.327  16.995 -0.0964  0.4117  0.3507
   7723SM  H12A10123   0.920   2.280  16.961 -0.4769  0.0986 -0.2581
   7723SM  H12B10124   0.852   2.420  17.045  0.4535  0.5934 -0.2264
   7723SM   C1110125   0.751   2.361  16.861 -0.4281  0.3321 -0.5355
   7723SM  H11A10126   0.735   2.264  16.810 -0.5146 -0.1530  0.3923
   7723SM  H11B10127   0.806   2.422  16.786 -2.0599 -0.1694 -2.1952
   7723SM     P10128   0.615   2.583  16.920  0.2410  0.0367  0.3286
   7723SM   O1310129   0.478   2.614  16.969  0.5237 -0.0044  0.1627
   7723SM   O1410130   0.731   2.641  16.992  0.0734 -0.0166  0.6315
   7723SM   O1110131   0.634   2.624  16.771  0.2565  0.7117  0.0950
   7723SM   O1210132   0.629   2.427  16.892  0.5559 -0.3127 -0.4040
   7723SM   C1S10133   0.634   2.764  16.737 -0.2215 -0.0566 -0.2667
   7723SM   H1S10134   0.699   2.823  16.806  2.1909 -1.3942 -1.2493
   7723SM   H1T10135   0.530   2.802  16.741  0.4835  1.8611  1.6134
   7723SM    NF10136   0.705   2.942  16.578 -0.2941  0.2284  0.3998
   7723SM   HNF10137   0.631   2.987  16.530  0.9538  1.3028 -0.6005
   7723SM   C2S10138   0.692   2.793  16.594 -0.3509  0.4717  0.1669
   7723SM   H2S10139   0.797   2.758  16.597 -0.1230  1.2290  1.4466
   7723SM   C3S10140   0.625   2.714  16.478  0.2664  0.4600  0.2149
   7723SM   H3S10141   0.526   2.762  16.461 -1.2557 -2.1363  1.1547
   7723SM    O310142   0.607   2.575  16.499  0.2766  0.1705  0.0192
   7723SM   HO310143   0.606   2.552  16.592  0.7986 -1.4701 -0.3417
   7723SM   C4S10144   0.708   2.733  16.357 -0.1485 -0.4922  0.3025
   7723SM   H4S10145   0.796   2.669  16.349  0.5381  0.4055  0.4818
   7723SM   C5S10146   0.678   2.818  16.255 -0.3457 -0.1464 -0.1409
   7723SM   H5S10147   0.580   2.868  16.244  0.4530  1.0625 -2.2992
   7723SM   C6S10148   0.760   2.833  16.127  0.7905 -0.3400  0.2223
   7723SM   H6S10149   0.818   2.928  16.118  1.3421 -0.9141 -3.7072
   7723SM   H6T10150   0.695   2.853  16.039  1.0499  0.3406  0.1745
   7723SM   C7S10151   0.856   2.723  16.089 -0.4569  0.9646 -0.4417
   7723SM   H7S10152   0.806   2.628  16.061  0.0848 -0.5584  3.2563
   7723SM   H7T10153   0.925   2.698  16.172  0.7066 -0.2263 -1.7061
   7723SM   C8S10154   0.953   2.758  15.968  1.1406  0.5160 -0.1367
   7723SM   H8S10155   1.041   2.691  15.967  0.3651 -0.5873 -2.8567
   7723SM   H8T10156   0.983   2.865  15.979 -1.9289  1.5854 -1.1601
   7723SM   C9S10157   0.878   2.735  15.831 -0.0522 -0.2745 -0.0618
   7723SM   H9S10158   0.786   2.796  15.833  0.0767 -0.0881  0.1149
   7723SM   H9T10159   0.848   2.628  15.839  0.2435 -0.2385  1.8180
   7723SM  C10S10160   0.957   2.764  15.708 -0.8699  0.1413  0.0007
   7723SM  H10S10161   1.055   2.710  15.706 -0.1614  1.3826  0.2876
   7723SM  H10T10162   1.003   2.865  15.703  0.7815 -0.5684 -0.0476
   7723SM  C11S10163   0.866   2.721  15.593 -0.2193 -0.6300  0.4176
   7723SM  H11S10164   0.779   2.789  15.593  0.0958 -0.0950 -2.1828
   7723SM  H11T10165   0.830   2.617  15.612 -2.3274 -0.8898 -3.8104
   7723SM  C12S10166   0.948   2.719  15.469  0.7145  0.0198 -0.0663
   7723SM  H12S10167   1.024   2.639  15.462  0.9424  0.3785 -3.4080
   7723SM  H12T10168   1.014   2.809  15.467  2.8745 -1.5069 -1.0112
   7723SM  C13S10169   0.861   2.722  15.342 -0.3688 -0.3964 -0.0946
   7723SM  H13S10170   0.801   2.815  15.338  3.2478  2.1462 -0.3001
   7723SM  H13T10171   0.781   2.645  15.343  0.1715 -0.9779 -0.1470
   7723SM  C14S10172   0.947   2.710  15.217 -0.4595  0.2860  0.0463
   7723SM  H14S10173   1.006   2.617  15.232  1.6583  1.6060  0.4914
   7723SM  H14T10174   1.014   2.799  15.218 -1.4436  1.1283 -2.5771
   7723SM  C15S10175   0.863   2.712  15.092 -0.3776 -0.5004 -0.0653
   7723SM  H15S10176   0.811   2.810  15.083 -0.9611 -0.9702 -2.2917
   7723SM  H15T10177   0.780   2.640  15.106 -0.4150 -0.7626 -1.5273
   7723SM  C16S10178   0.944   2.696  14.960 -0.4983 -0.1436  0.1070
   7723SM  H16S10179   1.002   2.601  14.959 -0.5883 -0.2094 -1.0013
   7723SM  H16T10180   1.022   2.775  14.956  0.5239 -1.1629 -1.0206
   7723SM  C17S10181   0.857   2.692  14.835  0.6709  0.2600 -0.7811
   7723SM  H17S10182   0.783   2.611  14.850  0.7269  0.5389  1.4315
   7723SM  H17T10183   0.916   2.669  14.744  0.4021 -0.7513 -0.7107
   7723SM  C18S10184   0.776   2.818  14.810  0.2472 -0.8241  0.5428
   7723SM  H18S10185   0.840   2.907  14.791 -0.6214 -0.1505  0.6884
   7723SM  H18T10186   0.701   2.841  14.889 -0.9072 -1.1756 -0.4275
   7723SM  H18U10187   0.725   2.830  14.712  0.2122  0.0021  0.6503
   7723SM   C1F10188   0.798   3.010  16.649  1.0586 -0.2651 -1.5111
   7723SM    OF10189   0.893   2.950  16.698  0.1249  0.1392  0.2391
   7723SM   C2F10190   0.774   3.156  16.686  0.0084  0.2613 -0.3413
   7723SM   H2F10191   0.777   3.167  16.796 -0.1553  2.7647 -0.5256
   7723SM   H2G10192   0.674   3.194  16.655  0.2897  0.8744 -0.5161
   7723SM   C3F10193   0.882   3.250  16.621 -0.1996 -0.3080 -0.0599
   7723SM   H3F10194   0.990   3.245  16.648  0.1306  0.3384 -1.1786
   7723SM   H3G10195   0.852   3.353  16.651  1.5186 -0.1119  1.1936
   7723SM   C4F10196   0.878   3.259  16.463  0.0671 -0.7396  0.1539
   7723SM   H4F10197   0.910   3.161  16.421 -0.7973 -0.7749 -0.4482
   7723SM   H4G10198   0.944   3.336  16.417  0.4210 -1.5817 -0.7914
   7723SM   C5F10199   0.730   3.271  16.405 -0.5457  0.3341  0.3490
   7723SM   H5F10200   0.673   3.343  16.469  1.0281  1.5359  0.4652
   7723SM   H5G10201   0.672   3.177  16.412 -0.3273  0.2567  1.2400
   7723SM   C6F10202   0.718   3.316  16.256 -0.1850  0.6919 -0.1266
   7723SM   H6F10203   0.783   3.403  16.234 -0.2423  0.8761  0.4174
   7723SM   H6G10204   0.611   3.346  16.250  0.0517  1.2159 -3.1496
   7723SM   C7F10205   0.746   3.207  16.151 -0.5371  0.1137  0.8842
   7723SM   H7F10206   0.696   3.114  16.184 -1.9504  0.5186  0.0037
   7723SM   H7G10207   0.856   3.192  16.151 -0.4354 -0.2225 -3.0497
   7723SM   C8F10208   0.691   3.246  16.004 -0.2511  0.2073  0.7227
   7723SM   H8F10209   0.710   3.349  15.967  1.6822 -0.6586 -0.8614
   7723SM   H8G10210   0.581   3.233  16.006 -0.1597 -1.1481 -0.9976
   7723SM   C9F10211   0.744   3.153  15.902 -0.6004  0.2583 -0.6303
   7723SM   H9F10212   0.694   3.058  15.933 -0.4234  0.9695  2.0871
   7723SM   H9G10213   0.852   3.131  15.914 -0.9700 -1.4252 -0.0359
   7723SM  C10F10214   0.709   3.194  15.752 -0.5297  0.3315 -0.2078
   7723SM  H10F10215   0.770   3.284  15.729 -1.8815  0.7277 -2.5316
   7723SM  H10G10216   0.599   3.214  15.753 -0.7153 -0.5225  2.0519
   7723SM  C11F10217   0.759   3.094  15.653 -0.5714  0.0271 -0.1983
   7723SM  H11F10218   0.731   2.990  15.680 -1.4794  0.7781  2.0169
   7723SM  H11G10219   0.869   3.093  15.664 -0.5266 -2.2984 -0.4143
   7723SM  C12F10220   0.715   3.128  15.514 -0.7059 -0.4383  0.1215
   7723SM  H12F10221   0.750   3.040  15.455  1.8389  0.7322 -0.2202
   7723SM  H12G10222   0.769   3.217  15.476 -0.7313 -0.9395 -1.1600
   7723SM  C13F10223   0.565   3.153  15.480  0.3033 -0.2686 -0.6519
   7723SM  H13F10224   0.562   3.264  15.485  0.8786 -0.2872  0.8483
   7723SM  H13G10225   0.510   3.109  15.566  0.9314  0.7745  0.3080
   7723SM  C14F10226   0.528   3.092  15.347  0.6002  0.1590 -0.7254
   7723SM  H14F10227   0.418   3.087  15.331  0.5941 -0.1048 -0.6043
   7723SM  H14G10228   0.564   2.987  15.347  0.4251  0.0971 -0.0983
   7723SM  C15F10229   0.595   3.176  15.238  0.5345 -0.1991  0.4028
   7723SM  H15F10230   0.704   3.178  15.263  0.2179  0.6421  1.8025
   7723SM  H15G10231   0.555   3.279  15.231  0.1412 -0.3922 -0.3631
   7723SM  C16F10232   0.601   3.119  15.098  0.0544 -0.1428  0.4929
   7723SM  H16F10233   0.606   3.009  15.111 -2.1577 -0.1435  1.7300
   7723SM  H16G10234   0.695   3.159  15.053  0.6000  2.9546  3.9066
   7723SM  C17F10235   0.481   3.148  15.014  0.3652 -1.1670 -0.3214
   7723SM  H17F10236   0.441   3.252  15.006 -2.9805 -2.4874 -2.7771
   7723SM  H17G10237   0.391   3.093  15.048  0.1546 -0.8981 -0.4332
   7723SM  C18F10238   0.514   3.125  14.867  0.6185 -0.7495  0.5204
   7723SM  H18F10239   0.519   3.015  14.853  1.1211 -0.7341  0.5598
   7723SM  H18G10240   0.610   3.166  14.831  0.2669 -1.8120 -1.8302
   7723SM  C19F10241   0.393   3.181  14.784  0.3415  0.3044 -0.4038
   7723SM  H19F10242   0.411   3.291  14.792  0.7520  0.1401  1.4947
   7723SM  H19G10243   0.297   3.155  14.833 -0.9685  3.5050 -1.0390
   7723SM  C20F10244   0.386   3.124  14.644 -0.4443  0.0352  0.3397
   7723SM  H20F10245   0.308   3.182  14.590  2.5328  1.6499 -2.6111
   7723SM  H20G10246   0.340   3.023  14.640 -0.0142 -0.1675  0.5210
   7723SM  C21F10247   0.518   3.148  14.570  0.3342  0.1516  0.4076
   7723SM  H21F10248   0.596   3.090  14.623  1.1806  1.7073  0.9349
   7723SM  H21G10249   0.530   3.258  14.568 -0.3356  0.2467  1.3700
   7723SM  C22F10250   0.501   3.102  14.413  0.1533  0.1262 -0.2745
   7723SM  H22F10251   0.411   3.149  14.366  1.2486  3.5528  0.8062
   7723SM  H22G10252   0.486   2.992  14.416  2.7656 -0.2570  1.8157
   7723SM  C23F10253   0.621   3.127  14.316 -0.2318  0.2397  0.5562
   7723SM  H23F10254   0.713   3.098  14.370  0.0791  0.3283  0.0783
   7723SM  H23G10255   0.626   3.234  14.287  1.6264  0.0178 -0.0484
   7723SM  H23H10256   0.616   3.067  14.222  2.0015 -1.0906  1.2037
   7823SM     N10257   1.440   1.451  17.032  0.4583  0.0611 -0.0877
   7823SM   C1510258   1.336   1.357  17.081  0.0528 -0.3867  0.2231
   7823SM  H15A10259   1.372   1.301  17.166  1.7966  1.1768  0.5806
   7823SM  H15B10260   1.314   1.287  17.002  1.7244 -1.2653  0.4816
   7823SM  H15C10261   1.250   1.411  17.118  1.2942  1.2949  0.7752
   7823SM   C1410262   1.451   1.555  17.137  0.1467 -0.3176  0.2409
   7823SM  H14A10263   1.500   1.645  17.102 -2.7303  1.6545  0.9602
   7823SM  H14B10264   1.503   1.510  17.220 -0.0319 -0.6511  0.1769
   7823SM  H14C10265   1.357   1.574  17.187  0.3944  0.4478  0.4287
   7823SM   C1310266   1.571   1.390  17.016 -0.9414 -0.1614  0.0293
   7823SM  H13A10267   1.648   1.464  17.001 -1.1716 -0.3592 -2.4077
   7823SM  H13B10268   1.572   1.330  16.926 -1.3819 -1.0567  0.5999
   7823SM  H13C10269   1.600   1.318  17.092 -0.8125 -0.3315 -0.1802
   7823SM   C1210270   1.410   1.515  16.901  0.0767 -0.1481 -0.2418
   7823SM  H12A10271   1.485   1.590  16.881  0.3474 -0.0057  1.2245
   7823SM  H12B10272   1.313   1.562  16.914  0.0061 -0.6158  1.0922
   7823SM   C1110273   1.405   1.425  16.781  0.0920 -0.1409  0.0632
   7823SM  H11A10274   1.506   1.380  16.774  0.1058 -0.4566  1.7011
   7823SM  H11B10275   1.392   1.480  16.686  0.5283 -1.0311 -0.5209
   7823SM     P10276   1.163   1.347  16.766  0.1074  0.4065  0.3775
   7823SM   O1310277   1.081   1.240  16.832  0.1707 -0.3679  0.5974
   7823SM   O1410278   1.131   1.481  16.814  0.4869  0.2125  0.4775
   7823SM   O1110279   1.164   1.337  16.606  0.1338  0.3870  0.1935
   7823SM   O1210280   1.309   1.320  16.805 -0.4882 -0.5924  0.0602
   7823SM   C1S10281   1.235   1.236  16.551  0.3651 -0.0112 -0.2336
   7823SM   H1S10282   1.215   1.139  16.602 -1.3883 -0.0466 -0.9109
   7823SM   H1T10283   1.344   1.256  16.561  0.6611 -1.9278  0.9385
   7823SM    NF10284   1.281   1.144  16.330  0.6421 -0.0717  0.4192
   7823SM   HNF10285   1.378   1.166  16.315  0.9938 -2.2012 -0.9250
   7823SM   C2S10286   1.194   1.227  16.399  0.2650 -0.7356  0.0816
   7823SM   H2S10287   1.087   1.198  16.400  0.1745 -0.4126 -0.0529
   7823SM   C3S10288   1.197   1.367  16.339 -0.5536  0.5454  0.3067
   7823SM   H3S10289   1.294   1.415  16.363 -0.1524 -0.4394  0.7020
   7823SM    O310290   1.093   1.455  16.379  0.4456 -0.6039 -0.2895
   7823SM   HO310291   1.088   1.423  16.470 -0.1772  1.1380  0.3335
   7823SM   C4S10292   1.198   1.361  16.195  0.0710 -0.7733  0.1814
   7823SM   H4S10293   1.300   1.335  16.163  0.5718  0.4468  0.6980
   7823SM   C5S10294   1.097   1.392  16.110 -0.5052 -0.8202 -0.0138
   7823SM   H5S10295   1.004   1.435  16.151 -0.2401  1.7723 -1.8869
   7823SM   C6S10296   1.102   1.384  15.958  0.6986 -0.0862 -0.6915
   7823SM   H6S10297   1.103   1.490  15.924  1.6763  1.1171  2.6564
   7823SM   H6T10298   1.006   1.339  15.924 -0.7008  1.1091  1.4020
   7823SM   C7S10299   1.217   1.316  15.897  0.9188  0.1186  0.3377
   7823SM   H7S10300   1.233   1.214  15.938  1.1945 -0.6349 -1.5440
   7823SM   H7T10301   1.310   1.377  15.905  1.1093 -0.1723  0.3711
   7823SM   C8S10302   1.192   1.303  15.740 -0.3102  0.8542 -0.4057
   7823SM   H8S10303   1.158   1.399  15.696  0.5483  1.8926  1.1271
   7823SM   H8T10304   1.114   1.224  15.731  0.8110 -0.4563  0.8496
   7823SM   C9S10305   1.322   1.248  15.671 -0.0541 -1.0979  0.0592
   7823SM   H9S10306   1.369   1.175  15.740  1.2894  0.2700  0.6293
   7823SM   H9T10307   1.400   1.326  15.664  1.2685 -2.1630  1.8585
   7823SM  C10S10308   1.303   1.179  15.533 -0.0248 -0.1072 -0.8025
   7823SM  H10S10309   1.218   1.107  15.535 -0.0023 -0.1631 -1.4930
   7823SM  H10T10310   1.399   1.130  15.507 -0.4393  0.0652 -2.7844
   7823SM  C11S10311   1.267   1.284  15.423  0.2744  0.5038  0.1235
   7823SM  H11S10312   1.326   1.375  15.447  0.8304  0.1000  0.3125
   7823SM  H11T10313   1.158   1.306  15.423  0.1029 -0.0984  2.1325
   7823SM  C12S10314   1.300   1.236  15.281  0.5750  0.3979 -0.5293
   7823SM  H12S10315   1.220   1.177  15.231  0.0954 -0.0091  0.6746
   7823SM  H12T10316   1.392   1.175  15.288 -0.3708 -1.1527 -1.1583
   7823SM  C13S10317   1.345   1.354  15.187 -0.2432  0.1950  0.0022
   7823SM  H13S10318   1.428   1.402  15.244  0.5274 -1.0116 -0.0517
   7823SM  H13T10319   1.265   1.430  15.185  0.8396  1.3925  0.4927
   7823SM  C14S10320   1.396   1.308  15.048  0.8438 -0.2346 -0.1172
   7823SM  H14S10321   1.307   1.258  15.003  0.2266  1.4477 -0.8165
   7823SM  H14T10322   1.482   1.238  15.056  0.7386 -0.4512 -0.8078
   7823SM  C15S10323   1.437   1.422  14.947  0.4968 -0.4831 -1.2524
   7823SM  H15S10324   1.520   1.479  14.995 -0.6582 -1.0609  1.7036
   7823SM  H15T10325   1.357   1.499  14.945  0.2052 -0.7350 -0.1455
   7823SM  C16S10326   1.462   1.375  14.807 -0.0045  0.3907  0.1908
   7823SM  H16S10327   1.371   1.326  14.766  0.3350  0.2314 -0.3778
   7823SM  H16T10328   1.536   1.292  14.806  0.2560  0.5452 -3.3324
   7823SM  C17S10329   1.508   1.479  14.701 -0.2164 -0.1577  0.1680
   7823SM  H17S10330   1.507   1.428  14.602  0.6689 -0.8188  0.4872
   7823SM  H17T10331   1.615   1.499  14.720 -0.2001  1.5281 -1.4272
   7823SM  C18S10332   1.430   1.613  14.696 -0.0780  0.0324  0.1908
   7823SM  H18S10333   1.408   1.654  14.797 -0.1637  4.1251 -1.3098
   7823SM  H18T10334   1.338   1.586  14.641 -0.4114 -1.0766  1.2517
   7823SM  H18U10335   1.499   1.680  14.640 -1.2662  1.5255  0.4556
   7823SM   C1F10336   1.263   1.013  16.341  0.3221 -0.1249 -0.5017
   7823SM    OF10337   1.172   0.967  16.411 -0.3202  0.1574  0.2940
   7823SM   C2F10338   1.359   0.923  16.264 -0.5278  0.3146  1.3627
   7823SM   H2F10339   1.355   0.821  16.308 -1.4329 -0.1072  0.3669
   7823SM   H2G10340   1.464   0.958  16.270 -0.6703  0.6593  1.8407
   7823SM   C3F10341   1.312   0.913  16.119 -0.4165  0.9045  0.2265
   7823SM   H3F10342   1.325   1.013  16.074  1.1923  0.2497 -0.9058
   7823SM   H3G10343   1.210   0.870  16.127 -1.2468  3.0519  1.9793
   7823SM   C4F10344   1.399   0.820  16.027 -0.2316  0.3511 -0.1409
   7823SM   H4F10345   1.368   0.719  16.063  0.2056 -0.2470 -1.3905
   7823SM   H4G10346   1.503   0.840  16.059  0.7721  1.5524 -3.7805
   7823SM   C5F10347   1.364   0.843  15.884 -0.5804  0.2233 -0.6748
   7823SM   H5F10348   1.370   0.951  15.859 -4.1131  0.4919 -0.9030
   7823SM   H5G10349   1.256   0.818  15.877 -0.0074 -3.1446  0.7702
   7823SM   C6F10350   1.455   0.774  15.784 -0.2333 -0.1468 -0.4610
   7823SM   H6F10351   1.457   0.663  15.790 -1.2462 -0.5070 -4.0572
   7823SM   H6G10352   1.562   0.804  15.790 -0.0615 -0.6684 -0.8088
   7823SM   C7F10353   1.395   0.800  15.649 -0.5644 -0.5381  0.3726
   7823SM   H7F10354   1.391   0.911  15.638  3.7170 -0.2271  0.0707
   7823SM   H7G10355   1.295   0.752  15.648 -0.5312 -0.7515  2.5184
   7823SM   C8F10356   1.475   0.749  15.533  0.1959  0.2001  0.4805
   7823SM   H8F10357   1.469   0.639  15.520  0.5074  0.1190  0.9877
   7823SM   H8G10358   1.581   0.777  15.546 -0.0758  1.4224  0.1963
   7823SM   C9F10359   1.428   0.817  15.401 -0.1957 -0.5532 -0.3068
   7823SM   H9F10360   1.413   0.925  15.424 -3.7518 -1.6406  3.7624
   7823SM   H9G10361   1.321   0.793  15.384 -0.0886 -0.7737 -0.6953
   7823SM  C10F10362   1.515   0.795  15.274  0.6613 -0.6618  0.1068
   7823SM  H10F10363   1.522   0.690  15.237 -0.6921 -1.6081  2.3464
   7823SM  H10G10364   1.621   0.822  15.295  0.6504 -2.3945  2.8451
   7823SM  C11F10365   1.463   0.877  15.154 -0.2179  0.7367  0.5675
   7823SM  H11F10366   1.473   0.987  15.166 -1.9166  1.2183 -1.7936
   7823SM  H11G10367   1.355   0.854  15.152  0.1465 -1.3007  1.8769
   7823SM  C12F10368   1.520   0.834  15.014  0.2937  0.1489  0.2993
   7823SM  H12F10369   1.456   0.755  14.969  3.4912 -1.8976 -0.9260
   7823SM  H12G10370   1.626   0.806  15.001  0.6495  1.5366  0.0840
   7823SM  C13F10371   1.519   0.954  14.922 -0.2871 -0.1830 -0.2379
   7823SM  H13F10372   1.589   1.039  14.941 -1.8737  1.4154 -1.2434
   7823SM  H13G10373   1.413   0.986  14.916 -0.4353 -0.9182 -2.5381
   7823SM  C14F10374   1.563   0.920  14.776 -0.4496 -0.3654  0.0997
   7823SM  H14F10375   1.512   0.825  14.751 -0.8192 -0.0475 -0.3751
   7823SM  H14G10376   1.669   0.889  14.787 -0.4820  0.0586  1.8625
   7823SM  C15F10377   1.548   1.038  14.681  0.1946  0.2349 -0.5241
   7823SM  H15F10378   1.616   1.121  14.708  0.4519 -0.7909  2.3481
   7823SM  H15G10379   1.447   1.078  14.702  0.2877  0.5027 -0.5789
   7823SM  C16F10380   1.572   1.000  14.539 -0.2386 -0.8029  0.4102
   7823SM  H16F10381   1.503   0.920  14.504 -0.7726 -0.8863  1.6077
   7823SM  H16G10382   1.673   0.953  14.539  0.5122  0.7560  0.1159
   7823SM  C17F10383   1.573   1.121  14.438  0.3417  0.3276  0.2869
   7823SM  H17F10384   1.652   1.197  14.457 -0.3334  1.0620  0.2560
   7823SM  H17G10385   1.473   1.170  14.440  0.6749  1.0090  0.9098
   7823SM  C18F10386   1.599   1.078  14.296 -0.7934  0.3608 -0.0102
   7823SM  H18F10387   1.513   1.011  14.277 -0.4095 -0.3022  0.5393
   7823SM  H18G10388   1.691   1.016  14.286 -1.6068 -0.6048 -2.1314
   7823SM  C19F10389   1.619   1.191  14.195 -0.0449  0.0960 -0.0064
   7823SM  H19F10390   1.655   1.288  14.234  1.1782 -0.3684  0.0582
   7823SM  H19G10391   1.515   1.218  14.166  0.3447  0.1098 -1.4482
   7823SM  C20F10392   1.698   1.152  14.073 -0.0745 -0.1345 -0.1401
   7823SM  H20F10393   1.680   1.228  13.994 -1.2516  0.5746  0.7817
   7823SM  H20G10394   1.672   1.051  14.038  3.0792 -1.3252  0.5632
   7823SM  C21F10395   1.854   1.140  14.108  1.1437  0.3594  0.7914
   7823SM  H21F10396   1.881   1.033  14.093  2.2736  0.9771 -2.2597
   7823SM  H21G10397   1.871   1.156  14.216  1.0873 -2.7506  1.3615
   7823SM  C22F10398   1.948   1.210  14.004  0.1843  0.0321 -0.3568
   7823SM  H22F10399   1.934   1.320  14.005 -0.1986 -0.0147 -0.4008
   7823SM  H22G10400   1.933   1.176  13.899  2.3446  0.8255 -0.9799
   7823SM  C23F10401   2.097   1.186  14.009  0.3577  0.5387 -0.1916
   7823SM  H23F10402   2.143   1.225  13.917 -1.3404  0.7737 -0.9822
   7823SM  H23G10403   2.117   1.078  14.028 -1.6310  0.5152  2.5196
   7823SM  H23H10404   2.136   1.242  14.096 -3.7629  1.1795  1.4728
   7923SM     N10405   5.574   1.197  16.566  0.1730  0.2251  0.6226
   7923SM   C1510406   5.718   1.152  16.530  0.3950 -0.1437  0.6000
   7923SM  H15A10407   5.789   1.234  16.533 -0.5803  0.8022 -0.7243
   7923SM  H15B10408   5.714   1.114  16.429 -0.4206  1.0102  0.1723
   7923SM  H15C10409   5.750   1.080  16.603 -1.2448  0.3235  1.8618
   7923SM   C1410410   5.509   1.253  16.449 -0.2292 -0.3850  0.4367
   7923SM  H14A10411   5.561   1.333  16.398 -0.6000 -0.3056  0.1784
   7923SM  H14B10412   5.410   1.288  16.472  0.1306  2.5727 -1.8975
   7923SM  H14C10413   5.497   1.174  16.375  1.2965 -2.4054  2.2111
   7923SM   C1310414   5.505   1.079  16.604  0.3361  0.5804  0.5588
   7923SM  H13A10415   5.562   1.043  16.688  2.0785  2.1370  0.0982
   7923SM  H13B10416   5.496   1.009  16.522 -1.3373 -1.1304  2.0899
   7923SM  H13C10417   5.404   1.099  16.637  0.3117  1.6032 -0.1074
   7923SM   C1210418   5.586   1.302  16.678 -0.2654  0.3268 -0.1715
   7923SM  H12A10419   5.640   1.249  16.755 -1.0111  0.6885  0.6349
   7923SM  H12B10420   5.491   1.317  16.727 -0.5396 -2.7726  0.4218
   7923SM   C1110421   5.668   1.439  16.647 -0.1801  0.8150  0.1129
   7923SM  H11A10422   5.648   1.505  16.734 -0.7381  1.3772 -0.4332
   7923SM  H11B10423   5.615   1.484  16.561 -0.3430  1.2039  0.4139
   7923SM     P10424   5.901   1.533  16.605 -0.1744  0.3672 -0.2016
   7923SM   O1310425   5.865   1.642  16.691  0.0387 -0.4781 -0.4246
   7923SM   O1410426   6.038   1.473  16.613  0.1741 -0.2943  0.1586
   7923SM   O1110427   5.873   1.576  16.453  0.2857 -0.3036  0.1186
   7923SM   O1210428   5.801   1.410  16.622 -0.2632 -0.0133 -0.3437
   7923SM   C1S10429   5.845   1.476  16.352  0.2205 -0.2854  0.4247
   7923SM   H1S10430   5.757   1.415  16.382 -1.3590  1.6174 -0.1338
   7923SM   H1T10431   5.933   1.412  16.332 -0.1487  0.0504 -2.7625
   7923SM    NF10432   5.751   1.438  16.124 -0.5598 -0.4019  0.2426
   7923SM   HNF10433   5.814   1.405  16.054  0.7585  1.1710  0.6151
   7923SM   C2S10434   5.812   1.543  16.207 -0.5155 -0.3820  0.5327
   7923SM   H2S10435   5.730   1.615  16.230 -0.4545  0.3155 -1.2630
   7923SM   C3S10436   5.945   1.610  16.152 -0.0559  0.0549  0.4676
   7923SM   H3S10437   6.031   1.540  16.154 -1.1766 -1.3396  1.3529
   7923SM    O310438   5.997   1.712  16.236 -0.5060  0.3483  0.0311
   7923SM   HO310439   5.940   1.687  16.309 -1.0820 -2.3261 -1.2304
   7923SM   C4S10440   5.915   1.669  16.018 -0.3952 -0.0060  0.0535
   7923SM   H4S10441   5.974   1.619  15.939 -0.3690  0.6592 -0.3495
   7923SM   C5S10442   5.843   1.776  15.989 -0.3587 -0.1493 -0.1317
   7923SM   H5S10443   5.788   1.829  16.068 -1.7111 -2.9359  0.9606
   7923SM   C6S10444   5.816   1.835  15.854 -0.1215  0.2447  0.4550
   7923SM   H6S10445   5.777   1.939  15.860 -0.8264  0.0757 -0.7731
   7923SM   H6T10446   5.727   1.787  15.808 -0.2619  0.2567  0.7148
   7923SM   C7S10447   5.947   1.835  15.763  0.7462  0.2000 -0.2247
   7923SM   H7S10448   6.003   1.740  15.773 -1.4815 -0.9668  2.5057
   7923SM   H7T10449   6.009   1.919  15.801 -0.2276 -0.0102  1.9814
   7923SM   C8S10450   5.916   1.856  15.615  0.6614 -0.2118  0.2429
   7923SM   H8S10451   6.010   1.881  15.562 -0.8546 -0.3688 -2.7433
   7923SM   H8T10452   5.851   1.947  15.612 -0.5908 -1.0890 -2.0755
   7923SM   C9S10453   5.867   1.735  15.540  0.2539  0.2425  0.1173
   7923SM   H9S10454   5.788   1.682  15.598  1.3244 -2.9229 -1.0904
   7923SM   H9T10455   5.941   1.653  15.523  0.9659  0.3264  2.5006
   7923SM  C10S10456   5.801   1.774  15.400  0.6995  0.2082  0.1964
   7923SM  H10S10457   5.719   1.848  15.407  0.3479 -0.0599 -0.8663
   7923SM  H10T10458   5.765   1.682  15.347 -0.4378 -0.2720  1.7403
   7923SM  C11S10459   5.889   1.866  15.313  0.3993  0.3367 -0.0886
   7923SM  H11S10460   5.992   1.826  15.309  0.2342 -0.0539 -0.6604
   7923SM  H11T10461   5.889   1.966  15.362 -0.4813 -0.5705  1.8781
   7923SM  C12S10462   5.851   1.874  15.166  0.4666  0.1154 -0.2107
   7923SM  H12S10463   5.751   1.920  15.176  0.2909  0.0685 -1.5898
   7923SM  H12T10464   5.847   1.766  15.143  1.5686  0.1784 -0.7995
   7923SM  C13S10465   5.944   1.954  15.062 -0.2084 -0.1699 -0.0226
   7923SM  H13S10466   6.031   1.884  15.057 -0.5057 -0.5371 -0.0730
   7923SM  H13T10467   5.991   2.041  15.113  1.0432 -0.1218 -1.1915
   7923SM  C14S10468   5.884   1.984  14.919  0.7773  0.5726 -0.0561
   7923SM  H14S10469   5.857   2.092  14.924  1.0459  0.6419 -0.1022
   7923SM  H14T10470   5.780   1.945  14.915  0.8797  0.1576  1.0593
   7923SM  C15S10471   5.975   1.954  14.799  1.0590  0.4067  0.1813
   7923SM  H15S10472   5.977   1.844  14.783  0.9443  0.7304 -2.7364
   7923SM  H15T10473   6.071   1.998  14.834  1.1349 -0.4842  1.1248
   7923SM  C16S10474   5.919   2.016  14.668  0.8733  0.1518 -0.2871
   7923SM  H16S10475   5.881   2.119  14.678 -1.4740 -0.7986  1.2596
   7923SM  H16T10476   5.831   1.954  14.641 -0.3809  0.7832  2.0523
   7923SM  C17S10477   6.027   2.014  14.559 -0.3367 -0.0717  0.0032
   7923SM  H17S10478   6.070   1.912  14.550  2.5836  1.2677 -3.8320
   7923SM  H17T10479   6.109   2.079  14.597 -1.6993  0.3701  2.3916
   7923SM  C18S10480   5.980   2.055  14.417  0.3801 -0.0653  0.8507
   7923SM  H18S10481   5.968   2.165  14.404  2.1618  0.0367 -0.3512
   7923SM  H18T10482   5.881   2.009  14.397  0.7914  0.1128 -2.0730
   7923SM  H18U10483   6.061   2.028  14.346 -0.8975 -0.1863 -0.6018
   7923SM   C1F10484   5.627   1.389  16.135 -0.4725 -0.0168  0.8215
   7923SM    OF10485   5.552   1.437  16.221 -0.2222  0.0364  0.2347
   7923SM   C2F10486   5.575   1.286  16.037  0.1047  0.0821  0.4183
   7923SM   H2F10487   5.466   1.276  16.055  0.0821 -1.2978 -0.3848
   7923SM   H2G10488   5.623   1.189  16.059  0.5703 -0.1255 -1.4184
   7923SM   C3F10489   5.604   1.315  15.889 -0.2046  0.2411 -0.0909
   7923SM   H3F10490   5.572   1.224  15.834 -0.9249  1.3437 -1.5773
   7923SM   H3G10491   5.712   1.323  15.863 -0.6528 -0.3326 -2.3935
   7923SM   C4F10492   5.539   1.445  15.832 -0.3593  0.1241 -0.3318
   7923SM   H4F10493   5.551   1.524  15.909 -1.4009 -0.1270  0.1089
   7923SM   H4G10494   5.430   1.424  15.824 -0.9153  1.7889  1.8891
   7923SM   C5F10495   5.601   1.488  15.702 -0.6283  0.0037  0.1491
   7923SM   H5F10496   5.708   1.508  15.727 -0.3431 -0.5729 -0.5893
   7923SM   H5G10497   5.552   1.580  15.662  0.4254  1.0715  1.2089
   7923SM   C6F10498   5.573   1.388  15.590  0.6331 -0.0042 -0.1610
   7923SM   H6F10499   5.465   1.364  15.585 -0.5120  4.2111  0.2697
   7923SM   H6G10500   5.623   1.290  15.604  1.9300  0.2041 -2.7137
   7923SM   C7F10501   5.627   1.438  15.461  0.7470 -0.6958  1.1891
   7923SM   H7F10502   5.737   1.435  15.468  0.8150  0.3456  0.8771
   7923SM   H7G10503   5.609   1.546  15.439  3.2461 -0.5578 -0.6694
   7923SM   C8F10504   5.573   1.354  15.342  0.9412  0.0711 -0.8957
   7923SM   H8F10505   5.463   1.349  15.339  0.9036  0.7764 -0.8435
   7923SM   H8G10506   5.595   1.247  15.365  0.2907 -0.0379 -0.7883
   7923SM   C9F10507   5.614   1.394  15.201 -0.5620  0.5175  0.6618
   7923SM   H9F10508   5.565   1.325  15.130  0.9170  1.5696 -1.4827
   7923SM   H9G10509   5.723   1.374  15.199 -0.7761 -0.7901  0.7665
   7923SM  C10F10510   5.590   1.537  15.146  1.1300  0.4040 -0.5805
   7923SM  H10F10511   5.636   1.615  15.211  2.9188  0.3809 -1.7586
   7923SM  H10G10512   5.481   1.557  15.143  1.1304  0.4232 -0.4806
   7923SM  C11F10513   5.626   1.560  15.003 -0.4809  0.2739 -0.4855
   7923SM  H11F10514   5.591   1.470  14.949  1.2288 -0.7775  0.0868
   7923SM  H11G10515   5.737   1.566  14.990 -0.5037 -1.3195 -1.7298
   7923SM  C12F10516   5.554   1.684  14.940 -0.1613  0.1225  0.6691
   7923SM  H12F10517   5.577   1.776  14.998  0.1338 -1.3643  3.0698
   7923SM  H12G10518   5.449   1.651  14.954  0.0756 -0.7108  0.5906
   7923SM  C13F10519   5.592   1.711  14.796  0.3564  0.7492 -0.0464
   7923SM  H13F10520   5.555   1.625  14.736 -2.8876 -0.7648  3.6974
   7923SM  H13G10521   5.702   1.701  14.787  0.7221  0.7703  3.3075
   7923SM  C14F10522   5.536   1.839  14.739 -0.3130  0.4991  0.0527
   7923SM  H14F10523   5.607   1.923  14.756 -0.3582  0.7287 -0.8451
   7923SM  H14G10524   5.440   1.859  14.792 -1.9225  0.4809 -2.6835
   7923SM  C15F10525   5.502   1.835  14.589  0.2719  0.4980 -0.2579
   7923SM  H15F10526   5.439   1.748  14.561  0.1834  0.1468  0.9695
   7923SM  H15G10527   5.601   1.813  14.543  0.7118 -0.4000  1.0586
   7923SM  C16F10528   5.455   1.969  14.531 -0.1713  0.1393  0.0729
   7923SM  H16F10529   5.523   2.043  14.577 -1.4760  0.3594  1.7491
   7923SM  H16G10530   5.350   1.994  14.559  1.0234  3.6907  1.9837
   7923SM  C17F10531   5.452   1.968  14.373  0.2755 -0.7601 -0.3357
   7923SM  H17F10532   5.425   1.864  14.345 -0.9534 -1.0852  1.8364
   7923SM  H17G10533   5.554   1.994  14.339 -0.0738 -1.2491 -1.8355
   7923SM  C18F10534   5.353   2.068  14.300 -0.1369  0.2175  0.4302
   7923SM  H18F10535   5.251   2.046  14.337 -0.1637 -0.7142 -0.1675
   7923SM  H18G10536   5.354   2.053  14.190 -0.4392 -0.9801  0.5770
   7923SM  C19F10537   5.381   2.215  14.334  0.7956 -0.2179 -0.2231
   7923SM  H19F10538   5.488   2.238  14.313  1.3084 -1.0742  1.2666
   7923SM  H19G10539   5.368   2.235  14.443  3.5834 -1.0833  0.3460
   7923SM  C20F10540   5.297   2.313  14.246 -0.3801 -0.3224 -0.6974
   7923SM  H20F10541   5.190   2.294  14.265 -0.1884 -1.3556 -0.5978
   7923SM  H20G10542   5.330   2.290  14.143 -0.4990 -1.2908 -0.5308
   7923SM  C21F10543   5.305   2.456  14.291  0.0472  0.2518 -0.2635
   7923SM  H21F10544   5.410   2.492  14.286 -0.0294  0.4029 -0.9244
   7923SM  H21G10545   5.277   2.453  14.398 -0.4983 -0.7871 -0.4184
   7923SM  C22F10546   5.209   2.550  14.205  0.0907  0.8146  0.8141
   7923SM  H22F10547   5.195   2.644  14.262  0.2357  0.2513  1.8042
   7923SM  H22G10548   5.115   2.491  14.202  1.2632 -1.1566  1.0562
   7923SM  C23F10549   5.256   2.591  14.069 -0.2781  0.4467 -0.4064
   7923SM  H23F10550   5.259   2.501  14.005  2.6986 -1.5690  2.2481
   7923SM  H23G10551   5.351   2.649  14.078  1.1674 -1.3801 -2.7753
   7923SM  H23H10552   5.194   2.674  14.030 -1.3698 -1.4955 -3.0626
   8023SM     N10553   0.793   1.393  16.996  0.3171  0.7162 -0.0097
   8023SM   C1510554   0.792   1.534  17.055  1.2094  0.2341  0.2856
   8023SM  H15A10555   0.722   1.597  17.003  0.8301 -1.5334 -1.4727
   8023SM  H15B10556   0.886   1.585  17.043  0.9934  0.4663 -0.4884
   8023SM  H15C10557   0.763   1.524  17.158  3.9170  2.0541  1.3419
   8023SM   C1410558   0.887   1.306  17.061 -0.4461 -0.1771 -0.3499
   8023SM  H14A10559   0.854   1.277  17.160 -1.0864 -0.3700 -0.6122
   8023SM  H14B10560   0.983   1.355  17.070 -0.3738 -0.5374  1.0217
   8023SM  H14C10561   0.905   1.223  16.994 -1.6528  0.1354 -1.0918
   8023SM   C1310562   0.651   1.340  17.016 -0.8274 -0.7213  0.3442
   8023SM  H13A10563   0.658   1.235  16.990 -0.2141 -0.7974  0.8072
   8023SM  H13B10564   0.581   1.408  16.968  0.5360  0.3544 -0.1743
   8023SM  H13C10565   0.633   1.344  17.122 -0.7735  1.9369  0.3196
   8023SM   C1210566   0.823   1.404  16.848  0.0838 -0.4662  0.2050
   8023SM  H12A10567   0.829   1.305  16.805 -2.2814 -1.0909  1.1545
   8023SM  H12B10568   0.923   1.445  16.844  0.0732 -0.2426  1.5225
   8023SM   C1110569   0.715   1.489  16.759 -0.2531  0.2628  0.1494
   8023SM  H11A10570   0.776   1.501  16.667  0.0086 -4.1638 -0.4481
   8023SM  H11B10571   0.693   1.587  16.808  0.7572 -0.0806  1.3500
   8023SM     P10572   0.593   1.271  16.666 -0.1336  0.0262  0.3247
   8023SM   O1310573   0.666   1.173  16.749  0.3861  0.4388  0.3941
   8023SM   O1410574   0.461   1.234  16.616  0.2247 -0.0205  0.1615
   8023SM   O1110575   0.689   1.282  16.540  0.0509 -0.8393  0.1203
   8023SM   O1210576   0.591   1.416  16.733 -0.3550  0.0963 -0.3789
   8023SM   C1S10577   0.647   1.363  16.428 -0.6360 -0.1915 -0.2516
   8023SM   H1S10578   0.653   1.469  16.461 -0.6542 -0.9131  2.2789
   8023SM   H1T10579   0.538   1.355  16.406 -0.3211 -1.4693 -1.4848
   8023SM    NF10580   0.659   1.405  16.187 -0.4798 -0.4198 -0.5061
   8023SM   HNF10581   0.597   1.350  16.131 -1.2516  0.6009 -0.6749
   8023SM   C2S10582   0.733   1.340  16.300 -0.5591 -0.3328  0.6379
   8023SM   H2S10583   0.828   1.394  16.317 -2.3601  3.5341 -0.3133
   8023SM   C3S10584   0.758   1.183  16.283 -0.4738 -0.0742 -0.3424
   8023SM   H3S10585   0.656   1.139  16.292 -0.5776  0.0023 -1.0825
   8023SM    O310586   0.825   1.119  16.393  0.0894  0.3572 -0.0084
   8023SM   HO310587   0.824   1.192  16.455  3.1605 -0.6178  1.3710
   8023SM   C4S10588   0.812   1.139  16.155 -0.1578 -1.0276  0.6077
   8023SM   H4S10589   0.921   1.148  16.141 -0.3795 -0.1685 -0.8364
   8023SM   C5S10590   0.737   1.093  16.052  0.0688 -0.4467  0.0067
   8023SM   H5S10591   0.628   1.100  16.043  0.2114  0.6071 -1.4362
   8023SM   C6S10592   0.798   1.050  15.918  0.2977 -0.2176 -0.3801
   8023SM   H6S10593   0.901   1.091  15.910  0.9279 -1.5477  0.4374
   8023SM   H6T10594   0.733   1.103  15.846 -0.1213  1.4699  1.1802
   8023SM   C7S10595   0.788   0.897  15.884 -0.0124 -0.6559  0.2391
   8023SM   H7S10596   0.721   0.895  15.796  1.5793 -0.7006 -1.0255
   8023SM   H7T10597   0.740   0.840  15.966 -3.3077 -0.6188 -1.5119
   8023SM   C8S10598   0.924   0.840  15.855  0.4140  0.0361  0.0967
   8023SM   H8S10599   0.903   0.733  15.833  0.8338  0.2802 -1.6392
   8023SM   H8T10600   1.000   0.852  15.934 -0.3967  0.7378  0.7914
   8023SM   C9S10601   0.983   0.908  15.724 -0.3246 -0.3303 -0.0175
   8023SM   H9S10602   1.091   0.884  15.719  0.2161  1.0809  2.7210
   8023SM   H9T10603   0.964   1.018  15.727 -0.2630 -0.3122 -0.2868
   8023SM  C10S10604   0.937   0.838  15.595  0.0834  0.1714  0.3893
   8023SM  H10S10605   0.827   0.850  15.583 -0.0045 -0.5999  0.3730
   8023SM  H10T10606   0.952   0.728  15.601 -2.1546 -0.1240  1.5606
   8023SM  C11S10607   1.019   0.892  15.486  0.2493 -0.5650  0.2101
   8023SM  H11S10608   1.126   0.868  15.500  0.3483  0.2225  0.8827
   8023SM  H11T10609   1.012   1.003  15.491  2.1526 -0.3868 -0.4670
   8023SM  C12S10610   0.990   0.829  15.349 -0.6653  0.0254  0.3927
   8023SM  H12S10611   0.881   0.830  15.332 -0.3177  0.1630 -2.1965
   8023SM  H12T10612   1.020   0.722  15.350 -0.7766 -0.0139 -0.0789
   8023SM  C13S10613   1.057   0.901  15.230 -0.0232  0.7189 -0.1648
   8023SM  H13S10614   1.165   0.917  15.252 -0.0418  0.7198 -0.0752
   8023SM  H13T10615   1.011   1.001  15.220  0.4625  1.4279  3.4697
   8023SM  C14S10616   1.040   0.844  15.093 -0.0240 -0.0202 -0.1919
   8023SM  H14S10617   0.934   0.824  15.068 -0.3311  2.0118 -0.6340
   8023SM  H14T10618   1.104   0.753  15.081  0.9503  0.3971  1.4207
   8023SM  C15S10619   1.088   0.941  14.985 -0.3587  0.2620  0.3052
   8023SM  H15S10620   1.193   0.971  15.007 -0.1281  0.0687 -0.4759
   8023SM  H15T10621   1.025   1.032  14.992  1.6810  1.8796 -1.0797
   8023SM  C16S10622   1.091   0.888  14.835  0.2395  0.4387  0.4401
   8023SM  H16S10623   1.002   0.928  14.784  0.6497 -1.2131 -1.7301
   8023SM  H16T10624   1.095   0.777  14.840  2.7344  0.5217  2.6960
   8023SM  C17S10625   1.209   0.942  14.751  0.2051  0.1897  0.2014
   8023SM  H17S10626   1.300   0.881  14.770 -0.1211 -0.6788 -0.8860
   8023SM  H17T10627   1.242   1.037  14.798  2.4138 -1.3668  1.9744
   8023SM  C18S10628   1.179   0.957  14.599  0.3758  0.3680 -0.4943
   8023SM  H18S10629   1.070   0.956  14.581  0.1739  2.4189  0.3414
   8023SM  H18T10630   1.229   0.875  14.544 -2.7189 -2.0943  0.1488
   8023SM  H18U10631   1.218   1.055  14.562 -3.6795  2.5658  0.4292
   8023SM   C1F10632   0.637   1.536  16.182 -0.7153  0.3559 -0.6601
   8023SM    OF10633   0.686   1.607  16.272  0.1887  0.5931  0.4269
   8023SM   C2F10634   0.544   1.587  16.074  0.1246 -0.3470 -0.4713
   8023SM   H2F10635   0.502   1.683  16.113  0.2452 -0.6154  0.3392
   8023SM   H2G10636   0.464   1.512  16.054  0.9075 -1.1964 -0.4893
   8023SM   C3F10637   0.623   1.612  15.946 -0.4673 -0.2861 -0.8533
   8023SM   H3F10638   0.711   1.673  15.975 -1.2257  0.0741  0.7704
   8023SM   H3G10639   0.562   1.676  15.878 -0.1440  0.1494 -0.7398
   8023SM   C4F10640   0.674   1.493  15.868 -0.4596 -0.9393 -0.2274
   8023SM   H4F10641   0.597   1.417  15.844  0.2917 -2.3167  1.4366
   8023SM   H4G10642   0.751   1.445  15.933 -0.5316 -1.3433 -0.4408
   8023SM   C5F10643   0.750   1.526  15.737  0.1425 -0.5203 -0.0435
   8023SM   H5F10644   0.818   1.609  15.766  1.3472 -1.9034  1.3217
   8023SM   H5G10645   0.674   1.544  15.658 -0.8870 -1.0061  0.8053
   8023SM   C6F10646   0.830   1.401  15.687  0.2015 -0.5399 -0.0767
   8023SM   H6F10647   0.759   1.319  15.663  0.0680 -0.6028  0.5299
   8023SM   H6G10648   0.888   1.360  15.772 -1.5313  0.7695  1.8353
   8023SM   C7F10649   0.922   1.426  15.561 -0.8796  0.5271  0.0965
   8023SM   H7F10650   0.952   1.323  15.531 -1.0494 -0.0206  1.7312
   8023SM   H7G10651   1.005   1.499  15.578 -0.1468  0.1284 -1.4974
   8023SM   C8F10652   0.848   1.490  15.445 -0.4114  0.2632 -0.3045
   8023SM   H8F10653   0.815   1.593  15.472 -1.8832 -0.2136 -0.2165
   8023SM   H8G10654   0.751   1.437  15.431  0.2391 -0.7728 -1.0177
   8023SM   C9F10655   0.928   1.484  15.314 -0.4428  0.2086  0.0876
   8023SM   H9F10656   0.947   1.381  15.278  0.2514  0.8332 -1.4387
   8023SM   H9G10657   1.023   1.532  15.346 -0.3449  0.1939 -0.1735
   8023SM  C10F10658   0.851   1.553  15.201  0.3134  0.3242 -0.1260
   8023SM  H10F10659   0.834   1.662  15.221 -3.2168 -0.1569  0.2271
   8023SM  H10G10660   0.751   1.505  15.210 -0.6073  2.4264  3.1257
   8023SM  C11F10661   0.907   1.528  15.054 -0.0139 -0.2037 -0.4813
   8023SM  H11F10662   1.016   1.547  15.052  0.0561 -0.6308 -0.9049
   8023SM  H11G10663   0.858   1.604  14.989  0.8743  0.7398 -0.0626
   8023SM  C12F10664   0.891   1.386  15.012  0.3384  0.4513  0.2671
   8023SM  H12F10665   0.797   1.339  15.048  0.0027  0.3554 -0.7124
   8023SM  H12G10666   0.975   1.325  15.049 -0.1469 -0.5560 -0.2417
   8023SM  C13F10667   0.882   1.373  14.861  0.2195 -0.0576 -0.1997
   8023SM  H13F10668   0.935   1.469  14.841 -1.7335  1.1063  0.0130
   8023SM  H13G10669   0.780   1.377  14.817  0.0977 -0.1806  0.0722
   8023SM  C14F10670   0.977   1.267  14.810 -0.3040 -0.0494  0.5974
   8023SM  H14F10671   0.930   1.172  14.845  0.7938 -0.4439  1.0406
   8023SM  H14G10672   1.078   1.273  14.856  0.4799  1.5121 -1.1685
   8023SM  C15F10673   1.002   1.260  14.657 -0.2841 -0.4975 -0.0396
   8023SM  H15F10674   0.906   1.275  14.603  0.9128  1.6595 -1.7332
   8023SM  H15G10675   1.045   1.167  14.613  3.6097  0.9612  0.2732
   8023SM  C16F10676   1.101   1.365  14.601  0.2722  0.0168  0.2507
   8023SM  H16F10677   1.192   1.347  14.661  0.7616 -1.9332 -1.0111
   8023SM  H16G10678   1.065   1.468  14.622 -0.4797 -0.0990 -0.3996
   8023SM  C17F10679   1.142   1.347  14.456 -0.8253 -0.0323 -0.0187
   8023SM  H17F10680   1.045   1.342  14.402 -1.4896  2.0238  0.8917
   8023SM  H17G10681   1.188   1.250  14.426 -0.5542  0.1319 -0.1394
   8023SM  C18F10682   1.225   1.468  14.404  0.0009  0.4408 -0.0966
   8023SM  H18F10683   1.331   1.462  14.438  0.4556  0.8718 -1.3686
   8023SM  H18G10684   1.201   1.565  14.453  0.8845  0.3206  0.6046
   8023SM  C19F10685   1.228   1.480  14.254  0.5860 -0.7214 -0.0047
   8023SM  H19F10686   1.294   1.400  14.215 -0.4129 -2.3316  1.4802
   8023SM  H19G10687   1.276   1.574  14.220 -1.4437 -0.1674 -1.5638
   8023SM  C20F10688   1.087   1.485  14.187 -0.6742  0.0118  0.3317
   8023SM  H20F10689   1.032   1.569  14.235 -0.6569  0.5043 -0.4838
   8023SM  H20G10690   1.040   1.389  14.215 -0.8044 -0.5292 -1.5713
   8023SM  C21F10691   1.093   1.497  14.034  0.7779  0.2330 -0.7642
   8023SM  H21F10692   0.985   1.495  14.009 -0.1264  1.6312  2.5887
   8023SM  H21G10693   1.150   1.416  13.984  1.8774  0.9265 -0.6753
   8023SM  C22F10694   1.140   1.637  13.995 -0.0441  0.0747 -0.1473
   8023SM  H22F10695   1.246   1.654  14.024  0.2498  0.3727 -1.3656
   8023SM  H22G10696   1.081   1.719  14.042 -0.0161 -0.1520  0.2888
   8023SM  C23F10697   1.140   1.660  13.845  0.1738  0.4156  1.1103
   8023SM  H23F10698   1.218   1.596  13.799 -1.1213 -0.2032 -0.3240
   8023SM  H23G10699   1.148   1.766  13.812  0.3570  0.3154  0.8284
   8023SM  H23H10700   1.040   1.628  13.808 -0.6072  2.5986  1.1571
   8123SM     N10701   4.186   4.759  12.363 -0.3015  0.1448  0.4013
   8123SM   C1510702   4.264   4.729  12.242  0.1358  0.5006 -0.6675
   8123SM  H15A10703   4.200   4.701  12.160  1.3960  0.6540 -1.7274
   8123SM  H15B10704   4.332   4.647  12.255 -0.7819 -0.4022 -1.3959
   8123SM  H15C10705   4.326   4.812  12.213  0.7064 -0.2376 -1.6131
   8123SM   C1410706   4.069   4.832  12.312  1.0092  0.1727  0.4312
   8123SM  H14A10707   3.992   4.857  12.384 -2.6271  0.1189 -3.0562
   8123SM  H14B10708   4.027   4.772  12.232  1.7366  0.7160 -0.3786
   8123SM  H14C10709   4.101   4.927  12.273  2.8523 -0.7286 -0.4055
   8123SM   C1310710   4.144   4.628  12.430 -0.0425  0.0635 -0.1020
   8123SM  H13A10711   4.227   4.566  12.457  0.1484  1.6059  3.3668
   8123SM  H13B10712   4.077   4.571  12.367 -1.9173  0.6425  1.2571
   8123SM  H13C10713   4.090   4.646  12.522 -1.9515 -1.5163 -0.8446
   8123SM   C1210714   4.263   4.837  12.468  0.6830 -0.5917  0.4140
   8123SM  H12A10715   4.202   4.847  12.557 -1.9069 -1.9326 -1.0937
   8123SM  H12B10716   4.283   4.930  12.418 -0.4865 -0.2447  0.5556
   8123SM   C1110717   4.388   4.772  12.529 -0.3354 -0.4700  0.0999
   8123SM  H11A10718   4.428   4.842  12.605 -2.8264 -0.4180  1.4532
   8123SM  H11B10719   4.457   4.755  12.443 -0.8042 -0.8599 -0.2078
   8123SM     P10720   4.475   4.543  12.620  0.1741 -0.0895 -0.1107
   8123SM   O1310721   4.398   4.429  12.670 -0.5867  0.5448 -0.4583
   8123SM   O1410722   4.559   4.517  12.497  0.5788 -0.0912  0.2217
   8123SM   O1110723   4.578   4.601  12.726  0.2350 -0.7209  0.7355
   8123SM   O1210724   4.370   4.655  12.597  0.0505  0.3756 -0.5355
   8123SM   C1S10725   4.533   4.651  12.850 -0.0018 -0.5521 -0.6874
   8123SM   H1S10726   4.459   4.580  12.894 -1.1510  0.4095 -0.9979
   8123SM   H1T10727   4.472   4.741  12.827  2.1556  1.6924  1.7544
   8123SM    NF10728   4.609   4.692  13.079  0.0378  0.1534 -0.6533
   8123SM   HNF10729   4.565   4.771  13.121 -0.1447 -0.0242 -0.5062
   8123SM   C2S10730   4.656   4.693  12.938 -0.2960 -0.4003 -0.2873
   8123SM   H2S10731   4.728   4.609  12.936 -1.2121 -1.1951 -1.2857
   8123SM   C3S10732   4.725   4.825  12.884 -0.0960 -0.2903  0.2387
   8123SM   H3S10733   4.650   4.900  12.916  0.6098  1.0899 -1.2014
   8123SM    O310734   4.723   4.839  12.742  0.4067  0.2277  0.1836
   8123SM   HO310735   4.652   4.780  12.716  1.8807 -1.8790  0.6574
   8123SM   C4S10736   4.858   4.857  12.948 -0.0090  0.7655  0.4112
   8123SM   H4S10737   4.870   4.956  12.995  0.9828  0.7967  0.1262
   8123SM   C5S10738   4.968   4.780  12.952 -0.0966 -0.4844 -0.7706
   8123SM   H5S10739   4.967   4.677  12.911  1.5164 -0.5073 -0.8229
   8123SM   C6S10740   5.095   4.812  13.026  0.4839  0.5744  0.7951
   8123SM   H6S10741   5.089   4.878  13.114  1.3779 -0.0016  1.3049
   8123SM   H6T10742   5.167   4.851  12.951  0.0059 -0.4552 -0.2409
   8123SM   C7S10743   5.162   4.687  13.089  0.0680  0.0234 -0.2240
   8123SM   H7S10744   5.198   4.612  13.015 -0.5532 -0.6173  0.1068
   8123SM   H7T10745   5.097   4.635  13.163  2.4727 -1.7874  0.7766
   8123SM   C8S10746   5.283   4.733  13.190 -0.7547 -0.3054  0.2515
   8123SM   H8S10747   5.247   4.800  13.271 -1.1208  0.8339 -0.8403
   8123SM   H8T10748   5.358   4.785  13.127 -0.1595 -2.0151 -0.5176
   8123SM   C9S10749   5.368   4.611  13.230  0.5687 -0.0250  0.1246
   8123SM   H9S10750   5.419   4.561  13.145 -0.9765 -1.2403 -0.1510
   8123SM   H9T10751   5.292   4.541  13.271  0.9732 -2.9895 -3.5736
   8123SM  C10S10752   5.478   4.635  13.333 -0.4758 -0.9920 -0.6564
   8123SM  H10S10753   5.551   4.712  13.300  0.0469 -1.0850  0.2521
   8123SM  H10T10754   5.520   4.533  13.348  1.9406  0.0157 -0.2500
   8123SM  C11S10755   5.413   4.677  13.469 -0.1566 -0.0161  0.0880
   8123SM  H11S10756   5.321   4.614  13.477  0.1119 -0.5341 -0.7473
   8123SM  H11T10757   5.398   4.786  13.460  2.3951  0.3525 -0.4650
   8123SM  C12S10758   5.515   4.656  13.586 -0.1796  0.5470  1.0940
   8123SM  H12S10759   5.617   4.668  13.545  0.0859 -1.4839  1.0753
   8123SM  H12T10760   5.504   4.548  13.607  0.8215 -0.2218 -1.8484
   8123SM  C13S10761   5.491   4.765  13.690 -0.5284  0.1088 -0.2821
   8123SM  H13S10762   5.382   4.787  13.684 -0.3894  0.7394 -0.5597
   8123SM  H13T10763   5.531   4.861  13.653  0.3540  0.5611  1.7281
   8123SM  C14S10764   5.542   4.741  13.834  0.6150  0.0672 -0.1227
   8123SM  H14S10765   5.652   4.735  13.848  0.2908 -0.4389  2.9313
   8123SM  H14T10766   5.492   4.651  13.876 -0.5301  0.7166 -0.0398
   8123SM  C15S10767   5.481   4.859  13.916 -1.1647 -0.1140 -0.7206
   8123SM  H15S10768   5.393   4.897  13.861 -0.0066  0.6360 -2.1235
   8123SM  H15T10769   5.553   4.944  13.917 -1.4482  0.1292  0.4130
   8123SM  C16S10770   5.444   4.835  14.062 -0.0510 -0.3389  0.7854
   8123SM  H16S10771   5.380   4.744  14.060 -1.3380  0.5290 -1.2307
   8123SM  H16T10772   5.380   4.919  14.095 -0.4423 -0.1197 -0.4741
   8123SM  C17S10773   5.571   4.807  14.149  0.3050  0.0386  0.1270
   8123SM  H17S10774   5.631   4.900  14.160  1.2669 -0.2397 -2.1050
   8123SM  H17T10775   5.638   4.737  14.095 -0.7776  0.4011 -1.7900
   8123SM  C18S10776   5.554   4.752  14.290 -0.2327 -0.1908 -0.1555
   8123SM  H18S10777   5.478   4.671  14.285  0.3287 -0.6824 -1.0275
   8123SM  H18T10778   5.514   4.827  14.362  0.5178  0.3249 -0.2629
   8123SM  H18U10779   5.646   4.706  14.332  0.6385  0.9038 -0.8197
   8123SM   C1F10780   4.579   4.574  13.140 -0.4011  0.2582 -0.2621
   8123SM    OF10781   4.598   4.466  13.090 -0.0616  0.2956 -0.2305
   8123SM   C2F10782   4.525   4.579  13.280  0.1814  0.1107 -0.6158
   8123SM   H2F10783   4.440   4.507  13.275 -1.1009  1.4434  0.8215
   8123SM   H2G10784   4.473   4.676  13.297  1.0685  0.8028 -1.7309
   8123SM   C3F10785   4.623   4.542  13.393 -0.9628  0.2634  0.1407
   8123SM   H3F10786   4.722   4.589  13.372  0.0214 -1.1266  1.4613
   8123SM   H3G10787   4.642   4.433  13.386  0.5368  0.5765 -1.4553
   8123SM   C4F10788   4.581   4.566  13.539  1.2488  0.2950  0.0192
   8123SM   H4F10789   4.484   4.512  13.548  1.9109 -0.6959  1.5886
   8123SM   H4G10790   4.557   4.673  13.561 -0.3110 -0.1585  0.7031
   8123SM   C5F10791   4.683   4.511  13.639  0.2394  0.6241 -0.2531
   8123SM   H5F10792   4.783   4.547  13.608  1.3870 -0.9170  1.4371
   8123SM   H5G10793   4.688   4.401  13.629  0.7481  0.8436 -3.1108
   8123SM   C6F10794   4.637   4.536  13.783  0.0303  0.4839 -0.1951
   8123SM   H6F10795   4.610   4.643  13.795 -0.6954  0.1351  1.5435
   8123SM   H6G10796   4.721   4.507  13.849 -0.1062  0.7796  0.1126
   8123SM   C7F10797   4.518   4.450  13.822 -0.1706  0.2372 -0.5307
   8123SM   H7F10798   4.539   4.342  13.810 -1.4270  0.1775 -2.7565
   8123SM   H7G10799   4.431   4.464  13.754  0.5688  0.7603 -1.3838
   8123SM   C8F10800   4.481   4.489  13.967  0.1675  0.4546  0.0044
   8123SM   H8F10801   4.408   4.572  13.963 -0.2380  0.1201  0.3326
   8123SM   H8G10802   4.573   4.527  14.015  0.1280  1.6090 -0.8044
   8123SM   C9F10803   4.440   4.357  14.032 -0.8079  0.4231 -0.8377
   8123SM   H9F10804   4.532   4.300  14.058  1.4550  3.2045 -2.1803
   8123SM   H9G10805   4.364   4.302  13.972 -1.0573  0.7761 -0.8463
   8123SM  C10F10806   4.368   4.377  14.163 -0.5103 -0.2274  0.1027
   8123SM  H10F10807   4.436   4.436  14.229 -2.0072  2.3455 -0.5556
   8123SM  H10G10808   4.347   4.279  14.213 -0.7113  0.2620  0.9994
   8123SM  C11F10809   4.238   4.463  14.156 -0.1623  0.5201  0.1546
   8123SM  H11F10810   4.193   4.439  14.058 -1.7576 -0.7383  1.1401
   8123SM  H11G10811   4.266   4.571  14.155 -1.8310  0.9919  0.0546
   8123SM  C12F10812   4.141   4.437  14.270  0.3247 -0.5707  0.5002
   8123SM  H12F10813   4.143   4.336  14.315 -3.1538 -0.1050  2.0311
   8123SM  H12G10814   4.036   4.458  14.239  0.9161  0.0788 -1.1240
   8123SM  C13F10815   4.156   4.550  14.378  0.7185 -0.0905  0.6443
   8123SM  H13F10816   4.158   4.652  14.334 -3.4591 -0.8073 -1.6692
   8123SM  H13G10817   4.261   4.537  14.414  1.5908  0.7043 -1.4508
   8123SM  C14F10818   4.061   4.543  14.491 -0.0829  0.0464  0.2338
   8123SM  H14F10819   4.091   4.458  14.555 -0.7863  0.2246  0.8030
   8123SM  H14G10820   3.957   4.535  14.452  0.5120 -1.2752 -1.2161
   8123SM  C15F10821   4.068   4.667  14.582 -0.3529  0.0007  0.3536
   8123SM  H15F10822   4.012   4.758  14.550  0.8739 -0.1947 -2.6955
   8123SM  H15G10823   4.176   4.694  14.588  0.0013 -1.6198  2.6233
   8123SM  C16F10824   4.009   4.638  14.725 -0.2214  0.3698 -0.1755
   8123SM  H16F10825   4.062   4.547  14.759 -1.6524  0.3530  2.2683
   8123SM  H16G10826   3.905   4.599  14.714  0.6758 -2.6874  1.1820
   8123SM  C17F10827   4.015   4.752  14.826 -0.3742 -1.2391  0.1856
   8123SM  H17F10828   3.950   4.831  14.783  0.6758 -1.3438 -1.7212
   8123SM  H17G10829   4.120   4.790  14.831 -0.9993  1.7574 -3.8846
   8123SM  C18F10830   3.958   4.722  14.961  0.6341 -0.3998 -0.0608
   8123SM  H18F10831   4.033   4.658  15.012  0.6750 -1.2945 -1.1809
   8123SM  H18G10832   3.859   4.671  14.960  0.7360 -0.7361  1.9993
   8123SM  C19F10833   3.946   4.845  15.047 -0.2571  0.3614  0.1341
   8123SM  H19F10834   3.941   4.929  14.974  2.1965 -0.6435 -1.3182
   8123SM  H19G10835   4.046   4.854  15.095  0.1338  1.9708 -0.8855
   8123SM  C20F10836   3.836   4.853  15.162 -0.9872  0.2714 -0.3910
   8123SM  H20F10837   3.814   4.766  15.228 -0.4631  0.8172  0.5220
   8123SM  H20G10838   3.746   4.877  15.101 -0.2544  2.5176 -0.6772
   8123SM  C21F10839   3.873   4.970  15.257  0.7713  0.5842 -0.0261
   8123SM  H21F10840   3.896   5.060  15.196  0.6951  0.7904  0.2437
   8123SM  H21G10841   3.965   4.945  15.315  0.3750  1.3282  0.9657
   8123SM  C22F10842   3.760   4.996  15.369  0.4203 -0.4633 -0.1064
   8123SM  H22F10843   3.751   4.908  15.436  1.4102 -0.3631  0.1768
   8123SM  H22G10844   3.664   5.000  15.313 -1.3243  0.7424  2.7482
   8123SM  C23F10845   3.779   5.125  15.452 -0.7681  0.0712  0.2197
   8123SM  H23F10846   3.887   5.136  15.474 -1.0275  3.4285  0.2888
   8123SM  H23G10847   3.744   5.118  15.558  0.5989  2.1325  0.8703
   8123SM  H23H10848   3.737   5.217  15.407 -2.3355 -0.3972  0.6311
   8223SM     N10849   6.284   5.068  11.648 -0.2025 -0.4297 -0.2575
   8223SM   C1510850   6.251   5.196  11.578  0.0499  0.1970 -0.0703
   8223SM  H15A10851   6.278   5.189  11.474  1.1879  2.1042  0.0652
   8223SM  H15B10852   6.300   5.272  11.636 -1.4500  0.6186  0.6744
   8223SM  H15C10853   6.146   5.219  11.592 -0.0644 -1.0731  1.5748
   8223SM   C1410854   6.222   4.969  11.551  0.2160  0.1651 -0.1456
   8223SM  H14A10855   6.217   4.872  11.599 -0.0574  0.3502  0.2091
   8223SM  H14B10856   6.280   4.961  11.460 -0.2909 -0.5493 -0.4240
   8223SM  H14C10857   6.121   4.997  11.523  0.4991  0.8081 -0.5361
   8223SM   C1310858   6.430   5.048  11.657  0.2296 -0.4953 -1.0277
   8223SM  H13A10859   6.453   4.952  11.700  3.1913  0.4018 -0.3676
   8223SM  H13B10860   6.479   5.118  11.724 -1.0106  1.5726 -2.1884
   8223SM  H13C10861   6.474   5.053  11.559  1.7563 -0.0543 -0.3620
   8223SM   C1210862   6.219   5.065  11.787  0.1615 -0.1943 -0.1367
   8223SM  H12A10863   6.115   5.090  11.781  0.4095  0.8903 -0.1463
   8223SM  H12B10864   6.269   5.139  11.848 -1.0658 -1.7820  3.0299
   8223SM   C1110865   6.226   4.933  11.869 -0.1814 -0.0878  0.4327
   8223SM  H11A10866   6.195   4.961  11.972  0.3918 -0.5757  0.7405
   8223SM  H11B10867   6.328   4.891  11.865  0.1082  0.6451 -2.8097
   8223SM     P10868   5.986   4.813  11.821 -0.1275 -0.1513  0.1244
   8223SM   O1310869   5.937   4.881  11.697  0.1304 -0.1616  0.0451
   8223SM   O1410870   5.934   4.669  11.841 -0.5746 -0.1907 -0.1959
   8223SM   O1110871   5.955   4.903  11.945 -0.5807  0.5493  0.1064
   8223SM   O1210872   6.144   4.825  11.810  0.5362 -0.3138 -0.0762
   8223SM   C1S10873   5.926   4.850  12.072  0.7139  0.3860 -0.8494
   8223SM   H1S10874   5.970   4.750  12.093 -0.7023  0.2026  1.5990
   8223SM   H1T10875   5.816   4.834  12.082  0.8115  0.2157  0.0254
   8223SM    NF10876   5.936   4.879  12.318 -0.2701  0.4759 -0.0016
   8223SM   HNF10877   5.852   4.912  12.359  0.2700 -0.5847  2.0997
   8223SM   C2S10878   5.966   4.941  12.195 -0.3209  0.1758 -0.1582
   8223SM   H2S10879   6.076   4.949  12.196 -0.3968  1.3012 -0.4766
   8223SM   C3S10880   5.916   5.094  12.183  0.3164  0.8175  0.0289
   8223SM   H3S10881   5.806   5.091  12.200  0.4443  0.5090  0.8267
   8223SM    O310882   5.947   5.151  12.052  0.1830  0.1213  0.3017
   8223SM   HO310883   5.948   5.068  12.003 -0.4636 -0.8844  1.9036
   8223SM   C4S10884   5.985   5.169  12.291 -0.5465 -0.3697  0.1834
   8223SM   H4S10885   5.931   5.203  12.381  1.8344  1.2320  1.1063
   8223SM   C5S10886   6.123   5.195  12.300 -0.1751 -0.1669 -0.4075
   8223SM   H5S10887   6.199   5.158  12.230 -0.6365 -0.9883 -0.4931
   8223SM   C6S10888   6.187   5.254  12.426 -0.2879 -1.3347 -0.4372
   8223SM   H6S10889   6.174   5.364  12.430  2.3151 -0.9631 -0.4998
   8223SM   H6T10890   6.297   5.246  12.416 -0.1870  0.1463 -0.7212
   8223SM   C7S10891   6.145   5.185  12.555 -0.1244 -0.0105 -0.9827
   8223SM   H7S10892   6.150   5.074  12.543  1.2068 -0.2964  1.5789
   8223SM   H7T10893   6.043   5.211  12.591  0.5718  1.7516 -0.1535
   8223SM   C8S10894   6.240   5.207  12.674 -0.4217  0.0606  0.2233
   8223SM   H8S10895   6.256   5.313  12.704  0.2348 -0.5129  1.9955
   8223SM   H8T10896   6.339   5.162  12.650 -0.4728  0.0072  0.1116
   8223SM   C9S10897   6.197   5.157  12.810  0.0616  0.2962  0.5997
   8223SM   H9S10898   6.171   5.049  12.799  2.7742 -0.2028 -2.1351
   8223SM   H9T10899   6.101   5.208  12.832 -0.0178  0.0663  0.7899
   8223SM  C10S10900   6.293   5.184  12.930 -0.0741  0.3506 -0.4428
   8223SM  H10S10901   6.317   5.292  12.939  2.4027 -0.1733  0.1680
   8223SM  H10T10902   6.385   5.126  12.908 -0.3726 -0.0734 -0.5879
   8223SM  C11S10903   6.234   5.123  13.065  0.5504 -0.0855  0.1478
   8223SM  H11S10904   6.192   5.023  13.043 -0.9857  0.7752 -1.0333
   8223SM  H11T10905   6.144   5.168  13.111 -0.3617 -2.3419  0.6952
   8223SM  C12S10906   6.349   5.121  13.176  0.0542  0.0530 -0.0669
   8223SM  H12S10907   6.406   5.216  13.167 -0.5973  0.6937  1.9580
   8223SM  H12T10908   6.420   5.042  13.146 -0.9902 -1.1955  0.6525
   8223SM  C13S10909   6.290   5.111  13.319  0.1359  0.1398  0.4239
   8223SM  H13S10910   6.239   5.013  13.332  1.7936 -0.9826 -0.9592
   8223SM  H13T10911   6.212   5.190  13.329  0.5594  0.7435 -0.8145
   8223SM  C14S10912   6.381   5.134  13.438  0.1034  0.2953  0.1512
   8223SM  H14S10913   6.420   5.236  13.415 -2.0378  0.3647 -4.2829
   8223SM  H14T10914   6.468   5.067  13.422 -1.3519 -1.5641 -0.3579
   8223SM  C15S10915   6.312   5.113  13.575  0.9985 -0.0985  0.1234
   8223SM  H15S10916   6.249   5.022  13.574 -1.2863  1.3810  0.2929
   8223SM  H15T10917   6.235   5.190  13.600 -1.5245 -3.1448  2.5722
   8223SM  C16S10918   6.407   5.085  13.693  0.0564 -0.4624 -0.2194
   8223SM  H16S10919   6.473   5.174  13.692  1.0569 -1.1727  0.5359
   8223SM  H16T10920   6.475   5.000  13.670 -0.0728 -0.4954 -0.4784
   8223SM  C17S10921   6.342   5.058  13.832  0.4341 -0.2353 -0.6551
   8223SM  H17S10922   6.300   4.955  13.839  0.4910 -0.1974  0.3156
   8223SM  H17T10923   6.267   5.138  13.846  1.2008  0.1324  1.6440
   8223SM  C18S10924   6.450   5.056  13.939  0.0859  0.0776 -0.3485
   8223SM  H18S10925   6.505   5.153  13.937 -1.8204  1.2350  0.6880
   8223SM  H18T10926   6.522   4.973  13.918  0.0815 -0.0806  0.2169
   8223SM  H18U10927   6.403   5.020  14.034 -2.1071 -1.4941 -1.9389
   8223SM   C1F10928   5.989   4.770  12.372 -0.3406 -0.2553 -1.1301
   8223SM    OF10929   6.082   4.713  12.314  0.3318  0.2787  0.4345
   8223SM   C2F10930   5.940   4.721  12.505  0.0829  0.1437  0.2536
   8223SM   H2F10931   6.018   4.651  12.541 -0.0197 -0.3229 -0.4148
   8223SM   H2G10932   5.850   4.657  12.490  1.2393 -1.2869 -0.8352
   8223SM   C3F10933   5.929   4.824  12.616 -0.5413 -0.6801  0.6730
   8223SM   H3F10934   5.855   4.901  12.584  2.3619  1.4117 -1.5655
   8223SM   H3G10935   6.031   4.868  12.621  0.5441 -2.2000 -3.3606
   8223SM   C4F10936   5.880   4.768  12.741  0.4999  0.2620  0.4984
   8223SM   H4F10937   5.842   4.665  12.721 -1.4010  1.1268 -0.6799
   8223SM   H4G10938   5.793   4.827  12.779  0.5842 -0.4352  1.8575
   8223SM   C5F10939   5.980   4.760  12.854 -0.3788 -0.5257  0.5493
   8223SM   H5F10940   6.028   4.858  12.875 -0.1433 -0.3391 -0.8011
   8223SM   H5G10941   6.061   4.696  12.812 -0.4964  0.2232 -0.8603
   8223SM   C6F10942   5.915   4.704  12.977  0.3341  0.0285  0.8481
   8223SM   H6F10943   5.848   4.621  12.945  2.1415 -0.9528 -0.5717
   8223SM   H6G10944   5.836   4.767  13.024 -0.7188 -1.2417  0.8336
   8223SM   C7F10945   6.000   4.665  13.089  0.3820 -0.6748 -0.9257
   8223SM   H7F10946   6.059   4.748  13.133 -0.8637 -1.3974  2.4895
   8223SM   H7G10947   6.064   4.578  13.062 -0.4253 -1.3911 -0.5728
   8223SM   C8F10948   5.916   4.616  13.210  0.1664 -0.0250 -0.0519
   8223SM   H8F10949   5.869   4.517  13.190  2.6080 -1.6287  1.6600
   8223SM   H8G10950   5.837   4.688  13.239  0.5161  1.1222 -1.7897
   8223SM   C9F10951   6.003   4.589  13.337 -0.0796 -0.0333  0.9357
   8223SM   H9F10952   6.062   4.681  13.360 -0.4990  0.2540  0.8831
   8223SM   H9G10953   6.072   4.508  13.304 -0.4455 -0.1462  0.4360
   8223SM  C10F10954   5.921   4.558  13.467 -0.1933  0.6358  0.0429
   8223SM  H10F10955   5.869   4.461  13.451  1.0064  0.0345 -0.4182
   8223SM  H10G10956   5.851   4.642  13.484  0.6150  1.9166 -2.4667
   8223SM  C11F10957   6.019   4.539  13.590  0.5228  0.2510  0.7437
   8223SM  H11F10958   6.062   4.636  13.623  0.3883  0.4551  0.3273
   8223SM  H11G10959   6.105   4.481  13.550  0.1891  0.7187 -0.7301
   8223SM  C12F10960   5.950   4.468  13.715  0.2270 -0.1707  0.0054
   8223SM  H12F10961   6.032   4.399  13.745 -0.2293  0.3490  2.6521
   8223SM  H12G10962   5.868   4.406  13.672  1.5241 -2.0928  0.1718
   8223SM  C13F10963   5.899   4.559  13.822 -0.2394  0.3496 -0.1248
   8223SM  H13F10964   5.837   4.638  13.774 -2.3335 -0.1712  1.5626
   8223SM  H13G10965   5.973   4.623  13.874 -1.9372  1.7810  0.6477
   8223SM  C14F10966   5.816   4.487  13.929 -0.5977  0.0219 -0.3657
   8223SM  H14F10967   5.731   4.440  13.875 -1.4023 -0.2405  1.0888
   8223SM  H14G10968   5.780   4.562  14.002 -0.4410  1.6002 -1.8574
   8223SM  C15F10969   5.897   4.378  14.006  0.0543 -0.1372  0.3975
   8223SM  H15F10970   5.993   4.412  14.051  0.8065 -0.2689 -1.0290
   8223SM  H15G10971   5.913   4.308  13.921 -2.2620  1.1372 -1.2136
   8223SM  C16F10972   5.808   4.328  14.120  0.1535 -0.3552 -0.3949
   8223SM  H16F10973   5.733   4.259  14.075  0.6631 -1.7950  0.8679
   8223SM  H16G10974   5.771   4.409  14.186  0.4942 -1.3734  1.1101
   8223SM  C17F10975   5.883   4.229  14.219 -0.1130  0.0084 -0.0114
   8223SM  H17F10976   5.975   4.276  14.259 -1.4007  0.3881  2.7207
   8223SM  H17G10977   5.911   4.140  14.157  0.8204  0.6363 -0.5164
   8223SM  C18F10978   5.794   4.185  14.339 -0.4348 -0.0008  0.3645
   8223SM  H18F10979   5.708   4.157  14.275  1.0821 -1.9629 -0.9771
   8223SM  H18G10980   5.757   4.270  14.399 -0.0351 -0.0537  0.6957
   8223SM  C19F10981   5.858   4.068  14.423 -0.1008 -0.5769 -0.1310
   8223SM  H19F10982   5.919   3.995  14.367  2.1827  0.8358  0.3867
   8223SM  H19G10983   5.772   4.009  14.461 -0.6279  0.0760 -0.2937
   8223SM  C20F10984   5.941   4.127  14.542  0.4390 -0.2342 -0.4763
   8223SM  H20F10985   5.887   4.212  14.590  0.8196 -0.6897  0.7845
   8223SM  H20G10986   6.036   4.158  14.494  1.5116 -2.1402  0.3183
   8223SM  C21F10987   5.987   4.028  14.643 -0.5830 -0.2522 -0.2553
   8223SM  H21F10988   6.047   3.943  14.601 -0.3670 -0.6063  0.7389
   8223SM  H21G10989   5.900   3.981  14.694 -1.1486  0.7721 -0.2714
   8223SM  C22F10990   6.064   4.094  14.751  0.4210  0.4770 -0.2097
   8223SM  H22F10991   6.001   4.173  14.797  2.3574  0.6887  2.3141
   8223SM  H22G10992   6.158   4.141  14.715  2.4751 -1.6143  1.9950
   8223SM  C23F10993   6.108   3.998  14.863 -0.0746 -0.0419  0.6099
   8223SM  H23F10994   6.143   4.052  14.953  0.8694 -1.4448  1.1368
   8223SM  H23G10995   6.197   3.938  14.834  0.3362  0.2705  1.2144
   8223SM  H23H10996   6.023   3.939  14.903 -0.0415  0.7082  1.8167
   8323SM     N10997   6.331   4.516  11.778 -0.5017 -0.3194  0.3016
   8323SM   C1510998   6.435   4.541  11.883  0.1895 -0.1604 -0.0694
   8323SM  H15A10999   6.422   4.640  11.923  1.3802  0.5046 -1.2550
   8323SM  H15B11000   6.533   4.549  11.837  0.5644 -2.4307  0.2153
   8323SM  H15C11001   6.441   4.468  11.963  0.1099 -1.8575 -1.5686
   8323SM   C1411002   6.369   4.397  11.692  0.3053  0.3417 -0.2599
   8323SM  H14A11003   6.471   4.391  11.657  0.7663 -0.6411  1.1604
   8323SM  H14B11004   6.304   4.388  11.606  0.2467  1.3415 -0.3346
   8323SM  H14C11005   6.378   4.309  11.754 -0.3358 -0.1971 -0.9082
   8323SM   C1311006   6.203   4.489  11.848  0.4532 -0.3420 -0.5164
   8323SM  H13A11007   6.116   4.455  11.793  1.0575 -1.0211 -1.0743
   8323SM  H13B11008   6.168   4.569  11.912 -3.1665 -1.1793 -1.2180
   8323SM  H13C11009   6.207   4.404  11.914 -1.9921 -0.3120 -0.2507
   8323SM   C1211010   6.316   4.636  11.678 -0.3028  0.2148 -0.0211
   8323SM  H12A11011   6.296   4.726  11.733  2.2826 -0.1554  1.7155
   8323SM  H12B11012   6.225   4.616  11.623 -1.3009 -2.5573  2.3619
   8323SM   C1111013   6.429   4.682  11.598  0.5100  0.2877 -0.7266
   8323SM  H11A11014   6.404   4.761  11.524  0.3617  1.5733  0.6439
   8323SM  H11B11015   6.474   4.595  11.546  2.3577  0.3904  0.5935
   8323SM     P11016   6.676   4.728  11.698 -0.0808  0.3543 -0.3538
   8323SM   O1311017   6.707   4.616  11.786 -0.0465  0.2991 -0.2131
   8323SM   O1411018   6.724   4.722  11.563 -0.4399  0.0958  0.6844
   8323SM   O1111019   6.728   4.859  11.764 -0.1738  0.3776 -0.1049
   8323SM   O1211020   6.521   4.735  11.689  0.1159 -0.2372 -0.1468
   8323SM   C1S11021   6.665   4.925  11.878  0.4223 -0.2998 -0.4964
   8323SM   H1S11022   6.554   4.919  11.871  0.3523  0.7428 -0.4625
   8323SM   H1T11023   6.697   5.031  11.871  1.8941 -0.6406  0.5660
   8323SM    NF11024   6.614   4.893  12.118  0.0857  0.3308  0.1976
   8323SM   HNF11025   6.653   4.947  12.192 -0.8779 -1.0159  1.7648
   8323SM   C2S11026   6.697   4.848  12.010 -0.1110 -0.3297 -0.1767
   8323SM   H2S11027   6.680   4.740  11.990 -1.7601 -0.3612  1.2042
   8323SM   C3S11028   6.849   4.862  12.037  0.2609  0.1148  0.5225
   8323SM   H3S11029   6.879   4.969  12.040 -0.3772  0.4205 -1.6765
   8323SM    O311030   6.934   4.809  11.934 -0.7603 -0.1535  0.1722
   8323SM   HO311031   6.871   4.794  11.863 -1.7227  0.4618  0.8582
   8323SM   C4S11032   6.890   4.804  12.169  1.1944 -0.9546 -0.3071
   8323SM   H4S11033   6.894   4.874  12.253  0.3399  2.7554 -3.1040
   8323SM   C5S11034   6.923   4.678  12.190  0.1479 -0.1988 -0.2304
   8323SM   H5S11035   6.943   4.606  12.109 -1.2721  0.1984 -0.9482
   8323SM   C6S11036   6.962   4.634  12.325 -0.5220 -0.1184 -0.1656
   8323SM   H6S11037   7.072   4.628  12.333 -0.5748  0.4217  1.4768
   8323SM   H6T11038   6.931   4.527  12.332 -0.3633 -0.1598 -0.1064
   8323SM   C7S11039   6.911   4.702  12.450 -0.1233  1.3486  0.0915
   8323SM   H7S11040   6.805   4.732  12.433 -0.5007 -0.8815 -1.9762
   8323SM   H7T11041   6.972   4.794  12.457  1.8471  0.1840 -0.9740
   8323SM   C8S11042   6.925   4.621  12.579  0.8235 -0.5706  0.6668
   8323SM   H8S11043   7.030   4.600  12.608  0.2730  0.4080  3.6199
   8323SM   H8T11044   6.866   4.527  12.568 -0.2380 -0.0288  1.6402
   8323SM   C9S11045   6.857   4.697  12.696  0.4069  0.3659  0.5460
   8323SM   H9S11046   6.751   4.720  12.669  0.5301  2.1725  1.4834
   8323SM   H9T11047   6.907   4.796  12.689  1.2912  0.1868  3.1847
   8323SM  C10S11048   6.852   4.624  12.831 -0.6412  0.5006 -0.8782
   8323SM  H10S11049   6.953   4.592  12.865 -1.7778 -3.2334 -0.6004
   8323SM  H10T11050   6.783   4.537  12.827 -0.5631  0.1883  2.1112
   8323SM  C11S11051   6.797   4.719  12.940 -0.2890 -0.3581 -1.0143
   8323SM  H11S11052   6.703   4.759  12.897  0.9077  1.0381 -2.4557
   8323SM  H11T11053   6.860   4.810  12.950  1.0340 -1.5061  3.0449
   8323SM  C12S11054   6.793   4.648  13.071  0.2497 -0.4578  0.5045
   8323SM  H12S11055   6.880   4.581  13.088 -0.2126 -0.5681  2.7231
   8323SM  H12T11056   6.700   4.588  13.067  0.5041 -0.8012 -0.9518
   8323SM  C13S11057   6.783   4.735  13.199  0.1325  0.0571 -0.0802
   8323SM  H13S11058   6.693   4.799  13.188 -0.8004 -1.3706 -1.0045
   8323SM  H13T11059   6.871   4.802  13.187 -0.3704  0.7917  0.2245
   8323SM  C14S11060   6.788   4.678  13.343  0.1924 -0.3794  0.6438
   8323SM  H14S11061   6.879   4.618  13.359  2.0053  1.8591 -0.6889
   8323SM  H14T11062   6.704   4.608  13.361 -1.2010  1.1556  0.3979
   8323SM  C15S11063   6.796   4.781  13.452  0.4295 -0.1968 -0.0614
   8323SM  H15S11064   6.715   4.855  13.437  0.5479  0.5322  2.3677
   8323SM  H15T11065   6.889   4.840  13.441  0.5047  0.2870  2.5039
   8323SM  C16S11066   6.792   4.707  13.587  0.2913 -0.2636 -0.4021
   8323SM  H16S11067   6.869   4.627  13.591  0.9662  0.3879 -0.1824
   8323SM  H16T11068   6.697   4.650  13.598 -0.3456  1.1085  1.8139
   8323SM  C17S11069   6.791   4.806  13.706  0.1313 -0.5831  0.5165
   8323SM  H17S11070   6.700   4.869  13.714  1.2726  1.2508 -0.1586
   8323SM  H17T11071   6.879   4.873  13.698  0.7835 -1.3203  1.2987
   8323SM  C18S11072   6.814   4.733  13.843  1.1615 -0.1321 -0.0785
   8323SM  H18S11073   6.883   4.648  13.829  1.1296 -0.0190 -0.9986
   8323SM  H18T11074   6.723   4.680  13.876  2.3918 -1.0278  2.1125
   8323SM  H18U11075   6.840   4.812  13.917  0.3156 -1.1243  1.3206
   8323SM   C1F11076   6.482   4.874  12.131  0.4714  0.7095 -0.3854
   8323SM    OF11077   6.430   4.787  12.064  0.0631  0.2312  0.0050
   8323SM   C2F11078   6.407   4.937  12.247 -0.6319 -0.6292  0.1659
   8323SM   H2F11079   6.301   4.958  12.224 -0.6333  0.1895  0.8704
   8323SM   H2G11080   6.460   5.026  12.288  3.0648 -3.4205  2.1345
   8323SM   C3F11081   6.413   4.833  12.359 -0.2623  0.6802  0.2710
   8323SM   H3F11082   6.520   4.813  12.379 -0.2129  1.0358  0.3639
   8323SM   H3G11083   6.363   4.737  12.332  2.3687 -0.2685 -1.7663
   8323SM   C4F11084   6.343   4.873  12.485  0.2334 -0.8976 -0.4338
   8323SM   H4F11085   6.245   4.912  12.450  1.2775  1.9905 -0.3434
   8323SM   H4G11086   6.396   4.956  12.536 -0.1428 -1.4279  0.8502
   8323SM   C5F11087   6.339   4.758  12.583 -0.6243 -0.3994 -0.1154
   8323SM   H5F11088   6.428   4.694  12.567  0.7059  1.2430  0.4098
   8323SM   H5G11089   6.241   4.709  12.562  0.9848 -3.1975 -1.7357
   8323SM   C6F11090   6.350   4.811  12.725 -0.4728 -0.3922 -0.4258
   8323SM   H6F11091   6.265   4.881  12.742 -1.0318 -1.0155 -0.6358
   8323SM   H6G11092   6.435   4.883  12.736 -1.2983  0.6414 -0.6001
   8323SM   C7F11093   6.363   4.704  12.837 -0.2072 -0.1342  0.9097
   8323SM   H7F11094   6.466   4.663  12.831 -0.6478 -1.1008 -2.9456
   8323SM   H7G11095   6.290   4.622  12.820  1.9147 -2.0921  0.7821
   8323SM   C8F11096   6.338   4.761  12.980 -0.4553  0.3130  0.8695
   8323SM   H8F11097   6.236   4.805  12.980  0.2511  2.0254  0.1116
   8323SM   H8G11098   6.408   4.845  12.997  2.4025 -1.5375 -0.8068
   8323SM   C9F11099   6.357   4.664  13.096 -0.3294  0.2301 -0.1901
   8323SM   H9F11100   6.457   4.615  13.098 -1.0510 -1.2951 -0.0109
   8323SM   H9G11101   6.272   4.593  13.092  0.4993 -0.8726  0.8028
   8323SM  C10F11102   6.357   4.734  13.228 -0.7502 -0.3470  0.3164
   8323SM  H10F11103   6.260   4.786  13.244 -1.1932 -1.7182  2.5078
   8323SM  H10G11104   6.431   4.816  13.228  0.6363 -1.5567 -0.4810
   8323SM  C11F11105   6.382   4.640  13.348 -0.2297 -0.5162 -1.0775
   8323SM  H11F11106   6.487   4.603  13.349  0.2877  0.7689  1.7186
   8323SM  H11G11107   6.307   4.558  13.338  0.7235 -1.5151 -0.2657
   8323SM  C12F11108   6.357   4.719  13.480 -1.4687  0.5241  0.4893
   8323SM  H12F11109   6.251   4.751  13.484 -2.2778 -1.9162  0.0669
   8323SM  H12G11110   6.422   4.809  13.480  2.8704 -2.2635  0.8496
   8323SM  C13F11111   6.388   4.627  13.597 -0.0929 -0.5912  0.3923
   8323SM  H13F11112   6.494   4.594  13.586  0.2282  0.7151 -0.5675
   8323SM  H13G11113   6.339   4.531  13.571 -0.0208 -0.9278  1.4603
   8323SM  C14F11114   6.367   4.693  13.732  0.2362 -0.5030 -0.0779
   8323SM  H14F11115   6.271   4.748  13.742 -0.3670 -1.7169  1.1087
   8323SM  H14G11116   6.454   4.760  13.751 -0.3324 -0.3289  2.1710
   8323SM  C15F11117   6.382   4.588  13.842  0.2904  0.1189 -0.0580
   8323SM  H15F11118   6.491   4.562  13.840  0.1968 -0.2583 -1.0728
   8323SM  H15G11119   6.329   4.493  13.821 -0.8038  0.4478  1.1553
   8323SM  C16F11120   6.338   4.640  13.976 -0.6491 -0.0464  0.3572
   8323SM  H16F11121   6.228   4.654  13.968 -0.4816  0.3476 -2.8694
   8323SM  H16G11122   6.372   4.741  14.007 -0.4481 -0.0812  0.2518
   8323SM  C17F11123   6.357   4.541  14.090 -0.1220 -0.8892  0.4075
   8323SM  H17F11124   6.464   4.512  14.099 -0.4135 -1.9504  0.5143
   8323SM  H17G11125   6.292   4.454  14.068 -0.0620 -1.2984  1.7622
   8323SM  C18F11126   6.322   4.595  14.225 -0.4672  0.2211 -0.1723
   8323SM  H18F11127   6.333   4.508  14.294 -2.8158 -0.0305 -0.0242
   8323SM  H18G11128   6.211   4.607  14.228 -0.4173  0.5663  1.1656
   8323SM  C19F11129   6.419   4.698  14.277 -0.0691  0.4977 -0.6726
   8323SM  H19F11130   6.396   4.791  14.221  0.3412  2.0043  1.5372
   8323SM  H19G11131   6.524   4.672  14.249 -0.3647 -1.7378  0.0362
   8323SM  C20F11132   6.409   4.731  14.421  0.1401 -0.4800 -0.1947
   8323SM  H20F11133   6.479   4.811  14.453  1.1361 -1.3248 -0.2069
   8323SM  H20G11134   6.430   4.642  14.484  1.7637  0.0418  0.0584
   8323SM  C21F11135   6.267   4.789  14.448 -0.5803  0.1174 -0.5859
   8323SM  H21F11136   6.192   4.715  14.412  2.2525 -3.3862  0.1067
   8323SM  H21G11137   6.238   4.879  14.390 -2.4219 -1.3628 -2.0923
   8323SM  C22F11138   6.230   4.824  14.595  0.0754  0.9464 -0.4048
   8323SM  H22F11139   6.125   4.861  14.599 -0.0526  0.4816  1.4055
   8323SM  H22G11140   6.291   4.913  14.624  0.6171 -0.2603  2.5594
   8323SM  C23F11141   6.256   4.710  14.692 -0.2913  0.6781  0.2608
   8323SM  H23F11142   6.188   4.623  14.675  0.9118 -0.3893  0.7266
   8323SM  H23G11143   6.239   4.745  14.796 -0.0700  0.2618  0.4416
   8323SM  H23H11144   6.360   4.672  14.684 -0.9815 -1.4151  0.4401
   8423SM     N11145   4.876   2.344  11.549 -0.5276 -0.0662 -0.7950
   8423SM   C1511146   4.800   2.473  11.523  0.1746  0.1653 -0.3643
   8423SM  H15A11147   4.803   2.490  11.416 -1.0011 -2.4093 -0.8890
   8423SM  H15B11148   4.843   2.556  11.577 -0.2097  0.5867 -0.6927
   8423SM  H15C11149   4.697   2.469  11.554  0.7894  1.5150  2.1162
   8423SM   C1411150   4.805   2.234  11.476  0.6933  0.0850  1.3333
   8423SM  H14A11151   4.874   2.151  11.486  1.0678  0.5382  2.6884
   8423SM  H14B11152   4.795   2.263  11.372 -0.3204  1.8830  1.8797
   8423SM  H14C11153   4.709   2.208  11.520  1.7895 -1.4790  2.9657
   8423SM   C1311154   5.013   2.366  11.507 -0.3982  0.5430  0.7403
   8423SM  H13A11155   5.031   2.376  11.401  0.7318 -0.5024  0.8078
   8423SM  H13B11156   5.083   2.288  11.533 -1.5802 -0.9494 -0.3479
   8423SM  H13C11157   5.049   2.457  11.553 -1.0963  0.1688  2.1035
   8423SM   C1211158   4.872   2.321  11.704  0.3141  0.4989  0.1146
   8423SM  H12A11159   4.938   2.391  11.752 -0.2872 -0.0422  1.8246
   8423SM  H12B11160   4.896   2.219  11.730 -1.1208  0.3649  1.0664
   8423SM   C1111161   4.736   2.338  11.779  0.4607 -0.6217 -0.2167
   8423SM  H11A11162   4.750   2.292  11.879  0.5546  0.8392  0.4602
   8423SM  H11B11163   4.662   2.277  11.724  0.1925  0.0697 -0.6301
   8423SM     P11164   4.721   2.596  11.870  0.0795  0.1342  0.0792
   8423SM   O1311165   4.850   2.649  11.822 -0.5938 -0.0810 -0.0362
   8423SM   O1411166   4.609   2.691  11.885 -0.1525 -0.2960 -0.0278
   8423SM   O1111167   4.749   2.529  12.007 -0.1716  0.1705 -0.6970
   8423SM   O1211168   4.685   2.471  11.775  0.6229 -0.3625  0.0043
   8423SM   C1S11169   4.639   2.484  12.088 -0.0263  0.4769  0.7541
   8423SM   H1S11170   4.588   2.401  12.034  1.1018 -1.0994  1.9732
   8423SM   H1T11171   4.565   2.565  12.098 -1.6574 -0.5775 -1.8066
   8423SM    NF11172   4.574   2.323  12.274  0.0461 -0.9198 -0.6780
   8423SM   HNF11173   4.525   2.361  12.351  0.4628  0.1005 -0.8955
   8423SM   C2S11174   4.681   2.416  12.223 -0.0737 -0.2568 -0.0945
   8423SM   H2S11175   4.768   2.351  12.202 -1.0475 -2.0801  1.1593
   8423SM   C3S11176   4.735   2.525  12.331  0.2015  0.4515  0.0095
   8423SM   H3S11177   4.640   2.574  12.361 -0.2558  1.7126 -3.1924
   8423SM    O311178   4.814   2.633  12.275 -0.1635  0.0489 -0.5643
   8423SM   HO311179   4.798   2.621  12.181  0.3055 -1.9821 -0.4250
   8423SM   C4S11180   4.800   2.468  12.445 -0.7466  0.8038  0.5615
   8423SM   H4S11181   4.894   2.415  12.424 -1.8467 -2.3889  2.8346
   8423SM   C5S11182   4.747   2.457  12.567  0.2073  0.1405 -0.1516
   8423SM   H5S11183   4.642   2.479  12.592 -0.4103 -3.6819  1.3025
   8423SM   C6S11184   4.809   2.368  12.670 -0.3818  0.2707 -1.3357
   8423SM   H6S11185   4.919   2.354  12.656 -0.2489 -2.8966  1.5656
   8423SM   H6T11186   4.767   2.265  12.671  1.7960 -0.7179  0.9027
   8423SM   C7S11187   4.783   2.430  12.811 -0.2606  0.5156  0.7645
   8423SM   H7S11188   4.677   2.456  12.831 -0.1954  2.0320 -0.6031
   8423SM   H7T11189   4.837   2.527  12.824  1.7204 -0.4017 -0.0659
   8423SM   C8S11190   4.839   2.336  12.922  0.2212  0.2377  0.6590
   8423SM   H8S11191   4.948   2.324  12.908  0.3598  1.2600  0.7662
   8423SM   H8T11192   4.795   2.234  12.923  0.5252  0.0940 -0.2104
   8423SM   C9S11193   4.801   2.388  13.058  0.8258 -0.2386  0.3000
   8423SM   H9S11194   4.697   2.423  13.075  0.8427 -1.0961  2.4174
   8423SM   H9T11195   4.864   2.478  13.077 -0.8402  0.6673  1.8311
   8423SM  C10S11196   4.812   2.285  13.170 -0.3636 -0.5407  0.8018
   8423SM  H10S11197   4.915   2.243  13.166  0.9152  2.3122 -2.9617
   8423SM  H10T11198   4.729   2.212  13.157 -0.5288 -0.0850 -0.9538
   8423SM  C11S11199   4.796   2.340  13.309 -0.2045 -0.3806 -0.2992
   8423SM  H11S11200   4.690   2.373  13.316  0.1878  0.9655 -0.4330
   8423SM  H11T11201   4.856   2.433  13.311 -1.0326  0.2413 -1.9914
   8423SM  C12S11202   4.826   2.245  13.421 -0.0491 -0.0720  0.9875
   8423SM  H12S11203   4.932   2.246  13.453  1.0644  2.9940 -2.1862
   8423SM  H12T11204   4.814   2.138  13.392 -1.0640 -0.4543  2.6632
   8423SM  C13S11205   4.740   2.265  13.544 -0.1628 -0.0284 -0.5465
   8423SM  H13S11206   4.637   2.230  13.520 -0.6198 -1.0974  2.4803
   8423SM  H13T11207   4.737   2.371  13.576 -0.4988 -0.0127 -0.6276
   8423SM  C14S11208   4.769   2.178  13.667  0.2748  0.3037 -0.0927
   8423SM  H14S11209   4.867   2.204  13.713 -0.0713  1.9057 -0.2102
   8423SM  H14T11210   4.786   2.080  13.618  0.0442  0.8454 -1.2726
   8423SM  C15S11211   4.661   2.166  13.774 -0.0286 -0.2032  0.1558
   8423SM  H15S11212   4.567   2.136  13.723  0.0349 -1.2526  0.6421
   8423SM  H15T11213   4.649   2.263  13.827 -1.5246 -0.5548  0.4879
   8423SM  C16S11214   4.693   2.075  13.887 -0.0976 -0.6074 -0.1754
   8423SM  H16S11215   4.701   1.974  13.843  0.9907  0.0678 -1.6130
   8423SM  H16T11216   4.612   2.082  13.963 -0.1065 -1.7521 -0.0558
   8423SM  C17S11217   4.832   2.103  13.952 -0.7860  0.1924 -1.0630
   8423SM  H17S11218   4.848   2.213  13.966 -0.9097  0.0661  0.1625
   8423SM  H17T11219   4.907   2.079  13.874 -0.3883  2.0310 -1.2946
   8423SM  C18S11220   4.860   2.022  14.082  0.4940 -0.1202  0.0152
   8423SM  H18S11221   4.945   2.071  14.134  2.6670 -2.0060 -1.5879
   8423SM  H18T11222   4.883   1.916  14.060 -0.0002 -0.4523  1.0724
   8423SM  H18U11223   4.779   2.023  14.158 -0.7248  0.8473 -1.2514
   8423SM   C1F11224   4.527   2.210  12.219  0.3646  0.1545  0.3913
   8423SM    OF11225   4.570   2.179  12.113  1.3555  0.6211  0.2671
   8423SM   C2F11226   4.419   2.137  12.299  0.3042 -0.4609  0.2440
   8423SM   H2F11227   4.345   2.106  12.221 -1.1398  2.0259  0.5136
   8423SM   H2G11228   4.355   2.202  12.362  0.6046 -0.7374  0.8408
   8423SM   C3F11229   4.465   2.013  12.374 -0.8868 -0.0392  0.4965
   8423SM   H3F11230   4.526   1.951  12.304 -2.0434  0.3935 -0.9407
   8423SM   H3G11231   4.366   1.967  12.391 -0.6615 -1.6339 -2.0306
   8423SM   C4F11232   4.531   2.030  12.508  0.2787  0.1700  0.5581
   8423SM   H4F11233   4.459   2.091  12.567  1.5276  2.1779  0.1278
   8423SM   H4G11234   4.620   2.097  12.506 -0.2191  0.8272 -0.1743
   8423SM   C5F11235   4.580   1.895  12.565  0.4636  0.0089  0.4129
   8423SM   H5F11236   4.657   1.858  12.494  1.0186 -2.7288  2.2860
   8423SM   H5G11237   4.494   1.825  12.565 -0.2543  0.8723  0.6929
   8423SM   C6F11238   4.638   1.889  12.708 -0.0270 -0.1120  0.1281
   8423SM   H6F11239   4.682   1.990  12.717 -0.0331  0.3506 -3.5507
   8423SM   H6G11240   4.712   1.809  12.729 -0.5433 -1.2199 -1.9807
   8423SM   C7F11241   4.520   1.879  12.810 -0.9234 -0.6648  0.1198
   8423SM   H7F11242   4.488   1.774  12.797 -2.7578 -0.1114 -0.0415
   8423SM   H7G11243   4.445   1.944  12.760 -3.4434 -1.6322  2.3848
   8423SM   C8F11244   4.550   1.931  12.948  0.5321 -0.3189 -0.0886
   8423SM   H8F11245   4.591   2.034  12.960 -0.5785  0.3207 -1.5325
   8423SM   H8G11246   4.629   1.859  12.979 -0.3085 -0.8548  0.8470
   8423SM   C9F11247   4.430   1.926  13.040 -0.2116 -0.8079  0.1488
   8423SM   H9F11248   4.390   1.823  13.042 -1.3066 -0.4286 -1.0797
   8423SM   H9G11249   4.350   1.990  12.998  0.4645  1.1251  1.6358
   8423SM  C10F11250   4.481   1.968  13.177 -0.0975 -0.1312 -0.8667
   8423SM  H10F11251   4.388   2.003  13.228  1.3439  0.4666  1.5391
   8423SM  H10G11252   4.547   2.057  13.172  1.4791 -1.3269 -2.0104
   8423SM  C11F11253   4.539   1.856  13.261 -0.5016  0.2295  0.5065
   8423SM  H11F11254   4.634   1.808  13.226  0.9928  2.4313  1.3536
   8423SM  H11G11255   4.464   1.773  13.259 -0.5488  0.2379  1.6422
   8423SM  C12F11256   4.535   1.876  13.419  0.7219  0.5099 -0.1775
   8423SM  H12F11257   4.436   1.919  13.447  0.3566 -0.3901 -0.0614
   8423SM  H12G11258   4.622   1.938  13.450 -0.6191  1.5527  1.6865
   8423SM  C13F11259   4.546   1.749  13.493 -0.0443 -0.2529  0.3272
   8423SM  H13F11260   4.612   1.677  13.441 -0.1051 -2.0065  2.5012
   8423SM  H13G11261   4.443   1.705  13.489 -0.7746  1.4934 -1.6524
   8423SM  C14F11262   4.601   1.745  13.639 -0.0767  0.2006 -0.2774
   8423SM  H14F11263   4.535   1.816  13.694  1.8981  2.0085 -0.0821
   8423SM  H14G11264   4.703   1.788  13.649 -0.4327  0.5261  3.3159
   8423SM  C15F11265   4.593   1.605  13.702 -0.3475 -0.0784 -0.2460
   8423SM  H15F11266   4.686   1.547  13.680 -1.0707 -0.1428 -3.7593
   8423SM  H15G11267   4.506   1.553  13.656 -0.7762 -1.2469  1.8009
   8423SM  C16F11268   4.550   1.601  13.854 -0.1306  0.0711 -0.7792
   8423SM  H16F11269   4.512   1.499  13.875 -1.3288  0.7258  0.4139
   8423SM  H16G11270   4.463   1.666  13.879 -0.6585 -1.0931  0.5139
   8423SM  C17F11271   4.675   1.619  13.939  0.8417  0.0759  0.3550
   8423SM  H17F11272   4.710   1.716  13.899  0.8131  0.0754  0.3279
   8423SM  H17G11273   4.755   1.544  13.922 -1.2769 -2.2628  0.1171
   8423SM  C18F11274   4.642   1.637  14.092 -0.0391  0.4036  0.1850
   8423SM  H18F11275   4.570   1.721  14.103 -0.1282  0.2222  1.0138
   8423SM  H18G11276   4.733   1.667  14.148 -1.1600  0.3831  2.0866
   8423SM  C19F11277   4.583   1.506  14.151 -0.0724  0.2727  0.3007
   8423SM  H19F11278   4.646   1.415  14.140 -0.7794 -0.1781 -0.1502
   8423SM  H19G11279   4.495   1.484  14.086 -0.0384 -0.0816  0.3714
   8423SM  C20F11280   4.547   1.515  14.305  0.1234  0.5113 -0.2444
   8423SM  H20F11281   4.495   1.423  14.339  0.0175  0.4296 -0.6208
   8423SM  H20G11282   4.465   1.590  14.308 -1.0395 -0.7574  0.7726
   8423SM  C21F11283   4.667   1.548  14.398  0.5588  0.8158 -0.5817
   8423SM  H21F11284   4.687   1.656  14.379  0.8498  0.8367 -0.1724
   8423SM  H21G11285   4.759   1.487  14.384 -0.3942 -1.5270  2.2526
   8423SM  C22F11286   4.632   1.532  14.550  0.5926 -0.0750  0.0160
   8423SM  H22F11287   4.524   1.550  14.571 -0.0475 -2.5659 -0.7930
   8423SM  H22G11288   4.695   1.602  14.608 -2.9806  1.8997  1.8751
   8423SM  C23F11289   4.662   1.394  14.613 -0.1418 -0.1854 -0.7980
   8423SM  H23F11290   4.764   1.354  14.593 -0.6218 -2.3313  0.6924
   8423SM  H23G11291   4.604   1.318  14.558 -0.1552 -1.3410  0.7562
   8423SM  H23H11292   4.641   1.395  14.722  1.8273 -0.0370 -0.3872
   8523SM     N11293   5.323   3.595  11.734  0.6050  0.3716 -0.2075
   8523SM   C1511294   5.270   3.530  11.617 -0.1476  0.1695  0.9168
   8523SM  H15A11295   5.334   3.454  11.575  0.4133  1.2479 -0.2503
   8523SM  H15B11296   5.240   3.602  11.542 -0.4049 -0.8470  0.0235
   8523SM  H15C11297   5.178   3.475  11.632  0.6437 -1.2432  0.7873
   8523SM   C1411298   5.464   3.632  11.704 -0.0966 -0.5120 -0.0515
   8523SM  H14A11299   5.476   3.678  11.607  2.6029 -0.3419  0.2857
   8523SM  H14B11300   5.528   3.546  11.691  2.0749  1.1098 -0.4641
   8523SM  H14C11301   5.497   3.699  11.781 -2.2439 -0.0971  0.5878
   8523SM   C1311302   5.235   3.717  11.755  0.0871  0.0526  0.0580
   8523SM  H13A11303   5.269   3.768  11.843  2.0574 -0.5251 -0.3132
   8523SM  H13B11304   5.134   3.680  11.765  0.4695 -1.4489 -1.1161
   8523SM  H13C11305   5.239   3.783  11.670 -1.4038  0.3381  0.1792
   8523SM   C1211306   5.321   3.499  11.851  0.2258  0.0858 -0.7451
   8523SM  H12A11307   5.394   3.424  11.825  0.6086  0.7576 -1.6639
   8523SM  H12B11308   5.217   3.468  11.859  0.3911 -0.6141 -1.1913
   8523SM   C1111309   5.344   3.571  11.991  0.2145 -0.3068 -0.1511
   8523SM  H11A11310   5.435   3.631  11.970 -0.3016 -0.4048 -3.0678
   8523SM  H11B11311   5.380   3.496  12.064  2.6256  2.0161  1.2396
   8523SM     P11312   5.233   3.761  12.135 -0.1308  0.4319  0.1065
   8523SM   O1311313   5.243   3.890  12.062  0.2703  0.4602  0.6962
   8523SM   O1411314   5.126   3.738  12.234 -0.2211  0.1140  0.4147
   8523SM   O1111315   5.371   3.745  12.217  0.2785 -0.3053  0.0490
   8523SM   O1211316   5.230   3.639  12.035  0.7279  0.2805  0.1053
   8523SM   C1S11317   5.401   3.641  12.308 -0.1481  0.1248 -0.3483
   8523SM   H1S11318   5.488   3.590  12.263 -1.5194 -0.8163 -2.0522
   8523SM   H1T11319   5.318   3.572  12.335 -0.3702  1.3663  2.5400
   8523SM    NF11320   5.512   3.596  12.523 -0.5948 -0.4125 -0.3060
   8523SM   HNF11321   5.463   3.570  12.606  2.3236 -2.0148  1.0639
   8523SM   C2S11322   5.449   3.704  12.442 -0.6519  0.0226  0.5992
   8523SM   H2S11323   5.530   3.773  12.411 -0.6134  0.4296  1.5753
   8523SM   C3S11324   5.343   3.786  12.519  0.3477 -0.1054  0.4005
   8523SM   H3S11325   5.247   3.730  12.529  0.4368 -0.1098  1.3453
   8523SM    O311326   5.293   3.902  12.451 -0.6138 -0.1184 -0.0268
   8523SM   HO311327   5.310   3.883  12.359  0.0869  4.1314 -1.0178
   8523SM   C4S11328   5.391   3.816  12.660  0.0516  0.4072  0.5947
   8523SM   H4S11329   5.369   3.730  12.725  0.1416 -1.3154 -1.5395
   8523SM   C5S11330   5.469   3.916  12.698 -0.1844 -0.3327 -0.2898
   8523SM   H5S11331   5.506   3.971  12.610 -3.5530  1.7756 -0.5596
   8523SM   C6S11332   5.527   3.935  12.841 -0.3662  0.3757 -0.1466
   8523SM   H6S11333   5.497   4.031  12.888 -1.2308 -0.2118  0.5404
   8523SM   H6T11334   5.636   3.941  12.826 -0.4571  0.3488 -0.8475
   8523SM   C7S11335   5.494   3.825  12.948  0.8476 -0.3713  0.3079
   8523SM   H7S11336   5.546   3.729  12.926 -1.1147 -1.4769  0.2431
   8523SM   H7T11337   5.385   3.803  12.949  0.8065 -0.1772 -0.0737
   8523SM   C8S11338   5.537   3.858  13.091  0.3948 -0.8987 -0.4247
   8523SM   H8S11339   5.500   3.959  13.119  0.6671 -0.4890 -1.5247
   8523SM   H8T11340   5.648   3.870  13.090  0.2984  1.4162  2.1193
   8523SM   C9S11341   5.503   3.742  13.186  0.5381  0.6329  1.0019
   8523SM   H9S11342   5.546   3.644  13.154  0.5114  1.0468 -0.3822
   8523SM   H9T11343   5.395   3.723  13.164  1.1871 -1.2239 -1.0576
   8523SM  C10S11344   5.536   3.771  13.328 -0.8472  0.1687 -0.0320
   8523SM  H10S11345   5.478   3.859  13.363 -0.1463  1.2821 -1.5640
   8523SM  H10T11346   5.645   3.790  13.335 -1.0059  0.8895  0.7149
   8523SM  C11S11347   5.521   3.647  13.420  0.4302  0.1953  0.8177
   8523SM  H11S11348   5.598   3.572  13.392  0.1056  0.0010  0.4497
   8523SM  H11T11349   5.427   3.593  13.399  0.8358 -0.7349  1.3159
   8523SM  C12S11350   5.519   3.685  13.568  0.0732  0.4544  0.1966
   8523SM  H12S11351   5.428   3.728  13.615 -0.1199 -1.3708  1.6457
   8523SM  H12T11352   5.596   3.762  13.592  0.6015 -0.6070  2.1560
   8523SM  C13S11353   5.543   3.541  13.644  0.4462 -0.7848  0.0950
   8523SM  H13S11354   5.628   3.483  13.605  0.4203 -0.8116  0.0787
   8523SM  H13T11355   5.452   3.483  13.616 -0.7726  0.9161  0.3343
   8523SM  C14S11356   5.560   3.551  13.801  0.0177 -0.1362  0.6669
   8523SM  H14S11357   5.574   3.447  13.837 -0.3789 -0.2965  0.3651
   8523SM  H14T11358   5.463   3.573  13.849  0.7474 -0.1532  2.2089
   8523SM  C15S11359   5.649   3.659  13.852 -0.0466  0.1109  0.8896
   8523SM  H15S11360   5.609   3.757  13.820  1.5630  0.1015 -1.3924
   8523SM  H15T11361   5.745   3.650  13.797 -1.1232 -1.6616 -0.8187
   8523SM  C16S11362   5.670   3.643  14.005 -0.7110 -0.4632 -0.0388
   8523SM  H16S11363   5.707   3.540  14.026  0.5229 -0.1510 -0.5883
   8523SM  H16T11364   5.569   3.657  14.048 -0.8091  0.3128 -0.5075
   8523SM  C17S11365   5.767   3.739  14.078  0.1575  0.4422  0.4380
   8523SM  H17S11366   5.865   3.732  14.027  0.1556  1.4887  0.2881
   8523SM  H17T11367   5.793   3.698  14.178  0.3496 -0.5491 -0.0038
   8523SM  C18S11368   5.722   3.887  14.098 -0.7509  0.3643 -0.3299
   8523SM  H18S11369   5.804   3.940  14.151  1.5960 -2.0548 -1.3046
   8523SM  H18T11370   5.632   3.885  14.163  0.4316 -0.2240  1.3580
   8523SM  H18U11371   5.698   3.939  14.003 -2.6482 -2.5571 -1.5896
   8523SM   C1F11372   5.626   3.541  12.503  0.2536 -0.3877  0.2857
   8523SM    OF11373   5.705   3.554  12.413 -0.2067  0.1318  0.5467
   8523SM   C2F11374   5.664   3.460  12.625 -0.4774  0.3745  0.2620
   8523SM   H2F11375   5.588   3.382  12.644 -0.6917  0.6909  0.7263
   8523SM   H2G11376   5.672   3.534  12.707  1.1667  1.0463 -0.4440
   8523SM   C3F11377   5.801   3.399  12.599 -0.0592  0.5246  0.1673
   8523SM   H3F11378   5.875   3.482  12.599  0.4802  0.0501  0.7210
   8523SM   H3G11379   5.800   3.348  12.500  1.5776  2.0254 -0.7015
   8523SM   C4F11380   5.850   3.300  12.709  0.3473  0.5785 -0.0985
   8523SM   H4F11381   5.945   3.264  12.663  0.2768  2.9599 -2.2940
   8523SM   H4G11382   5.773   3.220  12.721  0.4260  0.5965  0.5903
   8523SM   C5F11383   5.869   3.371  12.848  0.2783 -0.3392  0.2021
   8523SM   H5F11384   5.772   3.421  12.870  0.6101  0.8875 -1.0097
   8523SM   H5G11385   5.955   3.440  12.841 -0.1277 -0.0462 -3.5656
   8523SM   C6F11386   5.890   3.281  12.971  0.3243  0.6379 -0.1963
   8523SM   H6F11387   5.994   3.241  12.968  0.6292  1.3570  0.3230
   8523SM   H6G11388   5.830   3.192  12.945  0.2865  0.9589 -1.2612
   8523SM   C7F11389   5.843   3.338  13.104 -0.0710 -0.7736  0.0926
   8523SM   H7F11390   5.735   3.366  13.100  0.2458  0.3798 -1.6412
   8523SM   H7G11391   5.894   3.437  13.111 -0.1379 -0.5954 -1.5664
   8523SM   C8F11392   5.870   3.252  13.233  0.4370 -0.3150  0.5032
   8523SM   H8F11393   5.980   3.235  13.242  0.4351 -1.3397 -1.0505
   8523SM   H8G11394   5.829   3.150  13.219  1.1181 -0.3344 -1.8816
   8523SM   C9F11395   5.817   3.313  13.365  0.1321  0.5183  0.1577
   8523SM   H9F11396   5.709   3.335  13.353  0.2025 -0.5595 -5.0023
   8523SM   H9G11397   5.852   3.418  13.378 -0.6280  0.7933  0.0154
   8523SM  C10F11398   5.844   3.216  13.483  0.1249  0.9751 -0.1346
   8523SM  H10F11399   5.930   3.255  13.542 -0.7421  2.1033  0.4254
   8523SM  H10G11400   5.884   3.120  13.443 -1.6238 -0.0193  0.4248
   8523SM  C11F11401   5.714   3.184  13.560 -0.3529 -0.5715 -0.3999
   8523SM  H11F11402   5.644   3.138  13.487 -1.6567  0.8855 -0.1409
   8523SM  H11G11403   5.656   3.274  13.591 -2.8581 -1.3200 -2.5593
   8523SM  C12F11404   5.723   3.106  13.689 -1.4106  0.7202  0.3163
   8523SM  H12F11405   5.787   3.019  13.663 -3.1194  0.0207 -1.8923
   8523SM  H12G11406   5.624   3.064  13.715 -0.7326 -0.0842  1.6870
   8523SM  C13F11407   5.795   3.180  13.807 -0.2944 -0.5100 -0.0244
   8523SM  H13F11408   5.725   3.242  13.866  1.9848  1.1469  1.0992
   8523SM  H13G11409   5.865   3.253  13.759 -1.0763  0.4496  0.2599
   8523SM  C14F11410   5.873   3.091  13.903 -0.1500 -0.1454 -0.3923
   8523SM  H14F11411   5.956   3.051  13.842 -0.6682  0.1437 -1.3155
   8523SM  H14G11412   5.809   3.011  13.947  0.5038 -0.2969  0.3003
   8523SM  C15F11413   5.930   3.166  14.019  0.1724 -1.2382  0.1210
   8523SM  H15F11414   5.991   3.095  14.079 -0.9565 -2.6826 -0.3615
   8523SM  H15G11415   5.854   3.216  14.083 -1.1415 -0.9223 -1.5823
   8523SM  C16F11416   6.027   3.290  13.982  0.5460  0.0246 -0.3460
   8523SM  H16F11417   5.959   3.361  13.931 -2.3079 -2.5699 -0.5057
   8523SM  H16G11418   6.098   3.252  13.906  0.2471  0.9483 -1.0986
   8523SM  C17F11419   6.095   3.373  14.093  0.2883  0.3611 -0.6068
   8523SM  H17F11420   6.157   3.450  14.042  1.1257  1.0884  1.4027
   8523SM  H17G11421   6.167   3.306  14.146  0.4673  0.3292 -0.8922
   8523SM  C18F11422   6.003   3.451  14.185 -0.8760  0.6757  0.0506
   8523SM  H18F11423   5.950   3.380  14.251  0.0210  1.3533  1.5634
   8523SM  H18G11424   5.939   3.505  14.112 -0.2125 -1.6842 -2.4494
   8523SM  C19F11425   6.084   3.554  14.275 -0.1694 -0.1783  0.5304
   8523SM  H19F11426   6.137   3.633  14.219 -1.3855 -0.0814 -0.5201
   8523SM  H19G11427   6.161   3.491  14.325 -0.6712 -0.6961  0.6645
   8523SM  C20F11428   6.003   3.626  14.386 -0.0856  0.4148  0.0281
   8523SM  H20F11429   5.919   3.687  14.347  0.3967  1.1012  0.0257
   8523SM  H20G11430   6.085   3.692  14.422  1.4083 -0.2229 -2.0139
   8523SM  C21F11431   5.956   3.528  14.492  0.4067  0.3627 -1.0361
   8523SM  H21F11432   6.025   3.453  14.538 -0.2453  0.8098  0.7630
   8523SM  H21G11433   5.876   3.469  14.443 -0.0963 -0.2632  0.4811
   8523SM  C22F11434   5.892   3.602  14.603 -0.0411 -0.1613 -0.3682
   8523SM  H22F11435   5.840   3.692  14.561 -0.7620  0.5194  1.8617
   8523SM  H22G11436   5.975   3.639  14.666  0.3567 -1.4398 -0.1145
   8523SM  C23F11437   5.797   3.528  14.694 -0.6534 -0.1588 -0.2476
   8523SM  H23F11438   5.864   3.456  14.746 -0.6291  0.5912  0.7852
   8523SM  H23G11439   5.713   3.467  14.652 -0.2062 -1.1158  0.2152
   8523SM  H23H11440   5.747   3.597  14.765 -0.6244  0.3606 -0.7342
   8623SM     N11441   4.289   2.444  11.837  0.1160 -0.2957 -0.6610
   8623SM   C1511442   4.364   2.322  11.870  0.4865  0.7749  0.4691
   8623SM  H15A11443   4.470   2.337  11.890  0.6487  2.1786 -1.1868
   8623SM  H15B11444   4.365   2.256  11.785 -2.0772 -1.7938  2.2392
   8623SM  H15C11445   4.321   2.271  11.955  0.1109 -0.4389 -0.4381
   8623SM   C1411446   4.331   2.490  11.702 -0.1674 -0.3377  0.9344
   8623SM  H14A11447   4.265   2.570  11.674  1.4354  1.3224  1.7160
   8623SM  H14B11448   4.314   2.412  11.629  0.3437 -0.0865  0.5403
   8623SM  H14C11449   4.436   2.511  11.690 -0.2910  0.3045  0.9275
   8623SM   C1311450   4.138   2.419  11.842 -0.0936  0.4142  0.9418
   8623SM  H13A11451   4.109   2.323  11.802 -0.6883  0.7896  0.4625
   8623SM  H13B11452   4.089   2.495  11.783 -3.3360 -0.4017  2.3426
   8623SM  H13C11453   4.093   2.430  11.940  0.3729 -0.6798  1.2894
   8623SM   C1211454   4.319   2.552  11.938 -0.3033 -0.0265 -0.4392
   8623SM  H12A11455   4.265   2.645  11.923 -0.3241  0.0880  0.2799
   8623SM  H12B11456   4.425   2.572  11.943 -0.2240 -0.6300  3.3900
   8623SM   C1111457   4.308   2.511  12.093  0.2468  0.3727  0.4946
   8623SM  H11A11458   4.371   2.580  12.153  0.8902 -1.1382  1.6153
   8623SM  H11B11459   4.359   2.412  12.095  1.3689  0.8481 -1.2891
   8623SM     P11460   4.111   2.608  12.227 -0.3006  0.2066 -0.1327
   8623SM   O1311461   4.147   2.745  12.191  0.4823 -0.1839  0.2166
   8623SM   O1411462   3.966   2.571  12.242  0.3633 -0.2290  0.0394
   8623SM   O1111463   4.182   2.572  12.364  0.5645 -0.2439  0.1321
   8623SM   O1211464   4.169   2.500  12.122 -0.4598  1.0338 -0.7262
   8623SM   C1S11465   4.196   2.678  12.461  0.0530  0.0630 -0.3793
   8623SM   H1S11466   4.109   2.747  12.460 -2.9994 -3.4482  1.0927
   8623SM   H1T11467   4.289   2.738  12.444  0.1898 -0.2293 -0.6738
   8623SM    NF11468   4.193   2.692  12.712 -0.1057 -0.2295  0.0386
   8623SM   HNF11469   4.273   2.715  12.766 -0.2085  0.1984  0.0138
   8623SM   C2S11470   4.213   2.608  12.597 -0.1225 -0.0992  0.0388
   8623SM   H2S11471   4.143   2.522  12.607  1.6757 -1.5862  0.3475
   8623SM   C3S11472   4.354   2.540  12.596  0.1382 -0.5926 -0.6553
   8623SM   H3S11473   4.429   2.619  12.577 -0.6443  0.1151 -0.8526
   8623SM    O311474   4.388   2.448  12.492  0.2852  0.1149  0.1594
   8623SM   HO311475   4.317   2.475  12.433 -0.8517  0.1998  1.5002
   8623SM   C4S11476   4.390   2.468  12.730  0.3986  0.0150 -0.0100
   8623SM   H4S11477   4.442   2.537  12.798  0.1573 -0.9124  1.1353
   8623SM   C5S11478   4.380   2.339  12.776  0.8198 -0.5944 -0.1518
   8623SM   H5S11479   4.326   2.269  12.710 -0.1318  0.4735 -0.5440
   8623SM   C6S11480   4.422   2.286  12.911 -0.1679 -0.3099  0.4934
   8623SM   H6S11481   4.531   2.266  12.902 -0.1881  0.0246 -0.7308
   8623SM   H6T11482   4.371   2.189  12.930 -1.4395  0.4795  1.1998
   8623SM   C7S11483   4.388   2.384  13.021 -0.2647 -0.4616  0.1576
   8623SM   H7S11484   4.289   2.433  13.010  0.5950  1.1858 -0.5560
   8623SM   H7T11485   4.457   2.471  13.022  1.8191 -2.0415  1.0764
   8623SM   C8S11486   4.388   2.314  13.155  0.2073 -0.3733  0.0673
   8623SM   H8S11487   4.495   2.290  13.176  0.4560  2.1513  2.2363
   8623SM   H8T11488   4.324   2.223  13.157  0.4292 -0.5424 -0.2657
   8623SM   C9S11489   4.332   2.395  13.271  0.6670 -0.3567  0.1665
   8623SM   H9S11490   4.222   2.393  13.254  0.5591  1.0897  0.5647
   8623SM   H9T11491   4.366   2.501  13.280 -3.1177  0.8959  1.9819
   8623SM  C10S11492   4.364   2.332  13.409  0.2562  0.2981 -0.7964
   8623SM  H10S11493   4.472   2.341  13.433  0.1070 -1.1406  0.5479
   8623SM  H10T11494   4.344   2.224  13.395  0.5609 -0.1857  1.9965
   8623SM  C11S11495   4.270   2.379  13.522 -0.5226  0.7046  0.5946
   8623SM  H11S11496   4.177   2.408  13.468 -1.2283  0.3922  1.6254
   8623SM  H11T11497   4.319   2.467  13.568  1.7542 -0.2965  0.2000
   8623SM  C12S11498   4.245   2.277  13.627 -0.1880  0.7256 -0.4118
   8623SM  H12S11499   4.337   2.238  13.675 -0.0673 -0.8616 -1.8457
   8623SM  H12T11500   4.207   2.181  13.587  0.5352  0.4646 -0.4888
   8623SM  C13S11501   4.150   2.320  13.732  0.3825  0.4629 -0.7056
   8623SM  H13S11502   4.045   2.321  13.696  1.0611 -0.9877 -2.8763
   8623SM  H13T11503   4.186   2.418  13.770 -0.9345  0.0387  1.8508
   8623SM  C14S11504   4.149   2.239  13.856 -0.1082  0.1174  0.1340
   8623SM  H14S11505   4.248   2.235  13.905 -0.8696 -1.4739  1.6476
   8623SM  H14T11506   4.126   2.133  13.833  4.7400 -1.2184  0.4767
   8623SM  C15S11507   4.050   2.294  13.951  0.2872  0.5295 -0.4192
   8623SM  H15S11508   3.942   2.281  13.928 -0.3350 -0.2888  2.4667
   8623SM  H15T11509   4.070   2.403  13.946  2.7229  0.1907  0.6045
   8623SM  C16S11510   4.064   2.241  14.093 -0.1266  0.6129  0.4964
   8623SM  H16S11511   4.163   2.265  14.137 -0.7567  1.2239  1.6224
   8623SM  H16T11512   4.054   2.131  14.085  0.8055  0.6315 -1.5058
   8623SM  C17S11513   3.973   2.298  14.199 -0.5600  0.1128 -0.0911
   8623SM  H17S11514   4.008   2.262  14.298  0.8315  0.6150 -0.3825
   8623SM  H17T11515   3.874   2.257  14.169  0.3167  1.2035 -5.6916
   8623SM  C18S11516   3.972   2.451  14.201  0.8304 -0.2039  0.0287
   8623SM  H18S11517   4.070   2.491  14.236 -0.0099  1.8570  0.1809
   8623SM  H18T11518   3.886   2.497  14.254  0.9844  1.2660 -0.9364
   8623SM  H18U11519   3.951   2.487  14.098  0.7784  0.8785  0.4060
   8623SM   C1F11520   4.074   2.725  12.754  0.8125  0.4577  0.1079
   8623SM    OF11521   3.976   2.700  12.676 -0.1497  0.1047  0.5048
   8623SM   C2F11522   4.069   2.783  12.890  0.3491 -0.6635 -0.1679
   8623SM   H2F11523   3.984   2.855  12.890  0.7235 -0.1621 -1.6880
   8623SM   H2G11524   4.162   2.840  12.915 -0.4136  0.0407  1.1877
   8623SM   C3F11525   4.050   2.675  13.002  0.4521  0.5526 -0.0647
   8623SM   H3F11526   4.099   2.578  12.981 -3.0794 -1.3871 -0.2120
   8623SM   H3G11527   3.944   2.644  12.993  0.4074  0.6960 -0.0310
   8623SM   C4F11528   4.098   2.716  13.142  0.4359 -0.1642 -0.1057
   8623SM   H4F11529   4.066   2.822  13.150 -1.4754 -0.5684 -1.6894
   8623SM   H4G11530   4.208   2.700  13.148  0.8487  1.6492 -1.7038
   8623SM   C5F11531   4.026   2.648  13.255 -0.1071  0.5366  1.0815
   8623SM   H5F11532   4.039   2.538  13.260  4.0987  0.8104  0.0785
   8623SM   H5G11533   3.917   2.667  13.254  0.0198  1.3300  1.4838
   8623SM   C6F11534   4.069   2.714  13.395 -0.5450  0.1621  0.0839
   8623SM   H6F11535   4.064   2.825  13.399  0.4114  0.1955  0.6601
   8623SM   H6G11536   4.178   2.699  13.409  0.0064  2.7605 -0.9372
   8623SM   C7F11537   3.996   2.645  13.514  0.7437  0.5961  0.6212
   8623SM   H7F11538   3.997   2.534  13.512 -1.2241  0.5440 -1.5730
   8623SM   H7G11539   3.891   2.679  13.503  0.3870 -1.0368 -1.5969
   8623SM   C8F11540   4.031   2.688  13.659 -0.2980 -0.5682  0.2282
   8623SM   H8F11541   4.005   2.794  13.676  0.5344  0.0963 -2.2871
   8623SM   H8G11542   4.142   2.679  13.664 -0.2791 -0.0088  1.0172
   8623SM   C9F11543   3.950   2.606  13.762 -0.5874  0.1196  0.8830
   8623SM   H9F11544   4.004   2.616  13.858  3.9803 -0.4449 -1.3341
   8623SM   H9G11545   3.953   2.496  13.747  1.3919  0.3533 -1.0201
   8623SM  C10F11546   3.805   2.649  13.765 -0.6422  0.2793  0.1171
   8623SM  H10F11547   3.756   2.636  13.667 -3.0057 -0.0901  1.2742
   8623SM  H10G11548   3.813   2.759  13.776 -0.5837  0.0535  3.4578
   8623SM  C11F11549   3.709   2.579  13.867 -0.0029 -0.1725 -0.6928
   8623SM  H11F11550   3.737   2.481  13.909 -1.5032 -0.4249 -0.2123
   8623SM  H11G11551   3.609   2.577  13.817  0.6956  0.4122 -2.1710
   8623SM  C12F11552   3.695   2.667  13.993 -0.2371  0.5141  0.1014
   8623SM  H12F11553   3.685   2.774  13.966 -0.5237  0.7905  1.2578
   8623SM  H12G11554   3.793   2.677  14.044 -1.8487  0.8271  3.3604
   8623SM  C13F11555   3.593   2.628  14.094  0.1093  0.4071  0.3261
   8623SM  H13F11556   3.594   2.517  14.092  0.5911  0.4159 -0.9061
   8623SM  H13G11557   3.489   2.652  14.061  0.2403  2.6019  1.3085
   8623SM  C14F11558   3.627   2.681  14.237 -0.4232 -0.4035 -0.3811
   8623SM  H14F11559   3.659   2.787  14.232  0.4358 -0.6092  0.5232
   8623SM  H14G11560   3.712   2.622  14.276 -1.8196 -1.7899  0.7030
   8623SM  C15F11561   3.509   2.679  14.340 -0.3514  0.1081  0.1479
   8623SM  H15F11562   3.489   2.573  14.365  0.4937 -0.7869 -2.5983
   8623SM  H15G11563   3.425   2.736  14.295  0.3326  0.5621 -0.5763
   8623SM  C16F11564   3.554   2.735  14.471 -0.0931 -0.0589 -0.7864
   8623SM  H16F11565   3.606   2.832  14.459  0.3278 -0.3269 -1.1629
   8623SM  H16G11566   3.634   2.673  14.518  1.0164  2.2832  0.6115
   8623SM  C17F11567   3.440   2.765  14.570 -0.3482  0.2147  0.7820
   8623SM  H17F11568   3.384   2.858  14.545 -1.1774 -0.0186  1.6740
   8623SM  H17G11569   3.468   2.787  14.676 -0.2896 -2.7202  1.4626
   8623SM  C18F11570   3.322   2.654  14.559 -1.0440 -0.7630 -0.1265
   8623SM  H18F11571   3.369   2.554  14.566  1.0110  0.2358  1.8942
   8623SM  H18G11572   3.264   2.666  14.465 -1.2796 -0.0657  0.1010
   8623SM  C19F11573   3.225   2.677  14.672 -0.0840  0.6934 -0.7548
   8623SM  H19F11574   3.177   2.777  14.676  1.3199  1.3467  1.7869
   8623SM  H19G11575   3.281   2.657  14.766  0.3125  0.1851 -1.0893
   8623SM  C20F11576   3.114   2.563  14.666 -0.5283  0.2833 -0.8192
   8623SM  H20F11577   3.163   2.476  14.716  2.9080  0.9220 -2.7747
   8623SM  H20G11578   3.075   2.544  14.564 -0.4811  0.0548 -0.7959
   8623SM  C21F11579   2.987   2.616  14.739 -0.1256 -0.0121  0.5349
   8623SM  H21F11580   2.949   2.713  14.703 -0.2634  0.5827  2.1949
   8623SM  H21G11581   3.016   2.637  14.844 -1.8777  2.2550  0.6252
   8623SM  C22F11582   2.887   2.506  14.728  0.5950  0.5315  0.0157
   8623SM  H22F11583   2.935   2.412  14.763 -1.4989 -0.7736 -0.3915
   8623SM  H22G11584   2.859   2.487  14.622 -1.4888  1.3501  0.3789
   8623SM  C23F11585   2.763   2.529  14.810  0.1796  0.3895 -0.0422
   8623SM  H23F11586   2.679   2.459  14.791  0.6373 -0.6749  1.6668
   8623SM  H23G11587   2.718   2.628  14.789 -0.3816 -0.2524 -2.1606
   8623SM  H23H11588   2.791   2.522  14.917  0.4370 -0.9082 -0.1704
   8723SM     N11589   3.810   1.113  11.425 -0.5889  0.6213 -0.0460
   8723SM   C1511590   3.843   0.968  11.388 -0.5271 -0.3979  0.6249
   8723SM  H15A11591   3.913   0.925  11.459  0.1338 -0.0383  0.1959
   8723SM  H15B11592   3.884   0.970  11.288  2.6524 -1.7418  1.7512
   8723SM  H15C11593   3.749   0.915  11.391 -0.4720 -0.7832 -2.2421
   8723SM   C1411594   3.943   1.184  11.422 -0.0995 -0.3646 -0.2556
   8723SM  H14A11595   3.940   1.282  11.466  1.2247  0.3926 -1.7291
   8723SM  H14B11596   3.977   1.213  11.324  1.3577 -1.0807  0.0171
   8723SM  H14C11597   4.017   1.125  11.473 -0.2714 -0.3030  0.0659
   8723SM   C1311598   3.720   1.167  11.322  0.3289  0.0563  0.0030
   8723SM  H13A11599   3.633   1.103  11.314  0.8046 -0.4914 -1.0987
   8723SM  H13B11600   3.764   1.177  11.224 -1.0197 -2.9501 -1.0407
   8723SM  H13C11601   3.673   1.259  11.353 -0.8591 -0.8443  0.9628
   8723SM   C1211602   3.749   1.112  11.564  0.3556  0.2520 -0.0183
   8723SM  H12A11603   3.803   1.050  11.634  1.5162  1.6956  0.4310
   8723SM  H12B11604   3.648   1.074  11.564 -1.1980  3.9344  1.1010
   8723SM   C1111605   3.738   1.251  11.631 -0.3329  0.3747  0.7966
   8723SM  H11A11606   3.657   1.252  11.708 -1.2969  0.5171 -0.1935
   8723SM  H11B11607   3.700   1.324  11.556 -0.8344  1.8446  2.4185
   8723SM     P11608   3.913   1.427  11.710  0.0648 -0.1055 -0.2051
   8723SM   O1311609   4.038   1.434  11.784  0.0323  0.1879 -0.3226
   8723SM   O1411610   3.920   1.494  11.578 -0.1949 -0.0602  0.8226
   8723SM   O1111611   3.798   1.487  11.794  0.1045 -0.5828  0.1054
   8723SM   O1211612   3.874   1.279  11.690 -0.0061 -0.2010  0.4616
   8723SM   C1S11613   3.785   1.441  11.924  0.1902  0.3984  0.0279
   8723SM   H1S11614   3.811   1.334  11.931 -0.8312 -0.0821 -2.4119
   8723SM   H1T11615   3.676   1.434  11.946  0.3317  0.0452  0.6201
   8723SM    NF11616   3.832   1.479  12.170  0.0631  0.2136  0.1265
   8723SM   HNF11617   3.762   1.528  12.221  0.2434 -1.3515  1.9937
   8723SM   C2S11618   3.862   1.530  12.038 -0.9727  0.1351 -0.2669
   8723SM   H2S11619   3.972   1.526  12.021 -0.8521  1.1946  0.1693
   8723SM   C3S11620   3.830   1.681  12.023  0.0903 -0.9680  0.7306
   8723SM   H3S11621   3.720   1.692  12.038 -0.0443 -0.5971 -0.4357
   8723SM    O311622   3.859   1.726  11.887  0.0101 -0.0044 -0.1159
   8723SM   HO311623   3.861   1.645  11.836  3.5101 -0.2108  0.1437
   8723SM   C4S11624   3.912   1.758  12.114  0.2679 -0.0573 -0.0958
   8723SM   H4S11625   4.020   1.740  12.104  0.1842 -0.7387  0.2282
   8723SM   C5S11626   3.856   1.824  12.215  0.5822  0.2944  0.4536
   8723SM   H5S11627   3.746   1.830  12.222  0.5239 -0.2062  0.0453
   8723SM   C6S11628   3.933   1.896  12.318  0.1358  0.2429 -0.4341
   8723SM   H6S11629   3.891   1.997  12.338  1.8510  0.9018 -0.0164
   8723SM   H6T11630   4.042   1.902  12.299  1.4997 -0.8892  5.0915
   8723SM   C7S11631   3.913   1.821  12.450  0.3083  0.2988  0.5942
   8723SM   H7S11632   3.925   1.711  12.445 -0.6258  0.2194 -0.0752
   8723SM   H7T11633   3.811   1.833  12.491 -0.4248 -1.4951 -0.5884
   8723SM   C8S11634   4.001   1.882  12.555  0.1399  1.0672  0.2225
   8723SM   H8S11635   3.995   1.991  12.538  0.8875  0.7090 -2.9874
   8723SM   H8T11636   4.105   1.845  12.540 -0.5610 -0.5777 -0.9156
   8723SM   C9S11637   3.943   1.841  12.695  0.8094  0.7944  0.8916
   8723SM   H9S11638   3.905   1.737  12.692 -1.5173  1.5705  1.3071
   8723SM   H9T11639   3.860   1.914  12.713  0.5204  0.4113  1.1272
   8723SM  C10S11640   4.042   1.858  12.816  0.7425  0.1088 -0.5983
   8723SM  H10S11641   4.076   1.964  12.820  2.3849 -0.3916 -0.6408
   8723SM  H10T11642   4.135   1.798  12.824  1.1849  0.9187  0.7845
   8723SM  C11S11643   3.976   1.821  12.949  0.1453  0.0942 -0.0834
   8723SM  H11S11644   3.921   1.724  12.942 -1.3006  0.9516 -1.6074
   8723SM  H11T11645   3.893   1.894  12.961 -0.6657 -0.7035 -0.7133
   8723SM  C12S11646   4.075   1.825  13.064  0.1346 -0.1566 -0.5216
   8723SM  H12S11647   4.123   1.925  13.073 -1.8898  0.7350  1.5824
   8723SM  H12T11648   4.159   1.757  13.038 -0.1107 -0.2041 -1.1881
   8723SM  C13S11649   4.009   1.784  13.203 -0.4778 -0.0649  0.2920
   8723SM  H13S11650   3.978   1.678  13.201 -1.9571  0.3278  1.1369
   8723SM  H13T11651   3.917   1.845  13.216 -0.4940 -0.1294  0.4886
   8723SM  C14S11652   4.109   1.802  13.319  0.3319  0.8434 -0.0352
   8723SM  H14S11653   4.155   1.901  13.298  0.6775  0.3615 -1.7209
   8723SM  H14T11654   4.188   1.724  13.309  0.1909  0.5419  1.0647
   8723SM  C15S11655   4.038   1.781  13.458  0.1457  0.1015 -0.2600
   8723SM  H15S11656   4.005   1.675  13.456 -1.7247  0.6265 -2.3218
   8723SM  H15T11657   3.943   1.839  13.464  0.9489  1.3452  0.8296
   8723SM  C16S11658   4.131   1.803  13.574 -0.0600  0.5296  0.3750
   8723SM  H16S11659   4.197   1.886  13.543  0.8121 -0.5096 -0.6646
   8723SM  H16T11660   4.197   1.719  13.603  2.5548  1.3832 -2.5475
   8723SM  C17S11661   4.054   1.858  13.697  0.0095  0.8457  0.2352
   8723SM  H17S11662   3.963   1.801  13.724  0.2652 -0.0659 -0.7852
   8723SM  H17T11663   4.007   1.958  13.681 -0.7776  0.5896  0.8868
   8723SM  C18S11664   4.146   1.863  13.822 -0.1189 -0.0883  0.2670
   8723SM  H18S11665   4.086   1.887  13.912 -1.6933 -0.8455 -0.5449
   8723SM  H18T11666   4.214   1.950  13.807  0.9244 -0.5659  1.9172
   8723SM  H18U11667   4.202   1.768  13.835  1.8063  0.7748 -1.1933
   8723SM   C1F11668   3.870   1.368  12.216 -0.2203 -0.2693 -0.3071
   8723SM    OF11669   3.945   1.296  12.156 -0.1914 -0.0532 -0.3871
   8723SM   C2F11670   3.801   1.338  12.347 -0.2994 -0.6009  0.3349
   8723SM   H2F11671   3.699   1.305  12.317 -0.1143  0.7591 -2.0018
   8723SM   H2G11672   3.793   1.430  12.408 -0.2349  0.5151 -1.2784
   8723SM   C3F11673   3.879   1.226  12.436  0.1829 -0.1299  0.0958
   8723SM   H3F11674   3.987   1.252  12.438  0.6273 -1.8960  0.3384
   8723SM   H3G11675   3.866   1.127  12.387  0.1260  0.6149 -1.4772
   8723SM   C4F11676   3.845   1.214  12.586  1.0804  0.2407 -0.7701
   8723SM   H4F11677   3.906   1.135  12.635  0.2174 -0.2956 -0.5250
   8723SM   H4G11678   3.740   1.182  12.605  1.0217  1.4052  1.0459
   8723SM   C5F11679   3.892   1.333  12.675  0.5306  1.1265  0.6641
   8723SM   H5F11680   3.822   1.417  12.656 -0.4612  0.1467 -0.1169
   8723SM   H5G11681   3.993   1.363  12.638 -0.2010 -0.0413 -2.6303
   8723SM   C6F11682   3.898   1.302  12.826  0.0060  0.2940 -0.2831
   8723SM   H6F11683   3.921   1.402  12.869 -0.3461  0.3569 -0.2428
   8723SM   H6G11684   3.980   1.229  12.847  0.7024  0.6308 -1.7082
   8723SM   C7F11685   3.773   1.238  12.885 -0.8142 -0.3151  0.9230
   8723SM   H7F11686   3.753   1.142  12.833  1.6102  0.7190 -2.2744
   8723SM   H7G11687   3.686   1.300  12.856 -1.2315 -1.1111  0.4499
   8723SM   C8F11688   3.778   1.226  13.040  0.1541 -0.7660  0.6399
   8723SM   H8F11689   3.863   1.158  13.063 -0.8013 -2.1324  0.2337
   8723SM   H8G11690   3.679   1.181  13.061 -1.4467  1.6733 -1.1872
   8723SM   C9F11691   3.800   1.359  13.113 -0.4766 -0.4547 -0.3449
   8723SM   H9F11692   3.720   1.432  13.092 -2.1578 -1.9527  0.5355
   8723SM   H9G11693   3.900   1.393  13.077  0.4863 -1.0168  1.6433
   8723SM  C10F11694   3.802   1.338  13.265  0.4430  0.0989  0.0054
   8723SM  H10F11695   3.726   1.262  13.293  0.4004 -0.2303 -0.9886
   8723SM  H10G11696   3.770   1.433  13.315  0.5447 -0.8591  2.0068
   8723SM  C11F11697   3.929   1.291  13.329  0.3239 -0.5628  0.8282
   8723SM  H11F11698   4.005   1.372  13.322  1.2291 -1.3258  1.5245
   8723SM  H11G11699   3.968   1.200  13.278  0.2730 -0.2997  0.3125
   8723SM  C12F11700   3.908   1.249  13.482 -0.0760 -1.3503  0.5723
   8723SM  H12F11701   4.002   1.196  13.511 -0.1370 -1.9447 -0.2927
   8723SM  H12G11702   3.819   1.184  13.495 -0.5507 -0.8450 -0.0924
   8723SM  C13F11703   3.872   1.358  13.582 -0.1063  0.0305 -0.0822
   8723SM  H13F11704   3.915   1.457  13.556 -2.2770  0.8400 -0.8272
   8723SM  H13G11705   3.912   1.336  13.683 -0.0125 -1.8416 -0.4891
   8723SM  C14F11706   3.720   1.367  13.613 -0.3517  0.5465  1.0729
   8723SM  H14F11707   3.684   1.267  13.647  0.0644 -0.5169 -1.4086
   8723SM  H14G11708   3.665   1.381  13.518  2.0813 -0.5887 -0.5988
   8723SM  C15F11709   3.690   1.490  13.712 -0.4336 -0.0622  0.1406
   8723SM  H15F11710   3.742   1.576  13.664 -0.7975  0.6610  1.0202
   8723SM  H15G11711   3.727   1.478  13.815  2.2894 -0.0330 -0.7577
   8723SM  C16F11712   3.542   1.531  13.735 -0.2716  0.0428  0.0861
   8723SM  H16F11713   3.495   1.453  13.798 -0.6874  1.4300  1.5666
   8723SM  H16G11714   3.476   1.541  13.646 -2.9785  0.2147  1.9903
   8723SM  C17F11715   3.536   1.663  13.820  0.3231 -0.3318 -0.1735
   8723SM  H17F11716   3.587   1.747  13.769 -0.0489  1.2269  1.8833
   8723SM  H17G11717   3.587   1.639  13.916 -0.6140 -3.0185 -0.2651
   8723SM  C18F11718   3.396   1.699  13.862  0.0351 -0.0409 -0.0302
   8723SM  H18F11719   3.329   1.618  13.826 -0.6911 -0.0901  1.3702
   8723SM  H18G11720   3.368   1.790  13.804  3.0317 -0.3151 -2.1157
   8723SM  C19F11721   3.384   1.726  14.014 -0.3661  0.1245  0.5092
   8723SM  H19F11722   3.431   1.825  14.032  0.3228  0.7715 -3.9441
   8723SM  H19G11723   3.444   1.652  14.071  0.5830  0.8110  0.4133
   8723SM  C20F11724   3.240   1.722  14.059 -0.0199  0.1292 -0.1319
   8723SM  H20F11725   3.217   1.614  14.067  1.9536 -0.2078  2.0486
   8723SM  H20G11726   3.166   1.783  14.002 -0.0100  1.7670  1.5019
   8723SM  C21F11727   3.236   1.766  14.201 -0.0492 -0.2451  0.1719
   8723SM  H21F11728   3.280   1.868  14.196  2.7150 -1.2302  1.8795
   8723SM  H21G11729   3.297   1.694  14.260  2.7643  1.5455 -0.3245
   8723SM  C22F11730   3.093   1.786  14.255  0.1147  0.2137 -0.3367
   8723SM  H22F11731   3.035   1.693  14.234 -0.1339  0.3873 -0.4242
   8723SM  H22G11732   3.028   1.860  14.203 -1.3935 -1.7982 -1.4611
   8723SM  C23F11733   3.097   1.819  14.405 -0.8145  0.0973 -0.1285
   8723SM  H23F11734   3.135   1.734  14.466  0.8489  0.2761 -0.8768
   8723SM  H23G11735   2.993   1.833  14.442 -0.6844  1.5190 -0.2641
   8723SM  H23H11736   3.149   1.914  14.426 -0.1871 -0.2649 -0.0252
   8823SM     N11737   3.145   2.981  11.970  1.0346  0.1260  0.1883
   8823SM   C1511738   3.029   3.077  11.944  0.0452  0.1381  0.1395
   8823SM  H15A11739   3.062   3.177  11.971  0.7072  0.0535 -0.3303
   8823SM  H15B11740   2.945   3.052  12.006  0.0811  0.8466  0.4912
   8823SM  H15C11741   2.991   3.074  11.843 -1.2922 -1.3523  0.6463
   8823SM   C1411742   3.099   2.841  11.946  0.3861  0.3765 -0.1887
   8823SM  H14A11743   3.013   2.805  12.000  0.7366 -1.0943 -0.5776
   8823SM  H14B11744   3.185   2.775  11.948  0.4209  0.4208 -0.2118
   8823SM  H14C11745   3.072   2.835  11.842  1.2314  0.9524 -0.4547
   8823SM   C1311746   3.253   2.996  11.874 -0.1900  0.6788 -0.1973
   8823SM  H13A11747   3.216   3.005  11.773  0.3381 -1.7945 -0.6776
   8823SM  H13B11748   3.313   2.908  11.887  2.1949  2.1701 -0.4011
   8823SM  H13C11749   3.323   3.072  11.909 -1.2817  0.6765  2.1733
   8823SM   C1211750   3.186   2.996  12.115 -0.9121 -0.9664 -0.0782
   8823SM  H12A11751   3.220   3.092  12.149  0.5215 -1.6729  0.5554
   8823SM  H12B11752   3.274   2.934  12.124  1.1763  0.6827 -5.3237
   8823SM   C1111753   3.087   2.946  12.230 -0.9011  0.3159 -0.0905
   8823SM  H11A11754   3.149   2.940  12.322  1.5732 -1.0527 -1.7080
   8823SM  H11B11755   3.060   2.840  12.210  0.9123 -0.2775  0.3449
   8823SM     P11756   2.946   3.128  12.350  0.0029 -0.4011  0.0704
   8823SM   O1311757   3.078   3.179  12.402 -0.4776 -0.2556  0.5721
   8823SM   O1411758   2.852   3.238  12.317 -0.4060 -0.0582 -0.1477
   8823SM   O1111759   2.879   3.031  12.452 -0.4808  0.1978 -0.2593
   8823SM   O1211760   2.973   3.031  12.234  0.5048  0.4040 -0.9504
   8823SM   C1S11761   2.799   2.916  12.418  0.1415 -0.0308  0.3179
   8823SM   H1S11762   2.854   2.847  12.351 -0.1595  0.9320 -0.9497
   8823SM   H1T11763   2.706   2.951  12.368 -1.7078 -1.1145  2.7778
   8823SM    NF11764   2.639   2.746  12.501  0.6908  0.4458 -0.7589
   8823SM   HNF11765   2.546   2.781  12.512  1.0376  0.8217  1.5186
   8823SM   C2S11766   2.752   2.829  12.541  0.1133  0.2475  0.1360
   8823SM   H2S11767   2.833   2.764  12.581  0.1960  0.9247  1.1049
   8823SM   C3S11768   2.727   2.933  12.667  1.1595  0.9094  0.1693
   8823SM   H3S11769   2.654   3.010  12.635  1.0133 -0.3462 -2.7937
   8823SM    O311770   2.833   3.010  12.715  0.6557 -0.1345  0.0811
   8823SM   HO311771   2.873   3.013  12.627 -1.4849 -0.6185 -0.9694
   8823SM   C4S11772   2.658   2.855  12.780 -0.4630  0.0302 -0.1659
   8823SM   H4S11773   2.549   2.865  12.774 -0.5747 -1.7923 -2.0989
   8823SM   C5S11774   2.712   2.798  12.887  0.3247  0.3952 -0.1676
   8823SM   H5S11775   2.818   2.799  12.915 -0.1387  0.9400  1.7907
   8823SM   C6S11776   2.633   2.730  12.994  0.2599 -0.0685 -0.0517
   8823SM   H6S11777   2.698   2.680  13.069  0.9787 -1.2856 -1.4471
   8823SM   H6T11778   2.583   2.643  12.947 -1.8940  0.9711  0.1681
   8823SM   C7S11779   2.517   2.808  13.052  0.4254  0.3484  0.3875
   8823SM   H7S11780   2.442   2.823  12.971 -0.2582 -2.0893  0.5051
   8823SM   H7T11781   2.553   2.904  13.096 -1.4445  0.7142  1.2298
   8823SM   C8S11782   2.454   2.740  13.173 -1.1487 -0.1742 -0.7985
   8823SM   H8S11783   2.360   2.788  13.208 -0.4804  0.0965  0.7404
   8823SM   H8T11784   2.526   2.746  13.258  0.3595  0.3858 -2.0840
   8823SM   C9S11785   2.417   2.592  13.142  0.5024  0.0588  0.0061
   8823SM   H9S11786   2.511   2.537  13.126  0.3845  0.3754 -2.0139
   8823SM   H9T11787   2.356   2.586  13.049  0.2521  0.3156  0.1511
   8823SM  C10S11788   2.347   2.524  13.259 -0.1486 -0.5624  0.2687
   8823SM  H10S11789   2.323   2.422  13.222 -1.5509  0.2464 -1.1930
   8823SM  H10T11790   2.254   2.582  13.276 -0.4289 -1.1525  0.7542
   8823SM  C11S11791   2.412   2.503  13.391  0.2650 -0.6923 -0.5772
   8823SM  H11S11792   2.441   2.605  13.423 -0.2586 -0.3421 -1.1975
   8823SM  H11T11793   2.501   2.436  13.385 -0.2295 -1.4363  0.3359
   8823SM  C12S11794   2.313   2.450  13.494  0.3236 -0.0364  0.1426
   8823SM  H12S11795   2.276   2.356  13.448  0.9557 -0.1109 -0.2215
   8823SM  H12T11796   2.236   2.529  13.507 -0.1804 -0.6450  0.9403
   8823SM  C13S11797   2.385   2.417  13.629  0.1217 -0.5181 -0.0020
   8823SM  H13S11798   2.420   2.514  13.669 -0.8045 -0.6513  1.1890
   8823SM  H13T11799   2.471   2.351  13.604 -0.4155 -0.5387 -1.9638
   8823SM  C14S11800   2.290   2.364  13.740 -0.0192 -0.4929 -0.1125
   8823SM  H14S11801   2.276   2.254  13.732 -1.8487 -0.2538 -0.9101
   8823SM  H14T11802   2.193   2.419  13.733  0.4433  0.3768  0.1525
   8823SM  C15S11803   2.353   2.386  13.876  0.3994  0.0511  0.3111
   8823SM  H15S11804   2.397   2.487  13.888  0.4640  0.1178 -0.4505
   8823SM  H15T11805   2.445   2.323  13.877  0.3059 -0.1238 -0.6418
   8823SM  C16S11806   2.258   2.344  13.992  0.2228 -0.5100  0.0727
   8823SM  H16S11807   2.209   2.248  13.963  1.3469 -0.6301 -1.5461
   8823SM  H16T11808   2.178   2.417  14.018  0.3213 -1.2492  2.6962
   8823SM  C17S11809   2.328   2.342  14.127 -0.5740  0.3559 -0.5121
   8823SM  H17S11810   2.357   2.448  14.145  2.7379 -0.7330  1.3773
   8823SM  H17T11811   2.424   2.287  14.123 -0.5592 -0.5580  4.9223
   8823SM  C18S11812   2.255   2.277  14.237 -0.0222  0.1464 -0.1403
   8823SM  H18S11813   2.320   2.254  14.324  0.9564  2.9574 -0.0166
   8823SM  H18T11814   2.205   2.183  14.206  0.0358  0.3570 -0.9027
   8823SM  H18U11815   2.185   2.351  14.281  1.3135  1.4318 -0.0848
   8823SM   C1F11816   2.662   2.626  12.446  0.3653 -0.7349 -0.5658
   8823SM    OF11817   2.777   2.596  12.422  0.1677 -0.1022 -0.1601
   8823SM   C2F11818   2.544   2.540  12.423  0.3184  0.4348 -0.0153
   8823SM   H2F11819   2.579   2.436  12.406 -0.7753  0.0083  0.2751
   8823SM   H2G11820   2.485   2.581  12.338  1.5023 -1.0191 -1.6166
   8823SM   C3F11821   2.453   2.524  12.544  0.2448  0.1105 -0.5639
   8823SM   H3F11822   2.370   2.453  12.521 -1.8362  1.6521  1.7199
   8823SM   H3G11823   2.411   2.625  12.564  3.1543  1.3540 -0.2413
   8823SM   C4F11824   2.515   2.458  12.672 -0.7908  0.7395 -0.1300
   8823SM   H4F11825   2.440   2.467  12.754 -1.7472 -0.7234 -0.8164
   8823SM   H4G11826   2.612   2.501  12.707  0.4314 -2.0958  0.2420
   8823SM   C5F11827   2.545   2.313  12.663 -0.3690 -0.1723 -0.0888
   8823SM   H5F11828   2.606   2.302  12.571 -1.0522  1.4716 -0.7766
   8823SM   H5G11829   2.447   2.269  12.632 -0.7030  0.5191 -0.0490
   8823SM   C6F11830   2.607   2.252  12.781 -0.0694  0.1032 -0.5655
   8823SM   H6F11831   2.706   2.302  12.795  0.5076 -1.5198  1.4680
   8823SM   H6G11832   2.634   2.147  12.757  2.2526  0.1811  1.3858
   8823SM   C7F11833   2.532   2.262  12.916  0.2624  0.4282  0.1135
   8823SM   H7F11834   2.427   2.232  12.896 -0.7279  2.7328  1.4607
   8823SM   H7G11835   2.532   2.366  12.954  1.1683  0.2176  0.7036
   8823SM   C8F11836   2.586   2.175  13.026 -0.1886  0.0510 -0.5527
   8823SM   H8F11837   2.685   2.226  13.036 -0.8566  1.0760  1.1200
   8823SM   H8G11838   2.597   2.067  13.004  0.8916  0.3209 -1.4782
   8823SM   C9F11839   2.509   2.187  13.161 -0.2444 -0.3042  0.0987
   8823SM   H9F11840   2.414   2.141  13.128  0.6550 -1.1192 -1.4688
   8823SM   H9G11841   2.481   2.289  13.195  1.1604 -0.3660  1.6124
   8823SM  C10F11842   2.585   2.114  13.269  0.2002 -0.0223  0.0434
   8823SM  H10F11843   2.677   2.175  13.282  1.3632 -1.5745 -0.6306
   8823SM  H10G11844   2.632   2.024  13.225 -2.3819 -0.4048 -2.1781
   8823SM  C11F11845   2.507   2.099  13.401 -0.4275 -0.3787  0.7351
   8823SM  H11F11846   2.400   2.072  13.384 -0.4667  0.0803  0.1990
   8823SM  H11G11847   2.524   2.198  13.448  1.0540 -0.1498 -0.2213
   8823SM  C12F11848   2.566   1.992  13.490 -0.6895  0.4094 -0.3134
   8823SM  H12F11849   2.663   2.042  13.512 -1.3602  1.4690  0.3584
   8823SM  H12G11850   2.574   1.898  13.431  0.8458 -0.2955  0.9385
   8823SM  C13F11851   2.486   1.972  13.622  0.2560  0.1466  0.1706
   8823SM  H13F11852   2.387   1.932  13.588  0.7876  0.9164 -2.5109
   8823SM  H13G11853   2.468   2.076  13.659 -2.5551  0.8535 -2.6834
   8823SM  C14F11854   2.553   1.893  13.738 -0.4888  0.5236  0.1540
   8823SM  H14F11855   2.646   1.949  13.761  0.3635 -0.3027 -1.1461
   8823SM  H14G11856   2.581   1.790  13.708  0.1219  0.4897  0.8198
   8823SM  C15F11857   2.459   1.895  13.865 -0.0584 -0.2309  0.8695
   8823SM  H15F11858   2.366   1.836  13.852  0.2437 -0.9380  1.8031
   8823SM  H15G11859   2.429   2.000  13.888 -0.7234  0.1701 -1.6109
   8823SM  C16F11860   2.542   1.848  13.984 -0.6227  0.3087 -0.0791
   8823SM  H16F11861   2.643   1.895  13.986 -1.5032  2.3237  0.0874
   8823SM  H16G11862   2.564   1.740  13.989  1.7801  0.8227  3.1205
   8823SM  C17F11863   2.486   1.881  14.126 -0.2999 -0.0219  0.3732
   8823SM  H17F11864   2.509   1.989  14.141  1.2615 -0.1918 -0.6048
   8823SM  H17G11865   2.555   1.839  14.202 -1.0565  2.3260  2.4807
   8823SM  C18F11866   2.338   1.839  14.144  0.4429  0.0281  0.0936
   8823SM  H18F11867   2.322   1.734  14.112 -0.0142  0.3766 -0.8438
   8823SM  H18G11868   2.282   1.912  14.083  0.0130 -2.3192 -2.5437
   8823SM  C19F11869   2.292   1.869  14.290 -0.2907  0.4006  0.4162
   8823SM  H19F11870   2.184   1.844  14.299 -0.3185 -0.6662 -2.0479
   8823SM  H19G11871   2.298   1.978  14.314 -1.1906  0.6618 -0.4603
   8823SM  C20F11872   2.376   1.796  14.405  0.4460 -0.3677 -0.1226
   8823SM  H20F11873   2.330   1.828  14.501 -0.3205 -2.0096  0.0973
   8823SM  H20G11874   2.484   1.823  14.404  0.0898  1.3992 -3.0388
   8823SM  C21F11875   2.368   1.645  14.413  0.0859 -1.3651  0.3122
   8823SM  H21F11876   2.273   1.616  14.363 -0.2444  0.8154 -0.4287
   8823SM  H21G11877   2.372   1.601  14.514 -0.6721 -2.5741 -0.1645
   8823SM  C22F11878   2.486   1.574  14.338  0.3229 -0.3443 -0.3824
   8823SM  H22F11879   2.568   1.588  14.412  0.1145 -1.5617  0.1202
   8823SM  H22G11880   2.502   1.630  14.244  0.6486 -0.6497 -0.5099
   8823SM  C23F11881   2.460   1.433  14.290 -0.0169 -0.3329  0.1039
   8823SM  H23F11882   2.429   1.363  14.370 -0.4975  2.0876  2.1803
   8823SM  H23G11883   2.547   1.386  14.238 -1.3568 -2.8130 -0.0502
   8823SM  H23H11884   2.382   1.428  14.212  2.3940  0.4999 -2.5529
   8923SM     N11885   6.269   2.504  11.191  0.2725 -0.7437 -0.6799
   8923SM   C1511886   6.210   2.408  11.091  0.4352 -0.5644  0.0857
   8923SM  H15A11887   6.262   2.412  10.997  0.7687 -1.9698  0.2002
   8923SM  H15B11888   6.108   2.431  11.065  0.4862  1.4384  1.3829
   8923SM  H15C11889   6.210   2.307  11.128  0.2292 -0.9201 -0.8675
   8923SM   C1411890   6.417   2.461  11.204  0.1135  0.0909  0.1032
   8923SM  H14A11891   6.425   2.357  11.232 -0.0549 -0.0884 -0.4948
   8923SM  H14B11892   6.461   2.509  11.290  0.3572  2.1627 -1.1031
   8923SM  H14C11893   6.474   2.490  11.117 -1.8122 -1.0033 -1.6270
   8923SM   C1311894   6.262   2.640  11.144  0.7106  0.3086 -0.0507
   8923SM  H13A11895   6.161   2.660  11.110  1.1843 -1.3424 -2.7247
   8923SM  H13B11896   6.321   2.656  11.055  1.1771  0.5212  0.2969
   8923SM  H13C11897   6.288   2.724  11.207 -1.8071  0.8934  0.3097
   8923SM   C1211898   6.194   2.489  11.325 -0.0248  0.4561 -0.7076
   8923SM  H12A11899   6.088   2.505  11.311  0.0181  2.4417  0.8308
   8923SM  H12B11900   6.216   2.579  11.379 -1.1246  0.9844 -1.1137
   8923SM   C1111901   6.219   2.356  11.402 -0.0683 -0.1749 -0.4557
   8923SM  H11A11902   6.179   2.374  11.504 -0.5813 -1.0065 -0.5021
   8923SM  H11B11903   6.328   2.343  11.416 -0.2962 -1.0881  0.5781
   8923SM     P11904   6.010   2.214  11.355 -0.1083 -0.0095 -0.0784
   8923SM   O1311905   5.937   2.336  11.327  0.4526  0.0505 -0.2615
   8923SM   O1411906   5.972   2.093  11.273  0.0569 -1.2156  0.0119
   8923SM   O1111907   5.992   2.175  11.509 -0.1416  0.1693  0.0691
   8923SM   O1211908   6.167   2.240  11.334 -0.0734 -0.5035 -0.3715
   8923SM   C1S11909   5.978   2.046  11.553 -0.1157 -0.4029  0.0091
   8923SM   H1S11910   6.046   1.976  11.500 -1.1806 -1.7490  0.3805
   8923SM   H1T11911   5.871   2.015  11.552 -0.6574  1.1898  1.6286
   8923SM    NF11912   6.051   1.900  11.747 -0.3236 -0.5174 -0.6703
   8923SM   HNF11913   5.999   1.858  11.822  1.1012  2.5513  2.3276
   8923SM   C2S11914   6.016   2.037  11.713  0.4857  0.2269  0.0178
   8923SM   H2S11915   6.101   2.108  11.721  0.6175  0.2241 -1.1687
   8923SM   C3S11916   5.902   2.099  11.799  0.1254  0.4914 -0.4273
   8923SM   H3S11917   5.812   2.035  11.789 -0.9133  2.0196 -1.3704
   8923SM    O311918   5.850   2.220  11.752 -0.3678  0.5277 -0.8761
   8923SM   HO311919   5.871   2.216  11.659 -2.0822  1.7557 -1.3660
   8923SM   C4S11920   5.943   2.119  11.938  0.1337 -0.3152 -0.7546
   8923SM   H4S11921   5.888   2.070  12.020  1.2671  2.5604  1.9792
   8923SM   C5S11922   6.027   2.213  11.987  0.5780  0.3970  0.1533
   8923SM   H5S11923   6.072   2.283  11.915 -2.3208  1.5195 -0.7186
   8923SM   C6S11924   6.049   2.235  12.137  0.0708 -0.3696  0.3515
   8923SM   H6S11925   5.975   2.312  12.166  1.5882  1.5933 -0.7847
   8923SM   H6T11926   6.147   2.285  12.150 -0.0997 -0.2021  1.0645
   8923SM   C7S11927   6.050   2.112  12.226 -0.7152 -0.3705  0.7251
   8923SM   H7S11928   6.135   2.050  12.191 -0.0454  1.0566 -0.2721
   8923SM   H7T11929   5.958   2.054  12.203 -0.0134 -1.2402  0.0353
   8923SM   C8S11930   6.068   2.161  12.376 -0.1542  0.3986  0.4029
   8923SM   H8S11931   5.969   2.203  12.403 -1.1030 -0.6740 -1.2236
   8923SM   H8T11932   6.154   2.228  12.396  0.5770 -0.4841  0.3213
   8923SM   C9S11933   6.083   2.043  12.465 -0.7267 -0.0143 -0.0737
   8923SM   H9S11934   6.187   2.003  12.457  0.0946  2.1801 -1.1499
   8923SM   H9T11935   6.016   1.962  12.430  0.3543 -0.1615 -1.8905
   8923SM  C10S11936   6.046   2.080  12.609 -0.3154 -0.7351  0.0307
   8923SM  H10S11937   5.936   2.093  12.617 -0.2136 -0.3062  0.8006
   8923SM  H10T11938   6.094   2.179  12.621 -3.4392  0.6844  2.3023
   8923SM  C11S11939   6.100   1.980  12.718  0.3819 -0.8024 -1.3057
   8923SM  H11S11940   6.211   1.986  12.718  0.3415  0.2439 -1.9368
   8923SM  H11T11941   6.068   1.876  12.696  1.4553 -1.2873 -0.6821
   8923SM  C12S11942   6.047   2.023  12.858  0.0086  0.3675 -0.0508
   8923SM  H12S11943   5.936   2.033  12.858  0.1463  2.4168  0.5709
   8923SM  H12T11944   6.105   2.116  12.876  3.9108 -1.9424  0.4144
   8923SM  C13S11945   6.101   1.929  12.963 -0.2845 -0.3881 -0.1360
   8923SM  H13S11946   6.212   1.923  12.951 -0.1431  1.8988 -0.4591
   8923SM  H13T11947   6.060   1.826  12.950  2.0892 -1.4125 -0.2310
   8923SM  C14S11948   6.080   1.983  13.108 -0.5504  0.5506  0.2865
   8923SM  H14S11949   5.974   2.011  13.129 -0.4368  1.0447  0.2148
   8923SM  H14T11950   6.138   2.077  13.118 -0.1978  0.2273  1.4525
   8923SM  C15S11951   6.134   1.870  13.203 -0.1589 -0.0366 -0.0240
   8923SM  H15S11952   6.233   1.829  13.175  0.3944  1.4143 -0.2825
   8923SM  H15T11953   6.067   1.782  13.216  0.3530 -0.1578  2.1432
   8923SM  C16S11954   6.158   1.925  13.352 -0.1266  0.6673  0.1795
   8923SM  H16S11955   6.066   1.971  13.395 -0.1940  0.3001  0.4320
   8923SM  H16T11956   6.234   2.007  13.349  0.7163 -0.1161 -0.7457
   8923SM  C17S11957   6.196   1.810  13.441 -0.5220 -0.0903  0.0750
   8923SM  H17S11958   6.289   1.762  13.405 -1.3021  0.6643 -3.2347
   8923SM  H17T11959   6.122   1.727  13.440  0.3710 -0.9118  0.5329
   8923SM  C18S11960   6.226   1.853  13.584  0.0824 -0.6296  0.1978
   8923SM  H18S11961   6.272   1.774  13.649  1.7990 -0.0766 -0.2847
   8923SM  H18T11962   6.131   1.883  13.633 -1.6349 -0.2695 -3.0750
   8923SM  H18U11963   6.298   1.937  13.581  2.8795 -2.8915 -0.1950
   8923SM   C1F11964   6.155   1.846  11.692 -0.0800  0.6214  0.2719
   8923SM    OF11965   6.235   1.905  11.615  0.5168  0.5598 -0.1039
   8923SM   C2F11966   6.168   1.699  11.729 -0.2771  0.1334  0.4391
   8923SM   H2F11967   6.199   1.636  11.643 -1.4061  1.8917 -1.3620
   8923SM   H2G11968   6.065   1.662  11.749  0.3018 -2.0210 -0.3087
   8923SM   C3F11969   6.276   1.687  11.833 -0.4125  0.0170 -0.3255
   8923SM   H3F11970   6.257   1.750  11.923  0.2992  3.7160 -2.5706
   8923SM   H3G11971   6.365   1.734  11.786 -0.5156  0.3877 -0.1595
   8923SM   C4F11972   6.310   1.540  11.865  0.1196 -0.3094  0.3341
   8923SM   H4F11973   6.354   1.497  11.772  0.5829  1.7026 -0.4484
   8923SM   H4G11974   6.221   1.488  11.905  0.0570 -1.4316 -1.1776
   8923SM   C5F11975   6.411   1.520  11.974 -0.0169 -0.2110 -1.2876
   8923SM   H5F11976   6.407   1.617  12.028 -0.0333 -1.2939  0.7578
   8923SM   H5G11977   6.514   1.518  11.931  1.0372 -2.3631  1.1062
   8923SM   C6F11978   6.384   1.409  12.070  0.1329  0.3232 -0.1512
   8923SM   H6F11979   6.388   1.311  12.018 -1.6370  0.7616 -1.2204
   8923SM   H6G11980   6.279   1.417  12.104  0.2556  0.6409  0.1586
   8923SM   C7F11981   6.474   1.412  12.194 -0.1068 -0.3698  0.6417
   8923SM   H7F11982   6.466   1.517  12.230  0.5215  0.8311 -2.3773
   8923SM   H7G11983   6.577   1.397  12.155 -0.3305 -0.2991  0.0164
   8923SM   C8F11984   6.442   1.324  12.319  0.0782 -0.5731  0.6775
   8923SM   H8F11985   6.421   1.218  12.294 -0.2952 -1.1585  3.1602
   8923SM   H8G11986   6.345   1.368  12.350  1.0284  3.8782 -1.8189
   8923SM   C9F11987   6.545   1.346  12.431  0.8011 -0.7479 -0.2125
   8923SM   H9F11988   6.564   1.455  12.447 -0.9652 -0.6288  1.4398
   8923SM   H9G11989   6.645   1.307  12.405  1.0392  0.8603 -1.9388
   8923SM  C10F11990   6.510   1.270  12.565 -0.5823  0.3545 -0.1225
   8923SM  H10F11991   6.521   1.161  12.549  0.0649  0.3741  0.1684
   8923SM  H10G11992   6.410   1.295  12.606 -0.2163  2.2117 -0.2470
   8923SM  C11F11993   6.610   1.315  12.673 -0.0962 -0.0214 -0.3414
   8923SM  H11F11994   6.622   1.425  12.676 -1.0923  0.0982 -0.3799
   8923SM  H11G11995   6.713   1.277  12.653  1.2667  2.9017  0.5305
   8923SM  C12F11996   6.565   1.260  12.807  0.4574 -0.1752  0.0126
   8923SM  H12F11997   6.564   1.149  12.804  1.1645 -0.2009  0.4061
   8923SM  H12G11998   6.459   1.282  12.832  1.2254  1.5012  2.0960
   8923SM  C13F11999   6.667   1.292  12.919  0.0528 -0.1320  0.0596
   8923SM  H13F12000   6.667   1.403  12.930  1.0546 -0.2257  1.2681
   8923SM  H13G12001   6.765   1.269  12.871 -1.3312 -3.3120 -1.5313
   8923SM  C14F12002   6.648   1.222  13.056  0.0830  0.3772 -0.5940
   8923SM  H14F12003   6.649   1.111  13.059  1.4772  0.3393 -1.6833
   8923SM  H14G12004   6.549   1.258  13.092 -0.0584 -0.0772 -0.5265
   8923SM  C15F12005   6.750   1.268  13.154 -0.1143 -0.3881 -0.5548
   8923SM  H15F12006   6.719   1.367  13.193 -3.9722 -1.3796 -0.6718
   8923SM  H15G12007   6.849   1.282  13.107  0.1415 -3.2459 -1.0482
   8923SM  C16F12008   6.768   1.184  13.277  0.1079  0.2552 -0.5599
   8923SM  H16F12009   6.815   1.092  13.237  0.9656 -0.0941  1.1735
   8923SM  H16G12010   6.681   1.160  13.343  1.7964  1.2850  2.2194
   8923SM  C17F12011   6.863   1.248  13.384  0.5243  0.7499  0.0277
   8923SM  H17F12012   6.827   1.353  13.395 -2.2833 -0.1666  0.4754
   8923SM  H17G12013   6.957   1.241  13.325  0.4015  1.3099 -0.2374
   8923SM  C18F12014   6.881   1.160  13.520 -0.1556 -0.1679  0.1818
   8923SM  H18F12015   6.915   1.063  13.478  0.1717  0.5585 -1.3164
   8923SM  H18G12016   6.777   1.148  13.559  0.1250 -3.7591  0.1639
   8923SM  C19F12017   6.989   1.227  13.601 -0.2904  0.1320 -0.2516
   8923SM  H19F12018   6.969   1.336  13.587 -2.3104 -0.2831 -1.0121
   8923SM  H19G12019   7.083   1.199  13.549 -0.2439 -0.2922  0.0627
   8923SM  C20F12020   6.989   1.201  13.753  0.6170 -0.0513 -0.5821
   8923SM  H20F12021   6.888   1.215  13.796  0.3462 -0.3098 -1.1231
   8923SM  H20G12022   7.064   1.267  13.803  1.0324  0.4931 -1.8810
   8923SM  C21F12023   7.019   1.060  13.803  0.7932  0.1579 -0.4369
   8923SM  H21F12024   7.118   1.027  13.764 -0.4279 -3.4018 -0.8767
   8923SM  H21G12025   6.945   0.994  13.754  2.2749 -0.6949 -1.6460
   8923SM  C22F12026   6.992   1.056  13.952  0.2983 -0.5887  0.5922
   8923SM  H22F12027   6.899   1.109  13.980  1.8704  2.9893 -0.4496
   8923SM  H22G12028   7.074   1.114  13.999 -1.0791  1.4273  0.6029
   8923SM  C23F12029   6.999   0.911  13.996  0.1396  0.0243  0.8159
   8923SM  H23F12030   6.974   0.888  14.102  0.2753 -4.2613  0.0897
   8923SM  H23G12031   7.097   0.875  13.959  0.5322  0.4428  1.4429
   8923SM  H23H12032   6.917   0.862  13.939  0.2921 -1.6090  1.9417
   9023SM     N12033   5.983   0.885  10.692  0.2981  0.3726 -0.3310
   9023SM   C1512034   5.867   0.974  10.650 -0.0267 -0.0702 -0.5307
   9023SM  H15A12035   5.909   1.055  10.591 -0.0154 -0.3632 -0.9305
   9023SM  H15B12036   5.829   1.019  10.740  1.0033  1.4312 -0.8019
   9023SM  H15C12037   5.792   0.927  10.589  0.6413 -1.5805 -0.2388
   9023SM   C1412038   5.932   0.774  10.780  0.5436  0.2894 -0.9344
   9023SM  H14A12039   5.861   0.705  10.735 -0.5092  0.8331 -0.1504
   9023SM  H14B12040   5.885   0.822  10.864 -0.1168 -0.8833 -0.6055
   9023SM  H14C12041   6.011   0.707  10.811 -0.0142 -0.2271 -0.5913
   9023SM   C1312042   6.044   0.826  10.572 -0.0805 -0.7837  0.6895
   9023SM  H13A12043   6.144   0.793  10.596  1.5692  2.6615 -0.6801
   9023SM  H13B12044   6.063   0.902  10.498 -1.4026  0.2515  1.3668
   9023SM  H13C12045   5.977   0.749  10.538  0.7276 -0.6892 -1.2745
   9023SM   C1212046   6.080   0.964  10.772  0.2822  0.1074 -0.2466
   9023SM  H12A12047   6.140   1.015  10.698  0.1350 -0.5091 -0.8015
   9023SM  H12B12048   6.149   0.890  10.810 -0.0444  0.4664  1.0980
   9023SM   C1112049   6.048   1.059  10.890 -0.4248 -0.7836 -0.1787
   9023SM  H11A12050   5.998   1.154  10.863  3.1251  1.4788  0.5178
   9023SM  H11B12051   6.143   1.103  10.929 -0.4487  0.4941 -1.4622
   9023SM     P12052   6.022   0.932  11.127 -0.0512  0.0159 -0.3364
   9023SM   O1312053   5.904   0.934  11.212 -0.3391 -0.2396  0.6366
   9023SM   O1412054   6.085   0.802  11.112  0.0344  0.1573  0.1352
   9023SM   O1112055   6.132   1.033  11.186 -0.0640 -0.1019  0.5910
   9023SM   O1212056   5.975   0.997  10.992 -0.1542  0.1346  0.5013
   9023SM   C1S12057   6.076   1.136  11.271 -0.3611  0.3975  0.3650
   9023SM   H1S12058   5.993   1.109  11.339  0.5465  0.9831  1.7528
   9023SM   H1T12059   6.049   1.228  11.216 -1.8601  0.1044  0.5753
   9023SM    NF12060   6.125   1.271  11.463  0.0727 -0.2081 -0.6351
   9023SM   HNF12061   6.141   1.369  11.459 -0.2412 -0.1939 -1.8641
   9023SM   C2S12062   6.189   1.182  11.369  0.3551  0.2614 -0.2214
   9023SM   H2S12063   6.230   1.093  11.422  0.6964  1.3656  1.4440
   9023SM   C3S12064   6.309   1.247  11.290  0.6884 -0.1310 -0.9999
   9023SM   H3S12065   6.274   1.348  11.259 -0.5582 -0.0045  0.7136
   9023SM    O312066   6.346   1.178  11.174 -0.4223  0.1967 -0.0201
   9023SM   HO312067   6.277   1.112  11.173  0.3211 -0.6548 -2.8344
   9023SM   C4S12068   6.427   1.289  11.385  0.1673 -0.5080 -0.1355
   9023SM   H4S12069   6.419   1.386  11.435 -1.4166 -1.7695  2.2298
   9023SM   C5S12070   6.537   1.226  11.411  0.3230  0.1375 -0.1478
   9023SM   H5S12071   6.557   1.128  11.366 -1.6341 -1.9017  3.0233
   9023SM   C6S12072   6.652   1.271  11.509  0.3563 -0.0339  0.1724
   9023SM   H6S12073   6.736   1.311  11.448 -0.4117  0.5649 -0.5150
   9023SM   H6T12074   6.686   1.180  11.562  0.7035 -0.8698 -1.4219
   9023SM   C7S12075   6.615   1.374  11.620 -0.1414  0.6756 -0.2377
   9023SM   H7S12076   6.518   1.344  11.666  0.5049 -2.7293 -0.8384
   9023SM   H7T12077   6.610   1.474  11.571  4.6366  1.3413  0.1667
   9023SM   C8S12078   6.717   1.378  11.730  0.3383  1.1742 -0.1840
   9023SM   H8S12079   6.705   1.464  11.799  1.4260 -0.1169  1.7127
   9023SM   H8T12080   6.817   1.377  11.681  0.4642 -0.5781  0.0314
   9023SM   C9S12081   6.708   1.253  11.828  0.5481 -0.4236 -0.0159
   9023SM   H9S12082   6.732   1.164  11.766 -0.1329 -1.0316  0.5825
   9023SM   H9T12083   6.603   1.243  11.861  0.6791  0.4191  0.7230
   9023SM  C10S12084   6.808   1.266  11.950  0.5718  0.0054  0.3677
   9023SM  H10S12085   6.787   1.365  11.996 -1.0582 -1.5140  3.1234
   9023SM  H10T12086   6.913   1.265  11.914  0.5996  1.3047  0.3731
   9023SM  C11S12087   6.783   1.159  12.060  0.8214  0.1558  0.2073
   9023SM  H11S12088   6.813   1.062  12.016  2.3473  0.3855  0.6948
   9023SM  H11T12089   6.674   1.143  12.077  0.6446  0.0240 -0.9177
   9023SM  C12S12090   6.862   1.185  12.192  0.5204 -0.0279  0.7993
   9023SM  H12S12091   6.843   1.292  12.214  0.2078  0.8258 -2.9021
   9023SM  H12T12092   6.967   1.180  12.156 -0.2291  0.9535 -1.7515
   9023SM  C13S12093   6.822   1.086  12.308 -0.4872  0.8429  0.2102
   9023SM  H13S12094   6.813   0.983  12.267 -0.1586  0.2634  1.5511
   9023SM  H13T12095   6.718   1.114  12.336 -1.0492 -0.4627 -0.4861
   9023SM  C14S12096   6.918   1.106  12.428  0.5601 -0.3763  0.8075
   9023SM  H14S12097   6.912   1.209  12.469  0.6013 -0.2878  0.5879
   9023SM  H14T12098   7.024   1.089  12.399 -0.1318 -2.2968 -0.8166
   9023SM  C15S12099   6.893   1.005  12.543 -0.4573 -0.0153  0.4708
   9023SM  H15S12100   6.916   0.899  12.521  1.7266  0.2890  1.0400
   9023SM  H15T12101   6.783   1.014  12.562 -0.7399 -0.1288 -1.0340
   9023SM  C16S12102   6.965   1.035  12.671 -0.3410 -0.1659  0.9644
   9023SM  H16S12103   6.960   1.144  12.691  0.1353 -0.1758  1.1318
   9023SM  H16T12104   7.072   1.008  12.659 -0.1059  1.2047 -0.4381
   9023SM  C17S12105   6.904   0.958  12.790 -0.4402  0.3548 -0.0661
   9023SM  H17S12106   6.921   0.849  12.774  1.6974  0.4116  1.4274
   9023SM  H17T12107   6.793   0.963  12.790 -0.6477 -2.3351 -1.5749
   9023SM  C18S12108   6.965   0.986  12.921 -0.4579  0.3502 -0.1174
   9023SM  H18S12109   6.964   1.092  12.953 -0.3043  0.0121  1.0769
   9023SM  H18T12110   7.069   0.947  12.927 -0.4630 -0.0496 -2.0197
   9023SM  H18U12111   6.915   0.938  13.008 -1.3866  2.0817  0.3496
   9023SM   C1F12112   6.042   1.237  11.562 -0.0960  0.2425  0.3070
   9023SM    OF12113   6.004   1.125  11.569  0.3671 -0.4838 -0.4702
   9023SM   C2F12114   5.998   1.354  11.655 -0.0702  0.4534 -0.4954
   9023SM   H2F12115   5.938   1.429  11.600 -1.0129  0.6704  0.7841
   9023SM   H2G12116   6.095   1.403  11.675  1.0750 -1.1706 -1.7795
   9023SM   C3F12117   5.928   1.311  11.789  0.0990 -0.2837  0.1871
   9023SM   H3F12118   5.824   1.275  11.774  0.0863 -0.9736  1.7159
   9023SM   H3G12119   5.906   1.407  11.841  0.6995 -0.4708  0.8019
   9023SM   C4F12120   6.012   1.225  11.885 -0.3310  0.0247 -0.5424
   9023SM   H4F12121   6.115   1.266  11.890 -0.6679  0.9092 -0.5809
   9023SM   H4G12122   6.033   1.119  11.863 -1.4480 -0.3251 -0.0097
   9023SM   C5F12123   5.964   1.227  12.035 -0.4274  0.2127  0.0181
   9023SM   H5F12124   5.862   1.185  12.039 -0.3949 -0.0087 -1.2365
   9023SM   H5G12125   5.968   1.327  12.084 -0.8332 -0.3876  1.3248
   9023SM   C6F12126   6.064   1.148  12.116 -0.0551  0.3492  0.1211
   9023SM   H6F12127   6.167   1.175  12.084 -0.6953  0.4044 -2.0735
   9023SM   H6G12128   6.041   1.041  12.099 -1.0347  0.6268 -0.3999
   9023SM   C7F12129   6.058   1.185  12.267  0.3005  1.4274  0.2060
   9023SM   H7F12130   5.955   1.159  12.301  0.2588 -3.0184 -2.4787
   9023SM   H7G12131   6.074   1.294  12.278 -2.0894  1.8474  0.1331
   9023SM   C8F12132   6.133   1.084  12.359 -1.2334  0.1834  0.0475
   9023SM   H8F12133   6.240   1.091  12.328 -0.8004 -2.6586  0.6698
   9023SM   H8G12134   6.095   0.981  12.341 -0.0443 -0.2314 -0.2078
   9023SM   C9F12135   6.124   1.116  12.511 -0.1542 -0.0180  0.3880
   9023SM   H9F12136   6.018   1.091  12.535  0.4955 -4.0390 -0.2711
   9023SM   H9G12137   6.154   1.222  12.517  0.0829 -0.1265  1.1145
   9023SM  C10F12138   6.206   1.033  12.607 -0.4831  0.1740 -0.0994
   9023SM  H10F12139   6.315   1.036  12.586 -0.2333 -0.7369  0.9479
   9023SM  H10G12140   6.175   0.927  12.607  0.2213 -0.0538  1.3073
   9023SM  C11F12141   6.188   1.072  12.754 -0.5436 -0.1598  0.0358
   9023SM  H11F12142   6.086   1.100  12.789 -0.2221 -2.0939  2.8931
   9023SM  H11G12143   6.255   1.160  12.755 -0.6808 -0.0492 -0.3588
   9023SM  C12F12144   6.254   0.972  12.847  0.0533  0.8354 -0.3832
   9023SM  H12F12145   6.335   0.920  12.791 -2.6103 -0.2308 -3.5522
   9023SM  H12G12146   6.182   0.894  12.878  1.1639 -1.3099 -2.8492
   9023SM  C13F12147   6.309   1.039  12.979 -0.3475  0.8493 -0.3144
   9023SM  H13F12148   6.235   1.104  13.031  0.5100  0.9341  0.8508
   9023SM  H13G12149   6.398   1.102  12.953 -1.3431  2.0769 -0.8767
   9023SM  C14F12150   6.352   0.936  13.087 -0.0242 -0.4449 -0.6144
   9023SM  H14F12151   6.452   0.898  13.057  1.3347  3.4196 -1.4943
   9023SM  H14G12152   6.278   0.853  13.084 -1.5069  0.6621  1.7941
   9023SM  C15F12153   6.370   0.979  13.234 -0.2160  0.9460  0.8949
   9023SM  H15F12154   6.278   1.039  13.252 -1.3175 -0.0826 -0.9483
   9023SM  H15G12155   6.460   1.044  13.239 -0.1520  0.9082  0.2548
   9023SM  C16F12156   6.364   0.861  13.333  0.1587  0.5337 -0.2418
   9023SM  H16F12157   6.448   0.791  13.316  1.3089  1.6230  0.7645
   9023SM  H16G12158   6.278   0.791  13.323 -2.0876  3.2565 -1.2106
   9023SM  C17F12159   6.361   0.911  13.478 -0.0333  0.2079  0.2849
   9023SM  H17F12160   6.329   0.832  13.549 -0.1416  2.4822  2.9203
   9023SM  H17G12161   6.282   0.988  13.491 -0.7254 -0.2839 -0.8021
   9023SM  C18F12162   6.496   0.962  13.538  0.1743  0.1060 -0.0958
   9023SM  H18F12163   6.524   1.067  13.517 -0.9169  0.7432  1.4144
   9023SM  H18G12164   6.583   0.905  13.499 -0.6788 -0.0622 -1.8233
   9023SM  C19F12165   6.493   0.950  13.691  0.7458 -0.1787  0.1160
   9023SM  H19F12166   6.460   0.845  13.708 -1.5798  0.2947 -0.9643
   9023SM  H19G12167   6.413   1.010  13.739 -0.4688 -1.6484  0.0406
   9023SM  C20F12168   6.630   0.984  13.760  0.1889 -0.3972  0.2962
   9023SM  H20F12169   6.664   1.084  13.727 -0.2405 -0.9751 -2.0734
   9023SM  H20G12170   6.703   0.908  13.724  1.8841  1.9907 -1.5998
   9023SM  C21F12171   6.626   0.965  13.910 -0.6797  0.4748  0.3702
   9023SM  H21F12172   6.536   1.021  13.943  0.6455  3.1848 -0.2622
   9023SM  H21G12173   6.713   1.010  13.962 -0.4699  1.5021 -0.8189
   9023SM  C22F12174   6.617   0.816  13.955  0.3654 -0.2319  0.2951
   9023SM  H22F12175   6.698   0.771  13.893 -0.2123 -0.5682 -0.2274
   9023SM  H22G12176   6.523   0.760  13.934  1.3152 -2.1043  0.8392
   9023SM  C23F12177   6.658   0.777  14.093 -0.0370  0.2160  0.0681
   9023SM  H23F12178   6.739   0.837  14.139 -0.8001  0.7928  0.6688
   9023SM  H23G12179   6.704   0.676  14.087 -1.0393 -0.3192  1.1079
   9023SM  H23H12180   6.589   0.783  14.180  2.2525 -1.2471  2.1123
   9123SM     N12181   5.508   4.215  11.829 -0.3817  0.1507  0.3592
   9123SM   C1512182   5.384   4.201  11.749  0.1610 -0.5274  0.7218
   9123SM  H15A12183   5.373   4.287  11.685 -0.9421  0.8311  2.6233
   9123SM  H15B12184   5.292   4.207  11.806  0.7835 -1.4194  1.8594
   9123SM  H15C12185   5.366   4.121  11.678 -2.8791  1.3310 -0.8387
   9123SM   C1412186   5.614   4.230  11.730  0.3856  0.0967 -0.2497
   9123SM  H14A12187   5.584   4.309  11.662  0.7263  0.7856  0.3886
   9123SM  H14B12188   5.626   4.139  11.674  0.8650  0.2075 -0.3309
   9123SM  H14C12189   5.713   4.253  11.768  0.0972  0.7380  0.1342
   9123SM   C1312190   5.497   4.341  11.911 -0.6628  0.7682  0.5857
   9123SM  H13A12191   5.595   4.372  11.946  0.3750  0.1114 -1.5816
   9123SM  H13B12192   5.434   4.321  11.996  0.3657 -2.0475  0.7812
   9123SM  H13C12193   5.462   4.425  11.854  0.2478  1.3958  0.9252
   9123SM   C1212194   5.532   4.094  11.919 -0.3012  0.2119  0.1996
   9123SM  H12A12195   5.468   4.107  12.005  0.2017  0.9476  0.4697
   9123SM  H12B12196   5.634   4.101  11.954  0.0401 -2.2015 -0.0937
   9123SM   C1112197   5.514   3.957  11.857 -0.1397  0.5680  0.1108
   9123SM  H11A12198   5.420   3.953  11.799  0.2147 -3.0935 -0.4835
   9123SM  H11B12199   5.505   3.871  11.928  0.8406  0.0664 -0.3485
   9123SM     P12200   5.769   3.918  11.803  0.2206  0.1700  0.1354
   9123SM   O1312201   5.832   3.799  11.735  0.1445 -0.3391  0.1773
   9123SM   O1412202   5.844   4.049  11.792 -0.2757  0.2818  0.6041
   9123SM   O1112203   5.754   3.882  11.955 -0.3283 -0.1549 -0.0126
   9123SM   O1212204   5.618   3.936  11.760  0.4592  0.2073 -0.2470
   9123SM   C1S12205   5.728   3.747  12.002  0.0614  0.4180 -0.1118
   9123SM   H1S12206   5.763   3.672  11.928 -1.7635 -0.2839 -0.3207
   9123SM   H1T12207   5.620   3.732  12.023  0.4974 -2.2252  0.5891
   9123SM    NF12208   5.827   3.602  12.190  0.5979  0.3957  0.1973
   9123SM   HNF12209   5.787   3.585  12.279  1.6959 -0.5184  0.5330
   9123SM   C2S12210   5.813   3.736  12.135  0.7840 -0.1161 -0.1972
   9123SM   H2S12211   5.919   3.766  12.118  1.5275 -1.1814  2.0952
   9123SM   C3S12212   5.765   3.838  12.236 -0.6115 -0.5008  0.5345
   9123SM   H3S12213   5.661   3.813  12.267 -1.5389  3.5319  1.2270
   9123SM    O312214   5.752   3.978  12.192  1.0599  0.2481 -0.3685
   9123SM   HO312215   5.762   3.965  12.097 -2.4430 -0.2539 -0.7892
   9123SM   C4S12216   5.850   3.829  12.361  0.3372 -0.0847  0.2580
   9123SM   H4S12217   5.806   3.767  12.441 -0.5438  1.0182  0.6532
   9123SM   C5S12218   5.964   3.894  12.388 -1.1313 -0.2183  0.0752
   9123SM   H5S12219   6.003   3.964  12.313 -0.7600  0.3916  0.8230
   9123SM   C6S12220   6.042   3.888  12.509  0.0421 -0.3998 -1.0038
   9123SM   H6S12221   6.059   3.992  12.546  0.3863 -0.6205 -0.5346
   9123SM   H6T12222   6.137   3.831  12.501  1.9087  1.9999  1.7990
   9123SM   C7S12223   5.972   3.818  12.635 -0.1815  0.0021 -0.4409
   9123SM   H7S12224   5.950   3.711  12.611 -1.1504  0.2075 -0.4753
   9123SM   H7T12225   5.882   3.872  12.669  1.1803  1.4105  1.0776
   9123SM   C8S12226   6.065   3.815  12.759 -0.8518  0.3503  0.6490
   9123SM   H8S12227   6.118   3.911  12.772 -1.2471  1.0379 -2.2393
   9123SM   H8T12228   6.150   3.744  12.754  0.3689  1.7937  0.1572
   9123SM   C9S12229   5.989   3.791  12.891  0.2426  0.3946 -0.5242
   9123SM   H9S12230   5.938   3.692  12.891  0.7216  0.1463 -0.3932
   9123SM   H9T12231   5.910   3.868  12.906  0.7505  1.0793 -1.3281
   9123SM  C10S12232   6.081   3.803  13.009  0.6170  0.2375  0.1881
   9123SM  H10S12233   6.117   3.905  13.034  1.0215  0.3865 -0.9459
   9123SM  H10T12234   6.162   3.729  12.993  1.1204  0.6103  0.9380
   9123SM  C11S12235   6.007   3.758  13.135  0.2223 -0.1124  0.0097
   9123SM  H11S12236   5.977   3.652  13.127  0.2346 -0.0699 -0.7335
   9123SM  H11T12237   5.920   3.827  13.143  0.4238  0.3129 -1.2473
   9123SM  C12S12238   6.086   3.770  13.261 -0.1465 -0.3588 -0.1139
   9123SM  H12S12239   6.100   3.878  13.285  0.1737 -0.4414  0.0806
   9123SM  H12T12240   6.191   3.735  13.257 -0.6101 -1.8138 -0.3550
   9123SM  C13S12241   6.021   3.691  13.378 -0.2534 -0.4396  0.0415
   9123SM  H13S12242   6.029   3.585  13.347  2.8467 -0.3771  0.2940
   9123SM  H13T12243   5.914   3.721  13.378 -0.6690 -1.8217 -1.2857
   9123SM  C14S12244   6.082   3.714  13.512 -0.0184  0.0340  0.0391
   9123SM  H14S12245   6.102   3.822  13.530  3.2113 -0.2321 -1.1717
   9123SM  H14T12246   6.181   3.665  13.501  0.0526  0.2365 -0.2311
   9123SM  C15S12247   6.002   3.644  13.625  0.3504  0.4083 -0.2316
   9123SM  H15S12248   5.988   3.536  13.607  0.8547  0.2722  0.1632
   9123SM  H15T12249   5.909   3.704  13.636  0.2174  0.2167 -0.3189
   9123SM  C16S12250   6.061   3.664  13.771  0.2079  0.0593 -0.1874
   9123SM  H16S12251   6.166   3.628  13.765 -0.0774 -0.5602 -2.3732
   9123SM  H16T12252   6.005   3.602  13.844  1.6395 -1.1092 -0.0232
   9123SM  C17S12253   6.069   3.802  13.815  0.0977 -0.5369  0.1558
   9123SM  H17S12254   5.963   3.836  13.816 -0.3975 -2.0290  0.8250
   9123SM  H17T12255   6.106   3.871  13.735 -1.1174 -0.4024 -0.3120
   9123SM  C18S12256   6.138   3.828  13.950  0.2071  0.1906  0.6983
   9123SM  H18S12257   6.056   3.804  14.022 -0.9642  0.1283 -0.6172
   9123SM  H18T12258   6.172   3.934  13.953 -0.4673  0.4220  0.3251
   9123SM  H18U12259   6.226   3.761  13.958 -0.4879 -0.7968  0.2722
   9123SM   C1F12260   5.867   3.495  12.126  0.2287  0.6622 -0.2621
   9123SM    OF12261   5.890   3.495  12.008 -0.8554 -0.6803  0.0191
   9123SM   C2F12262   5.858   3.359  12.200 -0.2050  0.0581  0.2471
   9123SM   H2F12263   5.756   3.320  12.221  0.3425 -1.1901  0.6889
   9123SM   H2G12264   5.901   3.376  12.300 -1.8151 -1.9056  1.3572
   9123SM   C3F12265   5.938   3.252  12.121 -0.5264  0.0132 -0.0784
   9123SM   H3F12266   6.034   3.296  12.088 -1.1643  0.8441 -0.8773
   9123SM   H3G12267   5.879   3.214  12.034 -1.6861 -0.0880  0.7289
   9123SM   C4F12268   5.953   3.123  12.205 -0.4377 -0.0458  0.1149
   9123SM   H4F12269   5.929   3.027  12.155  0.5109 -1.2021  1.7863
   9123SM   H4G12270   5.885   3.126  12.292 -0.0542 -0.3107  0.4257
   9123SM   C5F12271   6.091   3.124  12.270  0.4732  0.2062 -0.3094
   9123SM   H5F12272   6.110   3.212  12.334  1.3012 -0.6240  0.6251
   9123SM   H5G12273   6.169   3.123  12.190  1.6674 -0.3470  0.8368
   9123SM   C6F12274   6.112   3.003  12.368  0.8446  0.3871 -0.0390
   9123SM   H6F12275   6.220   2.977  12.369  0.5661 -0.8699 -0.7351
   9123SM   H6G12276   6.070   2.910  12.325  1.2231  0.7232 -1.1799
   9123SM   C7F12277   6.050   3.031  12.510  0.7740 -0.3081  0.0428
   9123SM   H7F12278   5.940   3.043  12.503  0.8101  1.1403  1.3634
   9123SM   H7G12279   6.089   3.125  12.554  1.2441  0.3020 -1.5848
   9123SM   C8F12280   6.082   2.930  12.619  0.3846  0.1723  0.2611
   9123SM   H8F12281   6.191   2.907  12.623  0.0880 -1.2829  0.7027
   9123SM   H8G12282   6.036   2.833  12.588  1.9724 -0.8506  0.9923
   9123SM   C9F12283   6.025   2.962  12.759  0.2839 -1.3107 -0.1877
   9123SM   H9F12284   5.916   2.983  12.749  0.0605 -0.5269  3.0305
   9123SM   H9G12285   6.077   3.055  12.790 -2.6860  0.5519 -0.3387
   9123SM  C10F12286   6.049   2.860  12.867  0.5636  0.2965 -0.3285
   9123SM  H10F12287   6.159   2.844  12.872  0.3164 -1.2551  1.9241
   9123SM  H10G12288   5.993   2.765  12.851  1.6345 -0.2808 -0.7615
   9123SM  C11F12289   6.026   2.911  13.009  0.0586  0.3173 -0.7758
   9123SM  H11F12290   5.918   2.928  13.028  0.4998  2.4441  0.0557
   9123SM  H11G12291   6.066   3.014  13.018  1.2734 -0.0963 -1.1495
   9123SM  C12F12292   6.076   2.813  13.123  0.1751  0.8658 -0.1129
   9123SM  H12F12293   6.185   2.793  13.110  0.6925  2.3436  1.5593
   9123SM  H12G12294   6.019   2.721  13.100 -0.6127  1.0816  0.9574
   9123SM  C13F12295   6.049   2.866  13.262  0.1950  0.2559 -0.1787
   9123SM  H13F12296   5.956   2.926  13.272  1.6720  2.5797  0.3452
   9123SM  H13G12297   6.135   2.929  13.293 -0.2934  0.6502  0.3888
   9123SM  C14F12298   6.052   2.757  13.375 -0.3335 -0.1771 -0.5896
   9123SM  H14F12299   6.150   2.705  13.364 -2.0395 -4.3767  1.7515
   9123SM  H14G12300   5.977   2.676  13.361  0.2622 -0.6860 -0.9503
   9123SM  C15F12301   6.026   2.822  13.513 -0.0330 -0.2116 -0.3485
   9123SM  H15F12302   5.919   2.852  13.521  0.2824  0.5521  1.6088
   9123SM  H15G12303   6.090   2.912  13.510  0.8722 -0.8708 -1.9611
   9123SM  C16F12304   6.061   2.728  13.628  0.8237 -0.2401 -0.6025
   9123SM  H16F12305   6.166   2.696  13.613  0.5354 -0.3710 -2.5989
   9123SM  H16G12306   6.002   2.634  13.624  3.2513 -1.9026  0.3140
   9123SM  C17F12307   6.054   2.804  13.767 -0.7282  0.6868 -0.0150
   9123SM  H17F12308   5.951   2.845  13.770 -1.0282  0.2207 -2.1425
   9123SM  H17G12309   6.116   2.896  13.763 -1.3363  1.2474  2.1299
   9123SM  C18F12310   6.094   2.734  13.896  0.5308  0.3082  0.4395
   9123SM  H18F12311   6.022   2.654  13.924  0.5570 -0.5257 -1.6759
   9123SM  H18G12312   6.077   2.804  13.981 -1.1048  0.4549  0.0326
   9123SM  C19F12313   6.237   2.666  13.890 -0.0526  0.2496  0.1714
   9123SM  H19F12314   6.321   2.716  13.838  0.7178 -0.4702  0.7038
   9123SM  H19G12315   6.240   2.564  13.847  2.1750 -1.0672  3.1907
   9123SM  C20F12316   6.279   2.634  14.030 -0.6882 -0.1050 -0.4991
   9123SM  H20F12317   6.188   2.598  14.082  0.5015 -0.4474  1.4596
   9123SM  H20G12318   6.326   2.718  14.086  1.1581 -2.2105  1.3452
   9123SM  C21F12319   6.378   2.511  14.037  0.8300  0.2435  0.3256
   9123SM  H21F12320   6.329   2.414  14.016 -2.0172  1.4641  0.8388
   9123SM  H21G12321   6.411   2.496  14.142  0.2205 -0.6950  0.3912
   9123SM  C22F12322   6.504   2.522  13.959  0.7887  0.0105  0.1488
   9123SM  H22F12323   6.550   2.621  13.980 -0.3472  0.9799 -1.6845
   9123SM  H22G12324   6.486   2.523  13.850  0.3761 -0.1342  0.2150
   9123SM  C23F12325   6.605   2.405  13.987 -0.3006  0.5703  0.5639
   9123SM  H23F12326   6.683   2.398  13.908 -1.4250 -0.5021 -0.4962
   9123SM  H23G12327   6.558   2.307  13.966  1.4982  0.1532 -2.0070
   9123SM  H23H12328   6.649   2.403  14.089 -0.5998 -0.3066  0.6772
   9223SM     N12329   5.672   1.271  11.365 -0.1080 -0.6440 -0.1820
   9223SM   C1512330   5.737   1.185  11.472  0.6426  0.6318  0.2157
   9223SM  H15A12331   5.678   1.100  11.503  1.3927 -0.3974 -1.0335
   9223SM  H15B12332   5.767   1.248  11.554  0.9342  1.2130 -0.3340
   9223SM  H15C12333   5.816   1.128  11.424 -0.8663  0.5761 -2.4144
   9223SM   C1412334   5.778   1.359  11.309 -0.1171  0.1027 -0.8646
   9223SM  H14A12335   5.737   1.433  11.242 -0.8357  0.0407 -0.4957
   9223SM  H14B12336   5.859   1.301  11.266 -0.6368 -1.2876 -0.0200
   9223SM  H14C12337   5.813   1.425  11.386  1.5732 -1.5437 -0.1301
   9223SM   C1312338   5.614   1.201  11.247  0.0512  0.4600  0.0666
   9223SM  H13A12339   5.537   1.132  11.280  1.2738 -0.3497  1.3415
   9223SM  H13B12340   5.687   1.148  11.187 -2.9070 -1.5843 -2.0067
   9223SM  H13C12341   5.583   1.273  11.172  1.0942 -0.0102 -0.8376
   9223SM   C1212342   5.560   1.352  11.433 -0.1113 -0.0064 -0.3860
   9223SM  H12A12343   5.480   1.284  11.457 -0.9798  1.4204  0.9968
   9223SM  H12B12344   5.516   1.413  11.355  1.8161 -2.2395 -3.4333
   9223SM   C1112345   5.605   1.430  11.564  0.3293  0.1735  0.1838
   9223SM  H11A12346   5.633   1.350  11.636 -0.5845 -1.0645 -0.7864
   9223SM  H11B12347   5.513   1.480  11.603 -0.5238  0.6285 -2.1984
   9223SM     P12348   5.725   1.666  11.537  0.1154  0.4776  0.3430
   9223SM   O1312349   5.859   1.703  11.486 -0.1615  0.4222 -0.8382
   9223SM   O1412350   5.609   1.712  11.459 -0.0223 -0.5850 -0.2744
   9223SM   O1112351   5.696   1.713  11.681 -0.4896  0.5331 -0.0600
   9223SM   O1212352   5.723   1.514  11.547 -0.2028  0.1787  0.4247
   9223SM   C1S12353   5.758   1.639  11.795  0.3304 -0.8522  0.3990
   9223SM   H1S12354   5.869   1.646  11.786  0.1765  0.7778 -0.7595
   9223SM   H1T12355   5.725   1.533  11.797 -1.4086 -0.3881 -0.9992
   9223SM    NF12356   5.789   1.668  12.040 -0.3256 -0.0080  0.2437
   9223SM   HNF12357   5.757   1.601  12.106 -1.6229  0.7793  0.4365
   9223SM   C2S12358   5.713   1.704  11.932  0.4568 -0.0418  0.1511
   9223SM   H2S12359   5.727   1.814  11.921  3.1667 -0.3635 -0.1757
   9223SM   C3S12360   5.562   1.690  11.956  0.0460  0.8924  0.1712
   9223SM   H3S12361   5.534   1.583  11.948 -1.4829  1.1348  1.8117
   9223SM    O312362   5.484   1.748  11.856  0.2071 -0.2848 -0.1044
   9223SM   HO312363   5.542   1.774  11.784 -0.5100  0.4227 -0.4318
   9223SM   C4S12364   5.528   1.743  12.087  0.0206  0.7114 -0.1961
   9223SM   H4S12365   5.547   1.674  12.171 -0.9507  1.0259  0.3018
   9223SM   C5S12366   5.489   1.865  12.125 -0.3576 -0.0114 -0.3838
   9223SM   H5S12367   5.466   1.946  12.054 -3.0846  0.6909  1.1202
   9223SM   C6S12368   5.448   1.895  12.267 -0.0893 -0.4907  0.0578
   9223SM   H6S12369   5.364   1.834  12.306 -1.2463  0.4303 -0.9161
   9223SM   H6T12370   5.419   2.002  12.276  1.5237 -0.0619  0.5625
   9223SM   C7S12371   5.565   1.872  12.360 -0.0271 -0.6108  0.3756
   9223SM   H7S12372   5.656   1.917  12.314  0.3858 -2.0914 -0.3332
   9223SM   H7T12373   5.590   1.764  12.357  2.0956 -0.1760  0.9696
   9223SM   C8S12374   5.549   1.932  12.502  0.9679  0.0145 -0.2129
   9223SM   H8S12375   5.454   1.892  12.544  1.6273  0.6891  2.0852
   9223SM   H8T12376   5.544   2.042  12.489 -1.2615  0.0391  0.3580
   9223SM   C9S12377   5.677   1.899  12.584 -0.2520  0.3461 -0.1293
   9223SM   H9S12378   5.775   1.931  12.542 -0.7102  1.1959 -0.5720
   9223SM   H9T12379   5.679   1.788  12.584 -1.6659  0.2258 -3.1610
   9223SM  C10S12380   5.668   1.954  12.728  1.1537 -0.0048  0.4082
   9223SM  H10S12381   5.560   1.968  12.754  1.1460 -0.3442  0.5684
   9223SM  H10T12382   5.727   2.048  12.725  2.5711 -0.8837 -2.4817
   9223SM  C11S12383   5.711   1.850  12.832  0.7546  0.3392  0.6104
   9223SM  H11S12384   5.819   1.833  12.812  0.7114  1.7854 -1.1706
   9223SM  H11T12385   5.645   1.762  12.818  0.6728  0.6622 -1.3234
   9223SM  C12S12386   5.690   1.897  12.979 -0.2800  0.3688 -0.1230
   9223SM  H12S12387   5.580   1.914  12.980 -0.4930 -0.7915 -1.1140
   9223SM  H12T12388   5.752   1.989  12.986 -0.5149  0.6543 -1.5021
   9223SM  C13S12389   5.748   1.792  13.074  0.4176 -0.6260 -0.1199
   9223SM  H13S12390   5.856   1.782  13.051  0.3207  0.3619 -1.0581
   9223SM  H13T12391   5.690   1.698  13.064  1.4945 -1.1972 -1.2324
   9223SM  C14S12392   5.743   1.832  13.227 -0.4603  0.0052 -0.4987
   9223SM  H14S12393   5.634   1.856  13.237 -1.2573 -3.1622 -0.6163
   9223SM  H14T12394   5.795   1.927  13.252 -0.4970  0.0826 -0.7110
   9223SM  C15S12395   5.787   1.721  13.316  0.0882  0.3298 -0.1127
   9223SM  H15S12396   5.895   1.728  13.290  0.1293  0.6744  0.1328
   9223SM  H15T12397   5.734   1.627  13.291  0.5675 -0.5181  1.8678
   9223SM  C16S12398   5.775   1.733  13.473  0.0086 -0.0344  0.3757
   9223SM  H16S12399   5.669   1.752  13.500 -0.1632 -0.3348 -0.0864
   9223SM  H16T12400   5.829   1.823  13.511 -0.9767  0.8115 -0.1736
   9223SM  C17S12401   5.838   1.616  13.544 -0.5155 -0.4566  0.2870
   9223SM  H17S12402   5.942   1.609  13.507  0.0144 -0.4808  1.7085
   9223SM  H17T12403   5.789   1.520  13.513  2.6310 -1.8435 -0.7766
   9223SM  C18S12404   5.830   1.638  13.700  0.3445 -0.7912  0.0763
   9223SM  H18S12405   5.892   1.727  13.725  0.1230 -0.4501 -0.5660
   9223SM  H18T12406   5.868   1.550  13.754  2.3742  0.0193  0.0385
   9223SM  H18U12407   5.725   1.667  13.722  1.6460  3.5146  1.7478
   9223SM   C1F12408   5.917   1.715  12.058  0.1361 -0.1448 -0.0110
   9223SM    OF12409   5.959   1.810  11.988 -0.0403  0.0668 -0.6699
   9223SM   C2F12410   5.995   1.643  12.164 -0.0073  0.6460  0.1367
   9223SM   H2F12411   6.075   1.583  12.116 -1.9412 -0.8910 -1.3228
   9223SM   H2G12412   5.918   1.576  12.208 -0.5678  1.2210  0.0632
   9223SM   C3F12413   6.050   1.738  12.270 -0.6532 -0.0834 -0.0883
   9223SM   H3F12414   5.971   1.771  12.341 -1.8073 -2.0409 -0.4085
   9223SM   H3G12415   6.094   1.832  12.229 -2.9858  1.9590  1.8319
   9223SM   C4F12416   6.147   1.667  12.357 -0.2230  0.4982  0.0387
   9223SM   H4F12417   6.235   1.735  12.365 -0.6696  1.5408 -2.6750
   9223SM   H4G12418   6.181   1.575  12.306  1.4997  0.0778  1.8373
   9223SM   C5F12419   6.091   1.651  12.495 -0.3811  0.7551 -0.2563
   9223SM   H5F12420   5.992   1.601  12.492 -0.6703  1.3241 -0.2832
   9223SM   H5G12421   6.068   1.752  12.534 -0.0970  1.3302 -1.5245
   9223SM   C6F12422   6.177   1.562  12.587  0.2360 -0.1214  0.3527
   9223SM   H6F12423   6.285   1.586  12.598  0.0632  0.5031  0.7715
   9223SM   H6G12424   6.164   1.459  12.549  0.7801  0.7930 -2.4794
   9223SM   C7F12425   6.123   1.567  12.733  0.5347 -0.3686 -0.2902
   9223SM   H7F12426   6.016   1.540  12.746 -0.2491  2.4405 -0.3423
   9223SM   H7G12427   6.124   1.670  12.776  0.7298 -0.5656  0.1932
   9223SM   C8F12428   6.197   1.473  12.831  0.0268  0.6027 -0.4401
   9223SM   H8F12429   6.305   1.462  12.809  0.7036 -1.9410  3.3233
   9223SM   H8G12430   6.156   1.370  12.821  0.1527  0.6084 -1.0585
   9223SM   C9F12431   6.179   1.522  12.977 -0.6952 -0.5170  0.5001
   9223SM   H9F12432   6.071   1.541  12.994 -0.6264 -1.5952  2.4403
   9223SM   H9G12433   6.228   1.621  12.991 -0.5992 -0.3603 -0.8371
   9223SM  C10F12434   6.228   1.418  13.077 -0.5406  0.1437  0.3237
   9223SM  H10F12435   6.301   1.357  13.021  0.0579  1.0075  0.1470
   9223SM  H10G12436   6.136   1.359  13.099 -2.3715  1.7623 -2.3367
   9223SM  C11F12437   6.279   1.475  13.207 -0.3137 -0.2562  0.8298
   9223SM  H11F12438   6.196   1.538  13.244 -1.6184 -1.9255  0.8483
   9223SM  H11G12439   6.372   1.532  13.182 -0.3403 -0.4103  0.3687
   9223SM  C12F12440   6.314   1.370  13.317 -0.2348  0.0955  0.1849
   9223SM  H12F12441   6.379   1.293  13.272 -2.6806 -0.9593 -1.7884
   9223SM  H12G12442   6.221   1.314  13.341 -0.3319 -0.7784 -2.0094
   9223SM  C13F12443   6.381   1.440  13.440 -0.1043  0.7426  0.6419
   9223SM  H13F12444   6.342   1.538  13.473  0.6195  1.3942 -0.3671
   9223SM  H13G12445   6.486   1.454  13.405  0.1770 -1.4169  0.4909
   9223SM  C14F12446   6.398   1.343  13.555 -0.3046 -0.0196  0.0797
   9223SM  H14F12447   6.445   1.252  13.513  2.0369 -0.2586  2.8588
   9223SM  H14G12448   6.298   1.316  13.598 -0.0197  1.0688  1.5169
   9223SM  C15F12449   6.501   1.386  13.664 -0.1024 -0.6361 -0.3628
   9223SM  H15F12450   6.601   1.416  13.627 -0.5179  3.1587  1.2094
   9223SM  H15G12451   6.517   1.303  13.737  0.2016  0.6528  1.0909
   9223SM  C16F12452   6.459   1.509  13.748 -0.2135 -0.0543 -0.7429
   9223SM  H16F12453   6.365   1.477  13.798  0.5938  0.2682  1.0360
   9223SM  H16G12454   6.440   1.600  13.687  0.0345  0.1181 -0.5614
   9223SM  C17F12455   6.564   1.549  13.859  0.0556 -0.1348 -0.1729
   9223SM  H17F12456   6.659   1.570  13.805 -0.8137  1.2530 -1.2372
   9223SM  H17G12457   6.580   1.465  13.930  1.3789 -1.1826 -1.6623
   9223SM  C18F12458   6.533   1.675  13.939 -0.3906 -0.2721 -0.0286
   9223SM  H18F12459   6.593   1.678  14.032 -1.6912 -1.7318  0.9014
   9223SM  H18G12460   6.428   1.666  13.974 -0.7546 -1.1153 -1.2672
   9223SM  C19F12461   6.560   1.805  13.864  0.3630 -0.0903 -0.1153
   9223SM  H19F12462   6.512   1.798  13.764 -0.0328  0.0717  0.0605
   9223SM  H19G12463   6.670   1.808  13.849  0.6634 -0.7262  1.7061
   9223SM  C20F12464   6.500   1.926  13.938  0.4349  0.0820  0.3538
   9223SM  H20F12465   6.545   2.017  13.894  0.2612  0.1563  0.3282
   9223SM  H20G12466   6.524   1.927  14.047 -0.2113 -0.3304  0.5075
   9223SM  C21F12467   6.344   1.939  13.922  0.7225  0.1851 -0.6119
   9223SM  H21F12468   6.301   1.856  13.982 -0.8993  1.9920  0.8927
   9223SM  H21G12469   6.316   1.934  13.815  0.9825  0.6373 -0.7050
   9223SM  C22F12470   6.279   2.066  13.976  0.1047  0.1368  0.3879
   9223SM  H22F12471   6.339   2.151  13.935 -0.9337  2.8774  3.9959
   9223SM  H22G12472   6.290   2.051  14.086 -0.0242  0.7553  0.4932
   9223SM  C23F12473   6.130   2.092  13.947  0.2379  0.1719  0.1428
   9223SM  H23F12474   6.090   2.182  13.997 -1.5011  0.8754 -2.2976
   9223SM  H23G12475   6.070   2.003  13.977  0.8886 -0.3157  0.0273
   9223SM  H23H12476   6.120   2.103  13.837  0.4259  1.0089  0.2036
   9323SM     N12477   0.491   2.890  11.805 -0.0999 -0.4986  0.1864
   9323SM   C1512478   0.566   2.823  11.918 -0.1058 -0.6639 -0.1442
   9323SM  H15A12479   0.650   2.886  11.941 -0.0777 -1.3129  1.6836
   9323SM  H15B12480   0.607   2.727  11.892 -0.6166 -0.9301  0.0181
   9323SM  H15C12481   0.512   2.822  12.011 -1.3884  2.4275 -0.7180
   9323SM   C1412482   0.579   2.922  11.690 -1.1116  0.3508 -0.2528
   9323SM  H14A12483   0.633   2.834  11.658  1.2612  0.2912  3.3274
   9323SM  H14B12484   0.656   2.988  11.728 -1.0440 -1.0148  2.1818
   9323SM  H14C12485   0.526   2.959  11.603 -0.3461 -0.7094 -1.2042
   9323SM   C1312486   0.378   2.810  11.751  0.0573  0.5378  0.4211
   9323SM  H13A12487   0.298   2.788  11.820  1.0819 -0.8693  1.1959
   9323SM  H13B12488   0.424   2.717  11.722 -0.5442 -0.6035  2.8688
   9323SM  H13C12489   0.329   2.863  11.671 -1.7563  1.4220  2.0272
   9323SM   C1212490   0.439   3.024  11.847  0.0397 -0.1931  0.2103
   9323SM  H12A12491   0.337   3.013  11.878 -0.1522 -0.5598 -0.5309
   9323SM  H12B12492   0.439   3.093  11.764  0.8875 -0.0063  0.3527
   9323SM   C1112493   0.516   3.087  11.957  0.2759  0.5033 -0.7147
   9323SM  H11A12494   0.505   3.033  12.054  1.8795  0.2521 -0.6418
   9323SM  H11B12495   0.465   3.183  11.980 -0.5172 -0.0619 -0.0410
   9323SM     P12496   0.714   3.223  11.849  0.0793  0.2976  0.0083
   9323SM   O1312497   0.768   3.149  11.729 -0.3031 -0.3028  0.0289
   9323SM   O1412498   0.610   3.327  11.816 -0.2934 -0.3607 -0.3664
   9323SM   O1112499   0.824   3.273  11.948 -0.1144  0.3643 -0.0991
   9323SM   O1212500   0.656   3.109  11.936 -0.1841 -0.0538 -0.1255
   9323SM   C1S12501   0.803   3.388  12.027 -0.2729 -0.4466 -0.4143
   9323SM   H1S12502   0.738   3.462  11.975  0.4433  0.5107  0.0186
   9323SM   H1T12503   0.899   3.440  12.048 -0.3813 -0.2301 -0.4459
   9323SM    NF12504   0.706   3.490  12.223  0.0045  0.2902  0.0837
   9323SM   HNF12505   0.771   3.512  12.296  0.7139 -1.3562  0.0093
   9323SM   C2S12506   0.728   3.357  12.162  0.1278  0.0210 -0.0098
   9323SM   H2S12507   0.630   3.306  12.154 -0.4304  0.4723  2.9479
   9323SM   C3S12508   0.811   3.262  12.251  0.2782 -0.0681  0.0943
   9323SM   H3S12509   0.907   3.307  12.285 -0.1394  1.1237 -0.2260
   9323SM    O312510   0.841   3.137  12.184  0.0368  0.2201  0.3284
   9323SM   HO312511   0.788   3.154  12.106  0.4025 -0.1643 -0.0122
   9323SM   C4S12512   0.734   3.233  12.380  0.8309  0.6619 -0.1312
   9323SM   H4S12513   0.673   3.143  12.365  1.3598  0.3519 -0.4538
   9323SM   C5S12514   0.755   3.278  12.503  0.0267 -0.1263 -0.0417
   9323SM   H5S12515   0.840   3.345  12.521 -1.1420  1.3738  0.1071
   9323SM   C6S12516   0.687   3.243  12.629  0.6588 -0.2081 -0.3114
   9323SM   H6S12517   0.638   3.329  12.681  0.4215 -0.3976 -0.2232
   9323SM   H6T12518   0.764   3.224  12.707  1.0989  1.0175 -0.4193
   9323SM   C7S12519   0.587   3.126  12.621  0.0729 -0.8028 -0.8948
   9323SM   H7S12520   0.636   3.029  12.598  1.4411 -0.4309  0.2957
   9323SM   H7T12521   0.501   3.147  12.555  0.2588  3.3726 -0.1149
   9323SM   C8S12522   0.531   3.107  12.765  0.1607 -0.2189  1.0007
   9323SM   H8S12523   0.460   3.022  12.756 -1.7859  1.1562  2.4095
   9323SM   H8T12524   0.464   3.194  12.786 -2.2797 -1.6325 -0.4195
   9323SM   C9S12525   0.629   3.071  12.886 -0.1146 -0.4257  0.7135
   9323SM   H9S12526   0.697   3.155  12.912  0.9073 -1.2572  0.8129
   9323SM   H9T12527   0.697   2.987  12.856 -0.4583 -0.4967  0.1093
   9323SM  C10S12528   0.547   3.029  13.016  0.3236 -0.1810  0.1926
   9323SM  H10S12529   0.614   2.982  13.091  1.9694  3.1748  1.0157
   9323SM  H10T12530   0.463   2.959  12.995  0.5657 -1.1103  2.1194
   9323SM  C11S12531   0.480   3.149  13.085 -0.3957 -0.2369 -0.1347
   9323SM  H11S12532   0.432   3.203  13.000  0.5242 -0.0733 -0.5615
   9323SM  H11T12533   0.557   3.204  13.141 -0.0225 -2.2002  1.4004
   9323SM  C12S12534   0.354   3.106  13.174 -0.6189 -0.3313 -0.6616
   9323SM  H12S12535   0.293   3.049  13.100 -0.6244 -0.3817 -0.6187
   9323SM  H12T12536   0.298   3.198  13.199  1.4489  1.2713 -1.5958
   9323SM  C13S12537   0.379   3.016  13.296  0.4610 -0.0441 -0.1453
   9323SM  H13S12538   0.430   2.924  13.258 -0.2066 -0.1200 -0.8720
   9323SM  H13T12539   0.282   2.989  13.342 -0.2238  1.1389 -0.8524
   9323SM  C14S12540   0.473   3.082  13.399 -0.5940 -0.3753 -0.2382
   9323SM  H14S12541   0.434   3.184  13.418  2.4265  1.0719 -1.1445
   9323SM  H14T12542   0.575   3.104  13.362 -0.4237 -2.0467 -0.8313
   9323SM  C15S12543   0.480   2.997  13.522 -0.2137 -0.0660  0.2038
   9323SM  H15S12544   0.375   2.985  13.557 -1.1940  2.0019 -1.7876
   9323SM  H15T12545   0.530   2.900  13.499 -0.8466 -0.4676  0.4907
   9323SM  C16S12546   0.557   3.073  13.629  0.0176 -0.4489 -0.9049
   9323SM  H16S12547   0.499   3.156  13.676  1.2895 -0.7774  1.3833
   9323SM  H16T12548   0.659   3.100  13.595  0.7613 -0.4400  1.1972
   9323SM  C17S12549   0.571   2.991  13.754 -0.2939 -0.0478 -0.2874
   9323SM  H17S12550   0.619   2.893  13.734  0.1880 -0.0222  0.7060
   9323SM  H17T12551   0.470   2.972  13.797 -0.4989 -0.9181 -1.1227
   9323SM  C18S12552   0.659   3.063  13.856 -0.0572  0.3760 -0.1472
   9323SM  H18S12553   0.676   3.003  13.947  1.8409  1.3068  0.1620
   9323SM  H18T12554   0.611   3.155  13.897 -1.5710 -0.2931 -0.3341
   9323SM  H18U12555   0.754   3.091  13.807 -0.0574  0.1197 -0.2916
   9323SM   C1F12556   0.605   3.564  12.188 -0.0750  0.7464 -0.0590
   9323SM    OF12557   0.532   3.548  12.090  0.6495  0.0754  0.1773
   9323SM   C2F12558   0.577   3.678  12.280  0.0541 -0.1105  0.4113
   9323SM   H2F12559   0.491   3.739  12.243 -0.1525 -1.5780 -1.6928
   9323SM   H2G12560   0.673   3.733  12.292  0.3181 -0.0669 -1.5001
   9323SM   C3F12561   0.547   3.627  12.426 -0.0377 -0.0564  0.1261
   9323SM   H3F12562   0.633   3.569  12.466 -0.2803  1.1041  2.5149
   9323SM   H3G12563   0.452   3.570  12.421 -0.9494  1.4669 -1.2893
   9323SM   C4F12564   0.532   3.750  12.523  0.8636 -0.3909 -0.4128
   9323SM   H4F12565   0.457   3.816  12.476  1.0882 -0.7093 -1.2245
   9323SM   H4G12566   0.633   3.795  12.520 -0.2531  2.9478  3.0529
   9323SM   C5F12567   0.508   3.725  12.673  0.7711  0.0014 -0.9368
   9323SM   H5F12568   0.599   3.692  12.729 -0.2227 -0.6806  0.3334
   9323SM   H5G12569   0.434   3.643  12.675 -0.9382  1.4029 -2.9110
   9323SM   C6F12570   0.445   3.840  12.761 -0.0105 -0.2234  0.1235
   9323SM   H6F12571   0.349   3.859  12.708  1.8350  3.0694 -2.4805
   9323SM   H6G12572   0.504   3.934  12.760 -1.7435  0.9462  2.2171
   9323SM   C7F12573   0.423   3.796  12.909  0.1672  0.4434 -0.0929
   9323SM   H7F12574   0.523   3.769  12.950  0.9596  1.3419 -1.3791
   9323SM   H7G12575   0.367   3.700  12.915 -0.3438  0.7919  0.9394
   9323SM   C8F12576   0.361   3.909  12.995 -0.1425 -0.4765  0.3678
   9323SM   H8F12577   0.257   3.923  12.959 -0.0766 -1.3494 -0.1801
   9323SM   H8G12578   0.419   4.002  12.976 -0.7146 -0.0035  0.8851
   9323SM   C9F12579   0.360   3.893  13.141  0.6304 -0.2968  0.2642
   9323SM   H9F12580   0.329   3.990  13.187 -0.2112 -1.1566  1.5655
   9323SM   H9G12581   0.463   3.883  13.182 -0.2573 -0.7863  2.5172
   9323SM  C10F12582   0.267   3.786  13.192  0.0407 -0.3932 -0.2187
   9323SM  H10F12583   0.300   3.689  13.148 -0.6065  0.1118 -1.9048
   9323SM  H10G12584   0.167   3.800  13.144 -0.3113 -1.7102  0.0995
   9323SM  C11F12585   0.261   3.763  13.347  0.1898  0.1629  0.0194
   9323SM  H11F12586   0.365   3.757  13.387  0.0688 -2.0039  0.1130
   9323SM  H11G12587   0.219   3.663  13.369  3.2601 -1.3815 -0.4934
   9323SM  C12F12588   0.188   3.870  13.435 -0.3101  0.0557  0.1439
   9323SM  H12F12589   0.085   3.892  13.400 -0.7050 -1.2672  0.4292
   9323SM  H12G12590   0.246   3.965  13.429  0.6585 -0.6033 -1.6462
   9323SM  C13F12591   0.171   3.826  13.582  0.5856 -0.8106  0.1515
   9323SM  H13F12592   0.111   3.733  13.583  1.4178 -1.3744 -1.0475
   9323SM  H13G12593   0.107   3.887  13.650 -0.9852 -1.4348 -0.7332
   9323SM  C14F12594   0.299   3.805  13.658  0.6732 -0.2510  0.3606
   9323SM  H14F12595   0.360   3.897  13.651 -1.4462  1.3149  1.6038
   9323SM  H14G12596   0.364   3.731  13.606  0.5792 -0.0979  0.0226
   9323SM  C15F12597   0.298   3.779  13.814  0.0851  0.0156  0.4950
   9323SM  H15F12598   0.376   3.703  13.833 -0.5733 -0.4775  1.3170
   9323SM  H15G12599   0.205   3.729  13.849 -0.1678 -0.5923 -0.9690
   9323SM  C16F12600   0.309   3.904  13.897  0.1444  0.0941  0.0305
   9323SM  H16F12601   0.232   3.982  13.876  0.7393  0.6800 -0.0204
   9323SM  H16G12602   0.407   3.955  13.884  0.1548  1.2556  3.4383
   9323SM  C17F12603   0.293   3.861  14.043 -0.4703  0.2740  0.3278
   9323SM  H17F12604   0.370   3.790  14.079 -0.3748  0.3228  0.2180
   9323SM  H17G12605   0.195   3.810  14.051 -0.8061  0.5675 -1.4634
   9323SM  C18F12606   0.303   3.973  14.148 -0.1839 -0.0878  0.1439
   9323SM  H18F12607   0.225   4.051  14.133  2.6660  3.3726  1.7562
   9323SM  H18G12608   0.396   4.031  14.127 -0.4996  0.5222  0.3992
   9323SM  C19F12609   0.283   3.912  14.286 -0.2863 -0.1863  0.4017
   9323SM  H19F12610   0.379   3.858  14.302 -0.6763 -0.5238  1.7385
   9323SM  H19G12611   0.194   3.847  14.272 -0.3560  0.2984 -1.6023
   9323SM  C20F12612   0.257   4.009  14.403  0.1306  0.2567 -0.1432
   9323SM  H20F12613   0.199   3.946  14.474 -2.4434  0.0073 -2.3027
   9323SM  H20G12614   0.186   4.094  14.392 -0.2744 -0.3530 -2.9394
   9323SM  C21F12615   0.384   4.072  14.448 -0.4920 -0.0853 -1.4191
   9323SM  H21F12616   0.454   4.092  14.364  0.6683  0.1575 -0.4257
   9323SM  H21G12617   0.423   3.986  14.506  0.1349 -1.9736 -4.3878
   9323SM  C22F12618   0.359   4.195  14.541 -0.0360 -0.6117 -0.0517
   9323SM  H22F12619   0.296   4.278  14.503  1.1750  1.6483  2.5789
   9323SM  H22G12620   0.452   4.253  14.559 -0.9346  1.2560 -1.1862
   9323SM  C23F12621   0.308   4.152  14.679 -0.1361  0.2701 -0.1889
   9323SM  H23F12622   0.376   4.071  14.711  0.5756 -0.2579 -2.7881
   9323SM  H23G12623   0.201   4.125  14.685  0.3627 -1.4615  1.6293
   9323SM  H23H12624   0.313   4.243  14.743  0.4289 -0.0821  0.2692
   9423SM     N12625   3.953   5.305  11.858 -0.0299 -0.3456  0.3386
   9423SM   C1512626   4.063   5.308  11.753 -0.0172  0.2539 -0.1082
   9423SM  H15A12627   4.127   5.221  11.757  1.5042  1.3678  1.7227
   9423SM  H15B12628   4.119   5.401  11.758  0.9616 -0.4008  2.7034
   9423SM  H15C12629   4.030   5.311  11.650  2.2634  1.1929 -0.8808
   9423SM   C1412630   3.850   5.405  11.824 -0.5535  0.2764 -0.5417
   9423SM  H14A12631   3.811   5.375  11.727 -1.5419  1.6779 -0.6087
   9423SM  H14B12632   3.904   5.498  11.814  0.6035 -0.3132  0.0257
   9423SM  H14C12633   3.771   5.413  11.897  0.3085  2.7485  0.2320
   9423SM   C1312634   3.894   5.168  11.858  0.6802 -0.0272 -0.2803
   9423SM  H13A12635   3.948   5.086  11.904 -2.2382 -2.2016 -0.4190
   9423SM  H13B12636   3.847   5.131  11.767  0.9635  0.4127 -0.6099
   9423SM  H13C12637   3.805   5.171  11.919  0.9234 -0.3561  0.0988
   9423SM   C1212638   4.022   5.327  11.985 -0.1551 -0.5923 -0.2480
   9423SM  H12A12639   4.104   5.256  11.992 -0.2160 -0.5734  0.8279
   9423SM  H12B12640   3.950   5.312  12.064  0.1840 -0.0106  0.1776
   9423SM   C1112641   4.075   5.472  12.011 -0.6086 -0.1420  0.1623
   9423SM  H11A12642   4.092   5.485  12.120 -0.8084 -0.5087  0.2381
   9423SM  H11B12643   4.000   5.551  11.992 -1.2187 -0.0430  2.6304
   9423SM     P12644   4.239   5.632  11.896 -0.4529  0.1767 -0.4280
   9423SM   O1312645   4.379   5.628  11.848  0.1130 -0.4006 -0.4045
   9423SM   O1412646   4.147   5.682  11.791  0.1579  0.2488  0.0170
   9423SM   O1112647   4.219   5.723  12.024 -0.0523  0.6568 -0.2931
   9423SM   O1212648   4.202   5.488  11.936  0.1710 -0.3514 -0.0265
   9423SM   C1S12649   4.296   5.708  12.142  0.5559  0.2828  0.1242
   9423SM   H1S12650   4.400   5.740  12.122  1.3622 -0.6142  2.5644
   9423SM   H1T12651   4.307   5.605  12.182 -0.8091  0.0256 -0.0960
   9423SM    NF12652   4.320   5.767  12.378  0.6693  0.1572  0.0414
   9423SM   HNF12653   4.276   5.717  12.452 -1.4823  1.9615  0.0783
   9423SM   C2S12654   4.243   5.801  12.258 -0.5573  0.4032 -0.0389
   9423SM   H2S12655   4.259   5.909  12.235  2.0714  0.6748  2.5004
   9423SM   C3S12656   4.095   5.781  12.284 -0.8899  0.5429 -0.2267
   9423SM   H3S12657   4.077   5.690  12.345 -3.9586  0.8939 -0.4409
   9423SM    O312658   4.013   5.746  12.169  0.0736 -0.0816  0.0031
   9423SM   HO312659   4.074   5.750  12.095  0.1047  0.3882  0.0473
   9423SM   C4S12660   4.033   5.893  12.359  1.1069 -0.2120  0.2259
   9423SM   H4S12661   4.030   5.999  12.330 -1.3115 -0.1405  0.5316
   9423SM   C5S12662   3.946   5.866  12.462 -0.0147 -0.4931 -0.0452
   9423SM   H5S12663   3.931   5.762  12.495  0.5406  0.3282  3.1803
   9423SM   C6S12664   3.859   5.959  12.538 -0.1768 -0.3703  0.7152
   9423SM   H6S12665   3.779   5.900  12.587  1.0307 -2.0677  0.7348
   9423SM   H6T12666   3.806   6.026  12.467  2.3292  0.0733 -0.8844
   9423SM   C7S12667   3.936   6.031  12.649 -0.1574  0.0819  0.0133
   9423SM   H7S12668   3.857   6.094  12.695  1.0044  0.9274  0.8925
   9423SM   H7T12669   4.012   6.103  12.613 -0.6440  0.6946  0.2060
   9423SM   C8S12670   3.985   5.949  12.775  0.0182 -0.1049  0.3641
   9423SM   H8S12671   4.035   6.012  12.851 -0.3006 -1.9421  2.2022
   9423SM   H8T12672   4.052   5.865  12.747  0.8146  0.7757 -0.4453
   9423SM   C9S12673   3.873   5.869  12.848  0.5905 -0.9224 -0.0133
   9423SM   H9S12674   3.820   5.802  12.777 -1.0242 -0.4415  0.6734
   9423SM   H9T12675   3.794   5.940  12.882  2.0457  1.0812 -0.6677
   9423SM  C10S12676   3.931   5.783  12.961 -0.3405 -0.2016 -0.9939
   9423SM  H10S12677   4.014   5.713  12.936 -0.3403 -0.6335  0.1419
   9423SM  H10T12678   3.839   5.724  12.982 -0.3722  0.0519 -0.3724
   9423SM  C11S12679   3.975   5.859  13.086  0.1336  0.5137 -1.0789
   9423SM  H11S12680   3.895   5.909  13.144  1.3682  1.6403 -0.3012
   9423SM  H11T12681   4.042   5.942  13.054  0.9132 -0.0844 -1.0389
   9423SM  C12S12682   4.053   5.757  13.178 -0.2577  0.0355  0.2652
   9423SM  H12S12683   4.132   5.725  13.106 -1.2326  0.3025 -0.9515
   9423SM  H12T12684   4.002   5.664  13.209  0.8030 -0.1024  1.7366
   9423SM  C13S12685   4.106   5.816  13.309  0.3757  0.7424 -0.2199
   9423SM  H13S12686   4.012   5.860  13.348 -0.5856  0.7765 -2.4584
   9423SM  H13T12687   4.174   5.903  13.312 -0.0455  1.0637  0.2412
   9423SM  C14S12688   4.148   5.716  13.413 -0.0364  0.6612  0.0392
   9423SM  H14S12689   4.226   5.645  13.378 -1.3689 -0.6313 -0.3977
   9423SM  H14T12690   4.066   5.648  13.446  1.4814 -1.2427  0.0709
   9423SM  C15S12691   4.190   5.782  13.545  0.5322 -0.0197 -0.3050
   9423SM  H15S12692   4.113   5.852  13.583  1.2089  0.4420  0.2396
   9423SM  H15T12693   4.285   5.838  13.539  0.5383  0.3099  1.9124
   9423SM  C16S12694   4.199   5.686  13.674 -0.2696 -0.0148 -0.0721
   9423SM  H16S12695   4.268   5.599  13.671 -1.0978 -0.6927  0.1119
   9423SM  H16T12696   4.098   5.642  13.693  0.2828 -0.9199  0.8539
   9423SM  C17S12697   4.249   5.756  13.799  0.8262 -0.1230  0.3179
   9423SM  H17S12698   4.338   5.816  13.768  1.6582 -1.8950 -0.9415
   9423SM  H17T12699   4.276   5.678  13.874 -3.0381 -0.7238  1.2659
   9423SM  C18S12700   4.145   5.841  13.867  0.3282  0.2505 -0.0757
   9423SM  H18S12701   4.119   5.930  13.806  0.5137  2.2474  2.5818
   9423SM  H18T12702   4.187   5.875  13.964 -0.9495 -3.5238  2.0098
   9423SM  H18U12703   4.065   5.770  13.898  1.1166 -1.3686 -1.5764
   9423SM   C1F12704   4.452   5.794  12.386 -0.4500 -0.5740 -0.2071
   9423SM    OF12705   4.513   5.865  12.300  0.0102  0.5117  0.1206
   9423SM   C2F12706   4.537   5.729  12.488  0.0925 -0.2458 -0.1056
   9423SM   H2F12707   4.634   5.699  12.441  0.8050  0.2110  1.0194
   9423SM   H2G12708   4.493   5.628  12.505 -1.8993  0.7385  0.9317
   9423SM   C3F12709   4.557   5.798  12.630  0.4846  0.5428 -0.0446
   9423SM   H3F12710   4.627   5.881  12.606  0.1615  0.8472  0.0517
   9423SM   H3G12711   4.609   5.728  12.699  1.1074  0.2705 -0.7758
   9423SM   C4F12712   4.436   5.850  12.711 -0.0741  0.0064  0.3126
   9423SM   H4F12713   4.355   5.774  12.710 -2.2198  2.0852 -2.9620
   9423SM   H4G12714   4.382   5.936  12.667 -2.2139 -0.9901  0.8423
   9423SM   C5F12715   4.468   5.888  12.853 -0.5057  0.6547  0.5739
   9423SM   H5F12716   4.514   5.989  12.844 -1.8966  1.1489 -1.9830
   9423SM   H5G12717   4.548   5.822  12.893 -1.8104 -1.2775  0.1286
   9423SM   C6F12718   4.346   5.897  12.942  0.5462 -0.4462  0.0544
   9423SM   H6F12719   4.302   5.797  12.964 -0.5882 -0.1169 -0.6226
   9423SM   H6G12720   4.264   5.940  12.881  2.1045  2.2485 -0.2817
   9423SM   C7F12721   4.376   5.969  13.083  0.2949 -0.0928 -0.0422
   9423SM   H7F12722   4.290   5.947  13.150  0.2660 -0.0943 -0.0796
   9423SM   H7G12723   4.384   6.079  13.077 -0.5644  0.0991  1.6753
   9423SM   C8F12724   4.502   5.919  13.157  0.1395 -0.3054  1.2737
   9423SM   H8F12725   4.590   5.965  13.106  0.4300 -3.2290 -1.1065
   9423SM   H8G12726   4.515   5.809  13.149 -0.1867 -0.2742  0.1991
   9423SM   C9F12727   4.515   5.980  13.302 -0.7098 -0.0863 -0.7684
   9423SM   H9F12728   4.427   5.949  13.362 -1.6058  1.3032 -1.3081
   9423SM   H9G12729   4.507   6.089  13.282 -1.3755 -0.1367 -0.7938
   9423SM  C10F12730   4.640   5.928  13.366 -0.5652 -0.0267 -0.4751
   9423SM  H10F12731   4.729   5.967  13.312 -0.8309 -0.0380 -0.9264
   9423SM  H10G12732   4.650   5.817  13.360 -0.0520 -0.0381  0.4721
   9423SM  C11F12733   4.651   5.969  13.517  0.6750 -0.1516  0.7443
   9423SM  H11F12734   4.561   5.932  13.570  0.3893 -2.1490 -1.0051
   9423SM  H11G12735   4.653   6.081  13.516  1.0202 -0.1595  0.5731
   9423SM  C12F12736   4.782   5.928  13.573  0.3963  0.2262 -0.0422
   9423SM  H12F12737   4.863   5.968  13.509 -0.0641  0.7270 -0.3160
   9423SM  H12G12738   4.793   5.818  13.558  0.6531  0.3897 -1.1207
   9423SM  C13F12739   4.810   5.979  13.710 -0.0843  0.4260  0.0361
   9423SM  H13F12740   4.786   6.087  13.721 -1.9809 -0.1489  2.2955
   9423SM  H13G12741   4.912   5.957  13.748 -0.5116  1.0579  1.6182
   9423SM  C14F12742   4.716   5.909  13.812  0.2378  0.0978  0.0551
   9423SM  H14F12743   4.711   5.800  13.791  2.2986 -0.1076  0.4399
   9423SM  H14G12744   4.613   5.946  13.794  0.8122  0.1712 -3.9399
   9423SM  C15F12745   4.764   5.918  13.956 -0.5910  0.8027  0.0409
   9423SM  H15F12746   4.769   6.028  13.971 -0.3263  0.7183  0.6150
   9423SM  H15G12747   4.867   5.879  13.974 -0.8101  0.6005  0.9024
   9423SM  C16F12748   4.664   5.870  14.065  0.0071  0.7732  0.0118
   9423SM  H16F12749   4.724   5.894  14.155 -0.1067  0.7862  0.0834
   9423SM  H16G12750   4.651   5.759  14.060 -1.4112  0.8120  1.8521
   9423SM  C17F12751   4.531   5.942  14.065  0.0626 -0.8184  0.6568
   9423SM  H17F12752   4.466   5.913  13.979  0.4319 -0.8647  0.3927
   9423SM  H17G12753   4.541   6.051  14.046 -3.6847 -0.7637 -2.1360
   9423SM  C18F12754   4.455   5.926  14.193  0.2202 -0.0458 -0.5462
   9423SM  H18F12755   4.530   5.939  14.274  1.6236 -0.6150 -1.6897
   9423SM  H18G12756   4.430   5.818  14.192 -0.6019  0.1290  0.4357
   9423SM  C19F12757   4.331   6.023  14.196 -0.1214  0.3952  0.7890
   9423SM  H19F12758   4.266   5.999  14.109  1.1929 -0.3237 -0.0280
   9423SM  H19G12759   4.351   6.132  14.192  2.4774 -0.0422 -0.0416
   9423SM  C20F12760   4.251   5.998  14.323 -0.0145 -0.1273 -0.0606
   9423SM  H20F12761   4.286   6.082  14.388  2.6232 -1.2825  0.0943
   9423SM  H20G12762   4.283   5.910  14.382  0.8547  0.0974 -0.1876
   9423SM  C21F12763   4.097   6.007  14.307 -0.4342  0.3645  0.6506
   9423SM  H21F12764   4.066   5.933  14.230  0.8513  0.5706 -0.0989
   9423SM  H21G12765   4.076   6.108  14.264  0.0801  0.3753  0.4271
   9423SM  C22F12766   4.019   5.996  14.440 -0.2170 -0.3566  0.0982
   9423SM  H22F12767   4.042   5.903  14.495  0.8056 -1.0340 -1.4041
   9423SM  H22G12768   3.911   5.997  14.414 -0.5345  0.1355  1.3651
   9423SM  C23F12769   4.060   6.108  14.539 -0.2225  0.5886 -0.3167
   9423SM  H23F12770   4.058   6.208  14.491 -0.5126  0.4212 -0.6519
   9423SM  H23G12771   4.165   6.089  14.570 -0.4187  1.2596  0.8134
   9423SM  H23H12772   3.992   6.105  14.627 -0.1607  1.3637 -0.2437
   9523SM     N12773   3.613   3.511  12.220  0.3845 -0.2629  0.1024
   9523SM   C1512774   3.490   3.529  12.301 -0.1632  0.2508 -0.2880
   9523SM  H15A12775   3.413   3.578  12.244  1.4560  0.9893 -1.9523
   9523SM  H15B12776   3.516   3.595  12.383  1.6195  1.1337 -1.4970
   9523SM  H15C12777   3.452   3.439  12.347  0.0006  1.1421  1.7016
   9523SM   C1412778   3.570   3.442  12.092 -0.5290 -0.0576  0.1373
   9523SM  H14A12779   3.507   3.509  12.036  0.6666  1.9777  1.1024
   9523SM  H14B12780   3.508   3.357  12.115 -1.7928  1.5262  3.2809
   9523SM  H14C12781   3.651   3.407  12.031 -0.2217  0.4339  0.2531
   9523SM   C1312782   3.686   3.642  12.193  0.5525  0.2981 -0.2075
   9523SM  H13A12783   3.618   3.709  12.143 -1.1159 -1.2729 -0.1421
   9523SM  H13B12784   3.771   3.627  12.129 -0.3858 -1.5058 -1.0968
   9523SM  H13C12785   3.722   3.688  12.284  0.3515  2.2053 -1.0368
   9523SM   C1212786   3.705   3.427  12.302  0.1643  0.2632  0.0115
   9523SM  H12A12787   3.726   3.477  12.396 -0.1865 -1.5058  1.0755
   9523SM  H12B12788   3.798   3.414  12.248 -0.6625  0.9807 -1.6529
   9523SM   C1112789   3.664   3.285  12.343 -0.2437 -0.2438  0.1870
   9523SM  H11A12790   3.573   3.294  12.406 -1.0201 -0.0406 -0.9362
   9523SM  H11B12791   3.749   3.251  12.406  0.0399 -1.5001 -0.8296
   9523SM     P12792   3.522   3.094  12.250  0.2053  0.0789 -0.0476
   9523SM   O1312793   3.397   3.168  12.219 -0.2940  0.1352  0.2601
   9523SM   O1412794   3.549   2.979  12.160 -0.2816 -0.4338  0.0723
   9523SM   O1112795   3.522   3.045  12.404 -0.0671 -0.4283  0.2403
   9523SM   O1212796   3.647   3.193  12.236  0.6475  0.2099 -0.2623
   9523SM   C1S12797   3.402   2.990  12.453  0.5852  0.0108  0.1249
   9523SM   H1S12798   3.376   2.902  12.390  0.3650  1.9347 -2.6639
   9523SM   H1T12799   3.315   3.058  12.440  1.4406  0.8372 -1.5442
   9523SM    NF12800   3.286   2.883  12.656 -0.5848 -0.5918 -0.7140
   9523SM   HNF12801   3.232   2.946  12.711 -0.6793 -1.2287 -0.0779
   9523SM   C2S12802   3.410   2.945  12.607 -0.2291 -0.0990  0.0900
   9523SM   H2S12803   3.479   2.858  12.606 -0.8335 -0.5861 -0.7029
   9523SM   C3S12804   3.463   3.063  12.700  0.1602 -0.2681  0.0907
   9523SM   H3S12805   3.375   3.130  12.713 -0.3160 -1.0469  0.9694
   9523SM    O312806   3.563   3.152  12.643 -0.0982 -0.3428  0.4107
   9523SM   HO312807   3.581   3.126  12.552  0.5611 -0.0951  0.4598
   9523SM   C4S12808   3.498   3.005  12.831 -0.2186 -0.6173  0.3216
   9523SM   H4S12809   3.424   3.018  12.912 -1.2152  2.2158 -0.8994
   9523SM   C5S12810   3.609   2.947  12.869 -0.0355  0.2836 -0.4224
   9523SM   H5S12811   3.689   2.939  12.794 -0.7551  0.1325 -1.1830
   9523SM   C6S12812   3.629   2.882  13.008 -0.0616 -0.3289  0.3028
   9523SM   H6S12813   3.574   2.945  13.081  0.6122  0.9475 -0.2541
   9523SM   H6T12814   3.738   2.887  13.031 -0.0009  0.2726 -0.0949
   9523SM   C7S12815   3.582   2.741  13.023 -0.0262  0.1850  0.0579
   9523SM   H7S12816   3.651   2.671  12.972 -0.4104  0.2053 -0.4972
   9523SM   H7T12817   3.476   2.727  12.993 -0.2012 -2.7745  1.6536
   9523SM   C8S12818   3.591   2.693  13.173  0.1927  0.3882 -0.8014
   9523SM   H8S12819   3.679   2.735  13.226  0.7966 -2.1120  0.3447
   9523SM   H8T12820   3.612   2.584  13.180 -0.7314  0.2980  0.9667
   9523SM   C9S12821   3.462   2.734  13.251  0.1260 -0.1304 -0.1581
   9523SM   H9S12822   3.369   2.707  13.196  0.2299  0.2632 -0.5277
   9523SM   H9T12823   3.478   2.844  13.251 -0.0566 -0.0040 -3.7092
   9523SM  C10S12824   3.448   2.682  13.393  0.3159  0.2008  0.3147
   9523SM  H10S12825   3.536   2.716  13.452 -0.0117 -1.1768  1.6479
   9523SM  H10T12826   3.448   2.571  13.394  0.7641  0.1990  1.1271
   9523SM  C11S12827   3.313   2.723  13.456  0.5506  0.4049 -0.1558
   9523SM  H11S12828   3.226   2.684  13.400  1.4750 -0.3461 -1.1276
   9523SM  H11T12829   3.297   2.832  13.442 -0.2362  0.6485  2.2080
   9523SM  C12S12830   3.315   2.693  13.597 -0.4230  0.1986 -0.4432
   9523SM  H12S12831   3.394   2.748  13.651 -0.4017 -0.3303  0.0656
   9523SM  H12T12832   3.313   2.584  13.618 -2.0407  0.4828  1.1139
   9523SM  C13S12833   3.175   2.739  13.656 -0.0920  0.2183 -0.2589
   9523SM  H13S12834   3.096   2.687  13.599 -1.3664  2.8473 -1.0379
   9523SM  H13T12835   3.178   2.850  13.647 -1.3467  0.2522 -0.4125
   9523SM  C14S12836   3.154   2.703  13.804  0.3240 -0.1836 -0.0798
   9523SM  H14S12837   3.249   2.718  13.859  1.4018  1.4900 -2.2599
   9523SM  H14T12838   3.114   2.599  13.807  0.6530 -0.3145 -0.1942
   9523SM  C15S12839   3.038   2.789  13.856 -0.1576 -0.2961  0.0114
   9523SM  H15S12840   2.951   2.731  13.820  0.9506 -0.3397 -2.8900
   9523SM  H15T12841   3.037   2.888  13.806  3.2993 -1.0176 -1.8660
   9523SM  C16S12842   3.049   2.801  14.005 -0.1438  0.2155 -0.1504
   9523SM  H16S12843   2.955   2.853  14.034  0.6217  1.1628  0.7496
   9523SM  H16T12844   3.134   2.871  14.025 -0.0278 -0.1074  0.5362
   9523SM  C17S12845   3.061   2.677  14.085  0.6042  0.4992 -0.3671
   9523SM  H17S12846   3.159   2.632  14.062  0.7845 -0.6583  2.2589
   9523SM  H17T12847   2.979   2.610  14.052 -0.0108  1.8298 -1.6128
   9523SM  C18S12848   3.063   2.707  14.236  0.4157  0.0867  1.2161
   9523SM  H18S12849   3.140   2.786  14.247 -1.4259  2.1280  0.3098
   9523SM  H18T12850   3.089   2.608  14.280 -0.8307 -0.4845  0.7331
   9523SM  H18U12851   2.973   2.751  14.284  0.5035  0.6356  0.8886
   9523SM   C1F12852   3.229   2.780  12.599 -0.6335 -0.1991  0.2233
   9523SM    OF12853   3.289   2.707  12.525 -0.0476  0.4563  0.1488
   9523SM   C2F12854   3.087   2.765  12.621 -0.4619  0.4465  1.1055
   9523SM   H2F12855   3.041   2.729  12.526  1.6082  0.5057  0.0316
   9523SM   H2G12856   3.052   2.864  12.658 -1.5191  0.5401 -0.0662
   9523SM   C3F12857   3.055   2.672  12.739 -0.3765 -0.3173 -0.8653
   9523SM   H3F12858   2.947   2.672  12.764 -0.0334  1.2323  0.8454
   9523SM   H3G12859   3.101   2.721  12.827 -1.4269 -2.3378  0.9186
   9523SM   C4F12860   3.107   2.530  12.726  0.2140  0.1146  0.2200
   9523SM   H4F12861   3.218   2.531  12.724  0.2080  1.1392 -0.2738
   9523SM   H4G12862   3.064   2.490  12.632 -0.7396 -1.0533  1.1289
   9523SM   C5F12863   3.046   2.432  12.830 -0.3472 -0.6399 -0.4536
   9523SM   H5F12864   3.082   2.328  12.820  0.5823 -0.2305 -1.6254
   9523SM   H5G12865   2.936   2.437  12.817 -0.4190 -3.1159 -1.1548
   9523SM   C6F12866   3.079   2.479  12.974 -0.1539 -0.2831 -0.4398
   9523SM   H6F12867   3.044   2.584  12.978  0.9519  0.1410 -1.5059
   9523SM   H6G12868   3.186   2.485  13.000 -0.1761 -0.5521 -0.2777
   9523SM   C7F12869   2.998   2.395  13.075 -0.3426 -0.5511 -0.3128
   9523SM   H7F12870   3.048   2.296  13.087  1.0451  0.2033  0.3701
   9523SM   H7G12871   2.896   2.384  13.032 -0.7942  1.3226  0.2084
   9523SM   C8F12872   2.985   2.456  13.219  0.4453 -0.4429 -0.0045
   9523SM   H8F12873   2.944   2.559  13.220  1.3546 -0.0644  1.3279
   9523SM   H8G12874   3.085   2.449  13.267 -0.0634  0.1491  1.1556
   9523SM   C9F12875   2.885   2.383  13.312  0.1379  0.0473  0.1079
   9523SM   H9F12876   2.922   2.279  13.321 -0.7117 -0.2522  0.1575
   9523SM   H9G12877   2.787   2.388  13.260  0.7798 -0.7099 -1.2350
   9523SM  C10F12878   2.870   2.449  13.449 -0.1079  0.1758  0.2418
   9523SM  H10F12879   2.827   2.551  13.439  0.2376  0.7646  3.4705
   9523SM  H10G12880   2.975   2.448  13.488 -0.6668  0.9852  1.8771
   9523SM  C11F12881   2.780   2.373  13.550 -0.5620  0.0047 -0.8331
   9523SM  H11F12882   2.767   2.269  13.512 -0.8574 -0.4107  0.3789
   9523SM  H11G12883   2.687   2.433  13.541 -0.1626  0.4761 -2.0629
   9523SM  C12F12884   2.841   2.364  13.695  0.3513 -0.3946 -0.2503
   9523SM  H12F12885   2.761   2.306  13.747  0.7123 -0.3115  0.3998
   9523SM  H12G12886   2.850   2.465  13.741 -0.0079 -0.4501 -0.0489
   9523SM  C13F12887   2.973   2.291  13.720 -0.2156 -0.2137 -0.3107
   9523SM  H13F12888   3.047   2.346  13.658  0.7827  0.6240  1.5355
   9523SM  H13G12889   2.970   2.186  13.686 -2.5916 -2.1608  4.7965
   9523SM  C14F12890   3.015   2.293  13.868 -0.2627  0.1056 -0.5719
   9523SM  H14F12891   2.986   2.192  13.903  0.3728 -0.3700 -1.3652
   9523SM  H14G12892   2.966   2.376  13.922  3.2545  1.8321  0.3003
   9523SM  C15F12893   3.165   2.320  13.886  0.1586  0.3045 -0.3377
   9523SM  H15F12894   3.186   2.420  13.843 -1.6100  1.8449  2.1032
   9523SM  H15G12895   3.217   2.237  13.834 -2.2164 -1.3934 -0.1959
   9523SM  C16F12896   3.212   2.314  14.027 -0.1293  0.1093  0.3820
   9523SM  H16F12897   3.173   2.221  14.073 -0.4342  1.4570  2.9887
   9523SM  H16G12898   3.170   2.404  14.075  0.9083  1.7556 -1.6133
   9523SM  C17F12899   3.362   2.315  14.043 -0.9754 -0.3199  0.0702
   9523SM  H17F12900   3.398   2.401  13.982 -1.2700 -0.1114  0.1895
   9523SM  H17G12901   3.397   2.226  13.986  0.1500  0.3148 -0.2707
   9523SM  C18F12902   3.406   2.314  14.188 -0.1159 -0.0965  0.0640
   9523SM  H18F12903   3.374   2.411  14.230 -0.7386  0.6599 -2.0281
   9523SM  H18G12904   3.516   2.319  14.204 -0.1932  1.4097  0.2893
   9523SM  C19F12905   3.363   2.194  14.272  0.3647 -0.4642  0.4473
   9523SM  H19F12906   3.391   2.100  14.219 -1.2315 -1.2322  0.9004
   9523SM  H19G12907   3.253   2.202  14.287 -0.0953 -1.2784 -1.9851
   9523SM  C20F12908   3.420   2.190  14.413 -0.2370 -1.2915 -0.6407
   9523SM  H20F12909   3.409   2.273  14.486  1.5378 -1.8173  0.2784
   9523SM  H20G12910   3.529   2.186  14.391 -0.1945  1.7453 -1.4933
   9523SM  C21F12911   3.379   2.063  14.486  0.2838 -0.1914  0.1420
   9523SM  H21F12912   3.407   1.979  14.419 -0.2184  0.0009 -0.3161
   9523SM  H21G12913   3.269   2.073  14.495  0.2886  0.9511 -0.7175
   9523SM  C22F12914   3.448   2.051  14.624  0.8397  0.2462 -0.1198
   9523SM  H22F12915   3.406   1.957  14.667  1.1811 -0.0659 -0.4518
   9523SM  H22G12916   3.414   2.135  14.687  0.6807  2.2776 -2.7525
   9523SM  C23F12917   3.598   2.028  14.626  0.6555 -0.2947 -0.3973
   9523SM  H23F12918   3.623   1.990  14.727  0.5544 -1.3157 -0.7411
   9523SM  H23G12919   3.651   2.124  14.609 -0.8522  0.5011 -0.8037
   9523SM  H23H12920   3.632   1.961  14.544  0.7068  1.9538 -2.3359
   9623SM     N12921   2.340   5.200  12.373  0.4198  0.2458 -0.1443
   9623SM   C1512922   2.192   5.204  12.411 -0.3613 -0.0386 -0.3566
   9623SM  H15A12923   2.160   5.307  12.413  0.4613  0.2032  0.9551
   9623SM  H15B12924   2.173   5.152  12.504  0.8547  1.2677  0.6597
   9623SM  H15C12925   2.138   5.148  12.336 -0.3991 -0.1380 -0.2536
   9623SM   C1412926   2.404   5.066  12.395 -0.0358 -0.0378  0.0403
   9623SM  H14A12927   2.392   4.987  12.323 -0.8195 -0.4939  0.6612
   9623SM  H14B12928   2.377   5.022  12.490 -1.3302  1.2327  0.2960
   9623SM  H14C12929   2.511   5.079  12.390  0.2144 -2.2255 -1.7947
   9623SM   C1312930   2.363   5.234  12.231 -0.4339  0.3109  0.0250
   9623SM  H13A12931   2.466   5.253  12.205 -0.4729  0.4098 -0.0552
   9623SM  H13B12932   2.303   5.322  12.214  0.7484  0.8149 -1.6969
   9623SM  H13C12933   2.320   5.163  12.161 -0.2510  1.2289 -1.0379
   9623SM   C1212934   2.410   5.302  12.456 -0.1281 -0.1593  0.4206
   9623SM  H12A12935   2.369   5.320  12.555  1.3687  1.6366  0.7697
   9623SM  H12B12936   2.404   5.389  12.393  0.6875  0.2163  0.8533
   9623SM   C1112937   2.562   5.304  12.489 -0.1689  0.4525  0.1890
   9623SM  H11A12938   2.566   5.227  12.569 -1.3963  0.4272  0.2532
   9623SM  H11B12939   2.581   5.398  12.546  2.3254 -0.3193  0.7429
   9623SM     P12940   2.771   5.161  12.387  0.2860  0.0430  0.0607
   9623SM   O1312941   2.696   5.037  12.380 -0.3566 -0.2423  0.7608
   9623SM   O1412942   2.864   5.186  12.283 -0.5739 -0.5903  0.0906
   9623SM   O1112943   2.837   5.171  12.526  0.1989 -0.1832 -0.6913
   9623SM   O1212944   2.652   5.276  12.382  0.4319  0.4809  0.0531
   9623SM   C1S12945   2.887   5.305  12.556  0.0592 -0.7078  0.2793
   9623SM   H1S12946   2.831   5.382  12.499 -1.4182 -0.4257  1.9969
   9623SM   H1T12947   2.992   5.307  12.519 -0.9309  1.1462 -2.7883
   9623SM    NF12948   2.927   5.470  12.735  0.4125 -0.1347 -0.0385
   9623SM   HNF12949   3.019   5.486  12.771  0.6497 -1.4525 -0.0151
   9623SM   C2S12950   2.887   5.336  12.710  0.4545 -0.0697 -0.1675
   9623SM   H2S12951   2.782   5.315  12.740  0.6606 -0.5665  0.2376
   9623SM   C3S12952   2.969   5.234  12.784  0.1735 -0.7561 -0.3992
   9623SM   H3S12953   3.075   5.237  12.751  2.0783  0.7094  4.8228
   9623SM    O312954   2.933   5.099  12.771 -0.2719 -0.5763  0.1900
   9623SM   HO312955   2.877   5.102  12.693  0.9578 -1.1518 -0.7566
   9623SM   C4S12956   2.995   5.259  12.935  0.1945 -0.1621 -0.5060
   9623SM   H4S12957   2.927   5.336  12.975 -1.7065 -2.5941  1.2412
   9623SM   C5S12958   3.114   5.250  13.003 -0.9309  0.0346 -0.0385
   9623SM   H5S12959   3.199   5.221  12.939  0.2588 -0.1984  1.5891
   9623SM   C6S12960   3.149   5.283  13.149 -0.2436 -0.8234  0.1640
   9623SM   H6S12961   3.236   5.352  13.147 -1.5204  1.2434  4.3093
   9623SM   H6T12962   3.177   5.199  13.216  0.1901 -0.5247  0.3646
   9623SM   C7S12963   3.032   5.357  13.219  0.1789 -0.0797  0.5374
   9623SM   H7S12964   2.951   5.290  13.256 -0.4434  0.2362 -0.2114
   9623SM   H7T12965   2.982   5.437  13.160 -0.4803 -1.2060 -0.4860
   9623SM   C8S12966   3.096   5.421  13.345 -0.5643 -0.5514 -0.4393
   9623SM   H8S12967   3.011   5.459  13.407 -1.6539 -2.0770 -0.9355
   9623SM   H8T12968   3.171   5.497  13.315  0.4102 -0.7944  1.2378
   9623SM   C9S12969   3.158   5.320  13.445 -1.1443 -0.1100  0.1966
   9623SM   H9S12970   3.249   5.274  13.400  0.6896  0.6410  2.8443
   9623SM   H9T12971   3.084   5.238  13.456 -0.9190 -0.3411  0.0180
   9623SM  C10S12972   3.220   5.378  13.580  0.2640  0.2109 -0.1761
   9623SM  H10S12973   3.279   5.470  13.560 -0.9011  1.7463  2.8249
   9623SM  H10T12974   3.277   5.305  13.641 -0.3210  0.1324  0.2909
   9623SM  C11S12975   3.107   5.407  13.679 -0.1864 -0.5652 -0.1457
   9623SM  H11S12976   3.046   5.316  13.695  2.1740 -2.3123 -0.5996
   9623SM  H11T12977   3.051   5.491  13.632  3.3119  2.2781  0.2941
   9623SM  C12S12978   3.168   5.434  13.817 -0.3012 -0.3892  0.4704
   9623SM  H12S12979   3.242   5.516  13.804 -1.1352  0.8760  2.9947
   9623SM  H12T12980   3.211   5.350  13.875 -0.2528 -0.2770  0.6000
   9623SM  C13S12981   3.061   5.513  13.906 -0.3029  0.2964 -0.4945
   9623SM  H13S12982   2.971   5.450  13.920 -0.5953  1.1924  2.3319
   9623SM  H13T12983   3.046   5.609  13.852  0.7588  0.7627  0.0070
   9623SM  C14S12984   3.131   5.546  14.041 -0.7755 -0.7946  0.0023
   9623SM  H14S12985   3.237   5.564  14.013 -1.0530 -2.1427 -2.1505
   9623SM  H14T12986   3.126   5.451  14.099 -1.4335 -1.7470 -1.5336
   9623SM  C15S12987   3.068   5.662  14.124 -1.1260  0.0952  0.5179
   9623SM  H15S12988   2.959   5.647  14.140 -1.7299  2.9836 -0.2394
   9623SM  H15T12989   3.067   5.751  14.056 -0.8989  0.4854  1.0229
   9623SM  C16S12990   3.146   5.689  14.253 -0.0251 -0.5039 -0.0025
   9623SM  H16S12991   3.116   5.789  14.291 -1.9237 -0.4014 -1.6095
   9623SM  H16T12992   3.254   5.699  14.225  0.2277 -4.8693 -1.2571
   9623SM  C17S12993   3.111   5.581  14.357 -0.0258  0.0732 -0.7905
   9623SM  H17S12994   3.190   5.596  14.434 -0.6918 -0.5535  0.0272
   9623SM  H17T12995   3.128   5.483  14.308  2.3959  0.2577 -0.4270
   9623SM  C18S12996   2.975   5.603  14.425 -0.5941 -0.0024 -0.2153
   9623SM  H18S12997   2.977   5.664  14.518  0.1581 -0.3714  0.0206
   9623SM  H18T12998   2.920   5.507  14.434  1.4045 -1.3517 -1.4683
   9623SM  H18U12999   2.923   5.673  14.357  2.1527  1.6610 -0.7743
   9623SM   C1F13000   2.848   5.575  12.723 -0.1268 -0.4070  0.0918
   9623SM    OF13001   2.731   5.557  12.696 -0.3313  0.2896 -0.0690
   9623SM   C2F13002   2.899   5.711  12.754  0.0243 -0.4062 -0.0614
   9623SM   H2F13003   2.861   5.781  12.677 -1.5216  1.0802  1.9154
   9623SM   H2G13004   3.010   5.709  12.744  0.2222  3.5943 -0.5772
   9623SM   C3F13005   2.853   5.774  12.893 -0.2054 -0.6265 -0.4012
   9623SM   H3F13006   2.742   5.781  12.887 -0.1374  1.3174  0.1022
   9623SM   H3G13007   2.890   5.878  12.888 -2.0320  0.0149 -1.8599
   9623SM   C4F13008   2.903   5.706  13.023  0.6645 -0.8320 -0.2162
   9623SM   H4F13009   3.010   5.730  13.037  0.0999  0.5357  2.3631
   9623SM   H4G13010   2.890   5.596  13.025 -1.7665 -0.6083  1.9572
   9623SM   C5F13011   2.818   5.756  13.144  0.1048 -0.3605  0.7121
   9623SM   H5F13012   2.711   5.735  13.124 -0.3944  1.9200  0.6617
   9623SM   H5G13013   2.837   5.865  13.138  1.4749 -0.6722 -1.6117
   9623SM   C6F13014   2.865   5.724  13.284 -0.3281  0.3695 -0.4628
   9623SM   H6F13015   2.975   5.712  13.275 -0.3367 -1.3929  1.1809
   9623SM   H6G13016   2.824   5.625  13.314  2.2860 -1.2218 -1.7588
   9623SM   C7F13017   2.823   5.830  13.388  0.2183 -0.4798  0.5139
   9623SM   H7F13018   2.858   5.930  13.357 -0.3098 -0.5845 -0.4824
   9623SM   H7G13019   2.875   5.803  13.482 -1.0914 -0.6571  1.2117
   9623SM   C8F13020   2.674   5.835  13.401  0.2973  0.1086  0.3518
   9623SM   H8F13021   2.649   5.732  13.434  0.2860 -0.1792 -0.5325
   9623SM   H8G13022   2.627   5.854  13.302  1.3464  0.2635 -0.1411
   9623SM   C9F13023   2.615   5.939  13.496  0.3788  0.2150 -0.0322
   9623SM   H9F13024   2.644   5.910  13.599  2.5721  1.3252 -0.2773
   9623SM   H9G13025   2.504   5.926  13.491  0.2755 -0.5867  2.5609
   9623SM  C10F13026   2.658   6.083  13.482 -0.2131  1.0726  0.3608
   9623SM  H10F13027   2.619   6.107  13.381 -1.4005  0.6345  0.6898
   9623SM  H10G13028   2.768   6.092  13.495 -0.2330 -1.1386  2.9639
   9623SM  C11F13029   2.598   6.174  13.583 -0.2998  0.2557 -0.0273
   9623SM  H11F13030   2.487   6.167  13.580 -0.2353 -1.5002  0.3537
   9623SM  H11G13031   2.639   6.275  13.560  1.7660 -0.6831 -0.7552
   9623SM  C12F13032   2.636   6.142  13.730 -0.8397 -0.0253  0.5139
   9623SM  H12F13033   2.747   6.146  13.732 -0.7692  2.2506 -1.8518
   9623SM  H12G13034   2.603   6.041  13.763  0.7849 -0.9499 -0.5535
   9623SM  C13F13035   2.569   6.256  13.814 -0.4928 -0.5206  0.0680
   9623SM  H13F13036   2.464   6.246  13.778 -0.7185 -0.7148  0.7586
   9623SM  H13G13037   2.614   6.351  13.780  0.4420 -0.8744  0.2894
   9623SM  C14F13038   2.583   6.235  13.967  0.2193 -0.2888  0.1072
   9623SM  H14F13039   2.689   6.234  14.000  0.5594  2.9689 -0.5328
   9623SM  H14G13040   2.538   6.135  13.984  0.6879 -0.4529  0.3942
   9623SM  C15F13041   2.520   6.350  14.046  0.5777 -0.2674 -0.0471
   9623SM  H15F13042   2.422   6.374  13.998  0.1290  0.0716  1.0235
   9623SM  H15G13043   2.582   6.442  14.034 -1.1699  0.7396 -2.2174
   9623SM  C16F13044   2.482   6.331  14.193  0.2227 -0.1408 -0.0800
   9623SM  H16F13045   2.578   6.330  14.248  0.3309  3.2040  0.0176
   9623SM  H16G13046   2.439   6.231  14.215 -0.6729 -0.2285 -1.9675
   9623SM  C17F13047   2.387   6.432  14.254  0.2986 -0.4071 -0.5827
   9623SM  H17F13048   2.302   6.443  14.184  0.0534  0.3143 -0.1874
   9623SM  H17G13049   2.445   6.527  14.264  0.7846 -0.7626  0.0602
   9623SM  C18F13050   2.324   6.396  14.394 -0.5695 -0.0263  0.4598
   9623SM  H18F13051   2.245   6.320  14.377 -0.4887 -0.3988  1.6474
   9623SM  H18G13052   2.276   6.486  14.439 -1.4659 -0.4522  0.3786
   9623SM  C19F13053   2.432   6.338  14.489 -0.0919 -0.4654 -0.3703
   9623SM  H19F13054   2.478   6.252  14.435  3.7370  0.8363  0.4434
   9623SM  H19G13055   2.391   6.296  14.584 -1.3528  3.1484  0.8512
   9623SM  C20F13056   2.545   6.439  14.525  0.2130 -0.4956 -0.2271
   9623SM  H20F13057   2.505   6.513  14.597 -1.5561 -1.6164 -0.0001
   9623SM  H20G13058   2.569   6.479  14.424 -0.4294  1.0480  0.2099
   9623SM  C21F13059   2.656   6.361  14.602 -0.1768 -0.4352  0.3050
   9623SM  H21F13060   2.699   6.282  14.536  1.4934  0.5469  0.1722
   9623SM  H21G13061   2.611   6.310  14.690  2.1325  0.6332  2.2094
   9623SM  C22F13062   2.772   6.453  14.652  0.4743 -0.2230 -0.9577
   9623SM  H22F13063   2.823   6.502  14.567  0.4190 -1.2730 -1.6098
   9623SM  H22G13064   2.850   6.389  14.701  0.1886 -0.5642 -0.9483
   9623SM  C23F13065   2.724   6.562  14.754 -0.1973  0.1668 -0.2599
   9623SM  H23F13066   2.650   6.529  14.830 -1.3703 -0.8111 -1.7746
   9623SM  H23G13067   2.676   6.647  14.703  0.6231  0.5447 -0.4257
   9623SM  H23H13068   2.818   6.592  14.806 -1.2384  5.2295 -0.7860
   9723SM     N13069   3.104   0.577  11.893  0.8815 -0.6896 -0.1541
   9723SM   C1513070   2.973   0.548  11.959  1.3516 -0.4909 -0.2833
   9723SM  H15A13071   2.891   0.542  11.889  0.8639  1.2632  0.0659
   9723SM  H15B13072   2.944   0.633  12.020  0.8319  0.4953 -1.8499
   9723SM  H15C13073   2.975   0.466  12.028  0.0859 -0.2192  0.1010
   9723SM   C1413074   3.190   0.608  12.012 -0.6166 -0.5332 -0.8323
   9723SM  H14A13075   3.291   0.629  11.979 -1.5246  1.7744 -2.3390
   9723SM  H14B13076   3.183   0.521  12.077 -0.3445  0.7511  0.9936
   9723SM  H14C13077   3.160   0.699  12.061  1.2482  0.1456 -0.8818
   9723SM   C1313078   3.158   0.453  11.837  0.1439  0.5333  0.9867
   9723SM  H13A13079   3.254   0.461  11.788  0.3175  1.1473  1.4147
   9723SM  H13B13080   3.093   0.414  11.760 -0.6213  1.9574  0.8716
   9723SM  H13C13081   3.155   0.393  11.927 -1.0147 -0.5349  0.2588
   9723SM   C1213082   3.110   0.684  11.795  0.6724  0.8123 -0.1814
   9723SM  H12A13083   3.056   0.770  11.832  0.7142  0.1270  1.5772
   9723SM  H12B13084   3.045   0.654  11.714  2.2017 -1.8531 -0.5139
   9723SM   C1113085   3.247   0.734  11.739 -0.4090 -0.4737 -0.2780
   9723SM  H11A13086   3.213   0.802  11.658 -0.7838 -1.9363 -1.3974
   9723SM  H11B13087   3.293   0.648  11.685  1.3198  0.4691 -0.3886
   9723SM     P13088   3.270   0.940  11.884 -0.1771  0.3319  0.3191
   9723SM   O1313089   3.342   1.045  11.814  0.7289  0.3888 -0.0534
   9723SM   O1413090   3.120   0.949  11.874 -0.3091 -0.2967 -0.1164
   9723SM   O1113091   3.303   0.963  12.030 -0.0811 -0.2031 -0.3708
   9723SM   O1213092   3.327   0.793  11.842 -0.1833  0.6523 -0.6943
   9723SM   C1S13093   3.412   0.899  12.101  0.0332  0.0835 -0.0099
   9723SM   H1S13094   3.498   0.968  12.086  0.8382 -0.9975 -0.4668
   9723SM   H1T13095   3.428   0.792  12.076 -0.4121  0.3034 -1.3569
   9723SM    NF13096   3.490   0.829  12.341 -0.9093  0.2126  0.2117
   9723SM   HNF13097   3.473   0.737  12.376 -2.2272  0.9806  1.7177
   9723SM   C2S13098   3.384   0.884  12.260 -0.1722 -0.5290 -0.0213
   9723SM   H2S13099   3.369   0.992  12.280 -1.3296 -0.4676 -1.1247
   9723SM   C3S13100   3.245   0.826  12.293 -0.0274  0.4521  0.2488
   9723SM   H3S13101   3.243   0.717  12.275 -0.4905  0.2096  1.6296
   9723SM    O313102   3.134   0.873  12.217  0.1677  0.3247  0.3731
   9723SM   HO313103   3.174   0.904  12.135  2.1051 -1.4121  0.5733
   9723SM   C4S13104   3.220   0.839  12.443  0.0207  0.6970  0.0506
   9723SM   H4S13105   3.263   0.932  12.484 -0.0078  0.5752  0.3630
   9723SM   C5S13106   3.166   0.744  12.528 -0.0684 -0.4975  0.1744
   9723SM   H5S13107   3.145   0.644  12.489 -2.0103 -0.2041  0.3665
   9723SM   C6S13108   3.153   0.759  12.677  0.2081 -0.2903 -0.2297
   9723SM   H6S13109   3.095   0.676  12.723  0.7734 -0.2387  0.6085
   9723SM   H6T13110   3.090   0.849  12.694  1.7509  1.0773 -1.4737
   9723SM   C7S13111   3.292   0.776  12.742  0.1525 -0.0003 -0.7376
   9723SM   H7S13112   3.345   0.867  12.706  0.1912 -0.0620 -0.8376
   9723SM   H7T13113   3.347   0.693  12.693 -1.8992 -0.5440 -2.2693
   9723SM   C8S13114   3.291   0.762  12.893 -0.0518  1.1129  0.0632
   9723SM   H8S13115   3.389   0.725  12.930 -0.2173  0.5801 -0.0178
   9723SM   H8T13116   3.222   0.677  12.910  0.7971  0.8407  2.5610
   9723SM   C9S13117   3.242   0.888  12.974 -0.6109 -0.4935 -0.1935
   9723SM   H9S13118   3.142   0.916  12.935  0.2191  0.7273 -1.5649
   9723SM   H9T13119   3.312   0.973  12.958  0.0929 -1.2355 -1.2573
   9723SM  C10S13120   3.234   0.835  13.120  0.2220 -0.5892  0.2038
   9723SM  H10S13121   3.335   0.790  13.132  0.6112  0.3175  0.4548
   9723SM  H10T13122   3.159   0.753  13.122  0.6328 -0.9625  1.6539
   9723SM  C11S13123   3.195   0.948  13.220  0.3740  0.0539 -0.3020
   9723SM  H11S13124   3.109   1.007  13.182  0.3368  0.5566  0.5323
   9723SM  H11T13125   3.280   1.017  13.237  0.7549  0.0253 -1.9388
   9723SM  C12S13126   3.168   0.881  13.352  0.5713  0.1718 -0.1962
   9723SM  H12S13127   3.098   0.799  13.328  2.1191 -0.7232 -1.9535
   9723SM  H12T13128   3.119   0.953  13.422  1.4582 -0.6217  1.3074
   9723SM  C13S13129   3.286   0.826  13.428  0.4251  0.4017 -0.0286
   9723SM  H13S13130   3.355   0.908  13.461 -0.0458  0.5350  0.6560
   9723SM  H13T13131   3.350   0.770  13.357 -2.6083  0.4935 -3.1102
   9723SM  C14S13132   3.249   0.734  13.543 -0.2362  0.4735 -0.7791
   9723SM  H14S13133   3.343   0.688  13.583 -0.6231  0.6491  0.3653
   9723SM  H14T13134   3.169   0.662  13.515 -0.5717 -0.1110  1.4813
   9723SM  C15S13135   3.190   0.820  13.664  0.2094 -0.0129  0.4028
   9723SM  H15S13136   3.082   0.839  13.646 -0.2955 -3.6487 -1.3996
   9723SM  H15T13137   3.247   0.915  13.666 -0.6009  0.6522 -2.5349
   9723SM  C16S13138   3.190   0.744  13.797 -0.1598  0.8500 -0.8717
   9723SM  H16S13139   3.286   0.690  13.816 -0.0347  0.9114 -1.3149
   9723SM  H16T13140   3.105   0.674  13.805  0.4661  0.2594  1.4957
   9723SM  C17S13141   3.167   0.850  13.904 -0.1038  0.1079  0.4531
   9723SM  H17S13142   3.080   0.916  13.887 -1.2761 -1.1412  1.3015
   9723SM  H17T13143   3.251   0.922  13.911 -0.5116  0.7018 -0.6817
   9723SM  C18S13144   3.147   0.792  14.045 -0.0851  0.6855 -0.1472
   9723SM  H18S13145   3.142   0.873  14.122 -0.8816 -1.4333  2.1864
   9723SM  H18T13146   3.228   0.719  14.066 -1.3303 -0.6024  0.4050
   9723SM  H18U13147   3.059   0.725  14.053 -0.3632  0.8941 -1.3662
   9723SM   C1F13148   3.616   0.880  12.354 -0.5092  0.1390 -0.9491
   9723SM    OF13149   3.640   0.996  12.337  0.1597  0.2795  0.3902
   9723SM   C2F13150   3.719   0.783  12.405 -0.1654 -0.8921  0.3128
   9723SM   H2F13151   3.786   0.764  12.319  0.3665 -0.8086  0.7037
   9723SM   H2G13152   3.667   0.685  12.409 -1.6533 -0.4085 -3.6216
   9723SM   C3F13153   3.780   0.839  12.536  0.0138  0.0092 -0.0280
   9723SM   H3F13154   3.822   0.941  12.518  0.5893 -0.6499 -2.8896
   9723SM   H3G13155   3.860   0.768  12.566  0.4978  0.6180  0.1442
   9723SM   C4F13156   3.684   0.832  12.657  0.8905  0.0647  0.2153
   9723SM   H4F13157   3.627   0.736  12.654  1.1641 -0.0744 -2.5105
   9723SM   H4G13158   3.606   0.908  12.635 -2.9035 -3.1678  1.1690
   9723SM   C5F13159   3.755   0.841  12.788  0.7881  0.1843  0.9214
   9723SM   H5F13160   3.834   0.918  12.784  0.0330  1.0268  1.7138
   9723SM   H5G13161   3.799   0.740  12.803  2.1292  0.1194 -2.5575
   9723SM   C6F13162   3.663   0.864  12.909 -0.2342  0.9068  0.2662
   9723SM   H6F13163   3.592   0.778  12.911  2.4460 -1.4620 -0.2914
   9723SM   H6G13164   3.612   0.962  12.894 -1.6616  0.0083 -0.9813
   9723SM   C7F13165   3.747   0.868  13.039  0.2150  0.1845  0.0367
   9723SM   H7F13166   3.816   0.955  13.044  0.7843 -0.3414  2.3618
   9723SM   H7G13167   3.825   0.788  13.047 -0.8423 -0.7989  0.9122
   9723SM   C8F13168   3.653   0.863  13.161  0.5594  0.5502 -0.1878
   9723SM   H8F13169   3.588   0.776  13.140  0.4103  0.3305  1.1231
   9723SM   H8G13170   3.584   0.949  13.152  0.5709  0.7295  1.2664
   9723SM   C9F13171   3.725   0.857  13.300 -0.1363  0.0344  0.8230
   9723SM   H9F13172   3.819   0.915  13.292 -0.2619  0.1463  0.1379
   9723SM   H9G13173   3.756   0.752  13.315 -2.6340 -1.1138 -1.3286
   9723SM  C10F13174   3.624   0.913  13.401 -0.1036 -0.0155 -0.8697
   9723SM  H10F13175   3.530   0.853  13.412 -1.1700  1.6951 -0.2402
   9723SM  H10G13176   3.591   1.014  13.371 -0.0825  0.1420 -0.3719
   9723SM  C11F13177   3.680   0.911  13.543  0.3468 -0.2155  0.6641
   9723SM  H11F13178   3.785   0.948  13.537  0.5075 -0.6949  0.4703
   9723SM  H11G13179   3.686   0.809  13.585  1.6732 -0.6268 -0.4321
   9723SM  C12F13180   3.605   1.004  13.638 -0.5659 -0.0079 -0.0385
   9723SM  H12F13181   3.501   0.976  13.666 -0.2968 -0.4683  0.5356
   9723SM  H12G13182   3.613   1.103  13.589 -3.0179  1.0502  1.5143
   9723SM  C13F13183   3.680   1.015  13.771  0.4383 -0.6153  0.5555
   9723SM  H13F13184   3.781   1.059  13.754  0.2788 -0.9587 -1.4679
   9723SM  H13G13185   3.680   0.913  13.815 -1.1099 -0.0517  1.9547
   9723SM  C14F13186   3.602   1.103  13.863  0.2700 -0.6252 -0.9609
   9723SM  H14F13187   3.507   1.053  13.892  0.1829 -0.4609 -0.9670
   9723SM  H14G13188   3.571   1.200  13.820  0.0028 -0.1588  0.2535
   9723SM  C15F13189   3.679   1.120  13.995  0.0081  0.3362 -0.3151
   9723SM  H15F13190   3.781   1.160  13.977  1.0280 -1.9981 -0.1035
   9723SM  H15G13191   3.690   1.019  14.040 -0.5481  0.4860  0.1745
   9723SM  C16F13192   3.611   1.213  14.089  0.3463  0.1009 -0.4817
   9723SM  H16F13193   3.513   1.173  14.126 -0.4095  2.5205  0.3147
   9723SM  H16G13194   3.601   1.311  14.039  1.1538 -0.1495 -1.1631
   9723SM  C17F13195   3.700   1.256  14.210 -0.0736 -0.2310  0.5767
   9723SM  H17F13196   3.670   1.355  14.250  0.2432  1.1922 -2.4575
   9723SM  H17G13197   3.803   1.279  14.175 -0.0878 -0.9903 -0.0089
   9723SM  C18F13198   3.727   1.152  14.318 -0.0986  0.2952 -0.2211
   9723SM  H18F13199   3.777   1.071  14.259 -0.8211 -1.1487  1.0628
   9723SM  H18G13200   3.628   1.117  14.351 -0.9968 -0.8875 -3.6773
   9723SM  C19F13201   3.817   1.201  14.429 -0.0687 -0.7391  0.0125
   9723SM  H19F13202   3.757   1.270  14.493  0.1745 -1.2070  0.7591
   9723SM  H19G13203   3.902   1.258  14.386 -0.0177 -0.9715 -0.1933
   9723SM  C20F13204   3.875   1.087  14.517 -0.7845  0.1154  0.1910
   9723SM  H20F13205   3.799   1.027  14.572 -0.2742  0.5779  1.4210
   9723SM  H20G13206   3.924   1.144  14.598 -0.8591  1.8151 -0.8997
   9723SM  C21F13207   3.963   0.991  14.430  0.1909 -0.6072 -0.7384
   9723SM  H21F13208   4.029   1.067  14.381  2.0774  1.0324  3.7194
   9723SM  H21G13209   3.909   0.935  14.352 -0.5973  0.3502 -0.9048
   9723SM  C22F13210   4.048   0.889  14.509 -0.8229 -0.3507 -0.1784
   9723SM  H22F13211   4.089   0.921  14.608 -0.6503 -1.3749  0.0922
   9723SM  H22G13212   4.136   0.864  14.447 -0.0265  0.3860  0.6285
   9723SM  C23F13213   3.964   0.765  14.536  0.1533 -0.4007  0.2809
   9723SM  H23F13214   3.931   0.727  14.437  1.1515  0.7791 -0.5254
   9723SM  H23G13215   3.872   0.791  14.593 -0.8080  0.1055 -1.4281
   9723SM  H23H13216   4.021   0.682  14.584  1.3640 -1.2576 -2.4535
   9823SM     N13217   0.940   4.554  11.730 -0.0531 -1.2336 -0.2488
   9823SM   C1513218   0.855   4.503  11.845 -0.0752  0.3934  0.2704
   9823SM  H15A13219   0.892   4.405  11.871  1.5521  0.9761  0.2890
   9823SM  H15B13220   0.754   4.503  11.809  0.6461  2.0334 -2.0175
   9823SM  H15C13221   0.877   4.561  11.933 -0.0891 -0.5836  0.9320
   9823SM   C1413222   1.074   4.587  11.779 -0.5337  0.5258 -0.8695
   9823SM  H14A13223   1.114   4.494  11.816 -1.1383 -0.2254 -2.0333
   9823SM  H14B13224   1.063   4.660  11.857  0.2820 -1.0580  0.8060
   9823SM  H14C13225   1.150   4.613  11.705  1.2867 -0.2840  0.6314
   9823SM   C1313226   0.940   4.450  11.620 -0.3866 -0.3900  0.6485
   9823SM  H13A13227   1.007   4.373  11.657  1.6132  0.6888 -0.5067
   9823SM  H13B13228   0.993   4.489  11.535  0.8887  0.4553  1.7869
   9823SM  H13C13229   0.837   4.423  11.602 -0.1728  0.9415 -3.5459
   9823SM   C1213230   0.883   4.684  11.679  0.0719  0.0480  0.3865
   9823SM  H12A13231   0.791   4.661  11.628 -0.3844  2.2514  0.1070
   9823SM  H12B13232   0.940   4.712  11.592 -2.6886  0.8068 -1.2863
   9823SM   C1113233   0.866   4.798  11.779  0.3787  0.7897  0.2100
   9823SM  H11A13234   0.804   4.755  11.861  1.4880 -0.2274  0.5487
   9823SM  H11B13235   0.793   4.873  11.742  0.0711 -0.8399 -2.7586
   9823SM     P13236   1.056   4.973  11.774 -0.2826 -0.2104  0.2082
   9823SM   O1313237   1.202   4.936  11.762  0.1729 -0.2042 -0.0484
   9823SM   O1413238   0.991   5.016  11.651  0.1025  0.1240  0.6050
   9823SM   O1113239   1.039   5.083  11.887  0.2759 -0.2119 -0.2634
   9823SM   O1213240   0.990   4.844  11.831  0.1462 -0.0352  0.0991
   9823SM   C1S13241   0.912   5.117  11.936  0.0020 -0.0738  0.4706
   9823SM   H1S13242   0.835   5.043  11.904 -0.5613  1.4184 -1.9668
   9823SM   H1T13243   0.873   5.215  11.902  0.1641 -0.4693 -0.9568
   9823SM    NF13244   0.776   5.114  12.143 -0.3330 -0.0502 -0.0167
   9823SM   HNF13245   0.731   5.202  12.148 -2.0837 -0.8970 -0.1019
   9823SM   C2S13246   0.915   5.118  12.094  0.5597 -0.8409  0.3969
   9823SM   H2S13247   0.961   5.027  12.137 -0.4358 -0.9741  1.2117
   9823SM   C3S13248   1.006   5.237  12.144 -0.6207 -0.0273  0.0560
   9823SM   H3S13249   0.967   5.337  12.113 -1.3964 -0.8804 -1.8827
   9823SM    O313250   1.137   5.219  12.092  0.4382  0.0790  0.5232
   9823SM   HO313251   1.130   5.149  12.028 -0.0820 -0.9679  1.6982
   9823SM   C4S13252   1.009   5.237  12.297 -0.6510  0.4660  0.8240
   9823SM   H4S13253   0.908   5.235  12.339 -0.0881 -1.2202  2.2165
   9823SM   C5S13254   1.110   5.204  12.381 -0.4761 -0.3582  0.1134
   9823SM   H5S13255   1.205   5.166  12.340  0.7759  0.6142  1.9619
   9823SM   C6S13256   1.108   5.198  12.534  0.3614  0.3101  0.5497
   9823SM   H6S13257   1.170   5.276  12.582  1.0395 -1.5296  2.8375
   9823SM   H6T13258   1.155   5.103  12.565  0.4389  0.0383 -0.3679
   9823SM   C7S13259   0.969   5.193  12.606 -0.4396 -0.3068 -0.6705
   9823SM   H7S13260   0.921   5.104  12.560 -0.5073  0.0503 -1.3048
   9823SM   H7T13261   0.928   5.294  12.586  2.7275  0.8422 -1.9861
   9823SM   C8S13262   0.987   5.168  12.759 -0.2123 -0.1160 -0.4047
   9823SM   H8S13263   1.042   5.077  12.792  0.2898  1.1487  2.5644
   9823SM   H8T13264   0.890   5.163  12.812  0.1558  1.9598  0.5604
   9823SM   C9S13265   1.050   5.287  12.840  0.5461 -0.2250 -0.0877
   9823SM   H9S13266   1.018   5.384  12.795  1.3413 -0.5426 -1.3894
   9823SM   H9T13267   1.155   5.284  12.803  0.5451 -1.7210  0.0010
   9823SM  C10S13268   1.043   5.286  12.998 -0.0189  0.2873 -0.1397
   9823SM  H10S13269   0.940   5.255  13.024  0.4728 -2.4783 -1.0746
   9823SM  H10T13270   1.073   5.386  13.033 -1.9798  1.3173 -1.2182
   9823SM  C11S13271   1.135   5.173  13.060  0.2115 -0.3380 -0.2161
   9823SM  H11S13272   1.233   5.219  13.035 -0.3622  1.5562  0.8474
   9823SM  H11T13273   1.121   5.084  12.995  0.7534 -0.0466 -0.7401
   9823SM  C12S13274   1.128   5.162  13.213  0.5043  0.1385  0.2876
   9823SM  H12S13275   1.151   5.265  13.247  1.2689  0.8080 -2.0928
   9823SM  H12T13276   1.211   5.097  13.247  2.4499  1.1770 -2.1660
   9823SM  C13S13277   0.986   5.125  13.263  0.3521 -0.0830  0.0495
   9823SM  H13S13278   0.945   5.033  13.216 -1.0955 -0.2602  1.5963
   9823SM  H13T13279   0.918   5.209  13.236 -0.1556 -1.3844 -3.1683
   9823SM  C14S13280   0.973   5.093  13.416 -0.3606 -0.6172  0.0531
   9823SM  H14S13281   1.041   5.007  13.437 -0.0165 -0.0607  1.2735
   9823SM  H14T13282   0.868   5.057  13.419 -0.7313 -0.1005 -3.1631
   9823SM  C15S13283   0.988   5.217  13.513 -0.1504 -0.0868  0.4081
   9823SM  H15S13284   0.912   5.295  13.493  0.6073  0.9404  1.4011
   9823SM  H15T13285   1.086   5.267  13.495  0.2716 -0.1441  2.2844
   9823SM  C16S13286   0.963   5.193  13.662  0.3166  0.5793  0.3338
   9823SM  H16S13287   0.864   5.143  13.669 -0.8331  2.2408 -2.2181
   9823SM  H16T13288   0.961   5.292  13.711  0.5550  1.1794 -0.8448
   9823SM  C17S13289   1.078   5.106  13.728  0.3008  0.0082 -0.1695
   9823SM  H17S13290   1.165   5.174  13.729 -0.3402  0.8447 -0.1136
   9823SM  H17T13291   1.096   5.017  13.664  0.8100 -1.8260  2.3689
   9823SM  C18S13292   1.050   5.061  13.874 -0.7050 -0.1640  0.4723
   9823SM  H18S13293   1.024   5.151  13.933 -1.6127 -0.4449  0.5190
   9823SM  H18T13294   1.146   5.020  13.911  0.7325  1.4368 -1.3221
   9823SM  H18U13295   0.972   4.982  13.882 -0.5087 -0.4141 -0.0570
   9823SM   C1F13296   0.695   5.008  12.131 -0.0109  0.6035  0.7511
   9823SM    OF13297   0.732   4.902  12.086 -0.1649 -0.0672 -0.0665
   9823SM   C2F13298   0.549   5.043  12.157 -0.2506 -0.2739  0.5024
   9823SM   H2F13299   0.494   4.989  12.077  2.1522 -0.4092 -1.2073
   9823SM   H2G13300   0.543   5.151  12.136  0.4595  0.0488  1.8615
   9823SM   C3F13301   0.493   4.992  12.296  0.8477 -0.1270 -0.5521
   9823SM   H3F13302   0.499   4.881  12.293  0.8724 -0.1124 -1.3670
   9823SM   H3G13303   0.385   5.019  12.296  1.1848  1.3127 -1.1190
   9823SM   C4F13304   0.551   5.053  12.427 -1.1665 -0.5484 -0.1910
   9823SM   H4F13305   0.660   5.072  12.436 -1.5693  1.5909  0.8196
   9823SM   H4G13306   0.527   4.980  12.507 -2.1663 -0.0883 -0.0478
   9823SM   C5F13307   0.472   5.180  12.469 -0.5240  0.6781 -0.3249
   9823SM   H5F13308   0.377   5.139  12.510 -0.5777  2.0277  0.9726
   9823SM   H5G13309   0.450   5.248  12.384  0.8341 -1.0723 -2.1849
   9823SM   C6F13310   0.527   5.255  12.590  0.1301 -1.1625  0.5938
   9823SM   H6F13311   0.452   5.330  12.621 -0.0927 -0.9348 -0.4666
   9823SM   H6G13312   0.619   5.307  12.556 -0.7011 -0.8093 -1.2041
   9823SM   C7F13313   0.537   5.176  12.718  0.3023  0.8840 -0.7866
   9823SM   H7F13314   0.616   5.101  12.699 -0.7118 -0.0461 -1.4878
   9823SM   H7G13315   0.446   5.120  12.747  1.6508  0.5068  3.3282
   9823SM   C8F13316   0.575   5.275  12.830  0.8068 -0.0858 -0.1856
   9823SM   H8F13317   0.486   5.338  12.847  1.3095  0.7479 -0.5877
   9823SM   H8G13318   0.651   5.350  12.800  0.2025  0.5428 -0.1576
   9823SM   C9F13319   0.615   5.213  12.965 -0.1878  0.2426 -0.6926
   9823SM   H9F13320   0.714   5.167  12.946 -0.7192 -1.3652  0.2221
   9823SM   H9G13321   0.543   5.130  12.983  0.6453 -0.2871  0.2897
   9823SM  C10F13322   0.615   5.309  13.087 -0.4270  0.1017 -0.4676
   9823SM  H10F13323   0.520   5.366  13.084  0.5357  1.7513 -1.2373
   9823SM  H10G13324   0.701   5.379  13.081  0.3678 -0.9590 -2.0822
   9823SM  C11F13325   0.605   5.234  13.221  0.0194 -1.0614 -0.4733
   9823SM  H11F13326   0.686   5.158  13.228 -0.1345 -1.0947  1.9609
   9823SM  H11G13327   0.507   5.183  13.219  1.1721 -3.3616 -1.6689
   9823SM  C12F13328   0.586   5.341  13.336  0.0087  0.8734  0.3363
   9823SM  H12F13329   0.482   5.381  13.337  0.1004  1.2002 -0.9855
   9823SM  H12G13330   0.658   5.424  13.316  0.5297  0.3380 -0.0226
   9823SM  C13F13331   0.599   5.273  13.471  0.0980 -0.9603 -0.8959
   9823SM  H13F13332   0.702   5.230  13.475  0.7349  0.5676  1.4900
   9823SM  H13G13333   0.517   5.201  13.491 -0.1478 -0.5602 -0.4698
   9823SM  C14F13334   0.602   5.382  13.588  0.3971 -0.2289 -0.2058
   9823SM  H14F13335   0.511   5.444  13.578 -1.1285 -1.8947  2.1181
   9823SM  H14G13336   0.686   5.454  13.585 -1.0317  1.4684 -1.6250
   9823SM  C15F13337   0.590   5.322  13.725 -0.0845  0.3279  0.3182
   9823SM  H15F13338   0.653   5.232  13.743  1.7374  1.0801 -1.8563
   9823SM  H15G13339   0.486   5.292  13.748  0.2702 -1.2542 -0.0389
   9823SM  C16F13340   0.624   5.421  13.836 -0.5439  0.5066 -0.3043
   9823SM  H16F13341   0.552   5.505  13.843 -1.2916 -0.1651  0.2565
   9823SM  H16G13342   0.727   5.459  13.819  0.3153 -1.0102  1.2186
   9823SM  C17F13343   0.623   5.369  13.977 -0.2625 -0.5284 -0.4090
   9823SM  H17F13344   0.545   5.290  13.978 -0.5925 -0.2028  0.4500
   9823SM  H17G13345   0.590   5.433  14.062  1.4614 -1.8068  1.3152
   9823SM  C18F13346   0.760   5.315  14.018 -0.0997 -0.5296 -0.1465
   9823SM  H18F13347   0.835   5.397  14.020 -1.8535  1.1221  0.6157
   9823SM  H18G13348   0.801   5.245  13.942 -1.2573 -0.5392 -0.7842
   9823SM  C19F13349   0.744   5.240  14.152 -0.0411 -0.2263 -0.0018
   9823SM  H19F13350   0.670   5.157  14.139  0.6601 -0.7648 -0.6425
   9823SM  H19G13351   0.718   5.313  14.231 -1.0061  0.3906 -0.8553
   9823SM  C20F13352   0.872   5.173  14.207 -0.0198 -0.4882 -0.3812
   9823SM  H20F13353   0.943   5.253  14.236 -1.9494  0.0101  3.6546
   9823SM  H20G13354   0.912   5.108  14.126  1.0653  0.2935 -0.4903
   9823SM  C21F13355   0.830   5.087  14.332  0.0917  0.5682 -0.2293
   9823SM  H21F13356   0.771   5.001  14.293  0.4807  0.2123 -0.0406
   9823SM  H21G13357   0.756   5.150  14.386 -1.8962  0.5499 -2.7551
   9823SM  C22F13358   0.947   5.039  14.414 -0.2832  0.1009  0.1603
   9823SM  H22F13359   0.916   4.970  14.495 -0.4428 -1.0114 -0.8165
   9823SM  H22G13360   0.992   5.130  14.459 -2.5122  1.4663 -0.1719
   9823SM  C23F13361   1.037   4.953  14.332 -0.0851 -0.4984  0.4174
   9823SM  H23F13362   1.092   5.006  14.251 -0.8390 -2.9462 -1.8527
   9823SM  H23G13363   0.998   4.874  14.263  1.3093  0.2338 -1.2985
   9823SM  H23H13364   1.122   4.933  14.401 -0.2562  0.0077  0.7767
   9923SM     N13365   0.872   1.116  11.108 -0.8525  0.5458  0.2364
   9923SM   C1513366   0.988   1.113  11.201  0.3775 -0.4887  0.0543
   9923SM  H15A13367   1.076   1.133  11.142 -0.4413 -0.3779 -1.1645
   9923SM  H15B13368   1.005   1.018  11.250  0.8612 -1.1582 -1.3508
   9923SM  H15C13369   0.985   1.194  11.273  1.9828 -0.1187 -0.2559
   9923SM   C1413370   0.882   1.237  11.022 -0.5734  0.2052 -0.8353
   9923SM  H14A13371   0.787   1.272  10.985 -0.8512 -0.3536 -0.6735
   9923SM  H14B13372   0.943   1.215  10.936  1.4219 -1.8972  0.9729
   9923SM  H14C13373   0.934   1.316  11.074  1.7088 -1.4857 -0.3674
   9923SM   C1313374   0.877   0.996  11.017  0.3929 -0.6930 -0.1781
   9923SM  H13A13375   0.825   0.917  11.069  0.9068  0.3564  2.0454
   9923SM  H13B13376   0.979   0.961  11.006  1.4250  0.6014  3.7358
   9923SM  H13C13377   0.823   1.016  10.926 -4.3798  3.3766  3.0079
   9923SM   C1213378   0.739   1.118  11.188 -0.2360  0.1028  0.9447
   9923SM  H12A13379   0.661   1.129  11.114  0.2121 -1.4630  0.1887
   9923SM  H12B13380   0.744   1.208  11.247  0.8481  0.5261  0.2437
   9923SM   C1113381   0.698   0.992  11.271  0.4220  0.0729 -0.1665
   9923SM  H11A13382   0.608   1.023  11.328  1.8079 -0.8311  2.6657
   9923SM  H11B13383   0.780   0.987  11.347  0.1779 -0.5130  0.0582
   9923SM     P13384   0.539   0.859  11.107  0.2042 -0.3029  0.0247
   9923SM   O1313385   0.511   0.984  11.033  0.2525 -0.1424  0.9434
   9923SM   O1413386   0.554   0.739  11.025 -0.1486  0.5466  0.5483
   9923SM   O1113387   0.434   0.829  11.209  0.3473 -0.4929 -0.0850
   9923SM   O1213388   0.676   0.882  11.185  0.1564  0.4038 -0.1000
   9923SM   C1S13389   0.438   0.710  11.285 -0.1050  0.0251  0.1489
   9923SM   H1S13390   0.540   0.666  11.295 -0.8520 -1.7699  0.2847
   9923SM   H1T13391   0.372   0.637  11.233  3.3028 -0.6885 -3.7089
   9923SM    NF13392   0.378   0.604  11.505  0.0007 -0.4226 -0.1457
   9923SM   HNF13393   0.287   0.565  11.515 -0.6972  0.2668 -2.8874
   9923SM   C2S13394   0.384   0.727  11.433  0.6437 -0.3930 -0.4946
   9923SM   H2S13395   0.452   0.788  11.495  1.2755 -0.6977 -0.8829
   9923SM   C3S13396   0.238   0.794  11.423  0.0101  0.5511 -0.7725
   9923SM   H3S13397   0.187   0.731  11.347  0.4350  1.4457 -1.8273
   9923SM    O313398   0.232   0.929  11.372  0.2533  0.1807 -0.6859
   9923SM   HO313399   0.308   0.925  11.313  1.2877 -0.3712  0.6239
   9923SM   C4S13400   0.172   0.774  11.557 -0.3066  0.8254 -0.4744
   9923SM   H4S13401   0.100   0.692  11.572  0.5530  0.3347  1.2871
   9923SM   C5S13402   0.181   0.853  11.665  0.5389  0.2745 -0.1591
   9923SM   H5S13403   0.252   0.936  11.678  0.6156  0.1198  0.4479
   9923SM   C6S13404   0.103   0.832  11.792  0.2514  0.6878 -0.2000
   9923SM   H6S13405   0.020   0.761  11.776  2.7091 -2.2354 -0.7221
   9923SM   H6T13406   0.043   0.921  11.821  0.7478  0.5123  1.5125
   9923SM   C7S13407   0.197   0.784  11.907 -0.7681  0.2208  0.4252
   9923SM   H7S13408   0.293   0.838  11.923 -0.2523  0.4716 -2.9183
   9923SM   H7T13409   0.225   0.679  11.885 -0.0719  0.6709 -0.9286
   9923SM   C8S13410   0.137   0.766  12.047 -0.2832 -1.0026  0.3029
   9923SM   H8S13411   0.046   0.703  12.037 -0.4206 -0.5252 -1.9195
   9923SM   H8T13412   0.102   0.861  12.093  0.2705 -0.1109 -1.0339
   9923SM   C9S13413   0.228   0.706  12.151  0.2461 -0.4905 -0.4779
   9923SM   H9S13414   0.327   0.754  12.164  0.0488 -0.6091  2.0785
   9923SM   H9T13415   0.229   0.603  12.109 -0.4468 -0.9872  0.6675
   9923SM  C10S13416   0.163   0.684  12.286 -0.2876  0.2060  0.3456
   9923SM  H10S13417   0.058   0.648  12.285  0.1800 -1.2883  0.9227
   9923SM  H10T13418   0.152   0.775  12.348  1.0009 -1.5720  3.4267
   9923SM  C11S13419   0.240   0.576  12.371 -0.0532  0.3294 -0.2027
   9923SM  H11S13420   0.347   0.599  12.352 -0.3297  0.3313 -1.8606
   9923SM  H11T13421   0.222   0.472  12.338  1.0428 -0.3107  1.1396
   9923SM  C12S13422   0.210   0.587  12.523 -0.5280  0.4310 -0.0322
   9923SM  H12S13423   0.100   0.583  12.536 -0.5491 -2.8825 -0.3593
   9923SM  H12T13424   0.240   0.687  12.560 -0.2456  0.5126 -0.4762
   9923SM  C13S13425   0.270   0.474  12.606 -0.3084 -0.1519  0.3582
   9923SM  H13S13426   0.377   0.494  12.625  0.1969 -1.6524 -0.7232
   9923SM  H13T13427   0.255   0.370  12.570  2.3581 -0.4070 -0.2129
   9923SM  C14S13428   0.206   0.469  12.747  0.5916  0.2087 -0.0924
   9923SM  H14S13429   0.096   0.487  12.752 -0.3964 -4.0522 -2.0664
   9923SM  H14T13430   0.258   0.542  12.813  1.2334  0.0538 -0.4141
   9923SM  C15S13431   0.235   0.334  12.823  0.9012 -0.0581  0.0427
   9923SM  H15S13432   0.342   0.309  12.804  0.9084 -1.5580  1.7864
   9923SM  H15T13433   0.173   0.252  12.780  0.7042  0.2048 -0.1740
   9923SM  C16S13434   0.220   0.349  12.978 -0.0494  0.6383  0.1417
   9923SM  H16S13435   0.112   0.347  13.003 -0.6380  0.2861 -2.1667
   9923SM  H16T13436   0.263   0.441  13.023  1.3961 -1.0142  2.3447
   9923SM  C17S13437   0.290   0.243  13.064  1.0190  0.0319  0.3938
   9923SM  H17S13438   0.400   0.242  13.044  1.1937  2.4200  0.8909
   9923SM  H17T13439   0.265   0.146  13.018  1.4414  0.7025 -1.3341
   9923SM  C18S13440   0.259   0.244  13.217  0.2042  0.4972 -0.5240
   9923SM  H18S13441   0.293   0.152  13.269 -1.1103  0.0924 -0.3588
   9923SM  H18T13442   0.152   0.265  13.236  0.4122  0.2375  1.1214
   9923SM  H18U13443   0.317   0.328  13.262 -0.0743  1.2044 -1.4640
   9923SM   C1F13444   0.494   0.557  11.547  0.6559 -0.0440  0.5567
   9923SM    OF13445   0.597   0.610  11.517 -1.1569 -0.2113  0.1961
   9923SM   C2F13446   0.489   0.442  11.639  0.0906 -0.2659  0.1789
   9923SM   H2F13447   0.527   0.354  11.583 -1.9835 -0.5661 -0.8425
   9923SM   H2G13448   0.385   0.416  11.665 -0.5213 -2.9747 -3.9246
   9923SM   C3F13449   0.572   0.463  11.774 -0.5159  0.5074  0.5727
   9923SM   H3F13450   0.682   0.458  11.760 -0.5852 -0.3415  0.2683
   9923SM   H3G13451   0.549   0.379  11.843  0.5647 -1.5748 -1.4652
   9923SM   C4F13452   0.534   0.592  11.854 -0.0901 -0.0961 -0.4477
   9923SM   H4F13453   0.424   0.592  11.874 -0.2051 -0.4394 -1.0480
   9923SM   H4G13454   0.557   0.674  11.782 -1.6856  1.2096  0.4570
   9923SM   C5F13455   0.601   0.627  11.988 -0.5806  0.1530  0.1953
   9923SM   H5F13456   0.705   0.591  11.976  0.0626  2.0835 -0.3628
   9923SM   H5G13457   0.540   0.573  12.064 -0.2584 -2.0116 -1.0028
   9923SM   C6F13458   0.616   0.778  12.005 -0.6930  0.9123 -0.0172
   9923SM   H6F13459   0.512   0.817  12.004 -1.1398 -0.2264  0.3549
   9923SM   H6G13460   0.662   0.816  11.911  1.5894  1.7862  1.3746
   9923SM   C7F13461   0.689   0.829  12.129  0.5799 -0.5839  0.3145
   9923SM   H7F13462   0.686   0.940  12.125 -2.5725 -0.6023  0.0611
   9923SM   H7G13463   0.789   0.781  12.135  0.3802 -1.4704 -2.0133
   9923SM   C8F13464   0.604   0.788  12.250 -0.7608 -0.3246  0.1813
   9923SM   H8F13465   0.585   0.679  12.254 -1.1153 -0.3103 -0.7864
   9923SM   H8G13466   0.507   0.840  12.259 -1.0713 -0.9333  0.4026
   9923SM   C9F13467   0.680   0.830  12.373 -0.1293  0.5186  0.1265
   9923SM   H9F13468   0.705   0.938  12.376 -0.7790  0.6683  0.2314
   9923SM   H9G13469   0.775   0.773  12.367 -1.0792 -1.0095 -1.4765
   9923SM  C10F13470   0.591   0.786  12.493  0.2420  0.2184 -0.1001
   9923SM  H10F13471   0.575   0.678  12.475  1.6095  0.1731 -1.2276
   9923SM  H10G13472   0.494   0.839  12.484 -0.3293 -1.0873 -2.1201
   9923SM  C11F13473   0.658   0.815  12.628  0.3360  0.3784 -0.4808
   9923SM  H11F13474   0.675   0.925  12.633  0.9138  0.2338  2.1462
   9923SM  H11G13475   0.755   0.761  12.626  0.2127  0.0521  0.9068
   9923SM  C12F13476   0.576   0.763  12.747  0.5636  0.3102  0.0494
   9923SM  H12F13477   0.531   0.664  12.725  0.8203  0.2345 -0.1464
   9923SM  H12G13478   0.494   0.836  12.757  1.2708  0.8863  2.3698
   9923SM  C13F13479   0.657   0.766  12.877 -0.0189  0.0858 -0.3719
   9923SM  H13F13480   0.701   0.865  12.900 -0.2058  0.0212  0.2798
   9923SM  H13G13481   0.742   0.695  12.864 -0.1858  0.1210 -1.9149
   9923SM  C14F13482   0.573   0.719  12.998 -0.1519  0.7926 -0.1688
   9923SM  H14F13483   0.540   0.613  12.989  0.0141  0.7686 -0.4814
   9923SM  H14G13484   0.482   0.783  12.999  0.4964  1.8442 -2.3727
   9923SM  C15F13485   0.640   0.720  13.134  0.4012  0.2169  0.1929
   9923SM  H15F13486   0.692   0.817  13.145 -0.4268  0.6073  0.8018
   9923SM  H15G13487   0.718   0.643  13.122  1.2557  1.4368 -2.9075
   9923SM  C16F13488   0.542   0.701  13.253 -0.5089  0.7764  0.1557
   9923SM  H16F13489   0.600   0.651  13.333  0.8956  0.2003 -1.1793
   9923SM  H16G13490   0.455   0.638  13.224  0.8677  0.4847 -3.9464
   9923SM  C17F13491   0.501   0.833  13.314  0.3382 -0.5305 -0.5520
   9923SM  H17F13492   0.441   0.879  13.233  0.6984 -2.5423 -2.0292
   9923SM  H17G13493   0.592   0.890  13.345 -1.5914  1.4045  1.9834
   9923SM  C18F13494   0.414   0.821  13.447 -0.5958 -0.1443  0.5330
   9923SM  H18F13495   0.403   0.921  13.495 -0.8705 -0.3893  0.9961
   9923SM  H18G13496   0.470   0.761  13.522  0.1991  1.1393  1.0138
   9923SM  C19F13497   0.279   0.757  13.421  0.4606 -0.5330  0.0290
   9923SM  H19F13498   0.282   0.661  13.365 -0.4841  1.2055 -3.2558
   9923SM  H19G13499   0.237   0.827  13.346 -1.2952 -1.9960 -0.4417
   9923SM  C20F13500   0.194   0.753  13.544  0.1881  0.1925  0.0135
   9923SM  H20F13501   0.168   0.852  13.587  0.0040 -1.6776  4.7426
   9923SM  H20G13502   0.250   0.694  13.619 -0.4716 -0.0075  0.3522
   9923SM  C21F13503   0.071   0.669  13.520  0.0113 -0.9173 -0.3170
   9923SM  H21F13504   0.041   0.680  13.414  0.6460  1.9844 -0.2869
   9923SM  H21G13505  -0.001   0.693  13.602  2.0224 -0.1560  1.2929
   9923SM  C22F13506   0.098   0.512  13.547 -0.4993 -1.1322 -0.0360
   9923SM  H22F13507   0.150   0.497  13.645 -0.5675 -0.2809  0.1404
   9923SM  H22G13508   0.177   0.486  13.472 -0.6942 -0.0300 -0.6385
   9923SM  C23F13509  -0.020   0.424  13.526 -0.0348  0.4888  0.0352
   9923SM  H23F13510  -0.090   0.440  13.611  1.3691  1.2077  1.1084
   9923SM  H23G13511   0.023   0.322  13.516  1.0093  0.9451 -0.3408
   9923SM  H23H13512  -0.071   0.462  13.435 -0.1856  0.2656  0.0274
  10023SM     N13513   0.179   0.371  11.036 -0.1404 -0.3613 -0.1146
  10023SM   C1513514   0.307   0.375  11.118  0.0834 -0.3239 -0.3403
  10023SM  H15A13515   0.287   0.424  11.212  1.1182 -0.9736  0.2351
  10023SM  H15B13516   0.383   0.438  11.074 -1.9960  2.4168 -0.2539
  10023SM  H15C13517   0.340   0.272  11.121 -0.6855 -0.6297 -1.6812
  10023SM   C1413518   0.220   0.362  10.894  0.6448 -0.2592 -0.2740
  10023SM  H14A13519   0.132   0.339  10.835  1.1041 -4.3415  0.3073
  10023SM  H14B13520   0.295   0.285  10.883  1.7128  0.5876  0.7753
  10023SM  H14C13521   0.269   0.452  10.860  0.1286 -0.7026 -2.3201
  10023SM   C1313522   0.111   0.248  11.068  0.8438 -0.3438 -0.2397
  10023SM  H13A13523   0.088   0.216  11.168  0.9574 -1.7359 -0.6328
  10023SM  H13B13524   0.165   0.160  11.036  1.0536  0.4441 -2.1955
  10023SM  H13C13525   0.018   0.256  11.013  1.5454 -1.5361 -1.6974
  10023SM   C1213526   0.091   0.489  11.065 -0.1717 -0.1768 -0.0591
  10023SM  H12A13527  -0.006   0.475  11.019  0.1384  2.0925 -1.5665
  10023SM  H12B13528   0.139   0.581  11.035  0.6121  0.0773  1.8858
  10023SM   C1113529   0.048   0.507  11.215  0.9105  0.2475  0.3698
  10023SM  H11A13530   0.002   0.608  11.229  2.7538  1.0394  1.0701
  10023SM  H11B13531   0.149   0.510  11.262  2.6538 -0.4590 -3.0542
  10023SM     P13532  -0.182   0.379  11.229  0.2996 -0.3680  0.5051
  10023SM   O1313533  -0.200   0.409  11.086  0.3876 -0.7668 -0.2933
  10023SM   O1413534  -0.224   0.249  11.279 -0.2331  0.3367  0.1583
  10023SM   O1113535  -0.257   0.497  11.313  0.1698  0.3373  0.0830
  10023SM   O1213536  -0.029   0.403  11.271  0.2291 -0.0371 -0.3259
  10023SM   C1S13537  -0.261   0.487  11.458  0.6110 -0.1503 -0.6228
  10023SM   H1S13538  -0.194   0.409  11.501  0.6826  0.4209  0.3360
  10023SM   H1T13539  -0.366   0.464  11.484 -0.1490 -0.0871 -3.4305
  10023SM    NF13540  -0.218   0.620  11.670  0.3994  0.2150 -0.2221
  10023SM   HNF13541  -0.296   0.666  11.711 -0.6825 -1.6460 -0.1078
  10023SM   C2S13542  -0.221   0.623  11.524  0.4753  0.8332 -0.3281
  10023SM   H2S13543  -0.120   0.654  11.489  0.8073  0.8228  0.6015
  10023SM   C3S13544  -0.318   0.734  11.468 -0.5298  0.0073  0.1881
  10023SM   H3S13545  -0.422   0.701  11.485 -0.8877  2.1860  2.8832
  10023SM    O313546  -0.299   0.763  11.324 -0.5759  0.5757 -0.2849
  10023SM   HO313547  -0.260   0.678  11.304 -0.6012  0.4411  0.2308
  10023SM   C4S13548  -0.293   0.864  11.539  0.2538 -0.3504 -0.1285
  10023SM   H4S13549  -0.190   0.902  11.542 -0.2714  1.1401 -0.3995
  10023SM   C5S13550  -0.385   0.927  11.621 -0.3442  0.3438 -0.1486
  10023SM   H5S13551  -0.489   0.894  11.635 -1.8236  4.5753  0.2743
  10023SM   C6S13552  -0.351   1.041  11.710  0.4179 -0.3531  0.0708
  10023SM   H6S13553  -0.419   1.121  11.675  3.2529  3.2986  2.2797
  10023SM   H6T13554  -0.248   1.082  11.697  0.0527  0.3747 -0.6054
  10023SM   C7S13555  -0.371   1.027  11.856  0.1438  0.1326  0.2467
  10023SM   H7S13556  -0.473   0.988  11.877 -0.6787  1.6494 -0.7730
  10023SM   H7T13557  -0.376   1.128  11.904  1.3625 -0.3286  1.4130
  10023SM   C8S13558  -0.268   0.951  11.929  0.2043  0.8085 -0.9027
  10023SM   H8S13559  -0.170   1.002  11.939  0.0407  0.7304  1.9148
  10023SM   H8T13560  -0.258   0.854  11.877  1.4050  0.1080  0.5623
  10023SM   C9S13561  -0.312   0.928  12.077 -0.1152  0.5796 -0.2332
  10023SM   H9S13562  -0.405   0.869  12.091  0.6114 -0.9518 -1.5617
  10023SM   H9T13563  -0.321   1.030  12.119  0.1603  0.2147  0.7311
  10023SM  C10S13564  -0.210   0.845  12.164  0.4921 -0.4888  0.2082
  10023SM  H10S13565  -0.110   0.892  12.164  0.6096 -0.6974  1.3897
  10023SM  H10T13566  -0.197   0.747  12.115  0.6453  0.6818 -2.2299
  10023SM  C11S13567  -0.259   0.810  12.300 -0.9123 -0.3681  0.2827
  10023SM  H11S13568  -0.288   0.705  12.321 -0.1853 -0.3943  1.2533
  10023SM  H11T13569  -0.353   0.866  12.318 -0.0034  1.5611 -0.6659
  10023SM  C12S13570  -0.160   0.840  12.408 -0.1787  0.3135 -0.2208
  10023SM  H12S13571  -0.163   0.949  12.431 -0.1200  0.1511  0.5970
  10023SM  H12T13572  -0.060   0.825  12.361 -1.1608 -1.7471 -1.8243
  10023SM  C13S13573  -0.188   0.752  12.540  1.1302  0.5375  0.5207
  10023SM  H13S13574  -0.181   0.646  12.505 -0.8775  0.4726  0.2293
  10023SM  H13T13575  -0.292   0.770  12.575  0.4991  0.2172 -1.0993
  10023SM  C14S13576  -0.101   0.780  12.665  0.0206  0.6202 -0.8065
  10023SM  H14S13577  -0.102   0.888  12.690  0.9566  0.4928 -0.1742
  10023SM  H14T13578   0.005   0.752  12.644  1.0633  2.4633  1.5527
  10023SM  C15S13579  -0.145   0.701  12.787  0.4223  0.4697 -0.4136
  10023SM  H15S13580  -0.160   0.597  12.751  1.9936  0.2658 -0.5410
  10023SM  H15T13581  -0.246   0.740  12.811  0.5032  1.0736 -1.0260
  10023SM  C16S13582  -0.039   0.717  12.893 -0.4097 -0.4520 -0.3022
  10023SM  H16S13583  -0.023   0.825  12.915 -0.2453 -0.2016 -1.5533
  10023SM  H16T13584   0.059   0.678  12.860  0.1764  1.0067 -0.3396
  10023SM  C17S13585  -0.075   0.644  13.021  0.2405 -0.1099 -0.2642
  10023SM  H17S13586  -0.073   0.533  13.012 -0.6239 -0.1732  0.1104
  10023SM  H17T13587  -0.176   0.667  13.063  0.1355 -2.1071  0.7009
  10023SM  C18S13588   0.033   0.686  13.121  0.2135 -0.2066  0.7968
  10023SM  H18S13589   0.034   0.795  13.143  1.1820  0.1661 -0.9224
  10023SM  H18T13590   0.134   0.661  13.083 -1.1066 -2.0169 -1.8132
  10023SM  H18U13591   0.035   0.637  13.221 -1.6493 -0.0087  0.9615
  10023SM   C1F13592  -0.145   0.537  11.748  0.2634  0.3489  0.9566
  10023SM    OF13593  -0.045   0.481  11.706 -0.3295  0.0098  0.3867
  10023SM   C2F13594  -0.188   0.526  11.896  0.0802 -0.4251 -0.1261
  10023SM   H2F13595  -0.282   0.467  11.905 -0.1619  0.0570  0.4841
  10023SM   H2G13596  -0.206   0.630  11.930 -0.9284 -0.3719 -0.7779
  10023SM   C3F13597  -0.084   0.458  11.981 -0.2192 -0.1851  0.0409
  10023SM   H3F13598   0.018   0.487  11.948 -0.0915  0.0569  0.6302
  10023SM   H3G13599  -0.079   0.348  11.966 -0.6295 -0.4335  1.5497
  10023SM   C4F13600  -0.128   0.479  12.136 -0.2535  0.3779  0.1155
  10023SM   H4F13601  -0.237   0.474  12.117  0.4247 -2.0244 -4.6051
  10023SM   H4G13602  -0.084   0.575  12.170  1.0516  0.1686 -0.9010
  10023SM   C5F13603  -0.077   0.364  12.229 -0.6853  0.2141 -0.4729
  10023SM   H5F13604   0.032   0.368  12.246 -0.9475  1.9021  1.2386
  10023SM   H5G13605  -0.101   0.262  12.193 -0.2200 -0.3822  0.8278
  10023SM   C6F13606  -0.144   0.378  12.367  0.0704 -0.1034 -0.0913
  10023SM   H6F13607  -0.252   0.406  12.361  0.6906  2.2176 -1.3773
  10023SM   H6G13608  -0.106   0.472  12.412 -1.4988  1.0131 -1.0195
  10023SM   C7F13609  -0.113   0.264  12.459  0.4903  0.5821  0.1302
  10023SM   H7F13610  -0.004   0.247  12.456  0.3080 -0.6842 -1.4828
  10023SM   H7G13611  -0.154   0.168  12.419 -0.5492  0.9710  0.2343
  10023SM   C8F13612  -0.168   0.280  12.599  0.5828 -1.1482  0.1123
  10023SM   H8F13613  -0.277   0.266  12.588  0.5793 -1.1331  0.1291
  10023SM   H8G13614  -0.152   0.381  12.641 -1.5108 -0.7339 -0.0065
  10023SM   C9F13615  -0.132   0.172  12.695 -0.1248  0.0356  0.1577
  10023SM   H9F13616  -0.023   0.176  12.715 -0.5844  0.7215  2.8523
  10023SM   H9G13617  -0.154   0.073  12.649  0.3756  0.0404 -0.0980
  10023SM  C10F13618  -0.204   0.195  12.824  0.6422  0.3070  0.7694
  10023SM  H10F13619  -0.315   0.199  12.811  0.6349  0.2403  0.8119
  10023SM  H10G13620  -0.182   0.302  12.847  0.1605  0.4289  0.6806
  10023SM  C11F13621  -0.158   0.107  12.942 -0.4664 -0.0552 -0.1891
  10023SM  H11F13622  -0.048   0.109  12.928 -0.4465  0.0842 -0.0118
  10023SM  H11G13623  -0.194   0.003  12.956  0.9960 -0.5709 -0.1102
  10023SM  C12F13624  -0.178   0.173  13.076 -0.2739 -0.1289  0.2997
  10023SM  H12F13625  -0.287   0.171  13.096 -0.0726 -2.9228  1.6910
  10023SM  H12G13626  -0.131   0.274  13.076 -1.6882  0.5576  0.4333
  10023SM  C13F13627  -0.132   0.085  13.199  0.1016 -0.0158  0.3550
  10023SM  H13F13628  -0.022   0.065  13.198  0.0687 -0.3943  1.9086
  10023SM  H13G13629  -0.183  -0.013  13.181 -2.5835  1.1900  0.9099
  10023SM  C14F13630  -0.183   0.133  13.337 -0.7541  0.6042 -1.6195
  10023SM  H14F13631  -0.293   0.141  13.324 -0.8348  1.6742 -0.4854
  10023SM  H14G13632  -0.133   0.228  13.365 -0.8353  0.2415 -0.1172
  10023SM  C15F13633  -0.141   0.040  13.458 -0.2026  0.3102 -0.0884
  10023SM  H15F13634  -0.032   0.026  13.469 -0.2415  0.4693  0.5448
  10023SM  H15G13635  -0.175  -0.064  13.440 -0.6993  0.6850 -1.5324
  10023SM  C16F13636  -0.189   0.087  13.592 -0.0122 -0.5355 -0.1212
  10023SM  H16F13637  -0.294   0.055  13.603 -0.4923  0.0314 -2.4432
  10023SM  H16G13638  -0.186   0.198  13.601 -1.1275 -0.5241  0.2312
  10023SM  C17F13639  -0.101   0.044  13.713  0.3556  0.3247  0.4781
  10023SM  H17F13640  -0.003   0.094  13.697 -0.9490  2.2156 -2.3293
  10023SM  H17G13641  -0.079  -0.065  13.702  2.0563  0.7974 -1.2328
  10023SM  C18F13642  -0.157   0.085  13.853 -0.1347 -0.1908  0.0791
  10023SM  H18F13643  -0.169   0.195  13.859 -2.6945 -0.4348  0.4461
  10023SM  H18G13644  -0.084   0.057  13.932 -1.0148  0.1426  1.0391
  10023SM  C19F13645  -0.293   0.038  13.900  0.5169 -0.0881 -0.4223
  10023SM  H19F13646  -0.305  -0.072  13.891 -2.6931  0.2551 -1.7288
  10023SM  H19G13647  -0.368   0.086  13.833  1.9312  2.9450  0.0287
  10023SM  C20F13648  -0.332   0.072  14.047 -0.1214  0.4956  0.5733
  10023SM  H20F13649  -0.246   0.054  14.114 -0.1122  1.1709  0.7540
  10023SM  H20G13650  -0.416   0.006  14.077  0.0483  0.6044  1.3011
  10023SM  C21F13651  -0.385   0.216  14.063  0.0686  0.2715 -0.2382
  10023SM  H21F13652  -0.458   0.235  13.982 -0.9849  0.0934  0.6483
  10023SM  H21G13653  -0.305   0.292  14.045  0.3298 -0.3657 -1.8717
  10023SM  C22F13654  -0.436   0.233  14.208 -0.7512 -0.2449 -0.4160
  10023SM  H22F13655  -0.353   0.228  14.281 -1.2072 -0.0791  0.1160
  10023SM  H22G13656  -0.497   0.145  14.236 -0.4536  0.1493  1.5936
  10023SM  C23F13657  -0.504   0.361  14.232  0.1560 -0.5152 -0.4992
  10023SM  H23F13658  -0.561   0.363  14.327 -0.1622 -2.6797 -0.5858
  10023SM  H23G13659  -0.592   0.380  14.167 -2.0897 -2.6035  1.7046
  10023SM  H23H13660  -0.426   0.440  14.226  0.1431 -0.5280 -0.8365
  101CHL1    C313661   4.110   5.367  16.417 -0.1462  0.1723 -0.4959
  101CHL1    H313662   4.122   5.256  16.416 -1.1105 -0.0020  1.8078
  101CHL1    O313663   4.097   5.408  16.554 -0.1246  0.1873 -0.3751
  101CHL1   H3'13664   4.091   5.504  16.555  2.2768  0.3762 -0.0194
  101CHL1    C413665   4.239   5.428  16.363  0.4402 -0.7788  1.1163
  101CHL1   H4A13666   4.225   5.537  16.354 -2.0742 -1.1804 -1.1006
  101CHL1   H4B13667   4.323   5.406  16.432 -0.3252 -3.2554  1.3870
  101CHL1    C513668   4.273   5.383  16.221 -0.1633  0.2461  0.4853
  101CHL1    C613669   4.390   5.324  16.197 -0.3114  0.5547  0.0680
  101CHL1    H613670   4.457   5.323  16.284  0.0041  1.6888 -0.1452
  101CHL1    C713671   4.427   5.271  16.062 -0.6362 -0.2005 -0.1630
  101CHL1   H7A13672   4.524   5.320  16.038 -0.7115 -0.7887 -1.7494
  101CHL1   H7B13673   4.470   5.169  16.064  1.1960  0.5003 -1.0814
  101CHL1    C813674   4.328   5.316  15.953 -0.3473 -0.2252 -0.0850
  101CHL1    H813675   4.352   5.421  15.927  1.4779 -0.3297  0.9790
  101CHL1   C1413676   4.353   5.238  15.826  0.8608  0.0492 -0.5206
  101CHL1   H1413677   4.321   5.139  15.866 -1.0500  0.5948 -0.6219
  101CHL1   C1513678   4.494   5.236  15.769  0.0852  0.5635 -0.4632
  101CHL1  H15A13679   4.533   5.341  15.769  0.2021  0.5578 -2.5088
  101CHL1  H15B13680   4.567   5.175  15.827  2.3859  4.1376  0.7495
  101CHL1   C1613681   4.478   5.190  15.624  0.0896  0.0028  0.1245
  101CHL1  H16A13682   4.517   5.258  15.546 -0.5694 -1.3652 -1.4482
  101CHL1  H16B13683   4.511   5.086  15.603  3.2679  1.3500 -2.3452
  101CHL1   C1713684   4.328   5.178  15.601 -0.6086  0.0781 -0.4879
  101CHL1   H1713685   4.297   5.073  15.618 -2.2290  0.5077 -0.5757
  101CHL1   C1313686   4.254   5.262  15.710  0.0417 -0.9244 -0.2176
  101CHL1   C1813687   4.260   5.415  15.667 -0.1674  0.2124  0.4763
  101CHL1  H18A13688   4.197   5.441  15.580 -0.7949  1.5599  1.2895
  101CHL1  H18B13689   4.242   5.485  15.752 -1.0097  2.7544 -1.6494
  101CHL1  H18C13690   4.367   5.434  15.640 -0.0148 -0.5693  0.5221
  101CHL1   C1213691   4.116   5.218  15.764  0.0292  0.0684 -0.6857
  101CHL1  H12A13692   4.036   5.238  15.689  0.2725  2.4085 -0.3674
  101CHL1  H12B13693   4.112   5.107  15.776 -1.1922 -0.1561 -2.7177
  101CHL1   C1113694   4.076   5.301  15.890 -0.1156  0.1858 -0.2007
  101CHL1  H11A13695   4.035   5.399  15.858  0.3271  0.2624 -0.5460
  101CHL1  H11B13696   3.987   5.250  15.933 -0.1413  1.7851  1.7941
  101CHL1    C913697   4.187   5.299  15.996  0.0822 -0.0915 -0.0413
  101CHL1    H913698   4.187   5.195  16.035  1.4519 -0.3349 -0.6390
  101CHL1   C1013699   4.156   5.389  16.119  0.1476 -0.2373 -0.0355
  101CHL1   C1913700   4.141   5.543  16.075  0.0533 -0.7139 -0.3799
  101CHL1  H19A13701   4.226   5.579  16.014 -0.4696 -2.1712 -2.0692
  101CHL1  H19B13702   4.043   5.551  16.023  0.3819 -0.7917 -1.0085
  101CHL1  H19C13703   4.129   5.607  16.165 -0.5101 -0.1692 -0.8404
  101CHL1    C113704   4.013   5.357  16.186 -0.1207  0.3012 -0.0816
  101CHL1   H1A13705   3.938   5.400  16.116  0.3403 -0.8551 -1.3237
  101CHL1   H1B13706   3.997   5.247  16.186  0.4980  0.2011  0.7810
  101CHL1    C213707   3.990   5.403  16.328 -0.3133 -0.5129 -1.0137
  101CHL1   H2A13708   3.898   5.355  16.369 -1.0461  2.2134  0.8473
  101CHL1   H2B13709   3.964   5.511  16.329  2.0188  0.1570  2.1999
  101CHL1   C2013710   4.296   5.202  15.453 -0.0835 -0.5820  0.3419
  101CHL1   H2013711   4.339   5.296  15.413 -0.4475  0.0740  1.4570
  101CHL1   C2113712   4.150   5.204  15.421 -0.1365 -0.7813  0.9608
  101CHL1  H21A13713   4.095   5.286  15.472 -3.5954 -2.7080  0.6648
  101CHL1  H21B13714   4.107   5.111  15.464 -1.1455 -1.0421 -0.5240
  101CHL1  H21C13715   4.126   5.201  15.313  1.5225  0.3132  0.5454
  101CHL1   C2213716   4.357   5.089  15.363 -0.3162 -0.0244  0.6479
  101CHL1  H22A13717   4.465   5.088  15.388 -0.0400  0.8731 -0.4680
  101CHL1  H22B13718   4.306   4.992  15.383 -0.6862 -0.0342 -0.2992
  101CHL1   C2313719   4.353   5.117  15.212 -0.4801 -0.2942  0.2658
  101CHL1  H23A13720   4.248   5.094  15.186 -0.3829  1.3798 -1.8802
  101CHL1  H23B13721   4.374   5.223  15.186  0.2020 -0.4028  0.3459
  101CHL1   C2413722   4.443   5.028  15.129  0.5316 -0.0373 -0.1369
  101CHL1  H24A13723   4.552   5.029  15.152  0.4283 -0.4614  0.3727
  101CHL1  H24B13724   4.401   4.927  15.147  2.6611 -0.8866  0.4024
  101CHL1   C2513725   4.447   5.056  14.975  0.4299 -0.0093  0.4951
  101CHL1   H2513726   4.511   4.976  14.932  0.5035  0.4204 -0.2043
  101CHL1   C2613727   4.308   5.057  14.917  0.3747 -0.0387 -0.4793
  101CHL1  H26A13728   4.238   4.988  14.969 -0.8234  2.6126  1.6794
  101CHL1  H26B13729   4.263   5.158  14.924  3.1561  1.2279  0.1065
  101CHL1  H26C13730   4.300   5.027  14.810  0.2043  1.4288 -0.9023
  101CHL1   C2713731   4.532   5.183  14.936  0.0605 -0.0204 -0.3926
  101CHL1  H27A13732   4.638   5.168  14.967 -0.0542  2.3936  1.5075
  101CHL1  H27B13733   4.527   5.195  14.826 -2.6760 -0.3473 -0.3563
  101CHL1  H27C13734   4.496   5.265  15.002 -1.0653 -1.6900  1.1432
  102CHL1    C313735   2.053   6.305  16.253 -0.0396  0.0003  0.2553
  102CHL1    H313736   1.947   6.294  16.224 -0.0210 -1.0331  0.5271
  102CHL1    O313737   2.049   6.341  16.386 -0.3481  0.4427  0.0491
  102CHL1   H3'13738   1.996   6.272  16.426  0.3803  0.8307  1.7559
  102CHL1    C413739   2.128   6.175  16.241 -0.1636  0.3130 -0.2736
  102CHL1   H4A13740   2.229   6.192  16.285 -1.1285 -3.0196  3.9096
  102CHL1   H4B13741   2.090   6.093  16.305 -0.4603 -0.1795 -1.0704
  102CHL1    C513742   2.123   6.140  16.089  0.0455 -0.4464  0.4892
  102CHL1    C613743   2.056   6.039  16.053  0.3621 -0.3012  0.1597
  102CHL1    H613744   2.007   5.977  16.129  1.4049  0.2645  1.3282
  102CHL1    C713745   2.050   5.995  15.909 -0.5634  0.2281 -0.1918
  102CHL1   H7A13746   2.076   5.887  15.905 -0.5078  0.2542 -0.6629
  102CHL1   H7B13747   1.949   6.027  15.878  0.0359  3.6079  1.0069
  102CHL1    C813748   2.148   6.072  15.814 -0.2352  0.3005 -0.0802
  102CHL1    H813749   2.247   6.023  15.829 -1.5889 -3.1940 -1.4670
  102CHL1   C1413750   2.122   6.050  15.667  0.6566  0.1917  0.3528
  102CHL1   H1413751   2.025   6.101  15.646  0.4795  0.0264  0.7666
  102CHL1   C1513752   2.104   5.916  15.614 -0.1121  0.6461  0.2438
  102CHL1  H15A13753   2.180   5.846  15.653  0.7048  0.6445 -1.2615
  102CHL1  H15B13754   2.010   5.863  15.638  0.2562 -0.0511  0.1805
  102CHL1   C1613755   2.122   5.924  15.463  0.0423 -0.0275  0.1864
  102CHL1  H16A13756   2.204   5.856  15.433  0.7923  0.3817  1.2333
  102CHL1  H16B13757   2.027   5.884  15.421 -1.2192  0.4521  2.3991
  102CHL1   C1713758   2.160   6.069  15.444 -0.0811  0.3187  0.2436
  102CHL1   H1713759   2.060   6.116  15.431 -0.8470 -1.7034 -1.9745
  102CHL1   C1313760   2.219   6.124  15.571 -0.5585  0.4859  0.2268
  102CHL1   C1813761   2.369   6.081  15.590  0.9281  0.9399  0.1467
  102CHL1  H18A13762   2.437   6.144  15.528  1.1046  0.2408 -0.3790
  102CHL1  H18B13763   2.394   6.108  15.695  0.4425  1.2147  0.1915
  102CHL1  H18C13764   2.385   5.972  15.577 -3.4483  0.1316  0.0535
  102CHL1   C1213765   2.203   6.272  15.602  0.3641 -0.2121  0.4494
  102CHL1  H12A13766   2.269   6.337  15.539 -0.9281  0.9563  0.2486
  102CHL1  H12B13767   2.096   6.289  15.577  0.0053 -1.3218  1.2095
  102CHL1   C1113768   2.239   6.308  15.745  0.5182  0.1093 -0.4479
  102CHL1  H11A13769   2.346   6.280  15.751 -0.3001 -3.1190  0.8974
  102CHL1  H11B13770   2.228   6.416  15.770 -0.7814 -0.3159  0.9845
  102CHL1    C913771   2.158   6.224  15.848  0.4986  0.3122 -0.0697
  102CHL1    H913772   2.053   6.261  15.838  0.4021 -0.5883 -4.6951
  102CHL1   C1013773   2.191   6.244  15.998 -0.1103  0.3957  0.0852
  102CHL1   C1913774   2.342   6.234  16.022  0.3011 -0.9646  0.6561
  102CHL1  H19A13775   2.374   6.238  16.129  0.6699  0.3644  0.5119
  102CHL1  H19B13776   2.389   6.145  15.976  1.1026 -0.4255  0.4049
  102CHL1  H19C13777   2.395   6.316  15.969 -0.8644 -0.9415 -0.5015
  102CHL1    C113778   2.132   6.385  16.031 -0.5754  0.0400  0.0346
  102CHL1   H1A13779   2.210   6.448  15.981  0.0330  0.4839  1.4940
  102CHL1   H1B13780   2.031   6.393  15.986 -0.8500  0.3718  0.6950
  102CHL1    C213781   2.126   6.424  16.176 -0.3233  0.0347 -0.5749
  102CHL1   H2A13782   2.072   6.521  16.176  2.4297  1.6771 -0.0284
  102CHL1   H2B13783   2.226   6.437  16.223 -1.5227  0.0939  2.1257
  102CHL1   C2013784   2.226   6.108  15.307 -0.0124 -0.0136 -0.3367
  102CHL1   H2013785   2.328   6.066  15.295 -0.0567  0.3331 -2.3112
  102CHL1   C2113786   2.224   6.256  15.284 -0.1171 -0.0183 -1.2219
  102CHL1  H21A13787   2.123   6.295  15.311  0.0868 -0.0626 -0.3732
  102CHL1  H21B13788   2.250   6.284  15.180 -0.4662  0.9926 -1.0464
  102CHL1  H21C13789   2.297   6.313  15.345  0.7691 -0.7936 -1.5313
  102CHL1   C2213790   2.154   6.042  15.187 -0.2307  0.7798  0.2153
  102CHL1  H22A13791   2.153   5.932  15.207 -1.5136  0.6366 -0.4995
  102CHL1  H22B13792   2.053   6.088  15.184 -0.6206 -0.0110  0.7901
  102CHL1   C2313793   2.215   6.054  15.045 -0.3875 -0.1047  0.8401
  102CHL1  H23A13794   2.235   6.156  15.005  0.4015  0.1819  1.9196
  102CHL1  H23B13795   2.309   5.995  15.053 -0.4870 -0.2096  1.2453
  102CHL1   C2413796   2.138   5.972  14.937  0.2387  0.6145  0.2285
  102CHL1  H24A13797   2.113   5.878  14.991  1.2060  0.0107 -0.3345
  102CHL1  H24B13798   2.054   6.032  14.897  1.5605  1.9380 -0.6315
  102CHL1   C2513799   2.230   5.922  14.818  0.6000  0.1644 -0.2504
  102CHL1   H2513800   2.313   5.863  14.862 -1.0689 -1.8656  0.2818
  102CHL1   C2613801   2.144   5.834  14.725  0.0337 -0.4247 -0.2628
  102CHL1  H26A13802   2.066   5.900  14.682  1.9439  1.5294 -0.9821
  102CHL1  H26B13803   2.212   5.815  14.639  2.2524  2.1350  0.7631
  102CHL1  H26C13804   2.109   5.741  14.774 -0.0931  0.3322  1.1111
  102CHL1   C2713805   2.283   6.039  14.738 -0.8768  0.0039  0.1819
  102CHL1  H27A13806   2.198   6.084  14.682 -0.9203 -0.3642 -0.0552
  102CHL1  H27B13807   2.329   6.117  14.802  1.5607  0.7548 -2.2839
  102CHL1  H27C13808   2.364   6.006  14.669  0.6904 -0.2927  2.0941
  103CHL1    C313809   3.069   3.247  16.411 -0.2516  1.4566  0.1517
  103CHL1    H313810   3.146   3.196  16.350 -1.6118 -2.1471  1.1379
  103CHL1    O313811   3.063   3.209  16.547 -0.4725  0.6020  0.9990
  103CHL1   H3'13812   2.992   3.263  16.583  1.0928  1.7987  2.5055
  103CHL1    C413813   3.104   3.398  16.403 -0.2882  0.3944 -0.3351
  103CHL1   H4A13814   3.038   3.457  16.470 -0.6951  0.6739 -0.9718
  103CHL1   H4B13815   3.207   3.405  16.442  0.2024  1.3836 -1.7090
  103CHL1    C513816   3.089   3.450  16.261  0.6618  0.3761  0.2327
  103CHL1    C613817   3.195   3.506  16.205  0.0440  0.2449 -0.1080
  103CHL1    H613818   3.281   3.527  16.271 -0.1146  0.5529  0.0038
  103CHL1    C713819   3.199   3.555  16.060 -0.3879  0.4091  0.4224
  103CHL1   H7A13820   3.261   3.645  16.043  2.7596 -1.5930  0.3882
  103CHL1   H7B13821   3.258   3.477  16.008  1.4485  0.8925  1.6794
  103CHL1    C813822   3.052   3.559  16.000 -0.1906 -0.0920 -0.1851
  103CHL1    H813823   2.994   3.648  16.031 -0.3309 -0.5109  0.7861
  103CHL1   C1413824   3.059   3.575  15.848  0.9014 -0.0967  0.5968
  103CHL1   H1413825   3.117   3.487  15.812  0.0571  0.2127 -1.6693
  103CHL1   C1513826   3.137   3.692  15.796  0.1733 -0.1282  0.6010
  103CHL1  H15A13827   3.108   3.771  15.868 -2.5822  0.7454 -1.2840
  103CHL1  H15B13828   3.243   3.662  15.779 -0.1139 -0.0216 -1.8621
  103CHL1   C1613829   3.076   3.725  15.658  0.2061  0.0203 -0.4817
  103CHL1  H16A13830   3.017   3.819  15.664 -2.1900 -1.4665  1.1667
  103CHL1  H16B13831   3.151   3.729  15.576  1.6391 -3.5883  0.4414
  103CHL1   C1713832   2.973   3.606  15.634 -0.1443  0.2098 -0.0581
  103CHL1   H1713833   3.031   3.515  15.605 -0.3265 -0.0369  0.3469
  103CHL1   C1313834   2.923   3.566  15.771 -0.4205 -0.0713 -0.4008
  103CHL1   C1813835   2.840   3.681  15.820  0.8999 -0.3560 -0.0660
  103CHL1  H18A13836   2.892   3.778  15.813  1.9948 -0.9125  0.1658
  103CHL1  H18B13837   2.738   3.682  15.775 -1.2028 -0.5357  4.1858
  103CHL1  H18C13838   2.816   3.676  15.929 -0.6654  0.2679 -0.3464
  103CHL1   C1213839   2.866   3.425  15.796  1.1010 -0.8245  0.6591
  103CHL1  H12A13840   2.760   3.420  15.762  1.5429 -0.7686 -0.7473
  103CHL1  H12B13841   2.929   3.345  15.751  0.2282 -0.6013 -1.0376
  103CHL1   C1113842   2.852   3.405  15.947  0.7440  0.3618  0.0651
  103CHL1  H11A13843   2.770   3.468  15.988  0.6248 -0.7769  1.6622
  103CHL1  H11B13844   2.821   3.303  15.978 -0.3797  0.8843  0.7418
  103CHL1    C913845   2.978   3.431  16.034 -0.1431 -0.7663 -0.9806
  103CHL1    H913846   3.050   3.351  16.009  0.5465 -0.7325  0.7363
  103CHL1   C1013847   2.956   3.407  16.189 -0.3499  0.3637 -0.0514
  103CHL1   C1913848   2.845   3.507  16.242 -0.3810 -0.3100 -0.5576
  103CHL1  H19A13849   2.874   3.612  16.219 -0.4295 -0.1208  0.2240
  103CHL1  H19B13850   2.748   3.486  16.191  0.0343 -0.2473 -1.3912
  103CHL1  H19C13851   2.839   3.498  16.352 -1.7361 -1.3623 -0.6815
  103CHL1    C113852   2.917   3.258  16.215 -0.0052  0.1691 -0.3587
  103CHL1   H1A13853   2.813   3.255  16.177 -0.0480  0.0928 -0.2326
  103CHL1   H1B13854   2.986   3.196  16.153 -0.6401 -1.3760  0.4362
  103CHL1    C213855   2.930   3.212  16.356  0.5544  0.2243 -0.0719
  103CHL1   H2A13856   2.909   3.103  16.352 -0.6274  0.4360  0.0288
  103CHL1   H2B13857   2.851   3.251  16.424 -0.6226 -3.1903  0.7371
  103CHL1   C2013858   2.871   3.629  15.523 -0.8172  0.2793  0.1737
  103CHL1   H2013859   2.821   3.723  15.555 -2.3222 -0.8668  1.3577
  103CHL1   C2113860   2.760   3.525  15.512  0.6526 -0.0980  0.1824
  103CHL1  H21A13861   2.700   3.538  15.420  0.0461  2.3272  0.8417
  103CHL1  H21B13862   2.688   3.532  15.596  0.4815 -1.8138  0.2099
  103CHL1  H21C13863   2.805   3.424  15.510 -0.4712 -0.6941  2.0626
  103CHL1   C2213864   2.941   3.657  15.389 -0.0824  0.0111 -0.0196
  103CHL1  H22A13865   2.865   3.712  15.330 -1.1412 -0.8455  0.5194
  103CHL1  H22B13866   3.033   3.717  15.407  0.0808 -0.2226 -0.0645
  103CHL1   C2313867   2.968   3.529  15.301 -0.7083  0.1352  0.0967
  103CHL1  H23A13868   3.028   3.453  15.356  0.7674  1.0718 -0.1679
  103CHL1  H23B13869   2.869   3.481  15.286 -0.8600  0.7835 -1.0690
  103CHL1   C2413870   3.027   3.559  15.163 -0.2135 -0.3097  0.4183
  103CHL1  H24A13871   2.961   3.634  15.115 -1.2446  0.1172  2.4234
  103CHL1  H24B13872   3.121   3.616  15.177  1.8966 -3.3042 -0.4964
  103CHL1   C2513873   3.059   3.434  15.075 -0.5751 -0.2139  0.3906
  103CHL1   H2513874   3.100   3.351  15.135  1.5156 -0.4287 -1.2225
  103CHL1   C2613875   2.939   3.394  14.994  0.2207 -0.4143  0.4533
  103CHL1  H26A13876   2.856   3.369  15.064 -0.7014  1.5425  0.1123
  103CHL1  H26B13877   2.908   3.480  14.931  1.0968 -0.3933  0.0367
  103CHL1  H26C13878   2.956   3.306  14.929  0.1993 -0.6430  0.7542
  103CHL1   C2713879   3.179   3.464  14.985 -0.6038 -0.3029  0.4980
  103CHL1  H27A13880   3.268   3.496  15.044 -0.6171 -1.9368  1.4694
  103CHL1  H27B13881   3.207   3.377  14.923 -0.9866  1.3586 -2.1633
  103CHL1  H27C13882   3.157   3.549  14.916 -0.7005 -1.3927 -0.8516
  104CHL1    C313883   4.890   6.136  16.291 -0.0449 -0.3419 -0.2336
  104CHL1    H313884   4.988   6.110  16.245 -0.1951  0.3824 -0.9870
  104CHL1    O313885   4.916   6.124  16.429 -0.6647  0.2107 -0.3365
  104CHL1   H3'13886   4.834   6.157  16.467  0.3353  1.1725  1.0897
  104CHL1    C413887   4.836   6.278  16.259  0.0142 -0.4568 -0.4909
  104CHL1   H4A13888   4.764   6.307  16.337  1.6534 -2.7468  2.0463
  104CHL1   H4B13889   4.924   6.343  16.281 -0.7950  0.0926  1.2396
  104CHL1    C513890   4.781   6.293  16.120  0.1257 -0.1604 -0.1688
  104CHL1    C613891   4.824   6.392  16.039 -0.3778 -1.0262  0.7065
  104CHL1    H613892   4.893   6.467  16.081  1.3219 -2.3527  0.4315
  104CHL1    C713893   4.804   6.398  15.891 -0.4221  0.2146 -0.5013
  104CHL1   H7A13894   4.786   6.502  15.856  0.0511 -0.4910 -3.0628
  104CHL1   H7B13895   4.888   6.350  15.836 -0.5838 -0.3835 -0.2387
  104CHL1    C813896   4.677   6.319  15.855  0.4881 -0.5684 -0.0976
  104CHL1    H813897   4.590   6.368  15.902  1.0348  1.0194 -0.6744
  104CHL1   C1413898   4.665   6.307  15.702  0.0633  1.2174 -0.1585
  104CHL1   H1413899   4.752   6.244  15.673 -0.1887 -0.0370  1.6119
  104CHL1   C1513900   4.664   6.431  15.619  0.2595 -0.3129  0.0046
  104CHL1  H15A13901   4.584   6.495  15.663  1.2182  2.1403 -1.6318
  104CHL1  H15B13902   4.759   6.489  15.623  0.5942 -0.5384 -2.6194
  104CHL1   C1613903   4.621   6.389  15.479  0.0062 -0.7730 -0.0185
  104CHL1  H16A13904   4.539   6.457  15.447 -0.6561 -0.8744  1.3693
  104CHL1  H16B13905   4.712   6.405  15.418  1.9938 -1.0802  2.7184
  104CHL1   C1713906   4.571   6.240  15.492  0.1540  0.6146 -0.2667
  104CHL1   H1713907   4.656   6.173  15.467 -0.8594 -1.8236  2.3662
  104CHL1   C1313908   4.547   6.220  15.647  1.0785  0.0487 -0.4239
  104CHL1   C1813909   4.411   6.293  15.687  0.4653  0.6532  0.0316
  104CHL1  H18A13910   4.318   6.238  15.661 -0.0047  1.0192  0.8956
  104CHL1  H18B13911   4.403   6.295  15.798 -1.6950 -0.9455 -0.0298
  104CHL1  H18C13912   4.404   6.398  15.654  1.5325  1.0163  0.8924
  104CHL1   C1213913   4.551   6.079  15.706 -0.3035  0.1769 -0.2938
  104CHL1  H12A13914   4.451   6.034  15.688 -0.4667  0.4221 -0.0235
  104CHL1  H12B13915   4.638   6.023  15.666 -1.2210 -1.7608  0.3208
  104CHL1   C1113916   4.570   6.088  15.856 -0.5524  0.9066 -0.5385
  104CHL1  H11A13917   4.476   6.135  15.893 -0.7432 -0.1659  0.3947
  104CHL1  H11B13918   4.569   5.990  15.908 -1.6637  2.2689  2.1911
  104CHL1    C913919   4.684   6.173  15.913  0.2170  0.0514  0.3708
  104CHL1    H913920   4.776   6.131  15.866  0.2664 -0.0486  0.5573
  104CHL1   C1013921   4.704   6.171  16.063 -0.1959  0.6855  0.1936
  104CHL1   C1913922   4.558   6.175  16.133  0.3536 -0.0997  0.0256
  104CHL1  H19A13923   4.497   6.088  16.098  0.7602  0.9918 -3.8093
  104CHL1  H19B13924   4.567   6.178  16.244 -1.2066  0.7383  0.1621
  104CHL1  H19C13925   4.506   6.268  16.102  0.4335  0.6580  1.9982
  104CHL1    C113926   4.774   6.040  16.107 -1.0050  1.0542  1.0968
  104CHL1   H1A13927   4.717   5.952  16.070  1.6768  0.3880 -1.8093
  104CHL1   H1B13928   4.870   6.030  16.053 -2.1477  1.6497 -1.1498
  104CHL1    C213929   4.795   6.018  16.254 -0.4118  0.5142  0.0304
  104CHL1   H2A13930   4.840   5.919  16.275 -2.5718 -0.2886  1.2115
  104CHL1   H2B13931   4.699   6.032  16.309  0.0929  0.5562  0.9289
  104CHL1   C2013932   4.459   6.205  15.400  0.1678  0.4643  0.4470
  104CHL1   H2013933   4.369   6.261  15.430 -0.6358 -0.1006 -0.8145
  104CHL1   C2113934   4.441   6.056  15.398  0.7719 -0.2276 -0.8471
  104CHL1  H21A13935   4.391   6.019  15.490  0.3826  0.1990 -0.8817
  104CHL1  H21B13936   4.534   6.000  15.377  1.1930 -0.0126  0.3507
  104CHL1  H21C13937   4.364   6.025  15.324  1.3905 -3.3174 -0.3077
  104CHL1   C2213938   4.476   6.251  15.253  0.3307  0.0166  0.5210
  104CHL1  H22A13939   4.400   6.212  15.182 -0.7529  1.2055  1.0043
  104CHL1  H22B13940   4.481   6.360  15.236 -4.1876 -0.0580 -3.6255
  104CHL1   C2313941   4.614   6.202  15.188  0.0111  0.0711  0.2467
  104CHL1  H23A13942   4.700   6.242  15.246 -1.0151  1.4774  0.8481
  104CHL1  H23B13943   4.615   6.091  15.191 -1.6207 -0.1257 -3.1025
  104CHL1   C2413944   4.629   6.240  15.039 -0.0971  0.4068 -0.5375
  104CHL1  H24A13945   4.718   6.184  15.004  0.9293  2.2112 -0.9269
  104CHL1  H24B13946   4.534   6.206  14.992  0.3562 -0.6846 -0.7057
  104CHL1   C2513947   4.658   6.389  15.013  0.7437  0.1269 -0.5237
  104CHL1   H2513948   4.569   6.451  15.040 -0.3862 -1.5559 -0.2070
  104CHL1   C2613949   4.781   6.439  15.088  0.0788 -0.0044  0.6666
  104CHL1  H26A13950   4.861   6.362  15.094  0.5460  0.2966 -1.0395
  104CHL1  H26B13951   4.826   6.522  15.029  1.5675  0.0936  1.8761
  104CHL1  H26C13952   4.747   6.484  15.184  2.5275  2.2745  0.5870
  104CHL1   C2713953   4.683   6.400  14.863 -0.3405  0.0167 -0.3368
  104CHL1  H27A13954   4.766   6.330  14.841 -0.4697 -0.3923  0.4067
  104CHL1  H27B13955   4.598   6.387  14.793 -0.1234 -0.8504 -0.4480
  104CHL1  H27C13956   4.717   6.502  14.836  0.2147  0.1938  0.9520
  105CHL1    C313957   4.915   4.134  16.483 -0.3512 -0.5654  0.1340
  105CHL1    H313958   5.018   4.092  16.476  0.1199  0.6094 -0.1585
  105CHL1    O313959   4.873   4.110  16.618  0.2628 -0.3761 -0.1581
  105CHL1   H3'13960   4.836   4.193  16.648  1.1102 -0.8365  2.3537
  105CHL1    C413961   4.912   4.291  16.457 -0.7675  0.3839 -0.8567
  105CHL1   H4A13962   4.806   4.321  16.471 -0.5784  0.7494 -0.1704
  105CHL1   H4B13963   4.980   4.343  16.528  2.4648 -1.4756 -2.3611
  105CHL1    C513964   4.954   4.318  16.312  0.3412 -0.5058 -1.1360
  105CHL1    C613965   5.067   4.386  16.284  0.1959 -0.2442 -0.3422
  105CHL1    H613966   5.130   4.429  16.363 -2.8951  0.7017  1.7745
  105CHL1    C713967   5.128   4.411  16.150 -0.4595  0.1408  0.5179
  105CHL1   H7A13968   5.177   4.510  16.146  2.2209 -1.0338  1.3505
  105CHL1   H7B13969   5.214   4.344  16.127  0.4688  1.4671  0.0277
  105CHL1    C813970   5.028   4.387  16.039 -0.1002  0.4479 -0.0138
  105CHL1    H813971   4.967   4.480  16.043 -1.1966 -0.1865 -1.3889
  105CHL1   C1413972   5.081   4.391  15.900  0.8529  0.7742 -0.3762
  105CHL1   H1413973   5.141   4.299  15.880 -1.2471 -0.5925 -0.6164
  105CHL1   C1513974   5.174   4.499  15.867 -0.3783 -1.2805  0.6486
  105CHL1  H15A13975   5.146   4.601  15.903  0.0927 -1.7066  2.3302
  105CHL1  H15B13976   5.272   4.488  15.919  1.0694 -0.3478 -1.6943
  105CHL1   C1613977   5.180   4.499  15.715 -0.1103  0.0328 -0.2635
  105CHL1  H16A13978   5.192   4.602  15.675  1.4712 -0.5057 -1.3038
  105CHL1  H16B13979   5.274   4.442  15.701 -0.4316 -0.3910 -0.7369
  105CHL1   C1713980   5.068   4.411  15.658  0.0025  0.3149 -0.1897
  105CHL1   H1713981   5.114   4.313  15.633  0.2261  0.7652 -1.6563
  105CHL1   C1313982   4.978   4.389  15.783  0.0817  0.4549  0.0782
  105CHL1   C1813983   4.889   4.519  15.791 -0.0929 -0.0773  0.5815
  105CHL1  H18A13984   4.827   4.541  15.880  1.8764  2.1113  1.5297
  105CHL1  H18B13985   4.952   4.609  15.773  0.3036 -0.1741  1.4379
  105CHL1  H18C13986   4.827   4.519  15.699 -0.7080  0.7069  0.9819
  105CHL1   C1213987   4.893   4.259  15.794  0.0576  0.4507 -0.0626
  105CHL1  H12A13988   4.806   4.253  15.725 -0.2475 -1.6437  0.4427
  105CHL1  H12B13989   4.956   4.168  15.785  1.6589  1.6964 -2.6487
  105CHL1   C1113990   4.833   4.248  15.937  1.2675 -0.7041 -0.0574
  105CHL1  H11A13991   4.745   4.316  15.939  0.3496 -1.7846 -1.5868
  105CHL1  H11B13992   4.794   4.144  15.935  1.8665 -0.9446  0.3277
  105CHL1    C913993   4.928   4.262  16.060  0.0186  0.4673  0.6417
  105CHL1    H913994   4.992   4.172  16.048 -1.0307 -0.0992 -1.0054
  105CHL1   C1013995   4.873   4.252  16.204  0.3120 -0.1523  0.2280
  105CHL1   C1913996   4.732   4.297  16.211 -0.0712  0.3586  0.3223
  105CHL1  H19A13997   4.679   4.271  16.305 -1.8075 -1.1513 -0.9926
  105CHL1  H19B13998   4.723   4.407  16.203  1.2251  0.4983  0.4547
  105CHL1  H19C13999   4.664   4.245  16.140 -1.8585 -0.4554  2.5014
  105CHL1    C114000   4.863   4.095  16.235 -0.8789 -0.1841 -0.7942
  105CHL1   H1A14001   4.793   4.049  16.162 -2.6539  1.9957 -0.5749
  105CHL1   H1B14002   4.965   4.057  16.215  0.1436  1.1197  1.5397
  105CHL1    C214003   4.826   4.062  16.385 -0.0785  0.2492 -0.0820
  105CHL1   H2A14004   4.823   3.952  16.395  0.6773  0.2572  0.2556
  105CHL1   H2B14005   4.722   4.088  16.416  1.1521  1.9972  2.9423
  105CHL1   C2014006   5.014   4.474  15.529  0.1532  0.0435 -0.3609
  105CHL1   H2014007   4.956   4.568  15.544 -2.2743 -1.3108 -0.6950
  105CHL1   C2114008   4.901   4.388  15.472 -0.4752  0.6948  0.0467
  105CHL1  H21A14009   4.923   4.280  15.480 -1.8114  0.3105 -1.0985
  105CHL1  H21B14010   4.874   4.411  15.366  0.3150 -1.2247 -0.6091
  105CHL1  H21C14011   4.809   4.392  15.534 -0.9350 -1.4049 -0.4325
  105CHL1   C2214012   5.126   4.510  15.428 -0.1397  0.1953  0.6165
  105CHL1  H22A14013   5.088   4.560  15.336  1.1686  1.8293  0.9278
  105CHL1  H22B14014   5.194   4.583  15.476  1.4501 -2.2954  2.4587
  105CHL1   C2314015   5.200   4.393  15.369  0.1179  0.2385 -0.0355
  105CHL1  H23A14016   5.208   4.307  15.439 -1.4078 -0.5159 -0.7439
  105CHL1  H23B14017   5.148   4.349  15.281  0.5168  1.6166 -1.0043
  105CHL1   C2414018   5.339   4.430  15.319  0.8737 -0.4448  0.0743
  105CHL1  H24A14019   5.400   4.461  15.407 -0.3749  1.4761  0.3123
  105CHL1  H24B14020   5.389   4.344  15.269  0.3719 -1.2752  0.9700
  105CHL1   C2514021   5.344   4.547  15.212 -0.0179  0.1134  0.6232
  105CHL1   H2514022   5.292   4.639  15.246  0.0268  0.8448 -1.1924
  105CHL1   C2614023   5.484   4.591  15.166 -0.3892 -0.2121  0.4607
  105CHL1  H26A14024   5.534   4.502  15.120  0.8032 -0.5396  2.2708
  105CHL1  H26B14025   5.463   4.674  15.095  2.7258 -0.0031 -0.4039
  105CHL1  H26C14026   5.542   4.632  15.251  0.2126 -0.2138  0.0607
  105CHL1   C2714027   5.271   4.502  15.078 -0.1517  0.2608  0.0810
  105CHL1  H27A14028   5.272   4.592  15.013 -1.2043  0.0942 -0.1746
  105CHL1  H27B14029   5.331   4.422  15.030  0.0600  1.7044 -2.2419
  105CHL1  H27C14030   5.170   4.466  15.106 -0.0091 -0.3158 -0.1457
  106CHL1    C314031   1.564   4.225  16.665 -0.1779 -0.3690  0.1412
  106CHL1    H314032   1.635   4.142  16.644  0.6654  0.3835 -0.0471
  106CHL1    O314033   1.577   4.259  16.800  0.8035  0.0713  0.0904
  106CHL1   H3'14034   1.663   4.297  16.820  0.8287 -1.0066  2.3157
  106CHL1    C414035   1.600   4.343  16.574  0.2433  0.5130  0.0063
  106CHL1   H4A14036   1.534   4.425  16.608  0.1438  1.1154 -1.5383
  106CHL1   H4B14037   1.700   4.388  16.594  0.3397  0.3878 -0.1966
  106CHL1    C514038   1.599   4.304  16.428 -0.7713 -1.2019 -0.7185
  106CHL1    C614039   1.714   4.319  16.350  1.0114  0.5441  0.4454
  106CHL1    H614040   1.813   4.346  16.389  2.0901 -0.2395 -1.6265
  106CHL1    C714041   1.718   4.285  16.203 -0.3262 -0.0713 -0.4186
  106CHL1   H7A14042   1.760   4.378  16.160 -0.0260  0.4735  1.0192
  106CHL1   H7B14043   1.790   4.204  16.176 -1.4264 -0.3557 -2.7742
  106CHL1    C814044   1.572   4.264  16.154  0.1366  0.3503 -0.2036
  106CHL1    H814045   1.526   4.364  16.134 -1.0627  0.1078  1.1336
  106CHL1   C1414046   1.581   4.190  16.021  0.3144 -0.7877  0.3997
  106CHL1   H1414047   1.634   4.096  16.049  1.1252 -0.1815  0.9428
  106CHL1   C1514048   1.670   4.260  15.916 -0.7869 -0.5052  0.7417
  106CHL1  H15A14049   1.648   4.366  15.894  0.9814  0.0801  1.6146
  106CHL1  H15B14050   1.779   4.248  15.935 -0.7756 -2.4901 -0.3062
  106CHL1   C1614051   1.641   4.182  15.794 -0.3906  0.3021 -0.1177
  106CHL1  H16A14052   1.619   4.253  15.712  0.9219 -0.0616 -0.8173
  106CHL1  H16B14053   1.725   4.113  15.771 -0.7495 -1.0747  2.3531
  106CHL1   C1714054   1.516   4.094  15.828  0.2404  0.4128 -0.0324
  106CHL1   H1714055   1.551   3.991  15.850 -2.4202 -0.4293  0.6059
  106CHL1   C1314056   1.453   4.160  15.952  0.4218  0.8630  0.0147
  106CHL1   C1814057   1.372   4.293  15.921 -0.0269 -0.0243  0.3122
  106CHL1  H18A14058   1.349   4.354  16.011 -2.6881 -0.3071 -0.0808
  106CHL1  H18B14059   1.424   4.362  15.851  2.3784 -0.3754  1.6458
  106CHL1  H18C14060   1.273   4.274  15.874  0.0924 -1.5915  0.6562
  106CHL1   C1214061   1.369   4.073  16.052 -0.9585 -0.7428  0.6192
  106CHL1  H12A14062   1.266   4.050  16.018 -0.7828 -0.3017 -0.2240
  106CHL1  H12B14063   1.419   3.977  16.078  0.9537  0.0952  0.2243
  106CHL1   C1114064   1.340   4.154  16.174  0.0132  0.3699 -0.2786
  106CHL1  H11A14065   1.268   4.237  16.154 -0.9660 -0.4776 -0.3031
  106CHL1  H11B14066   1.278   4.090  16.239 -0.7004  0.1354 -1.1754
  106CHL1    C914067   1.480   4.190  16.244  0.0604  0.5007 -0.2291
  106CHL1    H914068   1.540   4.097  16.257  1.5961  1.5722  0.6106
  106CHL1   C1014069   1.466   4.253  16.385 -0.1445  1.1437  0.1272
  106CHL1   C1914070   1.361   4.366  16.364  0.3077  0.2321 -0.0981
  106CHL1  H19A14071   1.259   4.323  16.362  0.6783 -1.0202  2.9115
  106CHL1  H19B14072   1.358   4.439  16.449  2.1289  1.4661 -1.0042
  106CHL1  H19C14073   1.379   4.423  16.271 -2.2913  1.2786 -0.0270
  106CHL1    C114074   1.404   4.145  16.487 -0.3282 -0.5139 -0.3123
  106CHL1   H1A14075   1.297   4.123  16.464 -0.5528 -0.7058  0.8385
  106CHL1   H1B14076   1.462   4.051  16.474  3.1452  1.1805  1.5663
  106CHL1    C214077   1.414   4.183  16.637 -0.8894  0.2509 -0.5891
  106CHL1   H2A14078   1.402   4.093  16.701  2.0020 -0.3560 -0.7766
  106CHL1   H2B14079   1.358   4.275  16.664  0.7675  0.3069  3.4134
  106CHL1   C2014080   1.420   4.079  15.714  0.7177  0.3543  0.0666
  106CHL1   H2014081   1.390   4.180  15.677  0.8058 -0.4324 -2.3296
  106CHL1   C2114082   1.296   4.001  15.754  0.0911 -0.1489  0.3608
  106CHL1  H21A14083   1.230   3.981  15.667  1.6745  0.5596 -1.0399
  106CHL1  H21B14084   1.247   4.066  15.830  2.4609 -1.4251  3.2182
  106CHL1  H21C14085   1.316   3.902  15.800 -2.7511 -1.7555 -1.4861
  106CHL1   C2214086   1.478   4.018  15.581 -0.8872 -0.1568 -0.3586
  106CHL1  H22A14087   1.587   3.997  15.589 -1.0426 -0.2887  2.5985
  106CHL1  H22B14088   1.431   3.918  15.571  0.7867 -0.9735 -0.4420
  106CHL1   C2314089   1.439   4.095  15.456  0.0221  0.0303 -0.0465
  106CHL1  H23A14090   1.328   4.090  15.445 -0.0632  0.7771  0.4561
  106CHL1  H23B14091   1.470   4.201  15.456 -2.2582  0.7540 -1.1048
  106CHL1   C2414092   1.500   4.024  15.333  0.4798 -0.2936 -0.1447
  106CHL1  H24A14093   1.609   4.046  15.344  0.1526  2.3229 -1.4709
  106CHL1  H24B14094   1.479   3.915  15.342 -0.7293  0.0384  1.8149
  106CHL1   C2514095   1.460   4.063  15.191 -0.2644 -0.3979  0.7839
  106CHL1   H2514096   1.502   4.162  15.164 -3.1144  1.0012  1.1702
  106CHL1   C2614097   1.523   3.967  15.085  0.6374  0.6487 -0.1420
  106CHL1  H26A14098   1.480   3.991  14.985 -2.7323 -0.0383  1.0072
  106CHL1  H26B14099   1.633   3.964  15.091  0.8363  0.8906 -2.6525
  106CHL1  H26C14100   1.491   3.862  15.105  0.6758  0.7956  0.7107
  106CHL1   C2714101   1.305   4.076  15.179 -0.8010  0.0190  0.3503
  106CHL1  H27A14102   1.283   4.097  15.073 -1.5109  0.0376  0.4974
  106CHL1  H27B14103   1.249   3.990  15.221  1.7236 -1.7662  0.2814
  106CHL1  H27C14104   1.262   4.163  15.233  0.2360  0.3422  0.6865
  107CHL1    C314105   2.837   1.131  16.200  0.3050 -0.0521 -0.3087
  107CHL1    H314106   2.948   1.130  16.202  0.4570  2.0092 -2.7065
  107CHL1    O314107   2.803   1.147  16.338 -0.2434  0.1009 -0.3360
  107CHL1   H3'14108   2.710   1.124  16.336  0.0773 -1.3456  0.3454
  107CHL1    C414109   2.789   1.258  16.133 -0.4739 -0.0094 -0.3216
  107CHL1   H4A14110   2.679   1.263  16.148 -1.0148 -2.0785 -2.7969
  107CHL1   H4B14111   2.845   1.340  16.182  0.4260 -1.4295  1.0944
  107CHL1    C514112   2.810   1.257  15.982 -0.1940  0.5483 -0.5930
  107CHL1    C614113   2.882   1.357  15.934 -0.2227  0.0389  0.5315
  107CHL1    H614114   2.919   1.436  16.001 -0.3667  0.3745  0.2174
  107CHL1    C714115   2.914   1.363  15.785 -0.7084 -0.5286 -0.1757
  107CHL1   H7A14116   2.908   1.471  15.760  2.5230 -0.0017  0.8851
  107CHL1   H7B14117   3.019   1.334  15.761 -1.0907 -1.6591 -0.5562
  107CHL1    C814118   2.821   1.274  15.698  0.2594  0.1727 -0.1677
  107CHL1    H814119   2.720   1.318  15.710 -0.0987 -0.9432  1.2781
  107CHL1   C1414120   2.878   1.270  15.563 -0.7010 -0.1344  0.0856
  107CHL1   H1414121   2.979   1.224  15.569  0.0012  1.2768 -0.5458
  107CHL1   C1514122   2.918   1.404  15.501 -0.3397 -0.4235  1.0960
  107CHL1  H15A14123   2.827   1.468  15.509 -1.3802 -1.7182  0.1965
  107CHL1  H15B14124   3.003   1.463  15.542 -0.5627 -0.5998  1.8378
  107CHL1   C1614125   2.947   1.362  15.350 -0.6586  0.6283 -0.1396
  107CHL1  H16A14126   2.892   1.430  15.281 -0.6080 -0.5348 -1.3753
  107CHL1  H16B14127   3.057   1.364  15.335 -0.2296  1.8246  2.5525
  107CHL1   C1714128   2.890   1.214  15.334 -0.8565 -0.3193 -0.1119
  107CHL1   H1714129   2.986   1.159  15.334 -1.0329 -0.6599  1.3187
  107CHL1   C1314130   2.805   1.187  15.459 -0.0355 -0.1337 -0.0747
  107CHL1   C1814131   2.667   1.255  15.427 -0.7816 -0.5105 -0.8618
  107CHL1  H18A14132   2.679   1.357  15.384  1.8323 -0.3444  0.0641
  107CHL1  H18B14133   2.599   1.192  15.365 -0.8837  0.1720 -1.4564
  107CHL1  H18C14134   2.608   1.263  15.520 -1.0552  2.2378 -1.2012
  107CHL1   C1214135   2.798   1.041  15.524  0.2720  0.7153  0.2617
  107CHL1  H12A14136   2.739   0.977  15.455  0.1099  0.6175  0.4885
  107CHL1  H12B14137   2.901   0.998  15.521 -0.7127 -1.8975  0.5421
  107CHL1   C1114138   2.730   1.036  15.662 -0.8809  0.3437  0.4495
  107CHL1  H11A14139   2.620   1.054  15.654 -1.0886 -1.1138 -0.2219
  107CHL1  H11B14140   2.747   0.933  15.700 -0.8187  0.9159  2.0557
  107CHL1    C914141   2.802   1.139  15.761 -0.2612  0.2760  0.3651
  107CHL1    H914142   2.908   1.110  15.774  0.0893  1.1900 -0.3695
  107CHL1   C1014143   2.750   1.141  15.906 -0.0020 -0.4714  0.0504
  107CHL1   C1914144   2.594   1.146  15.914  0.5813 -0.6367  0.0309
  107CHL1  H19A14145   2.551   1.162  16.015  0.2446  0.4522 -0.2731
  107CHL1  H19B14146   2.559   1.235  15.857  2.1517  0.6679  1.0235
  107CHL1  H19C14147   2.556   1.050  15.872 -1.8497 -0.2616  1.1949
  107CHL1    C114148   2.796   1.006  15.977 -0.3601 -0.4315  0.4534
  107CHL1   H1A14149   2.743   0.921  15.930  0.5808 -1.2430  0.8437
  107CHL1   H1B14150   2.904   0.986  15.962 -0.6905 -0.2825 -2.9837
  107CHL1    C214151   2.768   1.011  16.129  0.3368  0.6956 -0.2819
  107CHL1   H2A14152   2.825   0.927  16.174  0.7299  0.3073 -1.4530
  107CHL1   H2B14153   2.662   1.029  16.155  0.3959  0.7591 -0.0829
  107CHL1   C2014154   2.832   1.191  15.189  0.3500  0.4255 -1.5057
  107CHL1   H2014155   2.752   1.267  15.179 -0.6103 -0.1242  1.2179
  107CHL1   C2114156   2.762   1.056  15.190 -0.3609 -0.3802  0.6323
  107CHL1  H21A14157   2.730   1.024  15.089 -1.2416  1.6780  0.1985
  107CHL1  H21B14158   2.673   1.067  15.256 -0.5029  0.4305  0.3101
  107CHL1  H21C14159   2.833   0.978  15.225 -1.0771 -1.2136  0.2435
  107CHL1   C2214160   2.940   1.205  15.083 -0.2208  0.2506 -0.3818
  107CHL1  H22A14161   2.994   1.301  15.098  0.7423 -0.4891  1.1302
  107CHL1  H22B14162   3.011   1.121  15.088 -0.8095 -0.1611  1.5510
  107CHL1   C2314163   2.888   1.194  14.938 -0.0960  0.3816 -0.0497
  107CHL1  H23A14164   2.811   1.116  14.919 -1.8464  1.8431  0.6836
  107CHL1  H23B14165   2.840   1.290  14.909  2.0495  0.7056 -2.9474
  107CHL1   C2414166   3.005   1.173  14.840 -0.4711 -0.3678 -0.1655
  107CHL1  H24A14167   3.081   1.251  14.861  0.6079 -0.3141 -3.5843
  107CHL1  H24B14168   3.039   1.068  14.832  1.0157  0.1896 -2.0856
  107CHL1   C2514169   2.975   1.211  14.692 -0.0219  0.1527 -0.2606
  107CHL1   H2514170   3.068   1.212  14.632  1.3239  2.2694  1.6876
  107CHL1   C2614171   2.878   1.106  14.631 -0.2938 -0.6662 -0.1254
  107CHL1  H26A14172   2.814   1.073  14.716  2.3425 -0.0233  2.2455
  107CHL1  H26B14173   2.814   1.154  14.554 -2.2656  0.0587  1.8614
  107CHL1  H26C14174   2.935   1.016  14.599  0.4791  0.3426 -1.7071
  107CHL1   C2714175   2.923   1.358  14.670 -0.4082  0.3681  0.2833
  107CHL1  H27A14176   2.812   1.356  14.670 -0.4250  0.6291  1.6409
  107CHL1  H27B14177   2.956   1.415  14.759  0.8378 -2.8493  2.0225
  107CHL1  H27C14178   2.964   1.395  14.574 -1.4388  0.8355  0.0053
  108CHL1    C314179   5.033   2.921  16.184 -0.3218 -0.3725 -0.4174
  108CHL1    H314180   5.023   3.031  16.170  1.2774  0.0980  1.7741
  108CHL1    O314181   5.074   2.906  16.323  0.3916  0.5300  0.2538
  108CHL1   H3'14182   5.057   2.815  16.347  0.9842  0.1869 -0.5980
  108CHL1    C414183   4.893   2.865  16.151 -1.0904  0.3702  0.5101
  108CHL1   H4A14184   4.901   2.758  16.178 -1.1338  0.1275 -0.3823
  108CHL1   H4B14185   4.817   2.919  16.212 -1.7571  1.8430 -1.5150
  108CHL1    C514186   4.856   2.876  16.006 -0.2696 -0.4502 -0.3771
  108CHL1    C614187   4.742   2.927  15.974 -0.2360  0.4840 -0.1946
  108CHL1    H614188   4.682   2.962  16.059  3.4105 -1.3042  3.5006
  108CHL1    C714189   4.700   2.957  15.831  0.4146 -0.2340  0.1578
  108CHL1   H7A14190   4.591   2.946  15.813  0.1958  3.3915 -1.6277
  108CHL1   H7B14191   4.717   3.067  15.819 -1.0190  0.0123  0.2854
  108CHL1    C814192   4.791   2.886  15.720  0.4225  0.0279 -0.2701
  108CHL1    H814193   4.762   2.779  15.718  0.8936 -0.1269  0.6816
  108CHL1   C1414194   4.768   2.943  15.587 -0.7891  0.1519  0.4104
  108CHL1   H1414195   4.804   3.047  15.600  0.6874 -0.4354  1.1460
  108CHL1   C1514196   4.630   2.972  15.528  0.5007  0.3595 -0.0967
  108CHL1  H15A14197   4.563   2.886  15.546  0.1179  0.4268 -1.1138
  108CHL1  H15B14198   4.575   3.057  15.572  1.7618 -0.4650  3.3846
  108CHL1   C1614199   4.655   2.991  15.376 -0.4716  0.4889  1.1504
  108CHL1  H16A14200   4.593   2.916  15.323  2.9029 -1.4811 -0.3364
  108CHL1  H16B14201   4.622   3.088  15.333  1.3359  0.7673  0.3058
  108CHL1   C1714202   4.805   2.962  15.353 -0.5049 -0.0296  0.6300
  108CHL1   H1714203   4.861   3.057  15.362 -2.9366  1.6738 -0.9866
  108CHL1   C1314204   4.852   2.882  15.473  0.6228  0.3990  0.5216
  108CHL1   C1814205   4.828   2.730  15.461 -0.1971 -0.0872 -0.0533
  108CHL1  H18A14206   4.724   2.702  15.434 -0.2714 -1.9424  1.8885
  108CHL1  H18B14207   4.888   2.696  15.373  0.1474 -0.6001  0.3706
  108CHL1  H18C14208   4.859   2.670  15.549 -1.4841 -2.3463 -1.0433
  108CHL1   C1214209   5.004   2.898  15.506 -0.0597 -0.0719  0.1194
  108CHL1  H12A14210   5.061   2.824  15.446 -0.8163 -1.3161  0.8977
  108CHL1  H12B14211   5.028   3.006  15.493  0.0632  0.0040  0.9330
  108CHL1   C1114212   5.036   2.848  15.647  0.4011  0.1623  0.1708
  108CHL1  H11A14213   5.030   2.737  15.644 -0.3512  0.2049 -0.0238
  108CHL1  H11B14214   5.142   2.871  15.674 -0.2666  1.1635  2.1088
  108CHL1    C914215   4.933   2.886  15.755 -0.3509  0.0133 -0.2258
  108CHL1    H914216   4.964   2.992  15.765  3.6256 -1.1873  3.1065
  108CHL1   C1014217   4.960   2.839  15.902 -0.1194 -0.5890  0.0091
  108CHL1   C1914218   4.969   2.684  15.898 -0.7080  0.1352  0.0519
  108CHL1  H19A14219   4.890   2.637  15.835  0.3777 -1.5606 -0.1133
  108CHL1  H19B14220   5.065   2.647  15.855 -1.3627 -0.2422 -1.1308
  108CHL1  H19C14221   4.968   2.645  16.002 -0.5565 -1.2722 -0.4553
  108CHL1    C114222   5.101   2.899  15.941  0.5248  0.8014  0.7497
  108CHL1   H1A14223   5.173   2.863  15.864  0.0002 -0.4145  0.8096
  108CHL1   H1B14224   5.093   3.010  15.938  0.6044  0.8374  1.7084
  108CHL1    C214225   5.144   2.869  16.085 -0.2664 -0.1008  0.4766
  108CHL1   H2A14226   5.241   2.918  16.111 -0.2400 -0.3993  0.9429
  108CHL1   H2B14227   5.154   2.759  16.096  0.7013 -0.2064 -1.0253
  108CHL1   C2014228   4.827   2.907  15.212 -0.2887  0.1072  0.3130
  108CHL1   H2014229   4.777   2.809  15.197 -0.4744  0.1907  0.3881
  108CHL1   C2114230   4.987   2.904  15.179  0.9940 -0.0139  0.1136
  108CHL1  H21A14231   5.021   2.803  15.209  0.1815  0.5223  3.1239
  108CHL1  H21B14232   5.037   2.990  15.228  1.4801 -0.8162  1.0449
  108CHL1  H21C14233   5.003   2.915  15.069  0.9753  1.4143  0.2403
  108CHL1   C2214234   4.761   2.988  15.104 -0.7561  0.5189 -0.0642
  108CHL1  H22A14235   4.654   3.011  15.127 -0.1199  1.8777  1.7676
  108CHL1  H22B14236   4.807   3.089  15.092 -1.7238  1.0156  0.2128
  108CHL1   C2314237   4.759   2.930  14.960  0.3290 -1.0446 -0.2210
  108CHL1  H23A14238   4.863   2.938  14.920  0.7171  0.4373  0.9842
  108CHL1  H23B14239   4.728   2.823  14.957  0.0390 -1.0537  1.8744
  108CHL1   C2414240   4.672   3.005  14.863 -0.3433 -0.5428  0.2229
  108CHL1  H24A14241   4.564   2.990  14.884  0.1414 -1.5619  2.2195
  108CHL1  H24B14242   4.688   3.114  14.875  0.9261 -0.5886 -0.8391
  108CHL1   C2514243   4.712   2.995  14.707  0.2775 -0.0808 -0.0802
  108CHL1   H2514244   4.823   3.005  14.708  0.2713  0.0596 -0.4444
  108CHL1   C2614245   4.672   2.855  14.657  0.5704  0.3747 -0.2248
  108CHL1  H26A14246   4.684   2.841  14.548  1.2933  1.5213 -0.3127
  108CHL1  H26B14247   4.720   2.766  14.701  0.6209  0.2709 -0.4913
  108CHL1  H26C14248   4.564   2.839  14.678  0.5972 -1.0901 -1.1094
  108CHL1   C2714249   4.648   3.117  14.631  0.6259 -0.1256 -0.4674
  108CHL1  H27A14250   4.693   3.216  14.653 -3.3698  2.3706 -2.3272
  108CHL1  H27B14251   4.659   3.102  14.522 -0.0746 -0.5206 -0.4871
  108CHL1  H27C14252   4.538   3.122  14.645  0.6176 -0.7248 -0.2977
  109CHL1    C314253   1.815   0.626  16.116 -0.2801  0.0955  0.2151
  109CHL1    H314254   1.706   0.634  16.099 -0.0755  0.1897 -1.1199
  109CHL1    O314255   1.823   0.607  16.256 -0.1089 -0.0213  0.0283
  109CHL1   H3'14256   1.762   0.536  16.277  0.7310 -0.5551  0.7190
  109CHL1    C414257   1.857   0.496  16.040  0.4859  0.1035 -0.8977
  109CHL1   H4A14258   1.960   0.468  16.069 -0.4619 -2.8941 -0.1146
  109CHL1   H4B14259   1.792   0.412  16.072  0.7032  0.3244  0.1619
  109CHL1    C514260   1.846   0.530  15.894  0.1247 -0.3628  0.2628
  109CHL1    C614261   1.768   0.456  15.820 -0.2240  0.1547 -0.4635
  109CHL1    H614262   1.723   0.365  15.863  1.8501  0.2321  2.0786
  109CHL1    C714263   1.765   0.462  15.669 -0.0659  0.3762  0.0693
  109CHL1   H7A14264   1.796   0.363  15.629 -1.2569 -0.8264  1.9531
  109CHL1   H7B14265   1.661   0.473  15.632  0.0321 -0.1378 -0.3714
  109CHL1    C814266   1.867   0.553  15.607 -0.3506 -0.0001 -0.4687
  109CHL1    H814267   1.970   0.512  15.616  0.2263  1.8748  3.6931
  109CHL1   C1414268   1.845   0.573  15.456 -0.3532 -0.4175 -0.6035
  109CHL1   H1414269   1.742   0.611  15.442  0.1106  0.3502 -2.1321
  109CHL1   C1514270   1.856   0.450  15.372  0.1174 -0.4550  0.1737
  109CHL1  H15A14271   1.954   0.405  15.396  0.3871  0.3069  0.5161
  109CHL1  H15B14272   1.783   0.373  15.404  1.2637 -1.6677 -0.0842
  109CHL1   C1614273   1.848   0.497  15.230  0.5602 -0.3052  0.2384
  109CHL1  H16A14274   1.939   0.451  15.186 -0.4654 -0.0960 -2.2759
  109CHL1  H16B14275   1.755   0.475  15.172 -0.0271 -1.0502  1.4157
  109CHL1   C1714276   1.873   0.658  15.240  0.1268  0.7535  0.4736
  109CHL1   H1714277   1.773   0.705  15.227 -0.3468 -0.8714 -2.6432
  109CHL1   C1314278   1.927   0.677  15.385  0.0724 -0.0710  0.4781
  109CHL1   C1814279   2.077   0.634  15.377 -0.3298 -0.5143  0.0785
  109CHL1  H18A14280   2.097   0.560  15.296  0.5644  1.2942 -1.4033
  109CHL1  H18B14281   2.132   0.724  15.345  2.0327 -1.8208  0.2277
  109CHL1  H18C14282   2.110   0.591  15.474 -1.6730  1.2672  1.3964
  109CHL1   C1214283   1.918   0.812  15.454 -1.0680 -0.9423 -0.4394
  109CHL1  H12A14284   2.000   0.876  15.413  0.8637 -2.2654  1.1797
  109CHL1  H12B14285   1.822   0.865  15.435 -0.8735  0.0604  1.2227
  109CHL1   C1114286   1.945   0.796  15.605  0.0709 -0.6901  0.0322
  109CHL1  H11A14287   2.053   0.770  15.618 -0.2752 -1.1936  2.2022
  109CHL1  H11B14288   1.923   0.887  15.663 -0.1502 -0.3479 -0.5772
  109CHL1    C914289   1.867   0.689  15.687  0.5498  0.0560 -0.4125
  109CHL1    H914290   1.760   0.718  15.689 -0.4762 -3.3161  1.5494
  109CHL1   C1014291   1.903   0.664  15.838 -0.3205  0.4812  0.1201
  109CHL1   C1914292   2.060   0.644  15.847 -0.4030 -0.0027  0.6705
  109CHL1  H19A14293   2.097   0.612  15.947 -1.6961 -1.7409  0.6431
  109CHL1  H19B14294   2.081   0.560  15.778  2.8104 -0.2328  1.7882
  109CHL1  H19C14295   2.108   0.742  15.825  2.5169 -1.4673  0.1677
  109CHL1    C114296   1.857   0.775  15.923 -0.4200 -0.1152 -0.1778
  109CHL1   H1A14297   1.901   0.874  15.902  0.6356 -0.1879  1.4997
  109CHL1   H1B14298   1.749   0.799  15.914 -0.6376 -0.0478  2.0707
  109CHL1    C214299   1.887   0.753  16.075  0.1545  0.0697 -0.0253
  109CHL1   H2A14300   1.856   0.842  16.134 -0.5391 -0.4487  0.4056
  109CHL1   H2B14301   1.995   0.727  16.083 -0.0511 -0.5886  0.7652
  109CHL1   C2014302   1.948   0.721  15.129 -0.4571 -0.1620  0.6549
  109CHL1   H2014303   2.052   0.681  15.138 -0.6068 -0.6915  0.0597
  109CHL1   C2114304   1.934   0.873  15.123  0.3455  0.0431 -0.5892
  109CHL1  H21A14305   1.831   0.912  15.134  0.4884  0.1280  0.5954
  109CHL1  H21B14306   1.987   0.909  15.032 -0.6946  0.1400 -1.1678
  109CHL1  H21C14307   1.983   0.924  15.209 -1.6757  0.8907  0.1103
  109CHL1   C2214308   1.902   0.668  14.990  0.2591  0.4618  0.0292
  109CHL1  H22A14309   1.922   0.558  14.991  0.4639  0.4968  0.8641
  109CHL1  H22B14310   1.793   0.688  14.984 -0.1725 -1.9544 -1.8674
  109CHL1   C2314311   1.977   0.713  14.858 -0.0277  0.1014 -0.0031
  109CHL1  H23A14312   1.979   0.824  14.855 -0.6535  0.1148 -0.1081
  109CHL1  H23B14313   2.083   0.681  14.866 -0.1792 -0.4343 -0.0998
  109CHL1   C2414314   1.911   0.638  14.735  0.4667  0.1453 -0.2142
  109CHL1  H24A14315   1.960   0.538  14.739 -1.3057 -0.7711 -0.5599
  109CHL1  H24B14316   1.801   0.624  14.741  0.5816 -1.1174 -0.7321
  109CHL1   C2514317   1.956   0.718  14.616  0.7821  0.3819  0.0756
  109CHL1   H2514318   1.953   0.827  14.638 -0.4029  0.5448 -0.7565
  109CHL1   C2614319   2.091   0.676  14.559 -0.1675 -0.5028  0.2243
  109CHL1  H26A14320   2.091   0.570  14.526  1.0748 -0.3205 -0.3995
  109CHL1  H26B14321   2.117   0.731  14.466 -0.1363 -2.6487 -1.0958
  109CHL1  H26C14322   2.169   0.683  14.638  1.6059  0.1531 -1.5154
  109CHL1   C2714323   1.854   0.701  14.502  0.1558  0.4311 -0.0226
  109CHL1  H27A14324   1.853   0.593  14.475 -0.6906  0.5491 -0.4723
  109CHL1  H27B14325   1.758   0.738  14.543  0.6862  1.5012  0.2846
  109CHL1  H27C14326   1.884   0.761  14.414  0.8584  0.8011  0.4610
  110CHL1    C314327   0.830   5.413  16.008  0.4650 -0.4484  0.0082
  110CHL1    H314328   0.836   5.520  15.981  0.1362 -0.5310 -0.4042
  110CHL1    O314329   0.857   5.400  16.151  0.7098 -0.3145 -0.4452
  110CHL1   H3'14330   0.946   5.435  16.162  0.6040 -0.0296 -0.5030
  110CHL1    C414331   0.689   5.364  15.981  0.3091 -0.2395  0.4626
  110CHL1   H4A14332   0.693   5.255  16.001  1.3149 -0.2100  0.4464
  110CHL1   H4B14333   0.605   5.402  16.044 -1.5159 -1.6972 -0.9779
  110CHL1    C514334   0.665   5.380  15.830  0.6438 -0.5503 -0.3612
  110CHL1    C614335   0.563   5.446  15.773 -0.5859 -0.3278  0.6078
  110CHL1    H614336   0.481   5.477  15.839 -1.9042  0.5396 -1.3466
  110CHL1    C714337   0.536   5.458  15.620 -0.7014 -0.3028 -0.4033
  110CHL1   H7A14338   0.428   5.436  15.602 -0.2902 -1.5940 -1.5053
  110CHL1   H7B14339   0.550   5.566  15.597  0.9739  0.0147  1.8572
  110CHL1    C814340   0.616   5.362  15.532  0.8981  0.6056 -0.4317
  110CHL1    H814341   0.581   5.258  15.548  0.2679  0.5298 -2.1828
  110CHL1   C1414342   0.608   5.385  15.386 -0.3283 -0.4010  0.3596
  110CHL1   H1414343   0.659   5.482  15.365  1.2032 -0.9883  1.1537
  110CHL1   C1514344   0.460   5.390  15.326  0.0173  0.3101  0.3547
  110CHL1  H15A14345   0.394   5.311  15.367 -2.1470  0.3101 -2.8006
  110CHL1  H15B14346   0.415   5.489  15.351 -0.1972  0.1899  0.4549
  110CHL1   C1614347   0.484   5.362  15.180  0.1219 -0.0713 -0.2421
  110CHL1  H16A14348   0.431   5.271  15.146 -0.4098 -0.2888  1.1039
  110CHL1  H16B14349   0.444   5.444  15.117 -0.5035 -0.1872  0.0003
  110CHL1   C1714350   0.642   5.340  15.162  1.1948  0.4119  0.3296
  110CHL1   H1714351   0.689   5.438  15.140  2.5131 -0.0441  1.0277
  110CHL1   C1314352   0.689   5.287  15.296  0.5867 -0.0682  0.6371
  110CHL1   C1814353   0.639   5.142  15.316 -0.2316  0.0592 -0.3630
  110CHL1  H18A14354   0.689   5.074  15.243 -1.1171 -0.8648 -0.1380
  110CHL1  H18B14355   0.669   5.099  15.414  2.0375 -1.6354 -1.6708
  110CHL1  H18C14356   0.530   5.128  15.303 -0.4067 -0.5334  1.4532
  110CHL1   C1214357   0.832   5.309  15.332 -0.8163 -0.4796  0.5027
  110CHL1  H12A14358   0.903   5.242  15.279  0.0529  1.3710 -0.7944
  110CHL1  H12B14359   0.864   5.407  15.290 -1.0431 -0.9107 -0.7163
  110CHL1   C1114360   0.852   5.296  15.482 -0.1668 -0.4316 -0.2403
  110CHL1  H11A14361   0.845   5.188  15.504 -0.4818 -0.3000  0.3274
  110CHL1  H11B14362   0.958   5.312  15.509 -0.6545 -0.7529  2.0381
  110CHL1    C914363   0.759   5.373  15.582  0.3948  0.0593  0.2245
  110CHL1    H914364   0.786   5.481  15.573 -1.6785  0.5673 -0.5215
  110CHL1   C1014365   0.769   5.315  15.731  0.9907 -0.0133  0.0402
  110CHL1   C1914366   0.751   5.166  15.745  0.3706  0.1090  0.0668
  110CHL1  H19A14367   0.820   5.103  15.686  1.4631  0.7165  0.6579
  110CHL1  H19B14368   0.769   5.128  15.848  2.6573  0.8637 -0.0046
  110CHL1  H19C14369   0.647   5.135  15.720 -0.2027  0.2320  2.1159
  110CHL1    C114370   0.910   5.354  15.778 -1.1384  0.0407 -0.5816
  110CHL1   H1A14371   0.991   5.302  15.724 -0.7830 -1.5002  1.3080
  110CHL1   H1B14372   0.919   5.462  15.752  0.6010 -0.2223 -1.1923
  110CHL1    C214373   0.939   5.341  15.924 -0.2039  1.1360 -0.1971
  110CHL1   H2A14374   1.034   5.384  15.964 -1.7012  1.0548  3.9927
  110CHL1   H2B14375   0.928   5.236  15.960 -1.7751  0.9884 -1.0231
  110CHL1   C2014376   0.676   5.255  15.039 -0.0211  0.3240  0.2052
  110CHL1   H2014377   0.643   5.150  15.056 -1.4389  0.8462  0.7797
  110CHL1   C2114378   0.828   5.261  15.002  0.1061  0.2604  0.5958
  110CHL1  H21A14379   0.871   5.191  15.076 -2.5692 -1.4906  0.6376
  110CHL1  H21B14380   0.858   5.368  15.007 -0.7778  0.7327 -2.1801
  110CHL1  H21C14381   0.833   5.216  14.901 -2.9198  0.9004  0.0710
  110CHL1   C2214382   0.602   5.303  14.911 -0.3317  0.3336  0.8667
  110CHL1  H22A14383   0.496   5.334  14.924  0.2863  2.5612  0.9618
  110CHL1  H22B14384   0.662   5.387  14.869  2.3157 -1.8588 -0.0172
  110CHL1   C2314385   0.591   5.194  14.803 -0.2176  0.4755  0.4248
  110CHL1  H23A14386   0.689   5.145  14.786 -0.3946 -0.0451  0.8967
  110CHL1  H23B14387   0.520   5.118  14.841  1.4593 -1.8228 -0.7879
  110CHL1   C2414388   0.534   5.227  14.663  0.3526  0.5857 -0.6783
  110CHL1  H24A14389   0.604   5.303  14.623  0.4098  0.2899 -1.1474
  110CHL1  H24B14390   0.532   5.135  14.601 -0.0328  0.0869  0.0646
  110CHL1   C2514391   0.390   5.290  14.655  0.3102 -0.8222  0.1136
  110CHL1   H2514392   0.373   5.333  14.756  1.8192 -0.6725  0.3290
  110CHL1   C2614393   0.382   5.384  14.533  1.0591 -0.1939  0.4705
  110CHL1  H26A14394   0.276   5.415  14.517  0.8747 -0.6072  0.8696
  110CHL1  H26B14395   0.446   5.474  14.540 -0.6802  1.2859 -1.3044
  110CHL1  H26C14396   0.407   5.327  14.441 -4.0007 -0.3701 -1.1393
  110CHL1   C2714397   0.277   5.187  14.635 -0.5664  0.4925  0.2325
  110CHL1  H27A14398   0.263   5.119  14.721  1.2497  0.3116  0.4262
  110CHL1  H27B14399   0.178   5.232  14.612 -0.8100  0.7523  1.7234
  110CHL1  H27C14400   0.298   5.118  14.551 -0.3993 -0.8028  1.3121
  111CHL1    C314401   2.454   1.610  16.215  0.0442 -0.1149  0.1529
  111CHL1    H314402   2.501   1.708  16.238  0.5054 -0.4520  0.6670
  111CHL1    O314403   2.432   1.553  16.341 -0.0392 -0.3289 -0.2725
  111CHL1   H3'14404   2.515   1.509  16.359 -0.3087 -1.6360 -2.0642
  111CHL1    C414405   2.324   1.629  16.132 -0.0785  0.0553  0.7227
  111CHL1   H4A14406   2.279   1.529  16.115 -1.1088  0.3528  1.6418
  111CHL1   H4B14407   2.253   1.694  16.188  0.4426  2.4690 -1.2324
  111CHL1    C514408   2.351   1.693  15.997  0.6378 -0.5875  0.5565
  111CHL1    C614409   2.287   1.808  15.970 -1.3025 -0.0799  0.8839
  111CHL1    H614410   2.219   1.859  16.040 -0.6198  1.5415  0.4110
  111CHL1    C714411   2.307   1.869  15.825  0.0166 -0.0748 -0.4675
  111CHL1   H7A14412   2.207   1.885  15.780 -0.5421 -2.0039  0.0035
  111CHL1   H7B14413   2.366   1.961  15.846 -0.9472  0.6238 -0.7438
  111CHL1    C814414   2.389   1.781  15.716 -0.6382 -0.3368 -0.5004
  111CHL1    H814415   2.327   1.701  15.670  0.5609 -0.6218 -1.6676
  111CHL1   C1414416   2.439   1.864  15.597  0.2307 -1.0805  0.6179
  111CHL1   H1414417   2.510   1.931  15.649  0.2045 -1.6826  1.4555
  111CHL1   C1514418   2.340   1.951  15.521  0.0016 -0.0203  1.0083
  111CHL1  H15A14419   2.246   1.895  15.500 -0.8617  1.3602  1.0505
  111CHL1  H15B14420   2.314   2.041  15.581 -1.0206 -0.7441  1.6765
  111CHL1   C1614421   2.425   1.981  15.390  0.0195 -0.1111 -0.3573
  111CHL1  H16A14422   2.356   1.942  15.313  0.4116 -1.4613 -0.0455
  111CHL1  H16B14423   2.441   2.091  15.394  2.7481 -0.4477  0.7524
  111CHL1   C1714424   2.554   1.893  15.399  0.0450 -0.5538  0.1714
  111CHL1   H1714425   2.626   1.953  15.460 -1.5718  2.0179 -0.3278
  111CHL1   C1314426   2.519   1.788  15.495 -0.2817  0.5240 -0.2787
  111CHL1   C1814427   2.424   1.686  15.426 -0.7648 -0.2058 -0.5293
  111CHL1  H18A14428   2.371   1.623  15.500  0.7702 -1.1128 -0.1572
  111CHL1  H18B14429   2.354   1.735  15.355 -1.1045 -2.0148 -1.4996
  111CHL1  H18C14430   2.489   1.615  15.371 -1.4698 -0.6016 -0.8658
  111CHL1   C1214431   2.647   1.718  15.569 -0.4262 -0.8965 -0.0730
  111CHL1  H12A14432   2.700   1.664  15.488  1.8903 -1.0699  1.4744
  111CHL1  H12B14433   2.710   1.804  15.601 -0.5629 -0.8764  0.1445
  111CHL1   C1114434   2.597   1.634  15.685 -0.4364 -0.1457 -0.1072
  111CHL1  H11A14435   2.546   1.550  15.634 -0.3161 -0.1275 -0.2585
  111CHL1  H11B14436   2.693   1.607  15.735 -0.6202  0.8079  0.7982
  111CHL1    C914437   2.505   1.704  15.786  0.8416 -0.5827 -0.1670
  111CHL1    H914438   2.578   1.779  15.824  0.2266  0.0030 -0.1314
  111CHL1   C1014439   2.454   1.620  15.908 -0.3163 -0.0580  0.9682
  111CHL1   C1914440   2.395   1.498  15.844 -0.2416  0.2604  0.1620
  111CHL1  H19A14441   2.469   1.432  15.794 -1.5917 -0.2728 -1.2410
  111CHL1  H19B14442   2.345   1.435  15.920  0.2608  0.2638  0.5012
  111CHL1  H19C14443   2.332   1.517  15.754  2.2018  0.0817 -1.6802
  111CHL1    C114444   2.582   1.596  15.993 -0.6042  0.9545  0.0311
  111CHL1   H1A14445   2.645   1.526  15.933 -1.8861 -0.7770  0.6046
  111CHL1   H1B14446   2.637   1.691  16.011 -0.4059  1.1171 -1.3086
  111CHL1    C214447   2.546   1.524  16.126 -0.0099  0.1061 -0.3674
  111CHL1   H2A14448   2.642   1.505  16.179  0.5657  1.5252 -0.8382
  111CHL1   H2B14449   2.506   1.426  16.093 -2.1667  1.1872 -1.1310
  111CHL1   C2014450   2.626   1.861  15.266 -0.2137 -0.3496  0.2410
  111CHL1   H2014451   2.665   1.756  15.267  0.2397 -0.2217 -1.3484
  111CHL1   C2114452   2.737   1.965  15.260 -0.1314 -0.0258  0.4355
  111CHL1  H21A14453   2.703   2.068  15.235 -0.5683 -0.0713  0.8342
  111CHL1  H21B14454   2.804   1.927  15.180  0.4861  0.9679  0.4583
  111CHL1  H21C14455   2.807   1.975  15.346  0.6072  1.4479 -0.2891
  111CHL1   C2214456   2.533   1.880  15.141 -0.4046  0.1895  0.1382
  111CHL1  H22A14457   2.452   1.804  15.143 -0.2822  0.0034 -1.2097
  111CHL1  H22B14458   2.482   1.979  15.140  0.0571  0.4678  1.7220
  111CHL1   C2314459   2.596   1.860  14.999 -0.6849 -0.4358 -0.2263
  111CHL1  H23A14460   2.506   1.854  14.933  0.9128 -0.2802 -2.5409
  111CHL1  H23B14461   2.663   1.948  14.994 -0.5050 -0.5311  0.4659
  111CHL1   C2414462   2.679   1.727  14.991 -0.1732  0.3604 -0.2233
  111CHL1  H24A14463   2.774   1.751  15.043  0.2822 -1.4752 -0.1047
  111CHL1  H24B14464   2.612   1.654  15.041  0.7515 -0.5196 -0.2443
  111CHL1   C2514465   2.703   1.683  14.847 -0.0629  0.3597  0.1333
  111CHL1   H2514466   2.757   1.586  14.852  0.6234  0.7128 -0.3295
  111CHL1   C2614467   2.568   1.654  14.784 -0.0398 -0.0476  0.2029
  111CHL1  H26A14468   2.508   1.747  14.773 -0.9222 -0.8173 -2.3202
  111CHL1  H26B14469   2.588   1.621  14.680 -1.7297 -1.3742  0.2414
  111CHL1  H26C14470   2.508   1.570  14.826 -0.2410 -1.0617 -1.9902
  111CHL1   C2714471   2.793   1.780  14.771  0.4803 -0.3633 -0.1047
  111CHL1  H27A14472   2.732   1.871  14.755  1.0796  0.0118 -0.2986
  111CHL1  H27B14473   2.884   1.810  14.827  0.5941  0.0725 -0.5107
  111CHL1  H27C14474   2.823   1.736  14.673 -2.6778  3.6938 -3.2489
  112CHL1    C314475   3.860   1.308  16.497  0.0162 -0.1410 -0.0336
  112CHL1    H314476   3.948   1.375  16.484 -1.2717  1.7063  0.4092
  112CHL1    O314477   3.835   1.303  16.635 -0.4977  0.8010 -0.0774
  112CHL1   H3'14478   3.762   1.242  16.649  0.6857 -0.4102  1.1948
  112CHL1    C414479   3.742   1.375  16.427  0.5498 -0.0182 -0.4784
  112CHL1   H4A14480   3.648   1.324  16.456  1.7936 -2.7383 -0.8671
  112CHL1   H4B14481   3.735   1.480  16.461 -0.9458 -0.6847  1.3950
  112CHL1    C514482   3.764   1.368  16.277  0.2568 -0.5664 -0.6662
  112CHL1    C614483   3.773   1.481  16.202 -0.2205  0.2154 -0.1686
  112CHL1    H614484   3.739   1.571  16.255 -2.3719 -0.7128  0.1225
  112CHL1    C714485   3.807   1.487  16.054  0.0556  0.2082 -0.5957
  112CHL1   H7A14486   3.749   1.562  15.996  0.7358  0.8916 -0.4037
  112CHL1   H7B14487   3.916   1.507  16.047  0.3453 -1.3677 -1.0520
  112CHL1    C814488   3.780   1.345  15.988  0.3927  0.4255 -0.0592
  112CHL1    H814489   3.669   1.342  15.985  0.4098  0.7939 -1.5868
  112CHL1   C1414490   3.841   1.341  15.848 -0.4199  1.3078 -0.0494
  112CHL1   H1414491   3.950   1.337  15.867 -0.6723 -1.6328  1.2585
  112CHL1   C1514492   3.815   1.456  15.754  0.3127  0.1367  0.2738
  112CHL1  H15A14493   3.716   1.492  15.788 -0.1335 -2.3075  1.7929
  112CHL1  H15B14494   3.888   1.537  15.777  1.9550 -1.6552  1.7926
  112CHL1   C1614495   3.824   1.398  15.613 -0.8146  0.2280 -0.3033
  112CHL1  H16A14496   3.721   1.404  15.572 -0.4733 -0.5644 -1.3406
  112CHL1  H16B14497   3.898   1.446  15.545 -0.2186  1.2311  1.0114
  112CHL1   C1714498   3.848   1.241  15.631  0.5473 -0.2045 -0.4278
  112CHL1   H1714499   3.959   1.242  15.642  0.5265  3.5661  1.2030
  112CHL1   C1314500   3.799   1.212  15.773  0.0629 -0.0683 -0.2258
  112CHL1   C1814501   3.641   1.194  15.772 -0.3851 -0.1569 -0.6490
  112CHL1  H18A14502   3.606   1.177  15.876 -1.4996 -0.3648 -1.0471
  112CHL1  H18B14503   3.590   1.282  15.729  0.1936 -0.1779 -1.4074
  112CHL1  H18C14504   3.614   1.107  15.708 -3.1709 -1.9084  2.5832
  112CHL1   C1214505   3.869   1.096  15.850  0.0790 -0.0851  0.2876
  112CHL1  H12A14506   3.864   1.002  15.791  1.0243  0.0960 -0.1066
  112CHL1  H12B14507   3.978   1.112  15.864  0.0823  3.0661 -2.3462
  112CHL1   C1114508   3.818   1.086  15.998 -0.2103  0.5505  0.1458
  112CHL1  H11A14509   3.712   1.054  15.985  0.7606 -1.4865 -4.5638
  112CHL1  H11B14510   3.872   1.013  16.062  1.1873  0.3662 -1.2046
  112CHL1    C914511   3.827   1.226  16.071  1.3707 -0.1464  1.0888
  112CHL1    H914512   3.935   1.247  16.060  1.2766  0.5401  1.4869
  112CHL1   C1014513   3.794   1.230  16.216 -0.5559  0.5899 -0.6815
  112CHL1   C1914514   3.670   1.139  16.246 -0.4278 -1.4751 -0.0962
  112CHL1  H19A14515   3.568   1.177  16.220  0.1842 -1.0417 -2.0454
  112CHL1  H19B14516   3.696   1.036  16.213  1.3900 -2.0698  2.8242
  112CHL1  H19C14517   3.656   1.134  16.356  0.5323 -1.9228  0.0115
  112CHL1    C114518   3.918   1.168  16.292 -0.4149 -0.3647 -0.9283
  112CHL1   H1A14519   3.950   1.068  16.258  2.1072  0.3684 -0.8801
  112CHL1   H1B14520   4.003   1.237  16.272  0.3747 -0.3105  2.2136
  112CHL1    C214521   3.894   1.169  16.442 -0.6086 -0.0664  0.0125
  112CHL1   H2A14522   3.988   1.130  16.486 -0.9937 -0.0716  0.8330
  112CHL1   H2B14523   3.817   1.095  16.471 -0.5303 -0.6678 -1.2290
  112CHL1   C2014524   3.803   1.155  15.509  0.5395 -0.0269  0.1737
  112CHL1   H2014525   3.693   1.162  15.496  0.6525 -0.7171 -1.5130
  112CHL1   C2114526   3.849   1.013  15.534 -0.1876 -0.6736  0.2519
  112CHL1  H21A14527   3.843   0.962  15.435  0.7731  1.4353 -0.9712
  112CHL1  H21B14528   3.778   0.959  15.600  1.5107 -1.8943  1.1315
  112CHL1  H21C14529   3.951   1.002  15.576 -0.2863 -1.3859  0.3081
  112CHL1   C2214530   3.854   1.209  15.376 -0.7550 -0.3068  0.2385
  112CHL1  H22A14531   3.809   1.309  15.355 -1.7144 -0.8668 -0.4488
  112CHL1  H22B14532   3.965   1.214  15.380 -0.7943  0.2462  0.7606
  112CHL1   C2314533   3.804   1.130  15.258 -0.2577  0.1162 -0.2675
  112CHL1  H23A14534   3.846   1.028  15.245  1.4397  0.8457 -0.7416
  112CHL1  H23B14535   3.694   1.116  15.261 -0.7253  2.7244 -2.1940
  112CHL1   C2414536   3.823   1.193  15.116  0.6874 -0.4945 -0.4209
  112CHL1  H24A14537   3.766   1.289  15.114  1.0387 -0.2979 -1.7380
  112CHL1  H24B14538   3.927   1.220  15.089  0.4419 -0.9682 -1.9339
  112CHL1   C2514539   3.770   1.124  14.981  0.0905  0.2417 -0.0964
  112CHL1   H2514540   3.664   1.092  14.992 -0.2675  0.0779 -3.1704
  112CHL1   C2614541   3.764   1.221  14.860 -0.8556 -0.4121  0.0838
  112CHL1  H26A14542   3.695   1.305  14.881 -0.4991 -0.5641  2.0941
  112CHL1  H26B14543   3.862   1.270  14.840 -2.9908  3.3246 -2.2038
  112CHL1  H26C14544   3.729   1.171  14.768 -1.5550  0.4406 -0.1252
  112CHL1   C2714545   3.855   1.001  14.944  0.2943 -0.2347  0.6928
  112CHL1  H27A14546   3.847   0.926  15.026  0.3854 -2.0354 -0.8651
  112CHL1  H27B14547   3.827   0.964  14.843  0.1007  0.5093  0.4743
  112CHL1  H27C14548   3.963   1.029  14.938  0.4375 -1.0256 -0.8513
  113CHL1    C314549   0.765   5.825  16.061 -0.3146 -0.3283  0.2000
  113CHL1    H314550   0.749   5.716  16.047  1.1719 -0.4240 -1.0974
  113CHL1    O314551   0.771   5.867  16.199 -0.1647  0.0212 -0.2344
  113CHL1   H3'14552   0.815   5.951  16.191 -0.7026  0.1781 -1.8335
  113CHL1    C414553   0.896   5.862  15.989 -0.2914  0.1973 -0.3732
  113CHL1   H4A14554   0.919   5.971  15.995 -1.0992  0.5670 -2.8975
  113CHL1   H4B14555   0.965   5.798  16.047  0.3768  0.6425 -0.6628
  113CHL1    C514556   0.897   5.821  15.849 -0.0025  0.4824  0.0281
  113CHL1    C614557   0.991   5.741  15.795 -0.6034  0.8562  0.0303
  113CHL1    H614558   1.074   5.695  15.850 -0.9077 -1.5001 -1.3174
  113CHL1    C714559   1.004   5.719  15.642  0.6548 -0.5617  0.2281
  113CHL1   H7A14560   1.104   5.751  15.607 -0.0047  2.0576  0.5350
  113CHL1   H7B14561   0.995   5.611  15.618  2.4816 -0.7638  0.3475
  113CHL1    C814562   0.901   5.798  15.560  0.5563  0.0262  0.4059
  113CHL1    H814563   0.947   5.899  15.552  0.8792 -0.2811 -2.6312
  113CHL1   C1414564   0.881   5.739  15.420 -0.0481 -0.8182 -0.0547
  113CHL1   H1414565   0.824   5.644  15.431 -2.1630  0.0806 -2.4022
  113CHL1   C1514566   1.004   5.699  15.334  0.2584  0.7919 -0.2518
  113CHL1  H15A14567   1.084   5.775  15.343 -0.9522  2.0222  0.4265
  113CHL1  H15B14568   1.047   5.606  15.378 -2.4305  0.1527  1.2150
  113CHL1   C1614569   0.948   5.701  15.193  0.1420 -0.2645 -0.1073
  113CHL1  H16A14570   0.998   5.784  15.138 -0.5642 -0.4233 -1.0251
  113CHL1  H16B14571   0.963   5.604  15.141  0.0171 -1.1510  1.4657
  113CHL1   C1714572   0.798   5.741  15.200 -0.1647 -0.3606  0.2509
  113CHL1   H1714573   0.743   5.648  15.227  1.0513 -0.9061  0.9450
  113CHL1   C1314574   0.793   5.826  15.329  0.2304 -0.2862 -0.1090
  113CHL1   C1814575   0.861   5.967  15.299 -0.0011  0.1856 -0.1357
  113CHL1  H18A14576   0.874   6.022  15.395 -0.2061 -1.9197  1.1832
  113CHL1  H18B14577   0.957   5.971  15.245 -0.5525  3.1857 -1.0643
  113CHL1  H18C14578   0.788   6.032  15.247  0.0446  0.7001  0.4321
  113CHL1   C1214579   0.653   5.836  15.400 -0.0882  0.2278 -0.5849
  113CHL1  H12A14580   0.576   5.890  15.340 -0.8496 -0.5285 -0.3147
  113CHL1  H12B14581   0.597   5.740  15.399 -1.0987  0.7984 -1.6832
  113CHL1   C1114582   0.660   5.890  15.548 -0.0385  0.0175  1.0149
  113CHL1  H11A14583   0.679   5.999  15.545  2.3326 -0.3676  0.1792
  113CHL1  H11B14584   0.557   5.872  15.585 -1.6746  1.1329 -2.5276
  113CHL1    C914585   0.771   5.819  15.630 -0.0450  0.3121 -0.4698
  113CHL1    H914586   0.727   5.719  15.652  1.6496 -0.4619 -0.4766
  113CHL1   C1014587   0.778   5.883  15.771 -0.7036  0.3597  0.8124
  113CHL1   C1914588   0.799   6.042  15.755 -0.2823  1.0479 -0.3003
  113CHL1  H19A14589   0.828   6.094  15.849 -0.8320 -0.7956  0.9455
  113CHL1  H19B14590   0.886   6.078  15.696 -1.0852  1.1514 -1.4437
  113CHL1  H19C14591   0.712   6.097  15.714 -0.9081  0.2033 -0.1410
  113CHL1    C114592   0.652   5.855  15.850 -0.1561  0.3142  0.6302
  113CHL1   H1A14593   0.569   5.899  15.791 -0.4703 -2.1232 -0.9017
  113CHL1   H1B14594   0.617   5.749  15.852  4.2789 -1.3912  0.2075
  113CHL1    C214595   0.650   5.899  15.996 -0.4331 -0.2711  0.8649
  113CHL1   H2A14596   0.552   5.886  16.048 -1.7887  1.1366 -1.1829
  113CHL1   H2B14597   0.666   6.009  15.998 -0.5384 -0.1710 -1.6670
  113CHL1   C2014598   0.726   5.797  15.066  0.1941 -0.1891  0.0990
  113CHL1   H2014599   0.717   5.908  15.068 -1.9174 -0.3327  1.9147
  113CHL1   C2114600   0.577   5.744  15.080  0.3264  0.5606  0.3182
  113CHL1  H21A14601   0.568   5.638  15.114  2.2229  0.6853  1.3545
  113CHL1  H21B14602   0.525   5.739  14.982  0.5692  0.4519  0.1941
  113CHL1  H21C14603   0.520   5.805  15.153 -0.2796  1.4550 -0.8623
  113CHL1   C2214604   0.792   5.725  14.944  0.4181 -0.3355  0.3050
  113CHL1  H22A14605   0.902   5.740  14.950  0.5481  1.4314 -3.6055
  113CHL1  H22B14606   0.786   5.614  14.948  0.9834 -0.3671  0.4442
  113CHL1   C2314607   0.743   5.771  14.802  1.0420  0.1909 -0.3529
  113CHL1  H23A14608   0.645   5.728  14.771 -0.0476  2.5639 -0.3675
  113CHL1  H23B14609   0.732   5.881  14.795  0.6454  0.1904  0.1657
  113CHL1   C2414610   0.827   5.709  14.688 -0.7694 -0.7788 -0.2212
  113CHL1  H24A14611   0.933   5.740  14.688 -0.6977 -1.0111 -0.6578
  113CHL1  H24B14612   0.822   5.599  14.708  0.4060 -0.7607  0.2144
  113CHL1   C2514613   0.775   5.740  14.547 -0.1330  0.1445  0.1786
  113CHL1   H2514614   0.668   5.711  14.537 -1.1988  3.2090  1.4385
  113CHL1   C2614615   0.803   5.884  14.525 -0.7077 -0.3906 -0.1314
  113CHL1  H26A14616   0.906   5.912  14.554 -1.6158  2.4338  0.6618
  113CHL1  H26B14617   0.791   5.905  14.417 -1.8258 -2.2993 -0.4202
  113CHL1  H26C14618   0.729   5.949  14.576  0.2788 -1.7216  3.2752
  113CHL1   C2714619   0.838   5.662  14.426 -0.6407  0.0156 -0.5564
  113CHL1  H27A14620   0.811   5.554  14.422  2.1133 -0.7813 -0.0935
  113CHL1  H27B14621   0.810   5.720  14.336  1.5892  0.7576 -0.8228
  113CHL1  H27C14622   0.946   5.683  14.438 -0.8864  1.2865 -0.4764
  114CHL1    C314623   3.289   6.331  16.378  0.4491  0.5541 -0.1451
  114CHL1    H314624   3.182   6.337  16.349  0.6593  1.9337 -0.7124
  114CHL1    O314625   3.311   6.320  16.520 -0.4698 -0.4370  0.0167
  114CHL1   H3'14626   3.259   6.393  16.554 -0.0538  0.8184 -1.8700
  114CHL1    C414627   3.350   6.205  16.296  0.5212  0.3136  0.0535
  114CHL1   H4A14628   3.451   6.177  16.333  0.1236 -2.7504 -0.9488
  114CHL1   H4B14629   3.288   6.117  16.324  1.5611 -0.9179 -1.3538
  114CHL1    C514630   3.350   6.222  16.145  0.5882 -0.1283  0.3119
  114CHL1    C614631   3.284   6.145  16.062  0.7551 -0.2387 -0.0287
  114CHL1    H614632   3.242   6.051  16.100  0.1432 -0.5556 -1.4412
  114CHL1    C714633   3.284   6.146  15.911  0.2884 -0.0036  0.2736
  114CHL1   H7A14634   3.315   6.047  15.871 -0.7201  0.5702 -2.0888
  114CHL1   H7B14635   3.182   6.160  15.870  0.4365  0.7287  0.1430
  114CHL1    C814636   3.377   6.259  15.861 -0.1466 -0.3100  0.8403
  114CHL1    H814637   3.480   6.217  15.864 -0.1751 -0.4549  0.0295
  114CHL1   C1414638   3.347   6.285  15.712 -0.6840  0.2647  0.2156
  114CHL1   H1414639   3.248   6.337  15.721  0.5745  2.9298 -0.1747
  114CHL1   C1514640   3.321   6.172  15.612 -0.0127  0.0594  0.2898
  114CHL1  H15A14641   3.403   6.098  15.628  0.5976  1.0293  1.9931
  114CHL1  H15B14642   3.224   6.125  15.638  0.3976 -0.2961  1.2175
  114CHL1   C1614643   3.330   6.245  15.472 -0.0528 -0.3526  0.3947
  114CHL1  H16A14644   3.414   6.195  15.420 -0.1308  0.6557 -0.7468
  114CHL1  H16B14645   3.232   6.237  15.419  2.7682 -1.7535 -5.4555
  114CHL1   C1714646   3.355   6.396  15.500 -0.8546 -0.7454  0.2620
  114CHL1   H1714647   3.254   6.440  15.509 -0.7616 -0.2721 -0.7739
  114CHL1   C1314648   3.420   6.396  15.642  0.3116 -0.1541 -0.1015
  114CHL1   C1814649   3.570   6.362  15.650  0.8924 -0.1109  0.0514
  114CHL1  H18A14650   3.595   6.268  15.597 -1.6147 -0.2814 -0.9777
  114CHL1  H18B14651   3.632   6.438  15.598  0.0693  1.4085  1.1990
  114CHL1  H18C14652   3.595   6.349  15.757 -0.4071  1.4805  0.5898
  114CHL1   C1214653   3.395   6.522  15.729 -0.1065  0.7039  0.0667
  114CHL1  H12A14654   3.448   6.604  15.678 -1.0543 -0.3918 -2.8651
  114CHL1  H12B14655   3.290   6.557  15.721 -0.9978 -1.2248  2.1525
  114CHL1   C1114656   3.431   6.510  15.881 -0.4356  0.5956 -0.0852
  114CHL1  H11A14657   3.541   6.500  15.888 -0.7272 -2.1393  2.3035
  114CHL1  H11B14658   3.400   6.602  15.935  0.0401  1.1292 -0.6992
  114CHL1    C914659   3.369   6.383  15.949 -0.5057 -0.1376 -0.1944
  114CHL1    H914660   3.261   6.410  15.950 -0.3153  0.6545  1.5933
  114CHL1   C1014661   3.410   6.356  16.095  0.7289 -0.2581 -0.0754
  114CHL1   C1914662   3.566   6.357  16.110 -0.1449 -0.0194  0.3714
  114CHL1  H19A14663   3.580   6.325  16.215 -2.4843 -2.3215  0.0896
  114CHL1  H19B14664   3.622   6.284  16.048 -1.7593 -0.6416 -0.3954
  114CHL1  H19C14665   3.607   6.460  16.100 -0.0450 -0.1732 -0.9637
  114CHL1    C114666   3.348   6.475  16.180  0.5814  0.7002  0.0513
  114CHL1   H1A14667   3.382   6.574  16.142  0.6485  0.2276 -1.1546
  114CHL1   H1B14668   3.237   6.486  16.170  0.9018  3.6082 -1.4310
  114CHL1    C214669   3.361   6.462  16.335 -0.5923  0.7421 -0.4090
  114CHL1   H2A14670   3.327   6.551  16.393 -2.3555 -0.2976  0.2298
  114CHL1   H2B14671   3.468   6.447  16.359 -0.5639  1.4978 -0.0306
  114CHL1   C2014672   3.430   6.469  15.385  0.0560 -0.1649  0.3248
  114CHL1   H2014673   3.536   6.437  15.398  0.4872  0.6035 -1.0908
  114CHL1   C2114674   3.433   6.620  15.399 -0.2144 -0.5143  0.5090
  114CHL1  H21A14675   3.520   6.640  15.464 -0.5585 -0.1042  0.8471
  114CHL1  H21B14676   3.335   6.656  15.438 -0.1768 -0.5128  0.6013
  114CHL1  H21C14677   3.447   6.672  15.301 -0.4681 -2.2539 -0.4952
  114CHL1   C2214678   3.387   6.427  15.238  0.5548  0.1791 -0.6136
  114CHL1  H22A14679   3.377   6.317  15.235 -2.9966  0.3859 -1.3030
  114CHL1  H22B14680   3.286   6.469  15.218  0.2293 -0.4124 -0.2191
  114CHL1   C2314681   3.481   6.478  15.131 -0.1967 -0.6630  0.0102
  114CHL1  H23A14682   3.466   6.586  15.110 -1.8227 -0.6535  1.0858
  114CHL1  H23B14683   3.585   6.462  15.165 -0.9616  0.2304  3.0442
  114CHL1   C2414684   3.459   6.405  15.002 -0.5592 -0.6428 -0.7148
  114CHL1  H24A14685   3.462   6.300  15.040  1.5712  0.8458  3.9236
  114CHL1  H24B14686   3.359   6.423  14.958 -1.4422 -1.0965  1.0342
  114CHL1   C2514687   3.558   6.433  14.887 -0.3668 -0.3392 -0.5594
  114CHL1   H2514688   3.554   6.544  14.887  1.4970 -0.2284 -0.0570
  114CHL1   C2614689   3.701   6.390  14.914  0.3775 -0.1325  0.3134
  114CHL1  H26A14690   3.734   6.442  15.007 -0.8717  0.2528  0.5542
  114CHL1  H26B14691   3.719   6.281  14.923  1.7530 -0.0136 -0.6760
  114CHL1  H26C14692   3.769   6.417  14.830  1.3404  0.7972  1.3500
  114CHL1   C2714693   3.499   6.378  14.753 -0.3316  0.2585 -0.2505
  114CHL1  H27A14694   3.560   6.408  14.664  0.7391  3.0469  1.2892
  114CHL1  H27B14695   3.516   6.268  14.755  3.6277  0.6969 -1.2849
  114CHL1  H27C14696   3.393   6.400  14.729  0.0212  0.6934 -1.5191
  115CHL1    C314697   1.339   2.424  16.432 -0.5367  0.0898 -0.3281
  115CHL1    H314698   1.327   2.531  16.404  2.0673  0.6638  0.4859
  115CHL1    O314699   1.348   2.406  16.574 -0.3170  0.2459  0.7254
  115CHL1   H3'14700   1.390   2.320  16.569  0.5406  0.6922 -0.3046
  115CHL1    C414701   1.223   2.343  16.386 -0.5023  0.9121 -0.4142
  115CHL1   H4A14702   1.233   2.238  16.419  0.2608  1.5446  1.5139
  115CHL1   H4B14703   1.132   2.390  16.429 -1.7909 -0.2453 -1.7813
  115CHL1    C514704   1.216   2.340  16.229  0.3715  0.6201 -0.6561
  115CHL1    C614705   1.109   2.385  16.167  0.0218 -0.7669 -0.0550
  115CHL1    H614706   1.015   2.404  16.221 -0.1890 -0.8110 -0.4015
  115CHL1    C714707   1.102   2.394  16.012 -0.0262  0.6155 -0.4731
  115CHL1   H7A14708   1.006   2.344  15.988 -0.2686  1.0555 -0.4251
  115CHL1   H7B14709   1.096   2.500  15.978  0.6988  0.3344 -1.5510
  115CHL1    C814710   1.207   2.313  15.936 -1.0090  0.1250 -0.4423
  115CHL1    H814711   1.178   2.206  15.939 -2.2297  0.4682  0.5961
  115CHL1   C1414712   1.210   2.358  15.793  0.1722  0.0519  0.5734
  115CHL1   H1414713   1.232   2.467  15.789 -1.0924  0.3034  0.1523
  115CHL1   C1514714   1.083   2.345  15.703 -0.6071 -0.6496 -0.4858
  115CHL1  H15A14715   1.051   2.240  15.718 -1.7296  0.0527  3.2586
  115CHL1  H15B14716   1.002   2.414  15.736  0.7494 -0.6664  3.4102
  115CHL1   C1614717   1.137   2.355  15.560 -0.0639 -0.9110 -0.2892
  115CHL1  H16A14718   1.094   2.272  15.500 -0.3719 -0.8392 -0.1713
  115CHL1  H16B14719   1.091   2.446  15.516 -0.7173 -1.1532 -0.1222
  115CHL1   C1714720   1.295   2.356  15.565 -0.0749 -0.4396  0.4436
  115CHL1   H1714721   1.326   2.462  15.568  1.2443 -0.7889 -0.0315
  115CHL1   C1314722   1.322   2.294  15.705 -0.2769  0.2512 -0.1308
  115CHL1   C1814723   1.312   2.139  15.701  0.8958 -0.7093 -0.4942
  115CHL1  H18A14724   1.327   2.106  15.806  0.3428  3.2952  1.0406
  115CHL1  H18B14725   1.218   2.097  15.661  0.6916  0.0982 -0.8980
  115CHL1  H18C14726   1.405   2.103  15.652  2.6076 -1.7577  3.1493
  115CHL1   C1214727   1.452   2.338  15.777  0.3624  0.4923 -0.8108
  115CHL1  H12A14728   1.540   2.293  15.726 -0.3973 -0.8602 -0.9914
  115CHL1  H12B14729   1.464   2.446  15.757  0.8243  0.1434 -2.6972
  115CHL1   C1114730   1.463   2.297  15.922  0.1971  0.0984 -1.0496
  115CHL1  H11A14731   1.461   2.186  15.930 -0.1088  0.0753 -1.4184
  115CHL1  H11B14732   1.563   2.328  15.960  0.8119 -1.7574 -1.0672
  115CHL1    C914733   1.345   2.342  16.007  0.4011  0.5063  0.3212
  115CHL1    H914734   1.350   2.453  16.007 -0.6888  0.5744  0.3164
  115CHL1   C1014735   1.347   2.299  16.156 -0.0527 -0.0306  0.7110
  115CHL1   C1914736   1.350   2.148  16.161  0.3882  0.1380  0.1956
  115CHL1  H19A14737   1.352   2.106  16.264 -0.0726 -1.3659 -0.3801
  115CHL1  H19B14738   1.272   2.087  16.111  1.5648 -0.5288 -0.8997
  115CHL1  H19C14739   1.440   2.106  16.112 -1.0117 -0.9176 -1.6177
  115CHL1    C114740   1.468   2.364  16.226  0.0647  0.2261  0.1597
  115CHL1   H1A14741   1.556   2.303  16.197 -1.2696 -1.1515 -1.1321
  115CHL1   H1B14742   1.467   2.469  16.191 -1.4805 -0.1479 -1.0101
  115CHL1    C214743   1.463   2.362  16.374  0.3972 -0.5208  0.0880
  115CHL1   H2A14744   1.544   2.425  16.415 -1.4605  1.3914  1.0328
  115CHL1   H2B14745   1.473   2.257  16.408  1.7271  0.2475  2.2596
  115CHL1   C2014746   1.358   2.281  15.444 -0.4057 -0.6858 -0.5361
  115CHL1   H2014747   1.340   2.172  15.457 -2.4058 -0.1654  1.8135
  115CHL1   C2114748   1.508   2.315  15.445 -0.1059 -0.4859 -0.2783
  115CHL1  H21A14749   1.526   2.422  15.422  0.5085 -0.4300  0.4352
  115CHL1  H21B14750   1.562   2.248  15.374  1.0084 -0.1135  0.2008
  115CHL1  H21C14751   1.559   2.298  15.542  1.2071  0.0236 -0.8561
  115CHL1   C2214752   1.288   2.339  15.314  0.3839  0.5892 -0.4130
  115CHL1  H22A14753   1.180   2.315  15.311  0.6325 -0.5028 -1.8953
  115CHL1  H22B14754   1.287   2.450  15.320  2.8725  0.7552 -1.7887
  115CHL1   C2314755   1.360   2.297  15.182 -0.0834  1.2378 -1.0898
  115CHL1  H23A14756   1.459   2.348  15.176  0.7743 -0.5066 -3.5819
  115CHL1  H23B14757   1.395   2.192  15.168  0.7076  1.5343 -1.4135
  115CHL1   C2414758   1.273   2.346  15.067  0.3707 -0.3777  0.2507
  115CHL1  H24A14759   1.169   2.308  15.075 -0.6135  2.5127  4.0581
  115CHL1  H24B14760   1.273   2.457  15.074  0.4682 -0.4581  1.6770
  115CHL1   C2514761   1.323   2.314  14.922  0.2549  0.4909  0.6544
  115CHL1   H2514762   1.331   2.203  14.911  0.0059  0.5698 -0.5112
  115CHL1   C2614763   1.219   2.363  14.820  0.1346 -0.6718  0.1145
  115CHL1  H26A14764   1.181   2.466  14.836 -0.8916 -0.9686 -0.3103
  115CHL1  H26B14765   1.251   2.360  14.714  0.1921  0.8442  0.0779
  115CHL1  H26C14766   1.132   2.294  14.833 -1.1307  0.8089 -0.1998
  115CHL1   C2714767   1.463   2.380  14.889  0.5793  0.1412 -1.4718
  115CHL1  H27A14768   1.495   2.351  14.786  1.3457  1.8548 -1.7435
  115CHL1  H27B14769   1.435   2.487  14.879  1.9458  0.6900  0.1324
  115CHL1  H27C14770   1.538   2.355  14.967 -0.3888  3.1223  0.6158
  116CHL1    C314771   3.375   1.823  16.532 -0.0857 -0.1109 -1.0471
  116CHL1    H314772   3.355   1.719  16.501  1.1274 -1.1240  1.3361
  116CHL1    O314773   3.362   1.814  16.669  0.1749 -1.6679  0.0912
  116CHL1   H3'14774   3.271   1.838  16.689  0.5368 -0.1274  0.0025
  116CHL1    C414775   3.522   1.870  16.499 -0.0185  0.2380  0.0580
  116CHL1   H4A14776   3.529   1.964  16.558 -1.9613  0.4482  0.0161
  116CHL1   H4B14777   3.599   1.799  16.536 -1.0764 -0.3629  1.1958
  116CHL1    C514778   3.536   1.886  16.350 -0.2841 -0.5153 -0.0664
  116CHL1    C614779   3.642   1.837  16.289  0.2879 -0.1189 -0.7761
  116CHL1    H614780   3.715   1.786  16.353 -1.3169  1.2397  2.3538
  116CHL1    C714781   3.672   1.848  16.146 -0.6386 -0.1534  0.1092
  116CHL1   H7A14782   3.779   1.877  16.137 -0.6809  0.3407  1.1090
  116CHL1   H7B14783   3.652   1.754  16.090  2.3392 -0.5474 -0.4702
  116CHL1    C814784   3.587   1.964  16.072 -0.5473 -0.2721 -1.0269
  116CHL1    H814785   3.634   2.060  16.101 -0.1898 -0.9200  0.6510
  116CHL1   C1414786   3.581   1.955  15.918 -0.0958  0.1957 -0.0031
  116CHL1   H1414787   3.527   1.861  15.895  0.3528  0.0896 -0.6844
  116CHL1   C1514788   3.717   1.951  15.851  0.0272 -0.2268  0.5247
  116CHL1  H15A14789   3.800   2.008  15.897  1.0028 -1.5713  0.5074
  116CHL1  H15B14790   3.759   1.847  15.854  1.1756  0.2375  1.3398
  116CHL1   C1614791   3.687   1.998  15.702  0.4162 -0.2617  0.1632
  116CHL1  H16A14792   3.749   2.084  15.670  0.2877 -1.0746 -2.6069
  116CHL1  H16B14793   3.717   1.920  15.628  0.1058 -0.1996 -0.0294
  116CHL1   C1714794   3.538   2.042  15.693 -0.1100  0.5481 -0.3874
  116CHL1   H1714795   3.487   1.951  15.655  0.9029  0.4943 -1.6866
  116CHL1   C1314796   3.500   2.064  15.842 -0.8577 -0.0619  0.3123
  116CHL1   C1814797   3.558   2.210  15.878  0.1364  0.1179 -0.1186
  116CHL1  H18A14798   3.496   2.285  15.825 -0.7794  0.5130  1.4358
  116CHL1  H18B14799   3.546   2.222  15.988  1.8011  1.7456 -0.0719
  116CHL1  H18C14800   3.664   2.228  15.850 -0.2693  3.4722  0.1406
  116CHL1   C1214801   3.353   2.054  15.892 -0.0290 -0.2717  0.2470
  116CHL1  H12A14802   3.293   2.136  15.848 -0.8964 -2.0428 -2.1075
  116CHL1  H12B14803   3.314   1.954  15.862  0.5680 -0.8534  1.3665
  116CHL1   C1114804   3.349   2.059  16.046 -0.2925  0.0544 -0.2213
  116CHL1  H11A14805   3.369   2.163  16.077  2.2496 -0.6969  0.8891
  116CHL1  H11B14806   3.241   2.038  16.066 -0.5009  0.1056 -1.2229
  116CHL1    C914807   3.443   1.962  16.125  0.5438  0.5091 -0.5361
  116CHL1    H914808   3.405   1.859  16.106  1.7955 -0.1185  0.2309
  116CHL1   C1014809   3.429   1.971  16.282 -0.3535 -0.2952  0.0853
  116CHL1   C1914810   3.451   2.118  16.325  0.2123  0.1572  0.4149
  116CHL1  H19A14811   3.444   2.137  16.435 -0.0298  3.1785 -0.0454
  116CHL1  H19B14812   3.550   2.155  16.292  0.0844 -0.5821 -0.8663
  116CHL1  H19C14813   3.366   2.175  16.282  0.0676 -0.1676  0.2762
  116CHL1    C114814   3.286   1.933  16.323 -0.8571  0.0361 -0.3513
  116CHL1   H1A14815   3.220   2.015  16.286 -0.2386  1.9658  2.5116
  116CHL1   H1B14816   3.268   1.836  16.272  1.7842 -0.3996 -0.6142
  116CHL1    C214817   3.263   1.914  16.468  0.3717  0.1397 -0.4219
  116CHL1   H2A14818   3.165   1.872  16.498  0.1533 -0.1546 -1.5054
  116CHL1   H2B14819   3.272   2.005  16.531  2.4804 -1.6647  2.0741
  116CHL1   C2014820   3.515   2.159  15.589 -0.0251  0.0409 -0.1448
  116CHL1   H2014821   3.570   2.249  15.623  1.3214 -1.2181  1.1716
  116CHL1   C2114822   3.366   2.178  15.561  0.0789 -0.2784  0.3908
  116CHL1  H21A14823   3.346   2.225  15.463 -1.7200 -1.9808 -0.1394
  116CHL1  H21B14824   3.308   2.230  15.640  0.0125 -0.2708  0.3380
  116CHL1  H21C14825   3.325   2.075  15.554 -0.9861  0.1092  0.7068
  116CHL1   C2214826   3.577   2.122  15.452 -0.1090  1.1485 -0.2198
  116CHL1  H22A14827   3.677   2.074  15.463 -0.8663 -0.3076  0.7393
  116CHL1  H22B14828   3.526   2.032  15.412  2.7006 -1.5240  1.7343
  116CHL1   C2314829   3.591   2.237  15.345 -0.0464  0.0164  0.3016
  116CHL1  H23A14830   3.500   2.299  15.330  1.3731  1.8977 -1.1583
  116CHL1  H23B14831   3.655   2.314  15.394  0.0235  0.7047 -0.8311
  116CHL1   C2414832   3.644   2.197  15.208  0.4882 -0.0360  0.0442
  116CHL1  H24A14833   3.679   2.281  15.145  1.7931 -2.2986 -2.4438
  116CHL1  H24B14834   3.734   2.134  15.221  1.5599  1.3125 -0.5753
  116CHL1   C2514835   3.549   2.106  15.126  0.4002 -0.5412  0.4596
  116CHL1   H2514836   3.518   2.019  15.188  0.7673 -1.5872 -0.8078
  116CHL1   C2614837   3.415   2.181  15.102  0.0172 -0.4975 -0.4723
  116CHL1  H26A14838   3.359   2.143  15.014 -1.5003 -1.3968  0.8132
  116CHL1  H26B14839   3.350   2.177  15.192  0.9888 -1.5452  0.2198
  116CHL1  H26C14840   3.429   2.290  15.088 -0.8628 -0.4546 -1.1168
  116CHL1   C2714841   3.600   2.050  14.995  0.1233  0.0718 -0.6491
  116CHL1  H27A14842   3.678   1.974  15.015 -2.1302 -1.2679  4.7396
  116CHL1  H27B14843   3.521   1.999  14.937  0.7713  1.3024 -2.7444
  116CHL1  H27C14844   3.634   2.136  14.933 -0.7218  1.8865  1.2592
  117CHL1    C314845   5.445   6.107  16.344 -0.0784 -0.0386  0.5757
  117CHL1    H314846   5.519   6.040  16.296  0.4233 -0.6511  2.1325
  117CHL1    O314847   5.455   6.074  16.482 -0.7521 -0.4092  0.4657
  117CHL1   H3'14848   5.416   6.144  16.535 -0.6048 -0.9335  1.2739
  117CHL1    C414849   5.458   6.254  16.312 -0.2252  0.5356 -0.2180
  117CHL1   H4A14850   5.382   6.306  16.374  0.9082  0.1534  1.5709
  117CHL1   H4B14851   5.556   6.285  16.354  0.2637 -0.3369 -0.6887
  117CHL1    C514852   5.432   6.285  16.162 -0.1681  0.4902 -0.6676
  117CHL1    C614853   5.523   6.335  16.081  0.5074  1.0858 -0.0658
  117CHL1    H614854   5.625   6.355  16.118  0.2027 -0.0187  1.4407
  117CHL1    C714855   5.492   6.372  15.939 -0.8013 -0.2342  0.3322
  117CHL1   H7A14856   5.528   6.476  15.928  0.8950 -0.9212 -1.0862
  117CHL1   H7B14857   5.551   6.305  15.873  1.6432  2.1103 -0.0196
  117CHL1    C814858   5.349   6.371  15.891 -0.3389 -0.4583 -0.0810
  117CHL1    H814859   5.305   6.463  15.934  0.9787  0.8318 -1.3598
  117CHL1   C1414860   5.339   6.363  15.749  0.2143  0.0210 -0.5767
  117CHL1   H1414861   5.393   6.269  15.725  0.2690  0.2055 -1.1915
  117CHL1   C1514862   5.427   6.454  15.654  0.0564 -0.0981  0.1721
  117CHL1  H15A14863   5.413   6.558  15.690  0.1436 -0.1567  0.3784
  117CHL1  H15B14864   5.533   6.420  15.659  0.3701  0.9509  1.1487
  117CHL1   C1614865   5.360   6.450  15.519  0.1683  0.4495 -0.3166
  117CHL1  H16A14866   5.328   6.554  15.500 -0.3893  0.4687  0.6746
  117CHL1  H16B14867   5.419   6.407  15.434  1.5033 -0.3678  0.9697
  117CHL1   C1714868   5.226   6.367  15.541  0.9885 -0.0470 -0.1752
  117CHL1   H1714869   5.263   6.266  15.515 -0.1418 -0.5374  0.0463
  117CHL1   C1314870   5.197   6.361  15.691  0.4792 -0.6989  0.6679
  117CHL1   C1814871   5.105   6.487  15.727 -0.0505 -0.0800  0.8207
  117CHL1  H18A14872   5.086   6.498  15.836 -1.9123 -1.3693  0.6698
  117CHL1  H18B14873   5.144   6.587  15.701 -1.9574  0.6018  0.4221
  117CHL1  H18C14874   5.010   6.488  15.670  0.1415  0.8245  0.5035
  117CHL1   C1214875   5.128   6.236  15.742 -0.1551  0.0735  0.6196
  117CHL1  H12A14876   5.022   6.222  15.712  0.6045  0.0737 -2.3939
  117CHL1  H12B14877   5.183   6.153  15.695  2.1276  2.7621 -1.8204
  117CHL1   C1114878   5.139   6.227  15.893  0.6577 -0.6032 -0.0044
  117CHL1  H11A14879   5.081   6.313  15.932 -0.0842 -1.1658  0.1442
  117CHL1  H11B14880   5.098   6.130  15.930  0.6780 -1.5422 -2.2519
  117CHL1    C914881   5.285   6.247  15.951  0.0675 -0.1783 -0.0036
  117CHL1    H914882   5.350   6.164  15.916  2.6053  0.3767  2.9158
  117CHL1   C1014883   5.290   6.239  16.108 -0.7087  0.3747 -0.3291
  117CHL1   C1914884   5.173   6.329  16.171  0.1479  0.2075 -0.4786
  117CHL1  H19A14885   5.179   6.340  16.281 -1.7400  0.3385 -0.3586
  117CHL1  H19B14886   5.170   6.431  16.127 -4.4510  0.0877 -0.9533
  117CHL1  H19C14887   5.074   6.287  16.145  0.6787 -2.0258  0.8345
  117CHL1    C114888   5.274   6.091  16.153 -0.1540  0.3609  0.2053
  117CHL1   H1A14889   5.170   6.063  16.125  0.4774 -0.4211 -1.5271
  117CHL1   H1B14890   5.334   6.023  16.088 -0.2348  0.2369  0.2601
  117CHL1    C214891   5.305   6.058  16.301 -0.0064  0.8139 -0.1006
  117CHL1   H2A14892   5.286   5.951  16.321  0.0484  0.1921 -2.8803
  117CHL1   H2B14893   5.230   6.122  16.353  1.8565  2.3765  0.8000
  117CHL1   C2014894   5.115   6.396  15.438  0.3306 -0.3678  0.5056
  117CHL1   H2014895   5.087   6.503  15.445 -0.7128 -0.5856 -0.2245
  117CHL1   C2114896   4.997   6.305  15.460  0.0927 -0.1228 -0.1261
  117CHL1  H21A14897   4.930   6.300  15.371  1.5786 -2.1529 -1.2046
  117CHL1  H21B14898   4.938   6.337  15.549 -0.1030 -0.6579 -0.0571
  117CHL1  H21C14899   5.030   6.200  15.477 -0.1410  0.2140  2.9745
  117CHL1   C2214900   5.159   6.383  15.284 -0.7068  0.5753  0.1355
  117CHL1  H22A14901   5.097   6.457  15.229  0.5879  1.5465 -0.0721
  117CHL1  H22B14902   5.265   6.418  15.285 -0.5954  0.6587  4.3758
  117CHL1   C2314903   5.134   6.245  15.223 -0.4357 -0.0552 -0.7236
  117CHL1  H23A14904   5.173   6.170  15.296 -0.7969  0.2253 -0.2418
  117CHL1  H23B14905   5.025   6.239  15.207 -0.7224  2.8864 -0.4130
  117CHL1   C2414906   5.198   6.207  15.084  0.2814  0.1041 -0.0931
  117CHL1  H24A14907   5.304   6.237  15.099  0.2963 -0.6627  1.4528
  117CHL1  H24B14908   5.188   6.097  15.072 -0.0896  0.2518 -1.3087
  117CHL1   C2514909   5.139   6.278  14.963  0.2674 -0.0459 -0.0033
  117CHL1   H2514910   5.110   6.380  14.997  0.3871 -0.5299  1.6046
  117CHL1   C2614911   5.244   6.298  14.849 -0.8343 -0.0677  0.6439
  117CHL1  H26A14912   5.282   6.196  14.830 -0.1695 -0.3217  3.0777
  117CHL1  H26B14913   5.189   6.342  14.762 -0.4384 -1.4652 -0.3365
  117CHL1  H26C14914   5.330   6.360  14.881 -0.7226  0.6865 -1.0211
  117CHL1   C2714915   5.020   6.196  14.891  0.1935 -0.3362 -0.3416
  117CHL1  H27A14916   5.048   6.095  14.855 -1.6957 -0.3515 -1.9097
  117CHL1  H27B14917   4.929   6.193  14.954 -0.8713  0.2745 -1.7929
  117CHL1  H27C14918   4.981   6.257  14.807 -0.2538  0.3527  0.3523
  118CHL1    C314919   6.617   2.652  15.934 -0.4551 -0.0874  0.6355
  118CHL1    H314920   6.573   2.553  15.959  1.1191 -0.7808  0.8237
  118CHL1    O314921   6.674   2.710  16.052 -0.0347  1.0335 -0.3549
  118CHL1   H3'14922   6.706   2.796  16.025 -0.2372  1.1700 -0.1629
  118CHL1    C414923   6.730   2.622  15.830 -0.6142  0.9962  0.8371
  118CHL1   H4A14924   6.802   2.706  15.838 -0.0382  0.5096  0.8257
  118CHL1   H4B14925   6.784   2.533  15.869  0.2413  1.6381  1.1728
  118CHL1    C514926   6.680   2.604  15.692 -0.4709 -0.5772 -0.1925
  118CHL1    C614927   6.723   2.504  15.619 -0.6594 -0.0917 -0.2220
  118CHL1    H614928   6.804   2.441  15.660  0.4231  0.9232 -0.7430
  118CHL1    C714929   6.683   2.480  15.475 -0.1056  0.0319  0.6341
  118CHL1   H7A14930   6.770   2.454  15.410 -1.9418 -0.8905 -1.6392
  118CHL1   H7B14931   6.611   2.396  15.466  2.1780 -2.1047  1.0472
  118CHL1    C814932   6.624   2.610  15.410  0.8279 -0.1348  0.0562
  118CHL1    H814933   6.704   2.687  15.414  0.1564  0.8398 -2.7881
  118CHL1   C1414934   6.568   2.598  15.267 -0.1035  0.0207  0.2218
  118CHL1   H1414935   6.491   2.519  15.282  1.2650 -0.9341  3.0501
  118CHL1   C1514936   6.666   2.547  15.160 -0.1221 -0.3784 -0.0475
  118CHL1  H15A14937   6.752   2.617  15.174  0.7029 -0.6826 -2.9523
  118CHL1  H15B14938   6.687   2.440  15.176 -0.4988 -0.4166  0.1960
  118CHL1   C1614939   6.596   2.581  15.028  0.1217  0.7149 -0.1601
  118CHL1  H16A14940   6.672   2.640  14.973 -0.7831  2.3155  0.2508
  118CHL1  H16B14941   6.566   2.488  14.975  0.3107  0.5518  0.0151
  118CHL1   C1714942   6.474   2.672  15.057  0.0155 -0.0296 -0.6689
  118CHL1   H1714943   6.386   2.604  15.067 -0.2371  0.6199  3.2264
  118CHL1   C1314944   6.499   2.719  15.204  0.5670 -0.1980 -0.2066
  118CHL1   C1814945   6.587   2.849  15.205  0.5156 -0.0958  0.0852
  118CHL1  H18A14946   6.524   2.933  15.168  0.5381 -0.5193 -0.9517
  118CHL1  H18B14947   6.630   2.886  15.301  1.0193 -0.4555 -0.0002
  118CHL1  H18C14948   6.667   2.837  15.129 -0.8155 -3.5684 -0.9388
  118CHL1   C1214949   6.371   2.742  15.294  0.1760 -1.0536 -1.1187
  118CHL1  H12A14950   6.312   2.832  15.266  0.0345 -0.7928 -0.0438
  118CHL1  H12B14951   6.305   2.653  15.291  1.1935 -2.2693  3.5941
  118CHL1   C1114952   6.418   2.777  15.435  0.2509  0.7507 -0.1972
  118CHL1  H11A14953   6.452   2.882  15.427 -1.1853  1.3142  0.6653
  118CHL1  H11B14954   6.335   2.780  15.509  1.2581 -0.9923  1.0722
  118CHL1    C914955   6.513   2.668  15.500 -0.5542 -0.5070 -0.3947
  118CHL1    H914956   6.443   2.584  15.516 -0.5862 -0.7269 -1.5466
  118CHL1   C1014957   6.577   2.709  15.643  0.1273  0.2151 -0.5792
  118CHL1   C1914958   6.642   2.858  15.639 -0.0106  0.3999 -0.1358
  118CHL1  H19A14959   6.568   2.941  15.642  0.6689  0.9937  1.3954
  118CHL1  H19B14960   6.707   2.881  15.727 -1.6302  1.4514  0.8587
  118CHL1  H19C14961   6.703   2.870  15.548 -0.9202 -0.8949 -0.9458
  118CHL1    C114962   6.468   2.701  15.751 -0.1708  0.5515 -0.6011
  118CHL1   H1A14963   6.378   2.762  15.726 -0.9693 -0.2471  0.2124
  118CHL1   H1B14964   6.434   2.596  15.766  1.9083 -0.1056 -0.1657
  118CHL1    C214965   6.512   2.746  15.885  0.1369  0.2690  0.2386
  118CHL1   H2A14966   6.433   2.750  15.963 -0.2414  2.3485 -0.2098
  118CHL1   H2B14967   6.555   2.848  15.880  1.5155 -0.3631 -2.7044
  118CHL1   C2014968   6.451   2.776  14.955 -0.3659 -0.1251  0.5156
  118CHL1   H2014969   6.535   2.846  14.967 -0.0582 -0.1305 -1.3252
  118CHL1   C2114970   6.323   2.867  14.974  0.3444  0.0357 -0.2342
  118CHL1  H21A14971   6.331   2.934  15.062 -1.0486  1.1957 -0.9505
  118CHL1  H21B14972   6.230   2.806  14.980  0.9685 -0.9411 -0.1337
  118CHL1  H21C14973   6.320   2.939  14.890  0.6738  2.4946  1.7446
  118CHL1   C2214974   6.473   2.721  14.807  1.0127 -0.5573  0.0459
  118CHL1  H22A14975   6.582   2.709  14.787  0.9529 -3.2220  0.9585
  118CHL1  H22B14976   6.419   2.624  14.801 -0.5007  0.2900 -0.6354
  118CHL1   C2314977   6.412   2.822  14.708  0.1339 -0.0596 -0.2335
  118CHL1  H23A14978   6.301   2.813  14.712  0.2315 -1.0292  1.1905
  118CHL1  H23B14979   6.445   2.925  14.735  1.4467 -1.1160  2.6515
  118CHL1   C2414980   6.451   2.789  14.562  0.1625 -0.2336  0.2953
  118CHL1  H24A14981   6.561   2.793  14.546 -0.3005  1.0815 -3.4262
  118CHL1  H24B14982   6.409   2.690  14.533 -2.1115  0.2308  1.6984
  118CHL1   C2514983   6.409   2.881  14.443 -0.1493  0.5927 -0.8243
  118CHL1   H2514984   6.429   2.984  14.481  1.0034  0.2659 -0.5149
  118CHL1   C2614985   6.485   2.848  14.313  0.2830 -1.2682 -0.5645
  118CHL1  H26A14986   6.491   2.740  14.288  0.6966 -1.5656  0.7471
  118CHL1  H26B14987   6.426   2.894  14.230 -0.5525 -1.3598 -0.0420
  118CHL1  H26C14988   6.588   2.889  14.306 -0.3830  0.2621 -2.5763
  118CHL1   C2714989   6.260   2.872  14.417 -0.6323  0.1993  0.2960
  118CHL1  H27A14990   6.231   2.785  14.355 -0.4696  0.4042 -0.0777
  118CHL1  H27B14991   6.200   2.873  14.510  0.2861 -1.1388  0.9253
  118CHL1  H27C14992   6.237   2.958  14.349 -1.0508  0.7790  1.1528
  119CHL1    C314993   0.211   2.044  15.581 -0.5703  0.4395 -0.4239
  119CHL1    H314994   0.316   2.008  15.572 -0.6715 -0.0930  0.4419
  119CHL1    O314995   0.178   2.049  15.718 -0.4497 -0.2831  0.2180
  119CHL1   H3'14996   0.094   2.093  15.732 -0.1952 -0.0690  1.1641
  119CHL1    C414997   0.219   2.185  15.514 -0.3324  0.0390 -0.1150
  119CHL1   H4A14998   0.125   2.238  15.541  0.8228  1.4981  1.2225
  119CHL1   H4B14999   0.297   2.247  15.563  0.7475  0.2599 -2.0380
  119CHL1    C515000   0.228   2.183  15.365  0.6567 -0.1585 -0.0839
  119CHL1    C615001   0.327   2.251  15.298 -0.3954  0.4837 -0.0699
  119CHL1    H615002   0.404   2.301  15.360 -2.0968  0.8022  1.8916
  119CHL1    C715003   0.351   2.242  15.152 -0.9748 -0.1742  0.4210
  119CHL1   H7A15004   0.384   2.339  15.111  0.5929 -1.2828 -1.1054
  119CHL1   H7B15005   0.435   2.175  15.124 -0.5684  0.9581 -1.1552
  119CHL1    C815006   0.228   2.203  15.073  0.8044 -0.3246 -0.4997
  119CHL1    H815007   0.154   2.286  15.072  0.4338 -0.6468 -1.7138
  119CHL1   C1415008   0.269   2.166  14.927  0.8982 -1.3902 -0.2314
  119CHL1   H1415009   0.338   2.081  14.946  1.2556 -0.7257  1.6881
  119CHL1   C1515010   0.349   2.276  14.854  0.2965 -0.3682 -0.0145
  119CHL1  H15A15011   0.282   2.365  14.860 -0.4534 -0.9373  0.2115
  119CHL1  H15B15012   0.451   2.297  14.891  0.7248  0.2304 -1.4619
  119CHL1   C1615013   0.346   2.225  14.705  0.4235 -0.9472 -0.2427
  119CHL1  H16A15014   0.346   2.316  14.642  1.2372 -0.6964  0.1112
  119CHL1  H16B15015   0.447   2.181  14.688  1.9976  1.8151  1.2077
  119CHL1   C1715016   0.233   2.122  14.698 -0.9231 -0.3305 -0.4675
  119CHL1   H1715017   0.282   2.023  14.701 -1.9782 -0.8550  1.5970
  119CHL1   C1315018   0.153   2.132  14.838 -0.0187 -0.5842  0.2596
  119CHL1   C1815019   0.043   2.244  14.834 -0.3693  0.9097  0.4500
  119CHL1  H18A15020  -0.034   2.216  14.760  1.5449 -2.7362 -0.3835
  119CHL1  H18B15021  -0.003   2.268  14.933 -1.2378  2.4991 -0.3032
  119CHL1  H18C15022   0.081   2.338  14.789 -0.1625  0.7362  0.2599
  119CHL1   C1215023   0.088   2.007  14.900  1.1498  0.6981  0.1464
  119CHL1  H12A15024   0.001   1.993  14.833  1.1522 -2.8024  0.7223
  119CHL1  H12B15025   0.155   1.918  14.899  1.0593  0.6361 -0.4158
  119CHL1   C1115026   0.050   2.014  15.049  0.1107  0.1009  0.4366
  119CHL1  H11A15027  -0.039   2.081  15.049 -0.4040 -0.5639  0.1100
  119CHL1  H11B15028   0.013   1.916  15.084 -0.1783 -0.5379 -1.5254
  119CHL1    C915029   0.162   2.079  15.137  0.7489  0.8188 -0.1626
  119CHL1    H915030   0.247   2.007  15.137  0.8711  0.9592 -1.0220
  119CHL1   C1015031   0.126   2.096  15.296  0.4233  0.1741 -0.0778
  119CHL1   C1915032  -0.021   2.146  15.319  0.4867  0.4044  0.2138
  119CHL1  H19A15033  -0.060   2.144  15.423 -1.0347  0.0271 -0.3310
  119CHL1  H19B15034  -0.038   2.248  15.279 -2.8249  0.5355  1.6483
  119CHL1  H19C15035  -0.086   2.082  15.255  1.9059 -0.6171 -0.2645
  119CHL1    C115036   0.130   1.957  15.360  0.3082  0.0598 -0.0354
  119CHL1   H1A15037   0.049   1.899  15.311  0.4442 -0.9746  0.9278
  119CHL1   H1B15038   0.224   1.901  15.340  1.0711  1.0539  0.7189
  119CHL1    C215039   0.110   1.956  15.509  0.3763  0.0134 -0.0342
  119CHL1   H2A15040   0.122   1.851  15.545 -1.3237 -0.0063  0.5538
  119CHL1   H2B15041   0.006   1.965  15.546 -0.1532  0.2613 -1.4912
  119CHL1   C2015042   0.154   2.127  14.566 -0.0921 -0.5341 -0.0605
  119CHL1   H2015043   0.078   2.205  14.586 -2.5923 -2.5004 -1.2033
  119CHL1   C2115044   0.070   1.998  14.559 -0.0462  0.0462  0.4063
  119CHL1  H21A15045  -0.005   2.007  14.641  0.1379 -3.0462  1.0254
  119CHL1  H21B15046   0.134   1.912  14.589 -1.5537 -1.0364  0.6466
  119CHL1  H21C15047   0.018   1.979  14.463 -1.0528  1.7793  0.5704
  119CHL1   C2215048   0.219   2.159  14.434 -0.2918 -0.5217 -0.8436
  119CHL1  H22A15049   0.162   2.121  14.346 -0.4048 -1.3333 -0.4268
  119CHL1  H22B15050   0.225   2.270  14.421  0.3573 -0.5508 -0.8009
  119CHL1   C2315051   0.353   2.087  14.408  0.5483 -0.3973 -0.1264
  119CHL1  H23A15052   0.417   2.120  14.493 -0.4328 -1.8473  1.2133
  119CHL1  H23B15053   0.342   1.977  14.409  0.6406 -0.4026  0.6525
  119CHL1   C2415054   0.422   2.122  14.280 -0.2657  0.4890  0.1109
  119CHL1  H24A15055   0.358   2.087  14.196 -0.0169  0.0052  0.1189
  119CHL1  H24B15056   0.411   2.232  14.267  0.7870  0.4430 -1.4130
  119CHL1   C2515057   0.565   2.063  14.272 -0.1340 -0.2973  0.0051
  119CHL1   H2515058   0.553   1.954  14.290 -0.3032 -0.5974 -1.7796
  119CHL1   C2615059   0.625   2.099  14.135 -0.3778  0.5912  0.1128
  119CHL1  H26A15060   0.632   2.210  14.130  1.7663  0.5029 -0.1312
  119CHL1  H26B15061   0.728   2.057  14.123 -0.3137  1.2935 -2.2243
  119CHL1  H26C15062   0.562   2.061  14.053 -0.0227  0.9662 -0.3395
  119CHL1   C2715063   0.656   2.126  14.378 -0.2145 -0.3057  0.4678
  119CHL1  H27A15064   0.670   2.235  14.368 -0.3163 -0.4009 -0.9212
  119CHL1  H27B15065   0.627   2.103  14.483 -1.0532  0.0262  0.3195
  119CHL1  H27C15066   0.746   2.062  14.368  0.4497  0.4563  1.4177
  120CHL1    C315067   0.058   1.150  15.504  0.6335 -0.2619  0.5100
  120CHL1    H315068   0.141   1.211  15.462 -1.0804  1.5529 -0.3772
  120CHL1    O315069   0.027   1.196  15.635 -0.4450  0.5455 -0.8904
  120CHL1   H3'15070  -0.014   1.121  15.679 -0.3297  0.5164 -0.8303
  120CHL1    C415071  -0.072   1.156  15.419 -0.3914  0.2512 -0.3121
  120CHL1   H4A15072  -0.141   1.087  15.471  1.2292 -1.8078 -0.7478
  120CHL1   H4B15073  -0.111   1.260  15.426 -0.0653  0.5683 -2.4122
  120CHL1    C515074  -0.043   1.112  15.275  0.1262 -0.3477 -0.3737
  120CHL1    C615075  -0.070   1.199  15.180  0.3294 -0.2339 -0.1448
  120CHL1    H615076  -0.110   1.298  15.206 -1.7940 -0.7632 -1.1772
  120CHL1    C715077  -0.059   1.177  15.033 -0.0706 -0.5045 -0.7779
  120CHL1   H7A15078  -0.154   1.204  14.983 -0.1107 -0.4700 -0.6829
  120CHL1   H7B15079   0.026   1.237  14.993  0.2369 -0.6116 -0.2878
  120CHL1    C815080  -0.029   1.028  15.006 -0.1532  0.3795  0.0447
  120CHL1    H815081  -0.128   0.978  15.018 -1.5910  2.5950 -1.7130
  120CHL1   C1415082   0.032   1.014  14.869  0.3232 -0.2200  0.3252
  120CHL1   H1415083   0.124   1.075  14.860  0.4702 -0.5261 -0.3438
  120CHL1   C1515084  -0.046   1.064  14.743 -0.2299  0.3537 -0.7363
  120CHL1  H15A15085  -0.146   1.017  14.754  0.9144 -1.9347  0.7789
  120CHL1  H15B15086  -0.061   1.174  14.744 -1.1903  0.3198  2.7793
  120CHL1   C1615087   0.019   0.996  14.619  0.2444  0.4977 -1.0090
  120CHL1  H16A15088  -0.056   0.922  14.583  2.0754 -1.8393 -0.2548
  120CHL1  H16B15089   0.053   1.068  14.541  1.6526  0.6940 -0.2411
  120CHL1   C1715090   0.132   0.903  14.685  0.4005 -0.2899 -0.0929
  120CHL1   H1715091   0.218   0.972  14.685  0.3599 -0.2266 -0.7262
  120CHL1   C1315092   0.081   0.876  14.829 -0.0371 -0.2273 -0.2380
  120CHL1   C1815093  -0.036   0.777  14.834  0.8508 -0.0358 -0.0183
  120CHL1  H18A15094  -0.078   0.768  14.937 -0.0123  3.1647  0.0384
  120CHL1  H18B15095  -0.117   0.818  14.770  2.1287  0.3854 -1.4061
  120CHL1  H18C15096  -0.020   0.674  14.796  0.9962 -0.0343  0.0378
  120CHL1   C1215097   0.186   0.820  14.921  0.4314 -0.8450 -0.5638
  120CHL1  H12A15098   0.211   0.712  14.913 -1.1968 -1.2293 -0.8659
  120CHL1  H12B15099   0.285   0.869  14.910  1.1083 -1.9514  0.3436
  120CHL1   C1115100   0.144   0.832  15.073  0.4430  0.9917  0.4929
  120CHL1  H11A15101   0.067   0.755  15.097  1.5180 -0.2587  0.0915
  120CHL1  H11B15102   0.229   0.802  15.137  0.1381 -0.3748  0.2929
  120CHL1    C915103   0.070   0.964  15.111 -0.0671 -0.1292  0.4837
  120CHL1    H915104   0.153   1.038  15.107 -0.1750 -0.0701 -2.1315
  120CHL1   C1015105   0.024   0.970  15.257  0.3694 -0.5896 -0.4569
  120CHL1   C1915106  -0.078   0.863  15.278 -0.0042 -0.9701 -0.6413
  120CHL1  H19A15107  -0.151   0.861  15.194 -0.2331  0.0203 -0.4801
  120CHL1  H19B15108  -0.026   0.765  15.274  0.7296 -0.6947  1.1858
  120CHL1  H19C15109  -0.117   0.872  15.381  1.8733  1.2733 -0.0420
  120CHL1    C115110   0.143   0.953  15.358 -0.2987 -0.7012 -0.1571
  120CHL1   H1A15111   0.190   0.853  15.350  0.4857 -0.2165 -2.2165
  120CHL1   H1B15112   0.222   1.026  15.331 -1.8656  1.9088  1.7696
  120CHL1    C215113   0.106   0.995  15.505 -0.0339 -0.4783 -0.0168
  120CHL1   H2A15114   0.190   0.991  15.577  0.8244  1.0682 -0.8929
  120CHL1   H2B15115   0.024   0.928  15.539 -0.0789  0.7296  2.4089
  120CHL1   C2015116   0.178   0.790  14.600  0.4990 -0.2590 -0.1135
  120CHL1   H2015117   0.115   0.703  14.626  0.3530 -0.0295  0.3188
  120CHL1   C2115118   0.326   0.749  14.640  0.0785  0.6073  0.2920
  120CHL1  H21A15119   0.322   0.728  14.749  0.9235 -3.3928 -0.3075
  120CHL1  H21B15120   0.395   0.827  14.601 -0.6000  0.8674 -0.4234
  120CHL1  H21C15121   0.345   0.652  14.589 -1.9769  0.5984 -0.5252
  120CHL1   C2215122   0.167   0.814  14.452  0.0683  0.0743 -0.0087
  120CHL1  H22A15123   0.062   0.842  14.428  0.1641  0.6312  0.2056
  120CHL1  H22B15124   0.232   0.900  14.427 -1.5594  0.7950 -1.9845
  120CHL1   C2315125   0.208   0.709  14.353  0.1905  0.5427  0.3775
  120CHL1  H23A15126   0.202   0.745  14.248 -0.6354 -1.5675 -0.3426
  120CHL1  H23B15127   0.312   0.679  14.376  0.3215  0.8305  0.1623
  120CHL1   C2415128   0.114   0.586  14.369 -0.3044 -0.2025 -0.6104
  120CHL1  H24A15129   0.094   0.555  14.474  0.5210  1.5071  0.0925
  120CHL1  H24B15130   0.020   0.616  14.318 -0.4593 -1.2166 -0.9285
  120CHL1   C2515131   0.153   0.466  14.293  0.1842  0.5390 -0.3537
  120CHL1   H2515132   0.189   0.510  14.197 -0.4871  2.6899  0.3081
  120CHL1   C2615133   0.272   0.397  14.361  0.2810  0.5012 -0.3171
  120CHL1  H26A15134   0.316   0.321  14.293  0.7403 -1.2448  1.8174
  120CHL1  H26B15135   0.350   0.471  14.391 -0.4860  1.6970 -1.2143
  120CHL1  H26C15136   0.236   0.333  14.444 -0.2098  0.5194 -0.5156
  120CHL1   C2715137   0.040   0.372  14.270 -0.3452  0.1359  0.7401
  120CHL1  H27A15138  -0.035   0.426  14.209  1.8990 -1.0541 -3.4745
  120CHL1  H27B15139   0.065   0.284  14.207 -1.5710 -1.6049  2.5317
  120CHL1  H27C15140  -0.004   0.330  14.363 -0.1272 -1.0592  0.3252
  121CHL1    C315141   4.967   4.163  12.714  0.4285  0.3033  0.0213
  121CHL1    H315142   4.883   4.106  12.760  1.6582 -0.4278  1.4480
  121CHL1    O315143   4.953   4.183  12.570 -0.3412 -0.2124 -0.0731
  121CHL1   H3'15144   4.859   4.198  12.555 -0.3992 -2.0701 -1.9510
  121CHL1    C415145   4.972   4.302  12.781  0.3720  0.5131 -0.4996
  121CHL1   H4A15146   5.047   4.367  12.730  1.4808  0.8471  1.4549
  121CHL1   H4B15147   4.870   4.339  12.758 -0.2598  0.3504  1.7635
  121CHL1    C515148   5.000   4.289  12.931  0.2936 -0.3541 -1.3393
  121CHL1    C615149   4.923   4.354  13.022 -0.1143  0.5741  0.5219
  121CHL1    H615150   4.833   4.402  12.981 -0.6367 -0.9333 -0.1693
  121CHL1    C715151   4.955   4.363  13.168 -0.4850  0.5779 -0.6790
  121CHL1   H7A15152   4.950   4.469  13.201  0.8547  1.1891 -2.3299
  121CHL1   H7B15153   4.880   4.304  13.225  1.6137 -0.2542  1.3427
  121CHL1    C815154   5.090   4.297  13.196  0.5069 -0.2636 -0.5800
  121CHL1    H815155   5.170   4.372  13.179 -1.9833  2.2257 -2.3777
  121CHL1   C1415156   5.089   4.274  13.350  0.2692  0.8470  0.5875
  121CHL1   H1415157   5.013   4.196  13.374  0.1177  0.8913  0.2578
  121CHL1   C1515158   5.066   4.382  13.453  0.1531 -0.6500  0.4071
  121CHL1  H15A15159   5.133   4.468  13.432  0.9792 -1.6131 -1.0461
  121CHL1  H15B15160   4.962   4.421  13.445 -0.2486 -2.0728 -2.4350
  121CHL1   C1615161   5.115   4.323  13.587  0.4006 -0.4494  0.3133
  121CHL1  H16A15162   5.191   4.392  13.628  1.1248  0.3138 -2.1432
  121CHL1  H16B15163   5.021   4.325  13.647 -0.0518  1.0676 -0.4040
  121CHL1   C1715164   5.179   4.181  13.553  0.6331 -0.5632  1.0881
  121CHL1   H1715165   5.109   4.095  13.560 -1.7188  1.2183  0.5918
  121CHL1   C1315166   5.217   4.202  13.399  0.1744 -0.4194  0.2043
  121CHL1   C1815167   5.343   4.288  13.382 -0.6835  0.6066  0.5138
  121CHL1  H18A15168   5.360   4.312  13.275  0.0934 -0.1221  0.4557
  121CHL1  H18B15169   5.334   4.381  13.443 -1.1014  0.5207  0.5808
  121CHL1  H18C15170   5.437   4.240  13.418  0.2968 -0.2398 -2.7945
  121CHL1   C1215171   5.225   4.068  13.323 -0.4824  0.2893  0.1730
  121CHL1  H12A15172   5.315   4.011  13.354  0.1239  1.3303  0.3941
  121CHL1  H12B15173   5.138   4.001  13.337  0.6930 -1.3088  0.0925
  121CHL1   C1115174   5.233   4.084  13.170 -0.9093  0.0186  0.3633
  121CHL1  H11A15175   5.333   4.129  13.153 -0.5730  1.0021  4.0406
  121CHL1  H11B15176   5.233   3.981  13.130 -3.0878  0.4767 -0.9588
  121CHL1    C915177   5.114   4.171  13.119 -0.4355  0.1276  0.3642
  121CHL1    H915178   5.025   4.107  13.136 -1.9385  2.0242  0.0008
  121CHL1   C1015179   5.122   4.204  12.968 -0.2865  1.3420  0.0502
  121CHL1   C1915180   5.257   4.279  12.939  0.9312  0.3512 -0.7243
  121CHL1  H19A15181   5.342   4.211  12.964  0.8714 -0.1466 -1.8132
  121CHL1  H19B15182   5.264   4.292  12.829 -2.9318 -3.1413 -1.6490
  121CHL1  H19C15183   5.265   4.369  13.003 -0.6543 -1.3209  2.0728
  121CHL1    C115184   5.115   4.077  12.890 -0.7421  0.5298 -0.0671
  121CHL1   H1A15185   5.201   4.008  12.904 -2.2621 -2.0012 -2.2997
  121CHL1   H1B15186   5.028   4.023  12.933  0.2249  1.2777  3.0952
  121CHL1    C215187   5.096   4.095  12.737  0.0926  0.2264  0.3396
  121CHL1   H2A15188   5.091   3.995  12.688 -1.9448  0.8299 -0.7941
  121CHL1   H2B15189   5.179   4.154  12.695 -1.1881  1.2359 -0.8590
  121CHL1   C2015190   5.290   4.152  13.659 -0.1879  0.6527 -0.0431
  121CHL1   H2015191   5.363   4.235  13.657  1.2117 -0.5606 -0.9831
  121CHL1   C2115192   5.366   4.024  13.629  0.3514  0.3629 -0.2285
  121CHL1  H21A15193   5.299   3.942  13.596 -0.2390  0.9173 -0.4278
  121CHL1  H21B15194   5.420   3.991  13.721  2.5289  1.1580 -1.1659
  121CHL1  H21C15195   5.447   4.039  13.555  0.9337 -2.6005 -0.3320
  121CHL1   C2215196   5.232   4.153  13.801 -0.1710 -0.6332  0.0661
  121CHL1  H22A15197   5.152   4.230  13.805  0.7704  0.6657 -2.8909
  121CHL1  H22B15198   5.178   4.058  13.819 -0.6228 -0.3628  0.1533
  121CHL1   C2315199   5.337   4.176  13.914 -0.0899 -0.2181  0.3145
  121CHL1  H23A15200   5.389   4.079  13.932  1.5811  0.6886  0.5578
  121CHL1  H23B15201   5.406   4.258  13.887 -1.2519  1.0543  1.0254
  121CHL1   C2415202   5.258   4.208  14.049 -0.2843  0.1706  0.6267
  121CHL1  H24A15203   5.205   4.304  14.027 -0.6937 -0.8788 -3.9132
  121CHL1  H24B15204   5.177   4.136  14.073 -0.9116  1.1790  1.6564
  121CHL1   C2515205   5.348   4.206  14.170  0.3983 -0.0342  0.5530
  121CHL1   H2515206   5.286   4.233  14.258 -0.6969  1.8240 -0.7037
  121CHL1   C2615207   5.409   4.073  14.200 -0.5720  0.4294 -0.1926
  121CHL1  H26A15208   5.330   3.997  14.221 -1.6603  1.3078 -0.9755
  121CHL1  H26B15209   5.467   4.026  14.118 -0.0709  0.4296  0.1584
  121CHL1  H26C15210   5.470   4.070  14.293 -0.6014  0.3108 -0.1768
  121CHL1   C2715211   5.450   4.324  14.157  0.4764 -0.4281 -0.0379
  121CHL1  H27A15212   5.392   4.409  14.114  1.7226  0.5772  0.2111
  121CHL1  H27B15213   5.491   4.342  14.258 -1.1540  1.9781  0.2715
  121CHL1  H27C15214   5.522   4.297  14.076  0.0790 -0.9238 -0.2307
  122CHL1    C315215   3.716   4.593  13.544 -0.3711  0.0190  0.0955
  122CHL1    H315216   3.753   4.696  13.526  0.2593 -0.3785 -0.9880
  122CHL1    O315217   3.737   4.519  13.422  0.1881 -0.6574 -0.0645
  122CHL1   H3'15218   3.750   4.428  13.452  0.5324 -0.7722 -0.5472
  122CHL1    C415219   3.800   4.524  13.653  0.2431 -0.1732  0.5292
  122CHL1   H4A15220   3.779   4.415  13.666  1.1090 -0.7142 -2.1381
  122CHL1   H4B15221   3.909   4.523  13.633  0.7789 -1.1913  3.0048
  122CHL1    C515222   3.778   4.586  13.785  0.4212  0.3506 -0.3043
  122CHL1    C615223   3.873   4.646  13.861  0.3946 -0.2659  0.2488
  122CHL1    H615224   3.974   4.653  13.818 -0.0150  0.9012 -0.5790
  122CHL1    C715225   3.853   4.713  13.990 -0.0554 -0.1979  0.7221
  122CHL1   H7A15226   3.939   4.694  14.057  0.8755  1.2862 -0.0021
  122CHL1   H7B15227   3.837   4.820  13.966 -2.1871 -1.3383 -4.0152
  122CHL1    C815228   3.724   4.646  14.056  0.9002 -0.6357 -0.4834
  122CHL1    H815229   3.753   4.543  14.086 -0.6771 -0.9166  0.2042
  122CHL1   C1415230   3.699   4.724  14.187  0.1415  0.2290 -0.3267
  122CHL1   H1415231   3.672   4.825  14.151 -0.5894  2.2387  4.8877
  122CHL1   C1515232   3.821   4.756  14.280 -0.2528 -0.0904  0.5266
  122CHL1  H15A15233   3.906   4.685  14.275 -0.5897 -0.5136  0.7594
  122CHL1  H15B15234   3.858   4.854  14.241  1.2361 -0.5199  0.7825
  122CHL1   C1615235   3.760   4.752  14.421  0.2881 -0.0693 -0.1060
  122CHL1  H16A15236   3.788   4.659  14.475  2.7727  0.1342 -0.9151
  122CHL1  H16B15237   3.796   4.837  14.484  0.1088  0.3054 -0.5004
  122CHL1   C1715238   3.609   4.760  14.401  0.7148  0.1135  0.2176
  122CHL1   H1715239   3.596   4.869  14.382 -0.1156  0.1808  1.0818
  122CHL1   C1315240   3.583   4.673  14.271 -0.8351 -0.9960 -0.0027
  122CHL1   C1815241   3.600   4.528  14.304  0.8262 -0.0182  0.3910
  122CHL1  H18A15242   3.695   4.511  14.359  1.6214  2.1492 -0.2109
  122CHL1  H18B15243   3.511   4.494  14.360 -0.2171 -0.5853 -1.5148
  122CHL1  H18C15244   3.605   4.470  14.209 -1.5586 -1.6095  1.1338
  122CHL1   C1215245   3.456   4.702  14.190  0.0510  0.5358  0.2248
  122CHL1  H12A15246   3.362   4.662  14.236 -0.7677  0.9801 -1.0000
  122CHL1  H12B15247   3.458   4.811  14.170  1.1169  0.5038  0.1297
  122CHL1   C1115248   3.470   4.622  14.053  0.1285 -0.1985  0.0491
  122CHL1  H11A15249   3.440   4.517  14.071  0.2372 -0.5344 -1.6174
  122CHL1  H11B15250   3.388   4.669  13.994  2.1118  1.8361 -1.2318
  122CHL1    C915251   3.600   4.654  13.970  0.1429 -0.0900  0.3136
  122CHL1    H915252   3.601   4.760  13.939  3.4370  0.3544  1.5508
  122CHL1   C1015253   3.624   4.580  13.835  0.1487 -0.3522 -0.0665
  122CHL1   C1915254   3.580   4.433  13.862  0.0485 -0.4868 -0.1076
  122CHL1  H19A15255   3.600   4.404  13.968  0.3330  0.5142  0.1207
  122CHL1  H19B15256   3.476   4.412  13.829 -0.5507  0.4944  1.0898
  122CHL1  H19C15257   3.640   4.360  13.803  0.2452  1.1940 -2.0983
  122CHL1    C115258   3.540   4.647  13.724  0.0432 -0.1737  0.1326
  122CHL1   H1A15259   3.433   4.635  13.751 -0.5731  1.8134 -1.1648
  122CHL1   H1B15260   3.559   4.756  13.712 -0.3583 -0.4317 -5.1272
  122CHL1    C215261   3.569   4.591  13.588  0.1215  0.0787 -0.0843
  122CHL1   H2A15262   3.526   4.646  13.502  3.1205 -0.9669 -2.4357
  122CHL1   H2B15263   3.529   4.488  13.581  1.2700 -0.3133 -1.2660
  122CHL1   C2015264   3.528   4.724  14.522 -0.7606 -0.5339 -0.2630
  122CHL1   H2015265   3.543   4.616  14.543  0.3486 -0.1433  1.0925
  122CHL1   C2115266   3.378   4.752  14.518 -0.3114  0.1159 -0.0402
  122CHL1  H21A15267   3.318   4.683  14.455 -5.0760  2.5556  1.4025
  122CHL1  H21B15268   3.370   4.855  14.477  0.8568 -0.1723 -1.0807
  122CHL1  H21C15269   3.338   4.742  14.621 -0.4673 -0.6638 -0.1675
  122CHL1   C2215270   3.582   4.802  14.655 -0.1125  0.0502  0.6120
  122CHL1  H22A15271   3.511   4.780  14.738  0.0513 -1.5210  0.3622
  122CHL1  H22B15272   3.678   4.750  14.674 -0.6493 -0.8092  1.0237
  122CHL1   C2315273   3.599   4.958  14.644  0.3018  0.0041 -0.6801
  122CHL1  H23A15274   3.675   4.978  14.566  0.0607 -1.4918 -1.3331
  122CHL1  H23B15275   3.503   5.002  14.610  0.0597  0.5492  0.6237
  122CHL1   C2415276   3.636   5.034  14.780  1.0807 -0.2013  0.3061
  122CHL1  H24A15277   3.723   4.979  14.822  1.2627 -0.4452 -0.3887
  122CHL1  H24B15278   3.656   5.140  14.754  0.2068 -0.5819 -2.1394
  122CHL1   C2515279   3.534   5.030  14.891  0.7565 -0.6358 -0.4923
  122CHL1   H2515280   3.511   4.925  14.920 -0.7284 -0.0893  0.4349
  122CHL1   C2615281   3.589   5.108  15.013  0.3906  0.0376 -0.5339
  122CHL1  H26A15282   3.594   5.218  15.005 -1.0419  0.2267  0.7073
  122CHL1  H26B15283   3.512   5.085  15.090  0.1946 -0.8685 -0.9854
  122CHL1  H26C15284   3.685   5.064  15.048  1.1217  0.6704 -1.6942
  122CHL1   C2715285   3.406   5.099  14.841 -0.2656  0.0065 -0.1762
  122CHL1  H27A15286   3.432   5.200  14.801 -1.5520  0.8266  0.9902
  122CHL1  H27B15287   3.350   5.049  14.759 -0.2488 -0.1519 -0.0916
  122CHL1  H27C15288   3.331   5.105  14.922  0.3771 -0.4431  0.4584
  123CHL1    C315289   5.338   3.121  12.820  0.1218 -0.1211 -0.7841
  123CHL1    H315290   5.310   3.014  12.818  0.6541 -0.2488 -1.7394
  123CHL1    O315291   5.363   3.175  12.688 -0.4002  0.3566 -0.3124
  123CHL1   H3'15292   5.436   3.122  12.655 -2.2106 -1.3225 -1.8858
  123CHL1    C415293   5.228   3.201  12.875 -0.0515  1.0759 -0.7059
  123CHL1   H4A15294   5.244   3.311  12.878 -0.3332  1.1045  1.6432
  123CHL1   H4B15295   5.141   3.181  12.808 -0.8791 -2.6517  1.1954
  123CHL1    C515296   5.194   3.155  13.016 -0.0443 -0.1220 -0.2840
  123CHL1    C615297   5.073   3.097  13.035  0.3795  0.2170  0.1176
  123CHL1    H615298   5.003   3.076  12.953  0.8886  0.4696 -0.3895
  123CHL1    C715299   5.037   3.052  13.175 -0.4420  0.1763 -0.3620
  123CHL1   H7A15300   4.931   3.073  13.205  0.1713 -0.6039  2.7612
  123CHL1   H7B15301   5.040   2.942  13.182  1.2974  0.2734  1.1193
  123CHL1    C815302   5.131   3.111  13.287  0.9168 -0.1426  0.0650
  123CHL1    H815303   5.096   3.215  13.303  0.1880 -0.1392 -1.3844
  123CHL1   C1415304   5.118   3.035  13.424  0.4539 -0.3615 -0.1399
  123CHL1   H1415305   5.159   2.934  13.402 -0.4892 -1.0169  1.0229
  123CHL1   C1515306   4.978   3.004  13.487  0.0843 -0.7448 -0.5314
  123CHL1  H15A15307   4.930   3.104  13.488 -0.3908 -0.9679  0.7676
  123CHL1  H15B15308   4.929   2.922  13.430 -0.6479 -0.6618 -0.0247
  123CHL1   C1615309   5.003   2.969  13.632 -0.0853 -0.2699  1.1473
  123CHL1  H16A15310   4.947   3.041  13.695  0.8019  0.4854  1.0926
  123CHL1  H16B15311   4.983   2.861  13.648  2.0120 -1.2167 -1.7841
  123CHL1   C1715312   5.150   3.011  13.654 -0.5899  0.4237 -0.3976
  123CHL1   H1715313   5.197   2.911  13.647 -3.0958 -0.7741 -1.0844
  123CHL1   C1315314   5.199   3.101  13.539  0.8472 -0.3158  0.0101
  123CHL1   C1815315   5.177   3.248  13.559  0.0816  0.0664 -0.7829
  123CHL1  H18A15316   5.071   3.242  13.589  1.0047  2.0336  3.7361
  123CHL1  H18B15317   5.219   3.286  13.655 -0.2222  0.9117 -0.9817
  123CHL1  H18C15318   5.211   3.308  13.472  2.9857  2.0690  1.5331
  123CHL1   C1215319   5.350   3.089  13.504  0.6929  0.0264 -0.0429
  123CHL1  H12A15320   5.429   3.127  13.572  1.2788 -4.0049  1.8412
  123CHL1  H12B15321   5.366   2.979  13.507 -0.5874 -0.1847 -0.2791
  123CHL1   C1115322   5.380   3.152  13.362  0.1336 -0.8024  0.0376
  123CHL1  H11A15323   5.378   3.261  13.385 -0.8079 -0.0776 -3.0524
  123CHL1  H11B15324   5.480   3.126  13.322 -0.0011 -0.0372 -0.8353
  123CHL1    C915325   5.278   3.109  13.251 -0.8628 -0.3342 -0.1617
  123CHL1    H915326   5.297   3.000  13.242 -0.1612 -0.1036 -1.8932
  123CHL1   C1015327   5.310   3.181  13.115  0.3500  0.5031  0.1272
  123CHL1   C1915328   5.324   3.330  13.133 -0.0460 -0.3820  0.0903
  123CHL1  H19A15329   5.317   3.390  13.039  0.8250 -1.7191 -0.8548
  123CHL1  H19B15330   5.234   3.363  13.190 -2.4195 -0.4542 -3.2980
  123CHL1  H19C15331   5.420   3.355  13.182 -0.8604  0.3160  1.3808
  123CHL1    C115332   5.442   3.118  13.054  0.4593 -0.0050 -0.4138
  123CHL1   H1A15333   5.517   3.151  13.128 -2.1250 -0.6451  2.6917
  123CHL1   H1B15334   5.421   3.011  13.076 -0.3402  0.4593  1.2397
  123CHL1    C215335   5.466   3.143  12.904  0.0963  0.4707  0.2987
  123CHL1   H2A15336   5.549   3.088  12.856 -1.5803  0.4579 -2.8493
  123CHL1   H2B15337   5.490   3.251  12.895 -1.5740  0.8656  0.2093
  123CHL1   C2015338   5.181   3.060  13.795 -0.6693 -0.3781 -0.0177
  123CHL1   H2015339   5.140   3.162  13.814 -1.4082 -0.1425 -2.4333
  123CHL1   C2115340   5.343   3.067  13.824 -0.1024  0.0645  0.6609
  123CHL1  H21A15341   5.387   3.154  13.770 -1.2644  0.5500  0.4750
  123CHL1  H21B15342   5.403   2.973  13.821  1.8315  1.2504 -1.9733
  123CHL1  H21C15343   5.354   3.090  13.932  0.2237  0.1213  0.6156
  123CHL1   C2215344   5.113   2.979  13.917 -0.4077 -0.4937 -0.4652
  123CHL1  H22A15345   5.007   2.959  13.891 -0.8823 -0.3374  1.2173
  123CHL1  H22B15346   5.171   2.886  13.933  2.2001  1.3114  1.4666
  123CHL1   C2315347   5.102   3.059  14.053 -0.1896  0.4730  0.5402
  123CHL1  H23A15348   5.195   3.118  14.068  0.5798 -0.7114  0.6455
  123CHL1  H23B15349   5.022   3.135  14.041  0.4477  0.9195 -1.3013
  123CHL1   C2415350   5.072   2.967  14.177  0.4527 -0.1218  0.1228
  123CHL1  H24A15351   4.973   2.919  14.159 -0.0819  1.4727 -1.4307
  123CHL1  H24B15352   5.140   2.880  14.166  0.6460  0.2266 -1.7226
  123CHL1   C2515353   5.079   3.031  14.317  0.4929 -0.2790 -0.2672
  123CHL1   H2515354   5.032   3.131  14.312  1.1478 -0.0164 -1.5503
  123CHL1   C2615355   5.017   2.943  14.426 -0.7405 -0.7125 -0.2405
  123CHL1  H26A15356   5.097   2.869  14.442  1.9251  2.1015  0.3873
  123CHL1  H26B15357   5.008   3.000  14.521 -0.3504  1.1759 -1.2868
  123CHL1  H26C15358   4.917   2.902  14.399 -1.1300 -1.5356  2.2601
  123CHL1   C2715359   5.228   3.055  14.357  0.4126  0.3764 -0.1913
  123CHL1  H27A15360   5.236   3.106  14.455  2.4502  0.4742 -0.3719
  123CHL1  H27B15361   5.289   2.963  14.366  0.2708  0.4295  1.8293
  123CHL1  H27C15362   5.293   3.119  14.294  2.9291 -1.6875  0.1239
  124CHL1    C315363   4.999   5.443  12.247 -0.0701  0.4185  0.4530
  124CHL1    H315364   5.041   5.356  12.302  0.9201 -0.4493 -1.5576
  124CHL1    O315365   4.989   5.420  12.109 -0.5085 -0.2717  0.7822
  124CHL1   H3'15366   5.076   5.387  12.085 -0.1640  1.9830 -1.6165
  124CHL1    C415367   4.867   5.495  12.304  0.5922 -0.1506 -0.0914
  124CHL1   H4A15368   4.848   5.587  12.245  2.4393  0.8993  0.8605
  124CHL1   H4B15369   4.780   5.429  12.286 -0.2659  0.9802 -0.1855
  124CHL1    C515370   4.878   5.528  12.452  0.0059 -0.1273  0.0924
  124CHL1    C615371   4.801   5.463  12.540  0.2796  0.6409 -0.3645
  124CHL1    H615372   4.733   5.387  12.498  1.5637 -0.4388 -0.5913
  124CHL1    C715373   4.810   5.479  12.689  0.8282 -0.2173 -0.1553
  124CHL1   H7A15374   4.716   5.481  12.747  1.1636 -2.3912  0.5580
  124CHL1   H7B15375   4.866   5.390  12.723  0.1661 -0.3750  0.5433
  124CHL1    C815376   4.892   5.608  12.727 -0.4121 -0.2532 -0.5879
  124CHL1    H815377   4.837   5.702  12.704  2.2773  1.8306  0.8591
  124CHL1   C1415378   4.924   5.595  12.873  0.5999  0.8245  0.6103
  124CHL1   H1415379   4.984   5.502  12.885  2.3247  1.8898  0.5886
  124CHL1   C1515380   4.802   5.565  12.966 -0.7495  0.1849 -0.2689
  124CHL1  H15A15381   4.722   5.633  12.931  0.9761  2.8553  0.6119
  124CHL1  H15B15382   4.770   5.459  12.961  1.3741 -0.5689  0.9133
  124CHL1   C1615383   4.849   5.610  13.103  0.6648 -0.0476 -0.8835
  124CHL1  H16A15384   4.793   5.697  13.143 -0.2795 -0.5025 -1.2001
  124CHL1  H16B15385   4.848   5.539  13.188 -0.4147  0.2499 -0.6341
  124CHL1   C1715386   5.002   5.661  13.087  0.0529 -0.0611 -0.1075
  124CHL1   H1715387   5.064   5.570  13.100  1.6655  0.9241 -0.6781
  124CHL1   C1315388   5.001   5.704  12.935 -0.0870  0.6616  0.3126
  124CHL1   C1815389   4.930   5.838  12.914 -0.1685  0.6950 -0.1714
  124CHL1  H18A15390   4.984   5.919  12.968 -0.7029  0.5832  0.5364
  124CHL1  H18B15391   4.933   5.873  12.808 -0.2834  0.6064 -0.2039
  124CHL1  H18C15392   4.822   5.841  12.939 -0.8340  0.2686 -2.7313
  124CHL1   C1215393   5.136   5.710  12.857 -0.1058  0.3683  0.0898
  124CHL1  H12A15394   5.202   5.796  12.883  0.6756  0.0258 -0.7111
  124CHL1  H12B15395   5.190   5.616  12.880 -1.3954  0.0359  1.9843
  124CHL1   C1115396   5.117   5.715  12.704 -0.2371  0.2442  0.0407
  124CHL1  H11A15397   5.082   5.818  12.687  0.1223  0.1403 -1.4934
  124CHL1  H11B15398   5.216   5.717  12.652  0.4758  0.0178  1.3388
  124CHL1    C915399   5.020   5.610  12.648 -0.0450  0.0302  0.0501
  124CHL1    H915400   5.073   5.514  12.667  0.1559  0.1176 -0.0719
  124CHL1   C1015401   4.993   5.624  12.495  0.2060 -0.2272 -0.3394
  124CHL1   C1915402   4.944   5.767  12.456  0.0614  1.0322  0.2125
  124CHL1  H19A15403   4.859   5.814  12.510  0.1190  0.5490  0.7412
  124CHL1  H19B15404   5.033   5.830  12.475  0.9937 -0.1723 -0.0638
  124CHL1  H19C15405   4.922   5.766  12.347 -2.5235  0.9469  0.6704
  124CHL1    C115406   5.120   5.577  12.414  0.2299  0.5856  0.2854
  124CHL1   H1A15407   5.197   5.658  12.421 -0.8807  2.3047 -4.1134
  124CHL1   H1B15408   5.163   5.487  12.463 -0.3804 -1.1731 -2.2279
  124CHL1    C215409   5.099   5.553  12.267  0.2651  0.1218  0.3703
  124CHL1   H2A15410   5.196   5.522  12.222 -0.8223 -0.4803 -1.6673
  124CHL1   H2B15411   5.081   5.646  12.210 -1.4498 -1.7209 -2.3163
  124CHL1   C2015412   5.044   5.760  13.188  0.8342 -0.5099 -0.0124
  124CHL1   H2015413   4.981   5.851  13.179  0.4221 -0.6596  1.1695
  124CHL1   C2115414   5.190   5.802  13.163  0.2411  0.6650  0.1507
  124CHL1  H21A15415   5.228   5.848  13.257  0.0859 -0.3632  0.7433
  124CHL1  H21B15416   5.187   5.878  13.083 -1.6190  1.2008  0.6799
  124CHL1  H21C15417   5.260   5.720  13.137  0.7219  0.0038  3.1029
  124CHL1   C2215418   5.027   5.714  13.334 -0.5870  0.8245 -0.0876
  124CHL1  H22A15419   5.020   5.806  13.396  0.5756  1.5921 -1.0567
  124CHL1  H22B15420   4.929   5.662  13.347 -0.2521  0.7552  2.5530
  124CHL1   C2315421   5.128   5.622  13.390 -0.5859  0.5036  0.6659
  124CHL1  H23A15422   5.139   5.543  13.313 -1.3052  1.4279 -0.4304
  124CHL1  H23B15423   5.231   5.660  13.407 -0.4939  0.8234 -0.4962
  124CHL1   C2415424   5.070   5.549  13.511 -0.2677  0.2661 -1.0781
  124CHL1  H24A15425   4.962   5.523  13.503 -0.8411  2.0670  0.2552
  124CHL1  H24B15426   5.135   5.460  13.521  0.3375  0.8847  0.8590
  124CHL1   C2515427   5.057   5.614  13.654 -0.3790 -0.7780  0.6120
  124CHL1   H2515428   5.000   5.709  13.646  1.1605  0.2035  0.9049
  124CHL1   C2615429   4.996   5.527  13.763  0.1243  0.1561  1.2031
  124CHL1  H26A15430   4.998   5.569  13.865  0.0243  1.6919  0.5932
  124CHL1  H26B15431   4.891   5.506  13.733  0.2455  1.2486 -0.1091
  124CHL1  H26C15432   5.039   5.425  13.763  2.0737  0.9316  0.1634
  124CHL1   C2715433   5.187   5.679  13.694 -0.2242  0.1583 -0.7754
  124CHL1  H27A15434   5.237   5.742  13.618  0.9522  2.9004  2.0366
  124CHL1  H27B15435   5.171   5.755  13.774  0.2004  0.3148 -0.8374
  124CHL1  H27C15436   5.258   5.603  13.733 -0.5443  0.5291  0.6014
  125CHL1    C315437   4.819   5.106  13.260  0.3283 -0.6609 -0.0650
  125CHL1    H315438   4.926   5.128  13.241  0.0174  1.3843  0.2674
  125CHL1    O315439   4.743   5.137  13.146 -0.0006  0.4716 -0.4756
  125CHL1   H3'15440   4.800   5.183  13.084  1.5922  2.2165  2.0866
  125CHL1    C415441   4.808   4.954  13.286 -0.0997  0.1275  1.1634
  125CHL1   H4A15442   4.701   4.924  13.289 -0.0104 -0.2471  0.7818
  125CHL1   H4B15443   4.845   4.899  13.197  1.9775  0.1244  1.9736
  125CHL1    C515444   4.867   4.916  13.417  0.0773  0.3781  0.3584
  125CHL1    C615445   4.954   4.816  13.411  0.5195 -0.5190 -0.5979
  125CHL1    H615446   4.972   4.783  13.308 -2.5429  2.2303 -2.2009
  125CHL1    C715447   5.024   4.756  13.529  0.1489 -0.4364 -0.1163
  125CHL1   H7A15448   5.033   4.646  13.516 -0.0898 -0.3040 -1.5377
  125CHL1   H7B15449   5.126   4.800  13.524 -0.8199  1.8741 -1.0661
  125CHL1    C815450   4.959   4.807  13.660 -0.4872 -0.1768 -0.0161
  125CHL1    H815451   4.859   4.760  13.674 -0.4532 -0.1949  0.1685
  125CHL1   C1415452   5.043   4.780  13.786  0.1075 -0.2377  0.6107
  125CHL1   H1415453   5.142   4.829  13.774 -0.7315  1.8911  1.7270
  125CHL1   C1515454   5.072   4.629  13.819  0.4164 -0.5202  0.0474
  125CHL1  H15A15455   4.976   4.574  13.811  0.0221  0.2896 -1.0499
  125CHL1  H15B15456   5.148   4.584  13.752  1.2266  0.3263  0.3863
  125CHL1   C1615457   5.114   4.635  13.970 -0.3578  0.2357 -0.0330
  125CHL1  H16A15458   5.054   4.552  14.015  2.4759 -1.6250  0.6235
  125CHL1  H16B15459   5.223   4.618  13.955 -0.5739  0.9014 -2.8671
  125CHL1   C1715460   5.083   4.766  14.020 -0.0945 -0.5335 -0.1992
  125CHL1   H1715461   5.179   4.822  14.021  0.4269 -1.2782 -2.7029
  125CHL1   C1315462   4.988   4.829  13.919 -0.1091 -0.7408 -0.7571
  125CHL1   C1815463   4.847   4.776  13.947 -0.1117  0.2308  0.0266
  125CHL1  H18A15464   4.789   4.816  14.032 -2.7487 -1.1336 -1.0187
  125CHL1  H18B15465   4.787   4.799  13.857 -0.7427  1.5077  0.7641
  125CHL1  H18C15466   4.844   4.665  13.960  4.3091 -0.4926 -2.8902
  125CHL1   C1215467   4.986   4.986  13.910 -0.4517  0.1562  0.1853
  125CHL1  H12A15468   4.930   5.013  14.002 -0.1571 -1.0195  0.7305
  125CHL1  H12B15469   5.087   5.032  13.915  0.6322 -2.1151  0.2541
  125CHL1   C1115470   4.896   5.027  13.791 -0.3772  0.3386 -0.5963
  125CHL1  H11A15471   4.793   5.002  13.825  0.0231 -2.1591 -1.0229
  125CHL1  H11B15472   4.898   5.137  13.774  2.4461  0.2410 -1.3594
  125CHL1    C915473   4.931   4.957  13.654 -1.0188  0.1930 -0.8487
  125CHL1    H915474   5.033   4.994  13.630 -0.8158 -1.0081 -1.9576
  125CHL1   C1015475   4.833   4.991  13.536  0.4554  0.2215  0.4183
  125CHL1   C1915476   4.685   4.960  13.575 -0.0097 -0.1875 -0.0301
  125CHL1  H19A15477   4.681   4.856  13.613 -0.2979 -0.0342  0.3687
  125CHL1  H19B15478   4.653   5.017  13.665  2.3147  1.5877 -0.2278
  125CHL1  H19C15479   4.623   4.971  13.484 -0.2397 -2.8281 -0.2834
  125CHL1    C115480   4.856   5.140  13.506  0.2898 -0.4666 -0.2390
  125CHL1   H1A15481   4.832   5.206  13.592 -0.8036  0.5099 -1.2663
  125CHL1   H1B15482   4.962   5.156  13.475  0.6589 -2.0190  0.0906
  125CHL1    C215483   4.782   5.188  13.384  0.4072 -0.0328 -0.2301
  125CHL1   H2A15484   4.787   5.296  13.360  0.0294  0.3023  1.1157
  125CHL1   H2B15485   4.672   5.178  13.399  0.5289 -0.5899  0.3463
  125CHL1   C2015486   5.025   4.760  14.171 -0.2046  0.3843 -0.2896
  125CHL1   H2015487   4.945   4.683  14.182  0.2832 -0.4734 -2.3780
  125CHL1   C2115488   4.982   4.896  14.230  0.0766  1.0270  0.0554
  125CHL1  H21A15489   4.949   4.874  14.334 -1.7836  0.1335 -0.6817
  125CHL1  H21B15490   4.890   4.918  14.171 -0.5456 -1.5041 -0.0349
  125CHL1  H21C15491   5.052   4.980  14.211  0.6956  1.2930  3.0374
  125CHL1   C2215492   5.141   4.704  14.256  0.4313 -0.5338  0.5360
  125CHL1  H22A15493   5.212   4.630  14.212  0.6529  0.0543 -0.1146
  125CHL1  H22B15494   5.209   4.790  14.277  0.6061 -0.4943 -0.1597
  125CHL1   C2315495   5.107   4.660  14.398  0.0663 -0.4830  0.7143
  125CHL1  H23A15496   5.037   4.735  14.441 -0.7909 -0.1554 -1.1254
  125CHL1  H23B15497   5.044   4.569  14.405 -1.4844  0.6032  1.6447
  125CHL1   C2415498   5.237   4.655  14.482 -0.2911 -0.4233  0.1515
  125CHL1  H24A15499   5.295   4.574  14.433 -1.3628 -0.0595 -1.8294
  125CHL1  H24B15500   5.282   4.756  14.474  0.9174 -0.9376  0.2645
  125CHL1   C2515501   5.230   4.624  14.634 -0.3350  0.1234  0.1293
  125CHL1   H2515502   5.168   4.706  14.674 -0.2449  0.9773 -1.4077
  125CHL1   C2615503   5.174   4.480  14.659  0.2566  0.2505 -0.3564
  125CHL1  H26A15504   5.157   4.473  14.768  1.4276 -1.7139 -0.2508
  125CHL1  H26B15505   5.075   4.461  14.611 -0.4396  1.0562  0.7316
  125CHL1  H26C15506   5.248   4.400  14.635  0.0832  0.4079 -1.5156
  125CHL1   C2715507   5.375   4.622  14.685 -0.4237  0.3046  0.1506
  125CHL1  H27A15508   5.391   4.617  14.794 -0.0089 -1.9414  0.0316
  125CHL1  H27B15509   5.425   4.535  14.638  0.0248  1.8705 -2.5056
  125CHL1  H27C15510   5.424   4.714  14.645 -0.7059  0.6458  0.5759
  126CHL1    C315511   1.545   4.893  12.829  0.3171 -0.7119  0.1087
  126CHL1    H315512   1.645   4.942  12.826 -0.7518  1.8027  1.9615
  126CHL1    O315513   1.507   4.869  12.693  0.0206  0.2251  0.1489
  126CHL1   H3'15514   1.540   4.782  12.671 -3.9449 -1.6046  0.5202
  126CHL1    C415515   1.556   4.762  12.912 -0.1793 -0.1503  0.6592
  126CHL1   H4A15516   1.458   4.715  12.892 -0.1567 -0.5927  1.5424
  126CHL1   H4B15517   1.631   4.697  12.862 -0.1562 -1.7534  2.6387
  126CHL1    C515518   1.583   4.771  13.061  0.1994 -0.2507 -0.9633
  126CHL1    C615519   1.681   4.702  13.116 -0.1004 -0.2645 -0.0140
  126CHL1    H615520   1.743   4.638  13.051  1.3654 -1.5136  2.4710
  126CHL1    C715521   1.717   4.695  13.261  0.7563  0.1139 -0.1438
  126CHL1   H7A15522   1.731   4.594  13.304  0.8370  0.2190  0.0817
  126CHL1   H7B15523   1.818   4.741  13.264  0.7710  0.0418  1.0016
  126CHL1    C815524   1.626   4.783  13.349  0.9758  0.4359 -0.0293
  126CHL1    H815525   1.542   4.715  13.372  0.4571  0.2124 -2.3691
  126CHL1   C1415526   1.693   4.827  13.481 -0.5077 -0.1172  0.3110
  126CHL1   H1415527   1.778   4.894  13.458  0.9392 -2.0012 -0.1090
  126CHL1   C1515528   1.761   4.713  13.553  0.4006  0.0049  0.2529
  126CHL1  H15A15529   1.698   4.621  13.556 -1.4161  1.1185 -1.6468
  126CHL1  H15B15530   1.863   4.689  13.514  1.2025  0.0598  2.1711
  126CHL1   C1615531   1.774   4.783  13.695  0.0047 -0.2577 -0.1611
  126CHL1  H16A15532   1.756   4.717  13.782  2.2960 -0.5534  0.1483
  126CHL1  H16B15533   1.881   4.811  13.708  0.6657 -1.0704 -3.0673
  126CHL1   C1715534   1.692   4.919  13.692 -0.0936  0.6302 -0.7801
  126CHL1   H1715535   1.763   4.999  13.662  2.2179 -1.4956 -1.3033
  126CHL1   C1315536   1.601   4.904  13.572  0.3949 -0.0710 -0.1941
  126CHL1   C1815537   1.484   4.820  13.618  0.6105 -0.7937  0.3638
  126CHL1  H18A15538   1.412   4.791  13.538  1.3758 -1.3756 -0.1267
  126CHL1  H18B15539   1.521   4.726  13.663 -0.0061 -1.3620 -0.2842
  126CHL1  H18C15540   1.428   4.877  13.695  1.2817 -0.0159  0.2873
  126CHL1   C1215541   1.555   5.031  13.495  0.6131 -0.3283  0.3013
  126CHL1  H12A15542   1.484   5.092  13.555 -0.7157  0.3140 -1.7827
  126CHL1  H12B15543   1.641   5.098  13.471  0.3781 -0.0299  0.2846
  126CHL1   C1115544   1.497   5.009  13.355 -0.7232 -0.5219 -0.6228
  126CHL1  H11A15545   1.396   4.969  13.377 -0.8692  0.1796  0.0355
  126CHL1  H11B15546   1.485   5.099  13.290 -0.1364 -1.2737 -1.8044
  126CHL1    C915547   1.578   4.908  13.271 -0.6352  0.4141  0.0335
  126CHL1    H915548   1.669   4.962  13.237 -1.3676  0.9732 -1.1605
  126CHL1   C1015549   1.505   4.878  13.137  0.2354  0.5261  0.6924
  126CHL1   C1915550   1.374   4.811  13.162 -0.0743  0.5941 -0.2111
  126CHL1  H19A15551   1.306   4.896  13.188  2.4342  3.0981 -1.3179
  126CHL1  H19B15552   1.327   4.769  13.070  0.2897 -0.8077  0.2290
  126CHL1  H19C15553   1.375   4.741  13.248  3.8089  1.5040  0.6424
  126CHL1    C115554   1.486   5.010  13.045  0.6118 -0.5139  0.0917
  126CHL1   H1A15555   1.407   5.073  13.091  0.0224 -2.4518  1.9073
  126CHL1   H1B15556   1.582   5.064  13.043  1.8647 -2.6279 -0.3683
  126CHL1    C215557   1.438   4.991  12.900 -0.9963  0.4597  0.0138
  126CHL1   H2A15558   1.445   5.084  12.839 -0.4680  0.0907 -0.5102
  126CHL1   H2B15559   1.340   4.941  12.887 -0.0281 -1.1710 -1.6263
  126CHL1   C2015560   1.638   4.970  13.833  0.6050  0.9581  0.0366
  126CHL1   H2015561   1.564   4.896  13.872  1.6322 -0.6760 -0.9913
  126CHL1   C2115562   1.561   5.106  13.807 -0.7042 -0.1005  1.2115
  126CHL1  H21A15563   1.544   5.169  13.896 -3.2127 -1.3637  1.7328
  126CHL1  H21B15564   1.463   5.082  13.759 -0.3488  0.3338  0.2362
  126CHL1  H21C15565   1.621   5.166  13.735 -0.4224 -0.7699  0.8755
  126CHL1   C2215566   1.750   4.994  13.940  0.8897 -0.1622 -0.3851
  126CHL1  H22A15567   1.809   4.900  13.936  0.6371 -0.2917 -1.4620
  126CHL1  H22B15568   1.811   5.078  13.901  0.0950  0.8595  0.5312
  126CHL1   C2315569   1.700   5.021  14.083  0.3682  0.3308 -0.4053
  126CHL1  H23A15570   1.620   5.098  14.087  0.6804  0.7152 -1.3492
  126CHL1  H23B15571   1.651   4.934  14.132  3.4228  0.2692  3.0050
  126CHL1   C2415572   1.815   5.045  14.184 -0.3221 -0.1485  0.0209
  126CHL1  H24A15573   1.881   4.956  14.185 -1.4940 -1.2139  4.7233
  126CHL1  H24B15574   1.870   5.133  14.143 -1.4850  0.2908 -0.6486
  126CHL1   C2515575   1.770   5.084  14.325  0.0035 -0.2408  0.2145
  126CHL1   H2515576   1.697   5.166  14.308 -0.9378 -1.3912 -1.5843
  126CHL1   C2615577   1.685   4.968  14.396 -0.2916  0.1189  0.6980
  126CHL1  H26A15578   1.742   4.885  14.442  1.4388  0.8680  0.0034
  126CHL1  H26B15579   1.633   5.018  14.481  1.7299  1.9912  0.9379
  126CHL1  H26C15580   1.606   4.925  14.331 -0.1107 -0.5163  0.9011
  126CHL1   C2715581   1.880   5.125  14.430 -0.3829  0.3728 -0.3002
  126CHL1  H27A15582   1.833   5.155  14.526 -0.1436 -0.8795  0.2223
  126CHL1  H27B15583   1.955   5.045  14.447 -1.2981 -0.1083  1.7646
  126CHL1  H27C15584   1.942   5.204  14.381  0.7506 -1.9107 -2.8066
  127CHL1    C315585   1.834   5.384  12.977  0.0556 -0.4426  0.1130
  127CHL1    H315586   1.729   5.420  12.969 -0.1990 -0.9177  1.1361
  127CHL1    O315587   1.880   5.364  12.846 -0.0671  0.2946 -0.0203
  127CHL1   H3'15588   1.975   5.352  12.851  0.0760  1.5340  0.4661
  127CHL1    C415589   1.924   5.499  13.036  0.4662 -0.4304 -0.2029
  127CHL1   H4A15590   2.030   5.468  13.022  0.3298 -1.3427  0.5853
  127CHL1   H4B15591   1.914   5.591  12.976 -2.1907  1.1194  2.3554
  127CHL1    C515592   1.912   5.526  13.181  0.5696 -0.1037 -0.0604
  127CHL1    C615593   1.901   5.650  13.229 -0.3993  0.5220  0.2025
  127CHL1    H615594   1.911   5.730  13.154  0.5298 -1.4999 -1.9690
  127CHL1    C715595   1.882   5.684  13.378  0.0152 -0.1167  0.3053
  127CHL1   H7A15596   1.941   5.777  13.399  0.6240  0.1022 -2.0598
  127CHL1   H7B15597   1.775   5.707  13.397 -0.2364 -2.6173  2.4980
  127CHL1    C815598   1.915   5.564  13.467  0.8635 -0.5441  0.0842
  127CHL1    H815599   2.026   5.552  13.461  0.6863 -1.5547 -1.7518
  127CHL1   C1415600   1.866   5.592  13.606 -0.7097  0.3216 -0.3284
  127CHL1   H1415601   1.755   5.601  13.605 -0.7315  0.2961  0.5700
  127CHL1   C1515602   1.921   5.718  13.676 -0.6350 -0.6092  0.1213
  127CHL1  H15A15603   2.032   5.712  13.684 -0.5554 -0.1723 -0.5602
  127CHL1  H15B15604   1.900   5.810  13.618  0.1171 -1.0188 -0.8443
  127CHL1   C1615605   1.872   5.711  13.826 -0.2166  0.6835  0.0727
  127CHL1  H16A15606   1.959   5.731  13.892 -1.7457 -0.6505  2.6642
  127CHL1  H16B15607   1.786   5.776  13.851 -0.6068 -0.0267  0.6192
  127CHL1   C1715608   1.830   5.562  13.839 -0.8228  1.0830 -0.0739
  127CHL1   H1715609   1.721   5.546  13.831 -0.4409 -1.2885 -1.3608
  127CHL1   C1315610   1.886   5.487  13.717 -0.2687  0.4583 -0.4262
  127CHL1   C1815611   2.042   5.455  13.740  0.0265 -0.3091 -0.4812
  127CHL1  H18A15612   2.060   5.379  13.819 -2.4265 -0.4321  0.0429
  127CHL1  H18B15613   2.096   5.427  13.647 -0.9527 -0.9310 -0.8842
  127CHL1  H18C15614   2.089   5.547  13.780 -1.8969  1.2165 -1.5365
  127CHL1   C1215615   1.816   5.357  13.665  0.1816 -0.3307  0.1644
  127CHL1  H12A15616   1.815   5.268  13.731 -2.2242 -0.2353  0.3565
  127CHL1  H12B15617   1.709   5.384  13.651 -0.2341 -1.2205  1.4205
  127CHL1   C1115618   1.869   5.315  13.522 -0.2713  0.6342  0.1965
  127CHL1  H11A15619   1.975   5.284  13.537 -1.4670 -3.1729  1.9983
  127CHL1  H11B15620   1.808   5.225  13.501 -1.0325  0.6248  2.2121
  127CHL1    C915621   1.855   5.431  13.418 -0.2076  0.0913  0.4308
  127CHL1    H915622   1.746   5.447  13.399  0.2849  0.8771 -2.1316
  127CHL1   C1015623   1.898   5.404  13.269 -0.6364 -0.6396 -0.2644
  127CHL1   C1915624   2.036   5.331  13.276 -0.3329 -0.2469  0.2689
  127CHL1  H19A15625   2.026   5.234  13.331  2.0046  0.2592  1.7394
  127CHL1  H19B15626   2.070   5.300  13.175  0.5916  0.3599  0.3827
  127CHL1  H19C15627   2.126   5.382  13.317  0.6380 -1.8521  0.2222
  127CHL1    C115628   1.799   5.304  13.208 -0.0211 -0.7106 -0.2995
  127CHL1   H1A15629   1.796   5.213  13.272 -1.2859 -1.0596 -0.8240
  127CHL1   H1B15630   1.700   5.353  13.208 -0.0712 -0.8070  0.5490
  127CHL1    C215631   1.833   5.262  13.063  0.4783 -0.6564 -0.3028
  127CHL1   H2A15632   1.753   5.194  13.027  0.5256 -0.5095 -0.6940
  127CHL1   H2B15633   1.927   5.204  13.053  1.7999  0.8813  2.1084
  127CHL1   C2015634   1.865   5.507  13.985 -0.2016 -0.1877  0.2300
  127CHL1   H2015635   1.973   5.482  13.990 -0.5721 -1.7376  1.1269
  127CHL1   C2115636   1.790   5.372  14.012  0.0448 -0.7387  0.5880
  127CHL1  H21A15637   1.837   5.322  14.100  0.3152  0.7293  1.3114
  127CHL1  H21B15638   1.810   5.301  13.929  1.3574  0.2001  0.0753
  127CHL1  H21C15639   1.681   5.381  14.033 -0.4634  0.0838 -2.0234
  127CHL1   C2215640   1.826   5.619  14.089 -0.0774  0.1896 -0.6506
  127CHL1  H22A15641   1.890   5.709  14.082  2.7192 -1.7091 -0.9779
  127CHL1  H22B15642   1.723   5.651  14.060 -0.1863  1.3408  0.8706
  127CHL1   C2315643   1.821   5.570  14.240  0.2179 -0.5161  0.0801
  127CHL1  H23A15644   1.747   5.489  14.255  0.7394 -1.5193 -2.3602
  127CHL1  H23B15645   1.914   5.518  14.272  1.5956  0.9277 -1.3859
  127CHL1   C2415646   1.786   5.691  14.336  0.0765  0.0387  0.1071
  127CHL1  H24A15647   1.865   5.769  14.335 -2.8007  3.1930 -0.1364
  127CHL1  H24B15648   1.692   5.747  14.317 -1.2156 -1.7101  1.0031
  127CHL1   C2515649   1.780   5.645  14.486 -0.0160  0.3793 -0.2106
  127CHL1   H2515650   1.785   5.744  14.536 -0.5737 -1.2465  3.3831
  127CHL1   C2615651   1.645   5.584  14.532  0.2286  1.0492 -0.7084
  127CHL1  H26A15652   1.652   5.571  14.642  0.5259 -0.6959 -0.9072
  127CHL1  H26B15653   1.562   5.651  14.498 -0.3993 -0.2740 -1.8696
  127CHL1  H26C15654   1.626   5.481  14.497 -3.3395  1.0380  0.8814
  127CHL1   C2715655   1.906   5.567  14.529  0.4888  0.7011  0.1273
  127CHL1  H27A15656   1.903   5.463  14.491  0.2855  0.0473  1.8514
  127CHL1  H27B15657   2.000   5.622  14.504  0.0361  2.5797  2.2282
  127CHL1  H27C15658   1.912   5.553  14.639  1.9058  0.3230  0.0162
  128CHL1    C315659   3.023   1.756  12.188 -0.6828 -0.0304 -0.3309
  128CHL1    H315660   2.917   1.791  12.192 -0.1375  2.8115 -4.2065
  128CHL1    O315661   3.056   1.752  12.050  0.7541  0.1130 -0.7007
  128CHL1   H3'15662   3.006   1.677  12.017 -0.0404  0.9761 -1.5077
  128CHL1    C415663   3.116   1.862  12.240 -0.7763  0.1420 -0.2300
  128CHL1   H4A15664   3.223   1.833  12.237 -1.2504 -1.7511 -0.5184
  128CHL1   H4B15665   3.100   1.957  12.185 -1.4494 -0.0337 -0.3488
  128CHL1    C515666   3.090   1.876  12.390 -0.1170 -0.1802 -0.5033
  128CHL1    C615667   3.044   1.993  12.436  0.1955 -0.0845  0.6224
  128CHL1    H615668   3.033   2.077  12.366  0.7190 -0.5059  0.0359
  128CHL1    C715669   3.018   2.012  12.580 -0.7330  0.6896 -0.6688
  128CHL1   H7A15670   3.077   2.102  12.607  0.5561 -0.4039  0.3418
  128CHL1   H7B15671   2.908   2.018  12.595 -0.5685  1.3605  0.4202
  128CHL1    C815672   3.058   1.895  12.667 -0.1490 -0.3945  0.5681
  128CHL1    H815673   3.169   1.895  12.662 -0.1482  1.6215 -2.3583
  128CHL1   C1415674   3.006   1.910  12.805 -0.2118  0.4892  0.1879
  128CHL1   H1415675   2.895   1.899  12.802 -0.1126 -0.3519 -2.1034
  128CHL1   C1515676   3.035   2.043  12.871  0.4011  0.0104  0.1796
  128CHL1  H15A15677   3.138   2.073  12.844 -0.0405  1.2178 -0.2442
  128CHL1  H15B15678   2.965   2.118  12.827  0.2263 -0.3438 -0.1524
  128CHL1   C1615679   3.014   2.008  13.021  0.3823  0.2346  0.2372
  128CHL1  H16A15680   3.111   2.016  13.074  0.1631 -1.2057  0.9133
  128CHL1  H16B15681   2.930   2.070  13.059 -0.2599 -0.9954  0.8952
  128CHL1   C1715682   2.985   1.850  13.028 -0.5752  0.5569 -0.0137
  128CHL1   H1715683   2.876   1.835  13.014 -0.2975 -2.1218  0.1373
  128CHL1   C1315684   3.048   1.796  12.898 -0.4015  0.0839 -0.1792
  128CHL1   C1815685   3.203   1.802  12.911 -1.4336  0.8069  0.5726
  128CHL1  H18A15686   3.254   1.781  12.814 -0.2909  0.6531  1.1931
  128CHL1  H18B15687   3.238   1.899  12.953  1.0766  0.4716 -0.5660
  128CHL1  H18C15688   3.228   1.727  12.989  0.0993  0.5423 -0.1284
  128CHL1   C1215689   2.991   1.667  12.848  0.3402  1.2119  0.5530
  128CHL1  H12A15690   3.031   1.577  12.900 -2.9804 -1.0930 -0.5612
  128CHL1  H12B15691   2.881   1.665  12.863  0.5182 -0.2712  2.0057
  128CHL1   C1115692   3.026   1.643  12.705 -0.3023  0.2578  0.6328
  128CHL1  H11A15693   3.132   1.611  12.702 -0.8251 -1.5425 -2.0272
  128CHL1  H11B15694   2.959   1.565  12.664  3.2855 -2.0994 -1.2600
  128CHL1    C915695   3.023   1.764  12.606  0.1315  0.5098  0.1122
  128CHL1    H915696   2.914   1.763  12.588  0.4974 -1.6210 -2.9095
  128CHL1   C1015697   3.094   1.744  12.470 -0.8087 -0.1787 -0.7033
  128CHL1   C1915698   3.248   1.716  12.491 -0.4732 -0.1433  0.3652
  128CHL1  H19A15699   3.305   1.792  12.550  2.3107 -2.4243  0.8652
  128CHL1  H19B15700   3.257   1.616  12.539 -0.0790 -0.1671  0.2474
  128CHL1  H19C15701   3.299   1.701  12.394 -0.0813 -1.5050  0.7531
  128CHL1    C115702   3.026   1.625  12.397 -0.0691  1.0274  0.6428
  128CHL1   H1A15703   3.076   1.534  12.436 -1.3266  0.3067  0.6033
  128CHL1   H1B15704   2.918   1.617  12.420 -0.2757  0.1022 -0.5527
  128CHL1    C215705   3.051   1.618  12.241  0.6534 -0.3645  0.8692
  128CHL1   H2A15706   2.980   1.542  12.201  1.2625 -0.4738 -0.0381
  128CHL1   H2B15707   3.156   1.587  12.224  0.8739  0.9847 -0.5385
  128CHL1   C2015708   3.020   1.777  13.157 -0.6858  0.2256  0.0784
  128CHL1   H2015709   3.130   1.759  13.161 -0.4693  1.0305 -1.4833
  128CHL1   C2115710   2.969   1.633  13.175 -0.2291  0.5737 -0.5664
  128CHL1  H21A15711   2.861   1.619  13.157 -0.2389 -1.3731  0.7206
  128CHL1  H21B15712   3.001   1.586  13.270 -0.4662  3.3741  1.0247
  128CHL1  H21C15713   3.011   1.572  13.092 -0.0422  0.8598 -0.6842
  128CHL1   C2215714   2.966   1.856  13.282 -0.1261  0.4922 -0.4291
  128CHL1  H22A15715   3.000   1.962  13.275 -0.0508  0.6001  1.1288
  128CHL1  H22B15716   2.856   1.863  13.297  0.0683  2.2544  0.3862
  128CHL1   C2315717   3.016   1.802  13.417  0.2008 -0.0905  0.9363
  128CHL1  H23A15718   2.956   1.709  13.430 -1.2296  0.5983 -0.5128
  128CHL1  H23B15719   3.122   1.774  13.395 -0.3366  0.4103 -3.1677
  128CHL1   C2415720   2.981   1.894  13.538 -0.5853 -0.3958  0.3685
  128CHL1  H24A15721   3.071   1.960  13.545  0.8567 -2.1541 -0.8045
  128CHL1  H24B15722   2.897   1.961  13.508 -1.0896 -0.9325  0.5754
  128CHL1   C2515723   2.972   1.820  13.673  0.6301 -0.4994  0.6337
  128CHL1   H2515724   2.870   1.776  13.673  0.9593 -1.2828  0.7064
  128CHL1   C2615725   3.061   1.708  13.696 -0.3131  0.0856 -0.2230
  128CHL1  H26A15726   3.030   1.626  13.628 -0.5299 -1.5151  1.7041
  128CHL1  H26B15727   3.168   1.737  13.683 -0.3191 -0.0011 -0.4779
  128CHL1  H26C15728   3.040   1.656  13.792  0.5111 -0.5537 -0.3730
  128CHL1   C2715729   2.965   1.914  13.797 -0.2397  0.4425  0.1256
  128CHL1  H27A15730   2.912   2.009  13.773 -0.1667  0.2985 -0.6443
  128CHL1  H27B15731   2.926   1.868  13.890 -1.3843  0.8026 -0.1536
  128CHL1  H27C15732   3.068   1.952  13.814  0.5120 -1.0142 -1.0052
  129CHL1    C315733   6.564   6.064  12.268 -0.1578  0.1371 -0.6698
  129CHL1    H315734   6.460   6.079  12.304 -0.4641  0.3649 -1.6341
  129CHL1    O315735   6.557   6.047  12.128 -0.1814 -0.0660  0.1193
  129CHL1   H3'15736   6.562   6.140  12.102  0.2255  0.0374  0.5636
  129CHL1    C415737   6.640   6.192  12.308 -0.4520 -0.5826 -0.2229
  129CHL1   H4A15738   6.742   6.191  12.264 -0.8692  0.4587 -1.2700
  129CHL1   H4B15739   6.589   6.277  12.257  0.1807  1.1182  1.8013
  129CHL1    C515740   6.650   6.216  12.455  0.2142  0.0837 -0.1423
  129CHL1    C615741   6.615   6.333  12.507  0.2076 -0.8783 -0.7119
  129CHL1    H615742   6.591   6.409  12.431  2.9572  3.1775  2.0063
  129CHL1    C715743   6.599   6.363  12.653  0.6967 -0.3474 -1.2456
  129CHL1   H7A15744   6.638   6.467  12.664 -0.8505  0.2855 -1.3648
  129CHL1   H7B15745   6.491   6.364  12.679 -0.0774  1.4586 -3.9939
  129CHL1    C815746   6.694   6.268  12.729 -0.2890  0.0319 -0.1775
  129CHL1    H815747   6.801   6.296  12.723 -0.5161  1.0889  0.4444
  129CHL1   C1415748   6.658   6.268  12.880  0.2113 -0.1036 -0.2308
  129CHL1   H1415749   6.550   6.245  12.886  0.3936 -0.5192  2.6709
  129CHL1   C1515750   6.663   6.416  12.943  0.2096  0.7619 -0.1784
  129CHL1  H15A15751   6.756   6.473  12.923  1.0316 -0.2336  0.6660
  129CHL1  H15B15752   6.577   6.480  12.914 -1.5626 -1.2397  0.4060
  129CHL1   C1615753   6.683   6.380  13.098 -0.4150 -0.9022  0.2343
  129CHL1  H16A15754   6.780   6.427  13.125 -0.5281  0.3338 -1.3905
  129CHL1  H16B15755   6.604   6.427  13.160 -0.0804  2.0011 -1.3505
  129CHL1   C1715756   6.692   6.225  13.109  0.5011  0.2054 -0.0339
  129CHL1   H1715757   6.590   6.185  13.129 -0.2832  1.7555 -0.6791
  129CHL1   C1315758   6.737   6.176  12.969  0.5287 -0.2075 -0.1911
  129CHL1   C1815759   6.886   6.218  12.960 -0.3628 -0.1418 -0.3839
  129CHL1  H18A15760   6.916   6.199  12.854  0.8433 -0.6199  0.0319
  129CHL1  H18B15761   6.901   6.326  12.984 -1.8364 -0.1849  0.8432
  129CHL1  H18C15762   6.948   6.152  13.024 -0.0448 -0.3857 -0.9291
  129CHL1   C1215763   6.722   6.033  12.927  0.2063  0.6236  0.3558
  129CHL1  H12A15764   6.799   5.967  12.972  1.4209  1.1582 -0.8610
  129CHL1  H12B15765   6.620   5.999  12.956 -0.0086 -0.4145 -1.4989
  129CHL1   C1115766   6.748   6.014  12.774 -0.1416 -0.3980 -0.3515
  129CHL1  H11A15767   6.856   6.027  12.755 -0.1192 -2.0194 -1.5150
  129CHL1  H11B15768   6.729   5.907  12.753 -1.2596 -0.2994  0.0747
  129CHL1    C915769   6.669   6.118  12.686 -0.2185 -0.0714 -0.0454
  129CHL1    H915770   6.561   6.096  12.700 -0.2067 -2.0911 -2.4286
  129CHL1   C1015771   6.700   6.096  12.534  0.3718 -0.5684 -0.0260
  129CHL1   C1915772   6.852   6.079  12.506 -0.2016 -0.4188  0.0269
  129CHL1  H19A15773   6.868   6.083  12.396  0.1446 -1.5246  0.0223
  129CHL1  H19B15774   6.913   6.164  12.544  0.3568  0.2904 -2.2414
  129CHL1  H19C15775   6.889   5.981  12.543 -3.0811 -1.1742  1.1490
  129CHL1    C115776   6.632   5.968  12.483  0.2403  0.1166 -0.4434
  129CHL1   H1A15777   6.688   5.881  12.523  0.5311 -0.2132 -1.5292
  129CHL1   H1B15778   6.528   5.969  12.521  0.1122  1.4479 -0.7919
  129CHL1    C215779   6.618   5.943  12.334 -0.1110 -0.2582  0.2414
  129CHL1   H2A15780   6.553   5.853  12.328 -1.1508  0.5301 -0.8204
  129CHL1   H2B15781   6.723   5.923  12.304 -0.0041 -1.2887  1.2656
  129CHL1   C2015782   6.782   6.186  13.228 -0.7280 -0.3594  0.3256
  129CHL1   H2015783   6.888   6.202  13.199 -1.3108  0.3631 -1.5719
  129CHL1   C2115784   6.761   6.035  13.256  0.2383 -0.4671 -0.0588
  129CHL1  H21A15785   6.827   5.979  13.188  1.2754 -0.2512  0.7484
  129CHL1  H21B15786   6.653   6.011  13.249 -0.3310  2.0987 -1.8380
  129CHL1  H21C15787   6.801   5.986  13.347  0.8187 -0.1237 -0.1203
  129CHL1   C2215788   6.757   6.268  13.355  0.9484 -0.2894 -0.2715
  129CHL1  H22A15789   6.839   6.245  13.426  0.6144 -2.1089 -0.4238
  129CHL1  H22B15790   6.767   6.377  13.337 -0.8833 -0.4172 -2.4916
  129CHL1   C2315791   6.618   6.249  13.417 -0.2765 -0.1004 -0.5414
  129CHL1  H23A15792   6.546   6.292  13.344  0.3474 -1.7597 -2.2210
  129CHL1  H23B15793   6.593   6.142  13.435  0.2625  0.1908  2.3876
  129CHL1   C2415794   6.596   6.329  13.549 -0.1893 -0.3171 -0.0105
  129CHL1  H24A15795   6.653   6.424  13.541 -0.6517 -0.0531 -0.2249
  129CHL1  H24B15796   6.490   6.355  13.569 -0.0621 -0.7023  1.2444
  129CHL1   C2515797   6.657   6.249  13.662 -0.7794 -0.1114  0.2616
  129CHL1   H2515798   6.753   6.207  13.626 -0.9179 -1.1758  1.0532
  129CHL1   C2615799   6.675   6.338  13.787 -0.2192 -0.1424 -0.4116
  129CHL1  H26A15800   6.739   6.427  13.765 -0.3744 -0.3122 -1.6147
  129CHL1  H26B15801   6.573   6.379  13.800  0.1775  1.2002 -1.2232
  129CHL1  H26C15802   6.709   6.283  13.877 -1.6760  0.7470  0.7249
  129CHL1   C2715803   6.577   6.127  13.700  0.4081  0.7021  0.2151
  129CHL1  H27A15804   6.594   6.037  13.637  0.0016  0.4202  0.4991
  129CHL1  H27B15805   6.614   6.088  13.798  0.6274 -1.5505 -0.7024
  129CHL1  H27C15806   6.468   6.145  13.701  0.7379  3.3265 -1.6468
  130CHL1    C315807   2.517   6.117  12.857 -0.0322 -0.1623  0.2700
  130CHL1    H315808   2.464   6.023  12.887  1.5142 -0.7503  1.2854
  130CHL1    O315809   2.579   6.092  12.735  0.2656 -0.4757  0.4317
  130CHL1   H3'15810   2.573   6.174  12.686 -0.8922 -0.3370  0.7745
  130CHL1    C415811   2.409   6.220  12.845 -1.2490  0.1722  0.2559
  130CHL1   H4A15812   2.460   6.308  12.800  0.5720 -1.6893 -1.5328
  130CHL1   H4B15813   2.336   6.189  12.768 -0.8062 -2.0694  0.6603
  130CHL1    C515814   2.354   6.270  12.974  0.6618  0.3165  0.3029
  130CHL1    C615815   2.220   6.262  12.991 -0.8120  0.2351 -0.0408
  130CHL1    H615816   2.159   6.205  12.920 -2.7940  0.9374  0.9993
  130CHL1    C715817   2.147   6.321  13.113  0.5034  0.2070  0.2750
  130CHL1   H7A15818   2.073   6.394  13.075  1.3098  1.0131  0.2179
  130CHL1   H7B15819   2.074   6.254  13.165 -2.7534  2.5439 -0.9541
  130CHL1    C815820   2.231   6.406  13.207 -0.1963 -0.0628  0.2915
  130CHL1    H815821   2.242   6.507  13.162 -0.6683 -1.1448 -2.4450
  130CHL1   C1415822   2.173   6.417  13.348 -1.2115 -0.8463 -0.5590
  130CHL1   H1415823   2.169   6.316  13.394  1.3553 -0.4586  0.6887
  130CHL1   C1515824   2.022   6.464  13.362 -0.6666  0.2779 -0.4094
  130CHL1  H15A15825   2.000   6.553  13.299  0.7648  0.2641 -0.9628
  130CHL1  H15B15826   1.956   6.378  13.342 -1.3287  0.9971 -1.3960
  130CHL1   C1615827   2.019   6.503  13.514  0.5643  0.0033  0.2918
  130CHL1  H16A15828   1.966   6.599  13.532 -0.1561 -0.4009  0.3365
  130CHL1  H16B15829   1.957   6.428  13.568 -1.3223  1.8590  0.8290
  130CHL1   C1715830   2.163   6.496  13.567  0.4141 -0.0533  0.0060
  130CHL1   H1715831   2.180   6.399  13.618  2.2196  0.1030 -0.2311
  130CHL1   C1315832   2.258   6.502  13.441 -0.7015 -0.1845 -0.7205
  130CHL1   C1815833   2.281   6.649  13.383  0.8777 -0.6480 -0.0024
  130CHL1  H18A15834   2.194   6.693  13.332  1.0597  0.2327  0.4188
  130CHL1  H18B15835   2.315   6.714  13.467 -2.1085 -0.8514  1.4814
  130CHL1  H18C15836   2.354   6.639  13.300 -0.0384 -0.1401 -0.8850
  130CHL1   C1215837   2.393   6.435  13.455 -0.3670 -0.3611 -1.2068
  130CHL1  H12A15838   2.462   6.487  13.525 -1.1870 -0.0965 -0.5692
  130CHL1  H12B15839   2.378   6.334  13.498 -0.2895  0.1456  0.0572
  130CHL1   C1115840   2.470   6.406  13.327  0.4453 -0.4452  0.0039
  130CHL1  H11A15841   2.517   6.502  13.296  2.0456 -0.6109  1.7223
  130CHL1  H11B15842   2.553   6.334  13.346  1.3996  0.1965 -1.5471
  130CHL1    C915843   2.373   6.343  13.218  0.0049 -0.3967  0.4003
  130CHL1    H915844   2.346   6.245  13.263  2.1328 -1.9810 -1.5085
  130CHL1   C1015845   2.444   6.315  13.082  0.1386  1.1716 -0.1437
  130CHL1   C1915846   2.522   6.441  13.034 -0.7783 -0.1541  0.1006
  130CHL1  H19A15847   2.617   6.464  13.087 -1.4222  2.8797  0.1220
  130CHL1  H19B15848   2.562   6.429  12.931  1.0417 -0.5149  0.8073
  130CHL1  H19C15849   2.454   6.529  13.038 -0.3841  0.1366  0.6314
  130CHL1    C115850   2.549   6.203  13.097 -0.3796 -0.1125  0.2098
  130CHL1   H1A15851   2.633   6.242  13.158  0.5821 -0.6050 -0.7761
  130CHL1   H1B15852   2.506   6.114  13.150  0.5303 -0.0621  1.0568
  130CHL1    C215853   2.618   6.153  12.965 -0.5088 -0.7118  0.2117
  130CHL1   H2A15854   2.683   6.068  12.993  1.0760 -0.1355 -1.5418
  130CHL1   H2B15855   2.693   6.227  12.931 -0.0367 -2.0129 -1.7836
  130CHL1   C2015856   2.186   6.595  13.685 -0.3505  0.3252  0.5269
  130CHL1   H2015857   2.162   6.701  13.661  1.7656  0.7259 -0.0206
  130CHL1   C2115858   2.333   6.588  13.729  0.3186  0.0355  0.4170
  130CHL1  H21A15859   2.399   6.624  13.647 -0.8670  0.4465 -0.3851
  130CHL1  H21B15860   2.366   6.485  13.755  1.2389  0.3400  0.5130
  130CHL1  H21C15861   2.348   6.653  13.818  0.4548  0.5401  0.0337
  130CHL1   C2215862   2.085   6.560  13.797 -0.2326  0.5224 -0.0677
  130CHL1  H22A15863   1.985   6.545  13.753  0.6208  1.2418 -2.4136
  130CHL1  H22B15864   2.113   6.464  13.847 -0.9420  0.8342  0.9699
  130CHL1   C2315865   2.090   6.669  13.906  0.1100 -0.2694  0.3573
  130CHL1  H23A15866   2.189   6.685  13.954 -0.0873 -0.8915  0.9879
  130CHL1  H23B15867   2.064   6.762  13.851 -0.5178 -1.2339 -1.0550
  130CHL1   C2415868   1.990   6.630  14.011 -0.4052 -0.2962  0.1081
  130CHL1  H24A15869   1.889   6.617  13.965  0.0402  0.6306 -1.1901
  130CHL1  H24B15870   2.028   6.537  14.058 -0.8442 -0.6380 -0.2039
  130CHL1   C2515871   1.958   6.750  14.110  0.0463  0.1621  0.0421
  130CHL1   H2515872   2.043   6.769  14.178  1.1256  0.0928 -1.2569
  130CHL1   C2615873   1.918   6.881  14.046 -0.0835 -0.3894  0.4439
  130CHL1  H26A15874   1.869   6.947  14.121  0.6807  0.8886 -0.1458
  130CHL1  H26B15875   1.993   6.929  13.979  0.3229 -2.3619 -0.5678
  130CHL1  H26C15876   1.838   6.866  13.970  1.5008 -0.2648 -1.3276
  130CHL1   C2715877   1.843   6.706  14.204  0.5005 -0.1057  0.2150
  130CHL1  H27A15878   1.741   6.678  14.168 -0.2467  3.1750 -0.5516
  130CHL1  H27B15879   1.881   6.619  14.261 -0.6658 -3.4899 -3.6732
  130CHL1  H27C15880   1.814   6.785  14.277 -0.9249  0.0290 -0.4565
  131CHL1    C315881   3.203   4.763  13.218 -0.0950  0.9912  0.0537
  131CHL1    H315882   3.290   4.709  13.262  0.5192  2.2131  0.3775
  131CHL1    O315883   3.191   4.748  13.076  0.3332 -0.4620 -0.1845
  131CHL1   H3'15884   3.102   4.781  13.059 -0.0829 -0.9162  0.9942
  131CHL1    C415885   3.086   4.702  13.286  0.4289  0.4866  0.1281
  131CHL1   H4A15886   2.992   4.747  13.248  0.2649 -0.3717 -0.5053
  131CHL1   H4B15887   3.080   4.597  13.251  1.0433  0.6720 -0.5578
  131CHL1    C515888   3.089   4.720  13.438  0.4549  0.3999 -0.1703
  131CHL1    C615889   3.092   4.620  13.526 -0.3642  0.2724 -1.1291
  131CHL1    H615890   3.097   4.515  13.492  2.7257 -0.3843  0.9987
  131CHL1    C715891   3.097   4.638  13.681 -0.1388  0.1786  0.0451
  131CHL1   H7A15892   3.011   4.580  13.720 -2.8507  0.4809 -4.7322
  131CHL1   H7B15893   3.195   4.599  13.717  1.3362 -0.2294 -3.8945
  131CHL1    C815894   3.074   4.788  13.718 -0.2768 -0.5461  0.0741
  131CHL1    H815895   2.969   4.822  13.705  0.1103  0.9872  0.7393
  131CHL1   C1415896   3.111   4.806  13.859  0.6304 -0.0122 -0.1741
  131CHL1   H1415897   3.221   4.786  13.856  0.6624  0.2362 -0.9592
  131CHL1   C1515898   3.046   4.711  13.962  0.2171 -0.1808 -0.3468
  131CHL1  H15A15899   2.935   4.701  13.955  0.1763 -1.3383  1.4264
  131CHL1  H15B15900   3.085   4.608  13.971  1.3040  0.3632  1.7391
  131CHL1   C1615901   3.086   4.783  14.093 -0.4385  1.2563  0.0167
  131CHL1  H16A15902   2.992   4.783  14.153 -0.6173 -1.7873 -0.0904
  131CHL1  H16B15903   3.170   4.731  14.145 -1.4533 -0.4185  0.0615
  131CHL1   C1715904   3.132   4.924  14.062 -0.0966  0.3410  0.3010
  131CHL1   H1715905   3.241   4.924  14.041 -0.4688  1.3791 -1.9658
  131CHL1   C1315906   3.084   4.947  13.915  0.2151 -0.1672 -0.2564
  131CHL1   C1815907   2.935   4.988  13.915 -0.3395  0.0756  0.1797
  131CHL1  H18A15908   2.929   5.095  13.946 -0.4858 -0.5353  2.4562
  131CHL1  H18B15909   2.894   4.982  13.812  1.0144  2.3102 -0.5615
  131CHL1  H18C15910   2.875   4.935  13.992  0.0723 -0.3911  0.1843
  131CHL1   C1215911   3.172   5.039  13.828 -0.0569 -0.2998 -0.1863
  131CHL1  H12A15912   3.157   5.144  13.864 -1.0177  0.1729 -1.8768
  131CHL1  H12B15913   3.279   5.010  13.840  0.0372 -1.0145 -2.4423
  131CHL1   C1115914   3.141   5.026  13.681 -0.4531 -0.4662  0.0059
  131CHL1  H11A15915   3.038   5.062  13.664 -1.1639 -2.8876 -1.3738
  131CHL1  H11B15916   3.207   5.092  13.621 -0.4515 -2.0960 -1.8707
  131CHL1    C915917   3.155   4.880  13.631  0.0431  0.2800 -0.0372
  131CHL1    H915918   3.259   4.845  13.646 -0.4690 -1.0631  0.5348
  131CHL1   C1015919   3.126   4.865  13.476 -0.4361  0.2142  0.3463
  131CHL1   C1915920   2.995   4.949  13.447 -0.1907  0.1694 -0.0100
  131CHL1  H19A15921   2.909   4.916  13.510  0.8888 -0.1104  1.3643
  131CHL1  H19B15922   3.013   5.057  13.465 -0.3849  0.2491 -0.2937
  131CHL1  H19C15923   2.973   4.943  13.338 -0.6110 -1.3118  0.1345
  131CHL1    C115924   3.244   4.923  13.402  0.0385 -0.3330  0.2221
  131CHL1   H1A15925   3.271   5.022  13.443  1.8944 -0.2759 -1.0079
  131CHL1   H1B15926   3.338   4.877  13.439  1.2247  1.8705  0.1448
  131CHL1    C215927   3.228   4.906  13.253  0.1655  0.7790 -0.2761
  131CHL1   H2A15928   3.314   4.961  13.209  0.6580 -0.2369 -0.6241
  131CHL1   H2B15929   3.143   4.968  13.218 -2.0730 -2.2226 -0.6134
  131CHL1   C2015930   3.088   5.023  14.168 -0.3310  0.8821  0.5774
  131CHL1   H2015931   2.977   5.025  14.169 -0.5589 -1.1500 -3.2047
  131CHL1   C2115932   3.130   5.166  14.131  0.4683 -0.3431 -0.0013
  131CHL1  H21A15933   3.115   5.229  14.221 -0.0820 -0.8206  0.2544
  131CHL1  H21B15934   3.074   5.212  14.046 -0.2802 -2.8917 -0.9852
  131CHL1  H21C15935   3.236   5.157  14.100 -0.0037  0.5388 -2.0873
  131CHL1   C2215936   3.151   4.973  14.303 -0.4314 -0.7726 -0.1654
  131CHL1  H22A15937   3.118   4.873  14.339  2.0171 -1.5062  0.2739
  131CHL1  H22B15938   3.260   4.955  14.286  0.1553  0.8674  1.4812
  131CHL1   C2315939   3.146   5.073  14.421  0.5756  0.6017 -0.2575
  131CHL1  H23A15940   3.220   5.035  14.495  1.2135  1.3121 -0.5233
  131CHL1  H23B15941   3.185   5.173  14.393  2.1035  0.1208  0.0538
  131CHL1   C2415942   3.003   5.088  14.481 -0.0575 -0.6586  0.1911
  131CHL1  H24A15943   2.934   5.137  14.409  1.2144 -0.4711 -0.9309
  131CHL1  H24B15944   2.963   4.986  14.469  0.8606 -0.9302 -0.7022
  131CHL1   C2515945   3.000   5.144  14.628  0.0465 -0.8486 -0.1314
  131CHL1   H2515946   3.081   5.092  14.683  1.5455  1.0455 -0.4478
  131CHL1   C2615947   3.034   5.295  14.628 -0.0534 -0.3151  0.4892
  131CHL1  H26A15948   3.045   5.335  14.731  3.2081 -1.2442  0.5867
  131CHL1  H26B15949   3.132   5.317  14.581 -1.4087  2.3314 -1.3901
  131CHL1  H26C15950   2.963   5.358  14.568  1.0409  0.9179  0.4418
  131CHL1   C2715951   2.867   5.117  14.681  0.6537 -0.0108 -0.5698
  131CHL1  H27A15952   2.789   5.175  14.626 -3.1304 -0.0934  4.0704
  131CHL1  H27B15953   2.841   5.012  14.658  2.5053 -0.1766 -2.1302
  131CHL1  H27C15954   2.858   5.150  14.786  0.5915  2.1173 -1.1852
  132CHL1    C315955   2.758   0.646  12.245  0.2847 -0.2260 -0.1245
  132CHL1    H315956   2.868   0.628  12.245 -0.0807 -2.9750 -0.1424
  132CHL1    O315957   2.711   0.641  12.108  0.9848  0.0794  0.9255
  132CHL1   H3'15958   2.654   0.564  12.099  0.5864  0.3680  0.9265
  132CHL1    C415959   2.698   0.529  12.326 -0.2082  0.0116 -0.0670
  132CHL1   H4A15960   2.587   0.534  12.323 -0.2565  0.8575  1.8995
  132CHL1   H4B15961   2.725   0.443  12.261  0.0786  0.7545 -0.9504
  132CHL1    C515962   2.749   0.524  12.464  0.2555 -0.2641 -0.4488
  132CHL1    C615963   2.820   0.423  12.517 -0.0573 -0.3410 -0.3481
  132CHL1    H615964   2.849   0.339  12.452  0.9599  1.5836 -2.5181
  132CHL1    C715965   2.849   0.415  12.663  1.2504  0.5755 -0.2242
  132CHL1   H7A15966   2.832   0.309  12.692 -3.3317  0.7256 -1.6508
  132CHL1   H7B15967   2.959   0.432  12.670  1.7260 -1.5347 -1.5965
  132CHL1    C815968   2.770   0.506  12.752 -0.1126  0.6011 -0.1490
  132CHL1    H815969   2.666   0.471  12.768  0.9062 -2.5859  0.1249
  132CHL1   C1415970   2.843   0.516  12.883  0.2061  0.1497  0.2642
  132CHL1   H1415971   2.952   0.532  12.867  0.3487 -1.9285 -1.2551
  132CHL1   C1515972   2.845   0.386  12.974  0.2682  0.0843  0.3030
  132CHL1  H15A15973   2.749   0.330  12.968 -0.0640  0.5701  0.8930
  132CHL1  H15B15974   2.924   0.323  12.930  0.0403  0.2954 -0.4171
  132CHL1   C1615975   2.866   0.436  13.116 -0.0660  0.0342  0.1518
  132CHL1  H16A15976   2.781   0.407  13.182 -0.1577  1.7196  0.8351
  132CHL1  H16B15977   2.963   0.402  13.158 -0.2984 -0.2084  0.5058
  132CHL1   C1715978   2.859   0.596  13.115  0.2820 -0.3566 -0.1732
  132CHL1   H1715979   2.967   0.621  13.107  0.6247 -1.3380  1.0317
  132CHL1   C1315980   2.787   0.627  12.982  0.3759 -0.5477  0.6077
  132CHL1   C1815981   2.634   0.616  13.004  0.0012  0.9155  0.4769
  132CHL1  H18A15982   2.618   0.528  13.070  0.8628  1.0112  0.8274
  132CHL1  H18B15983   2.590   0.709  13.048 -1.7488 -0.1537  1.1059
  132CHL1  H18C15984   2.581   0.599  12.908  2.0817 -0.0205 -0.5797
  132CHL1   C1215985   2.823   0.755  12.914 -0.3276  0.5106  0.4595
  132CHL1  H12A15986   2.802   0.845  12.975 -2.2456  0.1502  0.3941
  132CHL1  H12B15987   2.932   0.762  12.895 -0.8252  1.2400 -2.6697
  132CHL1   C1115988   2.750   0.762  12.779  0.0591 -0.2634  0.7929
  132CHL1  H11A15989   2.643   0.780  12.801 -0.6629 -1.3827 -1.4886
  132CHL1  H11B15990   2.776   0.861  12.736  0.0050  0.2619  1.9115
  132CHL1    C915991   2.781   0.645  12.685 -0.2162  0.4806 -0.4235
  132CHL1    H915992   2.890   0.651  12.668 -0.2192  0.6382 -0.3852
  132CHL1   C1015993   2.711   0.654  12.551 -0.2592  0.0143 -0.0228
  132CHL1   C1915994   2.556   0.674  12.567  0.2917 -0.0094  0.0065
  132CHL1  H19A15995   2.537   0.780  12.595  1.7936 -0.1589  1.7918
  132CHL1  H19B15996   2.502   0.661  12.471 -0.6703  0.1345  0.5212
  132CHL1  H19C15997   2.510   0.607  12.643  0.9882  0.3930  0.7974
  132CHL1    C115998   2.784   0.773  12.463  0.7516 -0.0168  0.4662
  132CHL1   H1A15999   2.762   0.869  12.513  2.8371  0.9299 -0.3178
  132CHL1   H1B16000   2.894   0.757  12.463  0.7277 -0.1820  0.3373
  132CHL1    C216001   2.736   0.784  12.319 -0.0360  0.2622  0.4475
  132CHL1   H2A16002   2.793   0.852  12.253  0.3496 -1.1254 -0.7118
  132CHL1   H2B16003   2.627   0.802  12.309 -0.4106 -2.2299 -0.9440
  132CHL1   C2016004   2.795   0.652  13.249 -0.2009 -0.6209 -0.3220
  132CHL1   H2016005   2.689   0.623  13.267 -0.2293  1.3927  4.0963
  132CHL1   C2116006   2.802   0.808  13.255  0.1874 -0.5895 -0.0566
  132CHL1  H21A16007   2.786   0.837  13.362  3.5097  0.2535  0.3460
  132CHL1  H21B16008   2.727   0.867  13.198 -0.2528 -0.3937  0.7118
  132CHL1  H21C16009   2.908   0.836  13.236  0.2182  1.4902  2.5176
  132CHL1   C2216010   2.863   0.595  13.375 -0.5270  0.3193  0.1504
  132CHL1  H22A16011   2.849   0.485  13.370 -0.3856  0.3169 -0.2518
  132CHL1  H22B16012   2.972   0.611  13.362 -0.6767  1.2585 -0.0578
  132CHL1   C2316013   2.797   0.625  13.508  0.2631 -0.7760  0.5257
  132CHL1  H23A16014   2.805   0.734  13.530  1.9384 -0.7743  0.0604
  132CHL1  H23B16015   2.689   0.602  13.504 -0.2301  1.4261 -0.3381
  132CHL1   C2416016   2.853   0.550  13.624  0.1225  0.2150 -0.2501
  132CHL1  H24A16017   2.831   0.441  13.616  0.5725  0.1997 -1.6090
  132CHL1  H24B16018   2.963   0.565  13.633  0.1610 -0.8552  1.5620
  132CHL1   C2516019   2.783   0.603  13.757  0.4573  0.7062 -0.6476
  132CHL1   H2516020   2.677   0.568  13.755  0.9971 -1.0189 -0.2425
  132CHL1   C2616021   2.851   0.523  13.867 -0.4270 -0.0307  0.1418
  132CHL1  H26A16022   2.961   0.533  13.871 -0.3352 -0.9605  0.1401
  132CHL1  H26B16023   2.805   0.545  13.966  0.6123  0.5589  0.5035
  132CHL1  H26C16024   2.834   0.415  13.850 -0.3538 -0.0789  0.3731
  132CHL1   C2716025   2.796   0.748  13.797  0.5514  0.7886 -0.4328
  132CHL1  H27A16026   2.904   0.773  13.792  0.3866  1.3233 -1.6900
  132CHL1  H27B16027   2.732   0.816  13.736  0.0372 -0.0812 -0.8811
  132CHL1  H27C16028   2.768   0.772  13.902 -2.2271  0.8324 -1.0988
  133CHL1    C316029   2.885   3.794  13.950 -0.1807  0.1451  0.1302
  133CHL1    H316030   2.883   3.855  14.043  1.4440  0.3926  0.0345
  133CHL1    O316031   3.011   3.824  13.877  0.0645  0.4957 -0.2583
  133CHL1   H3'16032   2.987   3.836  13.785  1.1730  0.4340 -0.5754
  133CHL1    C416033   2.863   3.646  13.979  0.3181  0.0541 -0.0296
  133CHL1   H4A16034   2.863   3.589  13.883 -0.0646 -1.3557  0.7838
  133CHL1   H4B16035   2.952   3.595  14.022  0.2979  1.1034  1.3207
  133CHL1    C516036   2.734   3.612  14.050  0.1257 -0.1670 -0.4658
  133CHL1    C616037   2.732   3.558  14.175 -0.1592  0.1377  0.0117
  133CHL1    H616038   2.827   3.535  14.226 -0.2694  0.0749  0.1876
  133CHL1    C716039   2.603   3.532  14.251 -0.3973 -0.5201 -0.2243
  133CHL1   H7A16040   2.620   3.439  14.309 -0.1729 -0.4321 -0.1480
  133CHL1   H7B16041   2.596   3.610  14.330  0.0312 -0.0510 -0.6419
  133CHL1    C816042   2.469   3.532  14.170  0.2842  0.1282 -0.2707
  133CHL1    H816043   2.479   3.430  14.127  1.9078 -0.6862  1.8442
  133CHL1   C1416044   2.349   3.531  14.264  0.9465  0.3277 -0.0987
  133CHL1   H1416045   2.354   3.623  14.326 -0.9100 -0.5082  1.4445
  133CHL1   C1516046   2.331   3.417  14.368  0.4492  0.4969 -0.4579
  133CHL1  H15A16047   2.334   3.314  14.328  0.9732  0.4373 -0.2780
  133CHL1  H15B16048   2.405   3.423  14.451  0.5522 -0.0325 -0.5054
  133CHL1   C1616049   2.178   3.444  14.406 -0.7504  0.2522  0.3042
  133CHL1  H16A16050   2.133   3.345  14.430  1.9668 -0.7256  1.8079
  133CHL1  H16B16051   2.178   3.503  14.500 -0.5625 -1.3275  1.3309
  133CHL1   C1716052   2.123   3.532  14.290  0.5549 -0.5758  0.4738
  133CHL1   H1716053   2.132   3.637  14.323  0.8147 -0.2853 -0.4888
  133CHL1   C1316054   2.220   3.532  14.177 -0.0865  0.1623 -0.2904
  133CHL1   C1816055   2.195   3.399  14.101  0.4410  0.5148  0.6838
  133CHL1  H18A16056   2.183   3.314  14.172 -0.3893  2.0417  2.4237
  133CHL1  H18B16057   2.108   3.405  14.032  0.5943 -0.8578  0.3424
  133CHL1  H18C16058   2.288   3.385  14.042  0.4652 -0.5032  0.9466
  133CHL1   C1216059   2.226   3.662  14.089 -0.1452 -0.3510 -0.2160
  133CHL1  H12A16060   2.135   3.671  14.025 -0.1830 -0.7995 -0.2253
  133CHL1  H12B16061   2.245   3.752  14.152  1.3936 -1.5182  1.0663
  133CHL1   C1116062   2.345   3.655  13.994 -0.3024  1.0022  0.1968
  133CHL1  H11A16063   2.328   3.563  13.933 -0.9347  1.3638 -0.1785
  133CHL1  H11B16064   2.348   3.743  13.926  1.8452 -0.4032 -1.6780
  133CHL1    C916065   2.480   3.646  14.067 -0.6015 -0.0934  0.1017
  133CHL1    H916066   2.492   3.741  14.123  1.9860  0.2338 -0.8660
  133CHL1   C1016067   2.611   3.648  13.975 -0.4792  1.0776  0.0002
  133CHL1   C1916068   2.588   3.548  13.848 -0.0507 -0.0022 -0.3194
  133CHL1  H19A16069   2.684   3.547  13.792  2.6641  1.8664  3.7974
  133CHL1  H19B16070   2.580   3.443  13.881 -0.0231 -0.4329 -1.6003
  133CHL1  H19C16071   2.497   3.578  13.791 -0.9433  1.4930  1.7818
  133CHL1    C116072   2.627   3.792  13.921  0.4384 -0.2393  0.0915
  133CHL1   H1A16073   2.556   3.812  13.839  1.2672  0.4094 -0.4927
  133CHL1   H1B16074   2.605   3.860  14.006 -0.8299  0.8412 -1.0469
  133CHL1    C216075   2.772   3.830  13.862  0.1811  0.0658  0.1708
  133CHL1   H2A16076   2.767   3.941  13.864 -1.3848  0.0883  3.9584
  133CHL1   H2B16077   2.781   3.806  13.754 -1.8815  2.4586 -0.6458
  133CHL1   C2016078   1.975   3.507  14.262  0.2088 -0.4297  0.1869
  133CHL1   H2016079   1.964   3.402  14.228  2.1425 -0.8930  0.8500
  133CHL1   C2116080   1.916   3.603  14.158  0.4526 -0.0753 -0.1509
  133CHL1  H21A16081   1.955   3.577  14.057 -2.6665  1.6634 -1.9356
  133CHL1  H21B16082   1.951   3.706  14.180 -2.8284  1.1480 -0.1085
  133CHL1  H21C16083   1.806   3.607  14.150  0.3904  1.8878  1.1378
  133CHL1   C2216084   1.887   3.521  14.391  0.8210 -0.3461 -0.3468
  133CHL1  H22A16085   1.784   3.503  14.353  0.8239 -0.8080 -0.1468
  133CHL1  H22B16086   1.909   3.445  14.469  2.2983  2.1764  1.8526
  133CHL1   C2316087   1.891   3.658  14.467  0.0039  0.2655  0.7524
  133CHL1  H23A16088   1.992   3.680  14.507  0.2465  0.7494 -0.1097
  133CHL1  H23B16089   1.859   3.733  14.392 -0.4318 -0.2720  0.3866
  133CHL1   C2416090   1.781   3.652  14.574  0.0144  0.2666 -0.6240
  133CHL1  H24A16091   1.684   3.661  14.521 -0.3909  1.6594  0.2927
  133CHL1  H24B16092   1.801   3.550  14.613  2.4826 -0.0443 -2.4304
  133CHL1   C2516093   1.803   3.755  14.690  0.1547 -0.0570  0.7224
  133CHL1   H2516094   1.911   3.776  14.708 -0.0867  1.6789  0.3469
  133CHL1   C2616095   1.749   3.893  14.637 -0.2999  0.0656  0.1501
  133CHL1  H26A16096   1.786   3.923  14.537 -2.4170 -2.1291 -1.3978
  133CHL1  H26B16097   1.641   3.883  14.614 -0.1662 -0.3605 -0.3131
  133CHL1  H26C16098   1.760   3.966  14.720  2.2020 -1.4707  1.2895
  133CHL1   C2716099   1.731   3.733  14.828  0.0485 -0.0093 -0.6574
  133CHL1  H27A16100   1.743   3.827  14.885  1.3724  0.2644 -1.3534
  133CHL1  H27B16101   1.621   3.717  14.816 -0.1108  1.4250 -1.3605
  133CHL1  H27C16102   1.769   3.647  14.888 -0.1400 -0.1690 -0.7625
  134CHL1    C316103   1.077   2.804  12.563  0.4730  0.1689 -0.0715
  134CHL1    H316104   1.080   2.694  12.548  1.0773  0.4343 -2.1482
  134CHL1    O316105   1.102   2.879  12.441 -0.4876  0.0634 -0.1295
  134CHL1   H3'16106   1.019   2.881  12.393 -0.2306  0.0527 -0.5765
  134CHL1    C416107   0.937   2.839  12.612  0.4278 -0.3671 -0.0647
  134CHL1   H4A16108   0.935   2.950  12.612  2.4581 -0.2944 -0.9651
  134CHL1   H4B16109   0.861   2.815  12.535  1.1119  0.6906 -1.0907
  134CHL1    C516110   0.891   2.801  12.754 -0.3190  0.4191 -0.0991
  134CHL1    C616111   0.774   2.730  12.774 -0.0292  0.6894  0.2381
  134CHL1    H616112   0.705   2.703  12.693  0.7844  0.3233 -0.3516
  134CHL1    C716113   0.734   2.684  12.910 -0.1835  0.0621 -0.1253
  134CHL1   H7A16114   0.624   2.681  12.918 -0.4011 -1.1845 -2.6618
  134CHL1   H7B16115   0.749   2.574  12.914 -0.4044  0.0385  0.0847
  134CHL1    C816116   0.812   2.757  13.019 -0.1676 -0.2193  0.0286
  134CHL1    H816117   0.786   2.865  13.019 -2.1057 -0.6388 -0.2392
  134CHL1   C1416118   0.778   2.692  13.150 -0.8666  0.2647 -0.5994
  134CHL1   H1416119   0.819   2.589  13.147  0.3228  0.3027  4.7420
  134CHL1   C1516120   0.629   2.664  13.184 -0.1330 -0.9150  0.0189
  134CHL1  H15A16121   0.579   2.763  13.169  0.2556 -0.7062  0.0942
  134CHL1  H15B16122   0.578   2.593  13.116 -1.3814  0.4072 -0.5038
  134CHL1   C1616123   0.633   2.650  13.331  0.2849  0.1488  0.5171
  134CHL1  H16A16124   0.570   2.721  13.388  1.0332  0.7957  0.5648
  134CHL1  H16B16125   0.596   2.550  13.362  0.1991 -0.5811 -1.7642
  134CHL1   C1716126   0.780   2.660  13.385 -0.1661 -0.4188  0.5408
  134CHL1   H1716127   0.828   2.561  13.373 -0.5119 -0.7688  1.8820
  134CHL1   C1316128   0.844   2.751  13.275  0.0982  0.1638  0.1575
  134CHL1   C1816129   0.796   2.896  13.293 -0.2851 -0.4207  0.3165
  134CHL1  H18A16130   0.846   2.935  13.384  1.6936 -2.4987  0.2183
  134CHL1  H18B16131   0.833   2.954  13.206  2.6542 -1.9872  0.4113
  134CHL1  H18C16132   0.686   2.913  13.297 -0.1490  0.2985  1.1907
  134CHL1   C1216133   0.994   2.739  13.253 -0.3307 -0.6059  0.0023
  134CHL1  H12A16134   1.061   2.772  13.335 -0.0552 -1.0061 -0.0558
  134CHL1  H12B16135   1.024   2.632  13.249  1.1432 -0.3057  1.4982
  134CHL1   C1116136   1.040   2.799  13.124 -0.1392 -0.3675  0.0193
  134CHL1  H11A16137   1.033   2.908  13.144  1.1680 -0.1473 -0.6322
  134CHL1  H11B16138   1.144   2.772  13.097 -0.8659 -1.1424 -2.2622
  134CHL1    C916139   0.961   2.752  12.997 -0.7406 -0.2399  0.3714
  134CHL1    H916140   0.995   2.649  12.972  1.6841  0.9745 -1.8894
  134CHL1   C1016141   0.996   2.832  12.861  0.4022  0.7086 -0.1213
  134CHL1   C1916142   0.985   2.982  12.886 -0.7164 -0.0926 -0.6912
  134CHL1  H19A16143   1.070   3.018  12.947 -0.7498 -2.3876  0.8684
  134CHL1  H19B16144   0.994   3.045  12.796  2.3701  2.0114  0.9161
  134CHL1  H19C16145   0.891   3.021  12.930  1.1015  1.7479  1.8473
  134CHL1    C116146   1.144   2.812  12.811 -0.1202  1.3139 -0.6901
  134CHL1   H1A16147   1.215   2.864  12.878  0.1566  1.3141 -0.9853
  134CHL1   H1B16148   1.157   2.702  12.819 -1.2579  1.2964  1.8982
  134CHL1    C216149   1.171   2.859  12.669 -0.0717 -0.0471 -0.7274
  134CHL1   H2A16150   1.272   2.822  12.637 -0.1599  0.7979 -2.0575
  134CHL1   H2B16151   1.174   2.970  12.670 -0.7672 -0.0273 -0.4085
  134CHL1   C2016152   0.790   2.697  13.533  0.7898 -0.2494  0.1915
  134CHL1   H2016153   0.759   2.804  13.537 -0.3649 -0.5826  0.4457
  134CHL1   C2116154   0.933   2.686  13.583  0.3264 -0.4411 -0.6168
  134CHL1  H21A16155   0.968   2.582  13.565  0.1127 -0.6902  0.3333
  134CHL1  H21B16156   0.932   2.693  13.694 -2.2797 -0.9805 -0.5367
  134CHL1  H21C16157   0.999   2.761  13.535 -2.1946  0.2420 -3.3515
  134CHL1   C2216158   0.686   2.615  13.623 -0.0095 -0.1285 -0.1152
  134CHL1  H22A16159   0.688   2.659  13.725  1.2880  2.0400 -0.9961
  134CHL1  H22B16160   0.582   2.635  13.591 -0.1342 -1.1987 -0.3889
  134CHL1   C2316161   0.712   2.464  13.633 -0.4945  0.0632 -0.1616
  134CHL1  H23A16162   0.727   2.421  13.531 -0.4956 -0.0506 -0.1141
  134CHL1  H23B16163   0.810   2.446  13.682 -0.5810 -0.3603 -0.1429
  134CHL1   C2416164   0.601   2.390  13.708  0.7128 -0.1320  0.2868
  134CHL1  H24A16165   0.498   2.405  13.669  1.2280  1.2809 -0.5977
  134CHL1  H24B16166   0.613   2.279  13.702  0.4373 -0.2803  1.8962
  134CHL1   C2516167   0.591   2.429  13.854 -0.3658 -0.3135  0.0020
  134CHL1   H2516168   0.582   2.540  13.864  0.7800 -0.3424  1.7579
  134CHL1   C2616169   0.459   2.375  13.921  0.2097 -0.2726  0.1744
  134CHL1  H26A16170   0.449   2.398  14.029  1.1840 -0.8280  0.4030
  134CHL1  H26B16171   0.370   2.426  13.878  0.7028  0.4091 -0.0603
  134CHL1  H26C16172   0.451   2.265  13.906  2.8267 -0.7717  1.7739
  134CHL1   C2716173   0.706   2.379  13.935 -0.2439 -0.6215  0.2834
  134CHL1  H27A16174   0.729   2.271  13.941  0.7567 -0.4611 -0.4061
  134CHL1  H27B16175   0.803   2.420  13.900  0.2339 -0.3852  1.8003
  134CHL1  H27C16176   0.701   2.414  14.041 -0.2998  0.8230 -0.1778
  135CHL1    C316177   6.473   2.746  12.075 -0.0480  0.2155  0.0896
  135CHL1    H316178   6.542   2.826  12.108 -0.5425  0.5211  0.3849
  135CHL1    O316179   6.449   2.759  11.937 -0.1890 -0.1785  0.1843
  135CHL1   H3'16180   6.375   2.701  11.919  0.7317 -1.4602  0.4085
  135CHL1    C416181   6.539   2.606  12.103  0.3116  0.2412 -0.0384
  135CHL1   H4A16182   6.463   2.536  12.062  0.8027 -1.6485  2.0484
  135CHL1   H4B16183   6.629   2.592  12.039 -0.2062  3.9232 -1.8462
  135CHL1    C516184   6.544   2.575  12.253 -0.4621 -0.3321  0.1301
  135CHL1    C616185   6.659   2.552  12.320 -0.9880  0.0525 -0.5124
  135CHL1    H616186   6.760   2.557  12.277  0.1984 -0.8166  1.9705
  135CHL1    C716187   6.677   2.522  12.469 -0.0548  0.5214  0.0912
  135CHL1   H7A16188   6.753   2.443  12.484 -0.7133 -0.0792  0.2982
  135CHL1   H7B16189   6.719   2.612  12.519 -2.9774  1.5836  0.8633
  135CHL1    C816190   6.539   2.474  12.526 -0.3674 -0.1597  0.3012
  135CHL1    H816191   6.517   2.370  12.493 -1.0607 -0.6865  2.2820
  135CHL1   C1416192   6.548   2.475  12.679 -0.5417 -0.4003 -0.1519
  135CHL1   H1416193   6.565   2.581  12.710 -1.6408 -0.1538 -0.3328
  135CHL1   C1516194   6.656   2.391  12.743 -0.8589  0.1421 -0.6205
  135CHL1  H15A16195   6.661   2.285  12.710  3.0088  0.4859 -1.7065
  135CHL1  H15B16196   6.756   2.440  12.733 -0.5490 -0.4473 -0.4833
  135CHL1   C1616197   6.616   2.391  12.897  0.2592  0.2833 -0.3770
  135CHL1  H16A16198   6.612   2.287  12.936 -1.2585  1.0583  1.7776
  135CHL1  H16B16199   6.696   2.452  12.943  0.1143  0.5618 -0.4896
  135CHL1   C1716200   6.482   2.455  12.902 -0.1701  0.1394 -0.5648
  135CHL1   H1716201   6.498   2.562  12.929  3.6684 -0.5680  0.5794
  135CHL1   C1316202   6.425   2.439  12.760  0.0617  1.1075  0.4040
  135CHL1   C1816203   6.381   2.294  12.741  0.0545 -0.4186  0.0848
  135CHL1  H18A16204   6.281   2.284  12.789 -0.4353  1.0392 -0.5801
  135CHL1  H18B16205   6.379   2.281  12.631  0.8189 -0.4323  0.0637
  135CHL1  H18C16206   6.449   2.225  12.797  0.4931  1.0631  1.4627
  135CHL1   C1216207   6.317   2.538  12.715  0.0332  0.4074  0.5435
  135CHL1  H12A16208   6.221   2.526  12.770  0.3735 -2.5945  0.6368
  135CHL1  H12B16209   6.362   2.637  12.738  1.4191 -0.3343  1.1514
  135CHL1   C1116210   6.293   2.539  12.558  0.1267 -0.0817  0.6182
  135CHL1  H11A16211   6.244   2.445  12.524 -0.7807  1.0463 -1.3514
  135CHL1  H11B16212   6.226   2.620  12.522  3.2457  1.3162 -2.6264
  135CHL1    C916213   6.427   2.562  12.480  0.3545  0.7355  0.1967
  135CHL1    H916214   6.452   2.668  12.505  0.4756  0.8032 -0.2156
  135CHL1   C1016215   6.408   2.571  12.325 -1.3742  0.1626 -0.1952
  135CHL1   C1916216   6.337   2.447  12.259 -1.0209 -0.0640  0.0206
  135CHL1  H19A16217   6.406   2.361  12.261 -2.2057 -1.0420  0.5280
  135CHL1  H19B16218   6.245   2.419  12.315 -1.9926  1.0666 -0.9375
  135CHL1  H19C16219   6.302   2.463  12.155 -1.7430  0.7037  0.3631
  135CHL1    C116220   6.344   2.712  12.298  0.3730 -0.3123  0.1821
  135CHL1   H1A16221   6.242   2.721  12.341  0.9992 -0.8274  1.8634
  135CHL1   H1B16222   6.412   2.787  12.345  0.7885 -0.7118  0.2238
  135CHL1    C216223   6.340   2.745  12.152  0.2168 -0.0119  0.6224
  135CHL1   H2A16224   6.289   2.841  12.128 -1.4907 -1.2925 -1.3177
  135CHL1   H2B16225   6.274   2.666  12.108 -0.0226 -0.0072  0.9701
  135CHL1   C2016226   6.405   2.397  13.022  0.3051  0.3143  0.7218
  135CHL1   H2016227   6.385   2.288  13.011  1.4967 -0.2034  3.0281
  135CHL1   C2116228   6.264   2.462  13.014 -0.1032 -0.7831  0.1144
  135CHL1  H21A16229   6.278   2.566  12.978  0.3061 -1.1216 -0.7309
  135CHL1  H21B16230   6.215   2.475  13.113  0.7612 -0.5124  0.5225
  135CHL1  H21C16231   6.188   2.417  12.947  0.7226  0.4240 -1.7184
  135CHL1   C2216232   6.475   2.431  13.149  0.0648 -0.5259 -0.1835
  135CHL1  H22A16233   6.577   2.388  13.152 -0.8402 -2.9722 -1.8999
  135CHL1  H22B16234   6.481   2.541  13.166 -2.8621 -0.2474 -0.3450
  135CHL1   C2316235   6.397   2.371  13.267  0.2896 -0.6199 -0.9570
  135CHL1  H23A16236   6.302   2.427  13.284 -0.3288 -1.0758 -2.7091
  135CHL1  H23B16237   6.368   2.264  13.252 -0.2891 -0.7235  0.6082
  135CHL1   C2416238   6.469   2.386  13.404 -0.0873 -0.3642  0.0929
  135CHL1  H24A16239   6.579   2.374  13.396  0.3870  1.7050  2.2093
  135CHL1  H24B16240   6.464   2.494  13.432  0.6018 -0.2678 -0.1273
  135CHL1   C2516241   6.420   2.295  13.520  1.0023  0.0840  0.0647
  135CHL1   H2516242   6.414   2.194  13.474 -1.4564  0.9177 -1.6622
  135CHL1   C2616243   6.511   2.290  13.642 -0.5779  0.6062 -0.0306
  135CHL1  H26A16244   6.499   2.196  13.701  1.6471 -0.3294 -0.9366
  135CHL1  H26B16245   6.615   2.285  13.603 -0.7017 -0.9220 -0.2449
  135CHL1  H26C16246   6.502   2.376  13.712 -0.1576  1.3112 -0.8262
  135CHL1   C2716247   6.277   2.329  13.571  0.0788  0.1395  0.3203
  135CHL1  H27A16248   6.273   2.433  13.611  0.5298  0.1128  0.4445
  135CHL1  H27B16249   6.206   2.318  13.487 -0.4236  0.5412  0.6901
  135CHL1  H27C16250   6.244   2.260  13.651  1.4738 -1.9692 -0.8253
  136CHL1    C316251   5.135   6.554  12.207  0.0970  0.1496  0.3045
  136CHL1    H316252   5.031   6.518  12.194 -0.4329  1.8719 -0.5502
  136CHL1    O316253   5.187   6.542  12.075 -0.1211 -0.5422  0.0370
  136CHL1   H3'16254   5.281   6.558  12.084 -0.0633  1.7310 -2.9234
  136CHL1    C416255   5.139   6.700  12.255 -1.0736  0.1099  0.5861
  136CHL1   H4A16256   5.245   6.730  12.240 -0.4132 -1.0345  2.6036
  136CHL1   H4B16257   5.074   6.756  12.185  1.6040  0.5753 -1.7485
  136CHL1    C516258   5.085   6.710  12.398 -1.2085  0.1823  0.1383
  136CHL1    C616259   4.981   6.781  12.423  0.3107 -0.6937 -0.4892
  136CHL1    H616260   4.926   6.833  12.343 -0.7764 -0.3360  0.4539
  136CHL1    C716261   4.904   6.790  12.549 -0.4234  0.1500 -0.3449
  136CHL1   H7A16262   4.873   6.896  12.566  0.7478  0.2911  1.1895
  136CHL1   H7B16263   4.820   6.719  12.565 -1.2214  1.3073  0.8505
  136CHL1    C816264   5.009   6.756  12.660 -0.0003 -0.1207  0.1635
  136CHL1    H816265   5.081   6.840  12.653  0.1806  0.0576  2.9258
  136CHL1   C1416266   4.951   6.766  12.799  0.5649 -0.0591 -0.2229
  136CHL1   H1416267   4.870   6.690  12.797  1.4381 -1.0087 -0.4816
  136CHL1   C1516268   4.876   6.895  12.839  0.1980  0.4407  0.1177
  136CHL1  H15A16269   4.923   6.990  12.807  0.6667  1.0264  2.4029
  136CHL1  H15B16270   4.772   6.888  12.798  0.9038 -3.7437 -1.4167
  136CHL1   C1616271   4.863   6.882  12.994 -0.4679  0.2283  1.2665
  136CHL1  H16A16272   4.899   6.982  13.027 -1.9900  1.4486 -0.5134
  136CHL1  H16B16273   4.756   6.873  13.023 -0.7847 -0.0961  0.0467
  136CHL1   C1716274   4.950   6.761  13.040 -0.1124 -0.1228  0.0418
  136CHL1   H1716275   4.875   6.681  13.054 -1.5444  1.1973  0.1254
  136CHL1   C1316276   5.041   6.732  12.924  0.3318  0.2162  0.2429
  136CHL1   C1816277   5.159   6.837  12.926 -0.6298  0.1459 -0.2530
  136CHL1  H18A16278   5.248   6.795  12.977 -0.6697  0.1933 -0.1432
  136CHL1  H18B16279   5.192   6.858  12.822 -0.8029 -1.6797 -0.7087
  136CHL1  H18C16280   5.138   6.938  12.967 -1.2549  0.7006 -1.8739
  136CHL1   C1216281   5.093   6.589  12.898 -0.1703  0.3817  0.3735
  136CHL1  H12A16282   5.170   6.570  12.976  0.6368  1.0859 -0.2382
  136CHL1  H12B16283   5.014   6.511  12.910 -1.4612  1.0652 -2.6245
  136CHL1   C1116284   5.166   6.572  12.762 -0.1629 -0.3118  0.7098
  136CHL1  H11A16285   5.263   6.626  12.764 -0.7926  0.9546 -0.4981
  136CHL1  H11B16286   5.184   6.463  12.749 -0.3741 -0.0630 -2.5928
  136CHL1    C916287   5.075   6.618  12.636 -0.2334  0.0209 -0.0815
  136CHL1    H916288   4.984   6.553  12.630  0.6678 -1.2416 -0.4327
  136CHL1   C1016289   5.153   6.614  12.500  0.4838 -0.6326 -0.1175
  136CHL1   C1916290   5.294   6.682  12.516 -0.3179  0.1692 -0.0805
  136CHL1  H19A16291   5.282   6.783  12.561  0.7127  0.3283 -0.1517
  136CHL1  H19B16292   5.364   6.621  12.577 -0.8362 -0.6625 -0.3018
  136CHL1  H19C16293   5.351   6.704  12.424  0.7761  1.2738  0.8158
  136CHL1    C116294   5.161   6.470  12.440  0.0403 -0.4015 -0.8489
  136CHL1   H1A16295   5.231   6.414  12.506  2.0402  2.6267 -0.2077
  136CHL1   H1B16296   5.060   6.425  12.448  0.4553 -1.1118  0.7551
  136CHL1    C216297   5.218   6.469  12.299 -0.0931 -0.0820 -0.9070
  136CHL1   H2A16298   5.221   6.365  12.260 -0.2900  0.0405 -1.2520
  136CHL1   H2B16299   5.326   6.499  12.298  0.6989 -2.6627 -0.4735
  136CHL1   C2016300   5.012   6.782  13.181 -0.3048  0.0674 -0.3901
  136CHL1   H2016301   5.086   6.865  13.181 -1.6305  1.2846 -1.1485
  136CHL1   C2116302   5.083   6.652  13.216  0.0123 -1.4349 -0.4552
  136CHL1  H21A16303   5.011   6.568  13.206 -3.4161  0.9962  1.4213
  136CHL1  H21B16304   5.117   6.645  13.322  2.3130  2.4469 -0.7650
  136CHL1  H21C16305   5.174   6.649  13.153  0.4700 -1.4384  0.1894
  136CHL1   C2216306   4.901   6.816  13.287  0.1245  0.8055  0.0626
  136CHL1  H22A16307   4.839   6.898  13.246 -0.5538  0.4948  0.4418
  136CHL1  H22B16308   4.834   6.728  13.299  1.0754  0.2339  1.6482
  136CHL1   C2316309   4.935   6.861  13.431  0.5157 -0.5731 -0.1272
  136CHL1  H23A16310   4.979   6.785  13.498  1.1903  0.2794  0.4310
  136CHL1  H23B16311   5.021   6.931  13.439 -0.3362  0.3960  1.1794
  136CHL1   C2416312   4.806   6.926  13.499 -0.5013  0.0366 -0.0678
  136CHL1  H24A16313   4.749   6.998  13.437 -0.7533 -1.2259 -1.3493
  136CHL1  H24B16314   4.733   6.843  13.504 -0.6480  0.2315  1.4580
  136CHL1   C2516315   4.841   6.984  13.640  0.5313  0.4782 -0.6411
  136CHL1   H2516316   4.913   6.916  13.690  0.6746  0.9934 -0.1359
  136CHL1   C2616317   4.914   7.114  13.624  0.2337  0.4416 -0.1590
  136CHL1  H26A16318   4.941   7.164  13.719 -2.7041  0.0483  0.9889
  136CHL1  H26B16319   5.006   7.100  13.564  0.5468  1.8842 -0.0581
  136CHL1  H26C16320   4.843   7.186  13.577 -2.2722 -1.5694  0.3253
  136CHL1   C2716321   4.717   6.993  13.730 -0.0866  0.0759  0.4474
  136CHL1  H27A16322   4.742   7.004  13.838 -2.4958 -3.0060  1.4619
  136CHL1  H27B16323   4.652   7.074  13.691  0.5839 -1.1800 -3.7936
  136CHL1  H27C16324   4.673   6.892  13.716 -0.2678  0.3211 -0.8824
  137CHL1    C316325   2.511   1.696  12.343 -0.6876 -0.3170 -0.2577
  137CHL1    H316326   2.423   1.762  12.357 -0.1060  0.4546 -0.1828
  137CHL1    O316327   2.571   1.721  12.215  0.0324  0.2768  0.4829
  137CHL1   H3'16328   2.610   1.641  12.178  1.8438  1.0464  0.6639
  137CHL1    C416329   2.629   1.732  12.443 -0.0403 -0.0942  0.8151
  137CHL1   H4A16330   2.728   1.686  12.422  0.0623  0.7472 -0.6200
  137CHL1   H4B16331   2.652   1.837  12.415 -0.6948 -0.2969 -0.5347
  137CHL1    C516332   2.596   1.716  12.588  0.9550  0.7095 -0.2203
  137CHL1    C616333   2.594   1.826  12.665  0.1771 -0.1077  0.0744
  137CHL1    H616334   2.632   1.923  12.629  1.1273  0.0173  1.3295
  137CHL1    C716335   2.574   1.825  12.812 -0.1484  0.5527 -0.0742
  137CHL1   H7A16336   2.667   1.867  12.854 -0.0082  0.1772 -0.0031
  137CHL1   H7B16337   2.484   1.884  12.842  0.0644 -0.6049  3.3739
  137CHL1    C816338   2.547   1.682  12.867 -0.8524  0.2416 -0.1383
  137CHL1    H816339   2.643   1.634  12.895  0.0987  1.1443 -1.7127
  137CHL1   C1416340   2.474   1.693  13.000  0.5254  0.0409 -0.5967
  137CHL1   H1416341   2.382   1.745  12.965 -0.5873 -0.6537  1.1151
  137CHL1   C1516342   2.539   1.772  13.112  0.2611  0.6275 -0.1737
  137CHL1  H15A16343   2.644   1.739  13.131 -0.0496 -0.5985 -0.5340
  137CHL1  H15B16344   2.537   1.883  13.104  0.5954  0.7272  0.9144
  137CHL1   C1616345   2.442   1.740  13.232 -0.6488  0.7520 -0.1025
  137CHL1  H16A16346   2.516   1.716  13.311 -0.6137  1.0103 -0.0578
  137CHL1  H16B16347   2.397   1.837  13.262 -0.7322  0.6419  0.1264
  137CHL1   C1716348   2.349   1.624  13.190 -0.4047 -0.2597 -0.1915
  137CHL1   H1716349   2.247   1.659  13.163 -0.5228 -2.1456 -2.4923
  137CHL1   C1316350   2.408   1.566  13.058 -0.4416  0.8497  0.0576
  137CHL1   C1816351   2.529   1.477  13.109  0.1139 -0.0003 -0.7181
  137CHL1  H18A16352   2.577   1.518  13.201 -0.6816  0.8526 -0.6689
  137CHL1  H18B16353   2.498   1.375  13.139  3.5621 -0.2265  2.9343
  137CHL1  H18C16354   2.605   1.464  13.029  0.6380  0.8848 -0.3853
  137CHL1   C1216355   2.327   1.497  12.958  0.2271  0.4969  0.2503
  137CHL1  H12A16356   2.286   1.401  12.996  0.4559  0.8583  1.4586
  137CHL1  H12B16357   2.240   1.559  12.929  1.4968  3.2084  1.8156
  137CHL1   C1116358   2.403   1.468  12.826  0.0206  0.3878 -0.1009
  137CHL1  H11A16359   2.476   1.387  12.846 -0.8784 -1.2930 -3.0288
  137CHL1  H11B16360   2.340   1.421  12.748  0.4727 -0.4269  0.0126
  137CHL1    C916361   2.463   1.597  12.768 -0.1839  0.1037 -0.3864
  137CHL1    H916362   2.375   1.663  12.750 -0.0488 -0.2440 -2.6074
  137CHL1   C1016363   2.535   1.577  12.628 -0.0865 -0.0966 -0.1043
  137CHL1   C1916364   2.647   1.475  12.643  0.0740 -0.4066 -0.1369
  137CHL1  H19A16365   2.611   1.381  12.692  0.1629 -0.9883 -1.1522
  137CHL1  H19B16366   2.696   1.460  12.544 -2.6233  2.8529 -2.2011
  137CHL1  H19C16367   2.718   1.521  12.714 -1.9067  1.2958  0.8606
  137CHL1    C116368   2.434   1.528  12.520  0.0641  0.1171 -0.4655
  137CHL1   H1A16369   2.408   1.421  12.534 -0.2922  0.1962 -0.5059
  137CHL1   H1B16370   2.343   1.591  12.524  0.6116  0.8488  1.0449
  137CHL1    C216371   2.482   1.547  12.372 -0.5427 -0.0499  0.3264
  137CHL1   H2A16372   2.409   1.498  12.303 -2.8818  0.6557  2.1402
  137CHL1   H2B16373   2.571   1.482  12.360  0.5907  1.5262 -0.0459
  137CHL1   C2016374   2.327   1.529  13.312 -0.0213 -0.3009  0.5995
  137CHL1   H2016375   2.425   1.488  13.345  0.2351 -0.0560  0.1505
  137CHL1   C2116376   2.232   1.406  13.278 -0.1171 -0.6833 -0.5145
  137CHL1  H21A16377   2.259   1.361  13.180 -0.1964  1.7891 -1.7442
  137CHL1  H21B16378   2.128   1.444  13.267  0.1278  0.5953  1.2043
  137CHL1  H21C16379   2.243   1.327  13.356  0.9276 -0.0844 -0.0387
  137CHL1   C2216380   2.262   1.607  13.430  0.5919  0.2329 -0.2354
  137CHL1  H22A16381   2.337   1.683  13.461  0.6879 -0.3791  1.1177
  137CHL1  H22B16382   2.174   1.661  13.390  1.0106  1.7294  0.8029
  137CHL1   C2316383   2.224   1.525  13.554  0.2914  0.3196 -0.0328
  137CHL1  H23A16384   2.149   1.444  13.536 -0.5729  1.1534 -0.2764
  137CHL1  H23B16385   2.313   1.475  13.597 -1.6919 -2.7747  0.8346
  137CHL1   C2416386   2.174   1.620  13.668  0.8857 -1.3397 -0.4946
  137CHL1  H24A16387   2.244   1.706  13.673  0.4666 -1.0003 -0.4610
  137CHL1  H24B16388   2.082   1.670  13.630  1.4238  2.6582  2.7938
  137CHL1   C2516389   2.151   1.561  13.807  0.2372 -0.5862  0.5786
  137CHL1   H2516390   2.075   1.483  13.784 -0.4429  0.7775 -2.2204
  137CHL1   C2616391   2.275   1.507  13.873 -0.4722  0.6195 -0.0376
  137CHL1  H26A16392   2.320   1.423  13.816 -0.1797  1.2051 -0.6766
  137CHL1  H26B16393   2.347   1.591  13.870 -0.5074  0.6210 -0.8641
  137CHL1  H26C16394   2.258   1.482  13.980 -0.2629  0.2989 -0.0771
  137CHL1   C2716395   2.082   1.656  13.902  0.9297  0.1101 -0.2932
  137CHL1  H27A16396   2.143   1.738  13.946 -1.2771  0.8891  1.5134
  137CHL1  H27B16397   1.992   1.705  13.859 -0.6190 -3.7259 -1.8904
  137CHL1  H27C16398   2.045   1.582  13.975  0.1284 -0.2457 -1.0275
  138CHL1    C316399   5.176   0.984  12.309 -1.3486 -0.5916  0.0970
  138CHL1    H316400   5.098   0.907  12.325 -1.3400 -0.1499  2.6891
  138CHL1    O316401   5.188   1.003  12.168 -0.3067 -0.0218  0.0883
  138CHL1   H3'16402   5.109   1.053  12.144 -1.2719 -1.4887  0.1024
  138CHL1    C416403   5.140   1.115  12.384  0.0881 -0.0627 -0.0733
  138CHL1   H4A16404   5.211   1.192  12.348  0.5477  0.2814  1.4584
  138CHL1   H4B16405   5.039   1.143  12.349  0.4203 -0.0859 -1.0639
  138CHL1    C516406   5.157   1.089  12.530 -0.5275  0.1659  0.0879
  138CHL1    C616407   5.060   1.116  12.618  0.0514  0.3681  0.7786
  138CHL1    H616408   4.970   1.170  12.582  0.7496  0.1002 -1.4603
  138CHL1    C716409   5.071   1.084  12.763 -0.7619  0.6728 -0.4825
  138CHL1   H7A16410   5.024   1.164  12.823 -1.9681  0.3678 -0.9848
  138CHL1   H7B16411   5.013   0.994  12.794 -0.3881  0.1954 -1.1483
  138CHL1    C816412   5.220   1.084  12.827  0.6517 -0.0621 -0.2206
  138CHL1    H816413   5.260   1.188  12.823  0.0197  0.2343  0.7174
  138CHL1   C1416414   5.216   1.046  12.968  0.2843 -0.3697  0.1474
  138CHL1   H1416415   5.172   0.944  12.968 -0.7982  0.0859  0.5164
  138CHL1   C1516416   5.138   1.136  13.065 -0.5105 -0.1382 -0.0245
  138CHL1  H15A16417   5.152   1.243  13.041 -1.0460 -0.0178  0.1799
  138CHL1  H15B16418   5.031   1.105  13.059 -0.7433  0.8474 -1.6904
  138CHL1   C1616419   5.197   1.111  13.200 -0.2965  0.1671 -0.0280
  138CHL1  H16A16420   5.226   1.206  13.251 -1.8361 -0.2371  1.7477
  138CHL1  H16B16421   5.118   1.062  13.262  0.6021 -1.9958 -0.5059
  138CHL1   C1716422   5.308   1.007  13.183 -0.4728  0.0981  1.0047
  138CHL1   H1716423   5.265   0.904  13.187  0.9721 -0.6387 -1.0892
  138CHL1   C1316424   5.349   1.025  13.031 -0.0160  0.1011  0.0732
  138CHL1   C1816425   5.432   1.161  13.025  0.0304 -0.2749 -0.0928
  138CHL1  H18A16426   5.379   1.242  13.079 -0.6334 -0.7627 -0.0001
  138CHL1  H18B16427   5.538   1.155  13.056 -0.2237  1.2536  1.2299
  138CHL1  H18C16428   5.436   1.198  12.920 -1.1697 -0.8380 -0.3586
  138CHL1   C1216429   5.421   0.909  12.956  0.1842 -0.1111 -0.4705
  138CHL1  H12A16430   5.523   0.905  13.001 -0.3058  2.1594  0.9991
  138CHL1  H12B16431   5.362   0.816  12.973  0.3088  0.0880  1.2158
  138CHL1   C1116432   5.429   0.943  12.807  0.2669 -0.7848  0.2657
  138CHL1  H11A16433   5.505   1.019  12.780  0.4638 -0.1983  2.3457
  138CHL1  H11B16434   5.456   0.851  12.750  1.0890 -0.6010  0.3458
  138CHL1    C916435   5.292   0.987  12.736 -0.0150 -0.1316 -0.3487
  138CHL1    H916436   5.229   0.896  12.734 -1.2527  0.6938 -0.0133
  138CHL1   C1016437   5.294   1.025  12.581  0.3682 -0.1735  0.0271
  138CHL1   C1916438   5.399   1.136  12.557  0.2179  0.3418  0.3027
  138CHL1  H19A16439   5.387   1.226  12.621  1.8964  1.4317 -0.8215
  138CHL1  H19B16440   5.500   1.102  12.588 -0.0922  0.1337  1.1002
  138CHL1  H19C16441   5.407   1.170  12.451  2.4334  4.4653  1.5629
  138CHL1    C116442   5.317   0.901  12.494  0.2004  0.3068  0.4249
  138CHL1   H1A16443   5.425   0.880  12.504  0.8538  3.1765  0.0085
  138CHL1   H1B16444   5.247   0.818  12.519 -1.4509  1.0205 -1.5813
  138CHL1    C216445   5.307   0.928  12.348 -0.2414  0.1050  0.1702
  138CHL1   H2A16446   5.326   0.838  12.285 -0.2242 -0.2127  0.6186
  138CHL1   H2B16447   5.397   0.990  12.326  0.3676 -0.7013  0.3066
  138CHL1   C2016448   5.416   1.013  13.298 -0.2510  0.1502 -0.3078
  138CHL1   H2016449   5.482   1.100  13.276 -0.3485 -0.1230 -1.7784
  138CHL1   C2116450   5.503   0.887  13.293  0.1651 -0.1693 -0.5337
  138CHL1  H21A16451   5.577   0.876  13.374  0.2947  0.8240 -0.5009
  138CHL1  H21B16452   5.560   0.879  13.198  1.2861 -0.4323  0.1411
  138CHL1  H21C16453   5.438   0.798  13.308 -1.3473  1.1478  1.2602
  138CHL1   C2216454   5.357   1.027  13.436 -1.1220  0.0863  0.2806
  138CHL1  H22A16455   5.327   1.134  13.445  0.4362  0.7716 -1.7864
  138CHL1  H22B16456   5.270   0.957  13.440 -1.0075 -0.1317 -0.6459
  138CHL1   C2316457   5.454   1.002  13.550  0.8057 -0.0301  0.0510
  138CHL1  H23A16458   5.485   0.895  13.559  0.2047 -0.1244  1.0948
  138CHL1  H23B16459   5.544   1.065  13.530 -0.7896  1.6630 -2.3671
  138CHL1   C2416460   5.379   1.031  13.680 -0.3643  0.0878 -0.6077
  138CHL1  H24A16461   5.347   1.136  13.664 -0.8413  0.1247  0.4931
  138CHL1  H24B16462   5.291   0.963  13.689 -0.7353  0.7983  2.4562
  138CHL1   C2516463   5.454   1.016  13.819 -0.5190  0.1392  0.0347
  138CHL1   H2516464   5.385   1.059  13.895  0.0551  2.1925 -0.5402
  138CHL1   C2616465   5.498   0.877  13.850  0.2433  0.0200 -0.1315
  138CHL1  H26A16466   5.492   0.872  13.961 -0.7625 -0.2856 -0.1915
  138CHL1  H26B16467   5.416   0.812  13.814 -0.0431 -0.5428  1.4605
  138CHL1  H26C16468   5.600   0.850  13.814  0.4539  0.8226 -0.1619
  138CHL1   C2716469   5.571   1.118  13.814  0.3564  0.4797  0.1239
  138CHL1  H27A16470   5.522   1.217  13.824 -0.4106 -0.1557  4.2666
  138CHL1  H27B16471   5.637   1.100  13.901  0.1848  0.5143  0.2606
  138CHL1  H27C16472   5.631   1.107  13.721  0.1354 -1.1157  0.1429
  139CHL1    C316473   0.797   6.643  12.134  0.2778 -0.9423  0.7949
  139CHL1    H316474   0.751   6.738  12.169 -0.5732  0.1227 -2.8239
  139CHL1    O316475   0.776   6.624  11.998 -0.1851 -0.0618  0.3592
  139CHL1   H3'16476   0.804   6.534  11.980  1.5821  0.6092 -0.3851
  139CHL1    C416477   0.943   6.633  12.167 -0.6646  0.3762  0.1865
  139CHL1   H4A16478   0.987   6.539  12.127 -1.4578 -0.3002  0.8722
  139CHL1   H4B16479   0.998   6.716  12.116  0.1439  0.8647  1.7909
  139CHL1    C516480   0.963   6.643  12.320 -0.5357 -0.5748  0.6740
  139CHL1    C616481   1.035   6.742  12.372  0.2429 -0.3537 -0.1894
  139CHL1    H616482   1.083   6.819  12.309 -1.2671 -0.5006 -1.5710
  139CHL1    C716483   1.066   6.743  12.517 -0.5764 -0.6886 -0.5278
  139CHL1   H7A16484   1.172   6.775  12.526 -1.0106  0.4011  1.1121
  139CHL1   H7B16485   0.998   6.808  12.576  0.7896  0.0028  0.3418
  139CHL1    C816486   1.043   6.605  12.585  0.3862 -0.0108  0.8067
  139CHL1    H816487   1.121   6.537  12.546  0.7581  1.6520 -1.5998
  139CHL1   C1416488   1.065   6.620  12.739  0.1977 -0.0915 -0.1608
  139CHL1   H1416489   0.984   6.687  12.776  2.0993  1.2972  1.7479
  139CHL1   C1516490   1.195   6.684  12.792 -0.5508  0.2304 -0.5083
  139CHL1  H15A16491   1.291   6.650  12.747 -1.3003  2.2985 -4.0649
  139CHL1  H15B16492   1.199   6.794  12.771 -1.2046 -0.2070 -3.3955
  139CHL1   C1616493   1.172   6.663  12.943 -0.5404  0.4811  0.0973
  139CHL1  H16A16494   1.261   6.605  12.973 -2.5963 -3.3799 -0.6249
  139CHL1  H16B16495   1.148   6.752  13.006  0.1074  1.5755 -1.1602
  139CHL1   C1716496   1.042   6.561  12.963 -0.2153 -0.1803  0.6956
  139CHL1   H1716497   0.952   6.627  12.968  0.5994  1.3419 -2.2891
  139CHL1   C1316498   1.026   6.496  12.821  0.1397  0.4220  0.1888
  139CHL1   C1816499   1.135   6.387  12.815 -0.5100  0.3541 -0.3677
  139CHL1  H18A16500   1.227   6.413  12.869  0.0267  0.7666 -1.4562
  139CHL1  H18B16501   1.108   6.280  12.833  1.2785 -0.4123 -1.9377
  139CHL1  H18C16502   1.168   6.380  12.709 -0.0563  0.7631 -0.2510
  139CHL1   C1216503   0.880   6.457  12.778  0.5615 -0.2133  0.2567
  139CHL1  H12A16504   0.834   6.375  12.837 -0.5700 -2.5058 -3.5129
  139CHL1  H12B16505   0.818   6.546  12.802  0.3861  0.3045 -1.9066
  139CHL1   C1116506   0.871   6.420  12.629  0.0532  0.3882 -0.0294
  139CHL1  H11A16507   0.939   6.334  12.609 -0.3914  0.1973 -0.7219
  139CHL1  H11B16508   0.772   6.391  12.589  0.1139  0.5959 -0.3283
  139CHL1    C916509   0.909   6.547  12.548  0.3865  0.4481 -0.4519
  139CHL1    H916510   0.842   6.630  12.578  0.2186  0.0310  0.3733
  139CHL1   C1016511   0.897   6.532  12.400  0.0703  0.6413  0.9561
  139CHL1   C1916512   0.963   6.394  12.359 -0.1936  0.2240  1.0705
  139CHL1  H19A16513   0.889   6.318  12.393 -2.6180  1.9449 -0.0894
  139CHL1  H19B16514   0.964   6.378  12.249  2.2671 -0.8732  1.1797
  139CHL1  H19C16515   1.070   6.392  12.390  1.5590  1.6800 -3.8517
  139CHL1    C116516   0.747   6.548  12.363 -0.1425 -1.1443 -0.8568
  139CHL1   H1A16517   0.685   6.468  12.410  0.1969 -0.6478  0.4936
  139CHL1   H1B16518   0.712   6.644  12.406 -0.5678 -1.5144 -0.3554
  139CHL1    C216519   0.717   6.541  12.209 -0.1405 -0.1753 -0.0405
  139CHL1   H2A16520   0.609   6.560  12.192 -0.3617 -0.1900  1.2201
  139CHL1   H2B16521   0.749   6.438  12.183 -0.0687 -0.6589  1.8371
  139CHL1   C2016522   1.039   6.473  13.087  0.2174  0.8131  0.6574
  139CHL1   H2016523   1.124   6.403  13.077  0.6000  1.1792  1.2885
  139CHL1   C2116524   0.919   6.382  13.093 -0.0806  0.7655 -0.3640
  139CHL1  H21A16525   0.833   6.438  13.050 -0.3858 -0.2761 -1.1508
  139CHL1  H21B16526   0.896   6.334  13.190  0.2188  0.5950 -0.3741
  139CHL1  H21C16527   0.949   6.307  13.017  0.8360  1.3837 -0.6424
  139CHL1   C2216528   1.058   6.556  13.215  0.0282  0.4396  0.5606
  139CHL1  H22A16529   1.070   6.483  13.298  2.3898 -3.9780 -3.1748
  139CHL1  H22B16530   1.155   6.611  13.211  0.1074  0.2989  0.5134
  139CHL1   C2316531   0.945   6.652  13.248 -0.4429  0.7889  0.5206
  139CHL1  H23A16532   0.950   6.739  13.180 -0.1684  0.1504 -0.2977
  139CHL1  H23B16533   0.847   6.604  13.226 -0.2595  0.6393  0.0117
  139CHL1   C2416534   0.963   6.701  13.394 -0.3680  0.6469  0.4645
  139CHL1  H24A16535   0.869   6.745  13.433 -0.8916 -0.4189  0.4466
  139CHL1  H24B16536   0.962   6.611  13.459 -2.1775  0.3985  0.1387
  139CHL1   C2516537   1.086   6.791  13.425  0.0277 -0.4950 -0.4219
  139CHL1   H2516538   1.163   6.756  13.353 -1.3195  0.6404 -2.5302
  139CHL1   C2616539   1.050   6.939  13.392 -0.3508 -0.2525 -0.1150
  139CHL1  H26A16540   1.143   6.999  13.397 -0.5476 -0.0365  2.2080
  139CHL1  H26B16541   0.994   6.950  13.297 -2.6259 -0.3638  1.1394
  139CHL1  H26C16542   0.976   6.978  13.465 -1.4183 -2.2313 -0.0547
  139CHL1   C2716543   1.137   6.774  13.566 -0.1203  0.2437 -0.5040
  139CHL1  H27A16544   1.164   6.669  13.589 -0.0730  0.5889  1.1679
  139CHL1  H27B16545   1.226   6.840  13.578  0.8229 -0.9349 -0.8863
  139CHL1  H27C16546   1.066   6.813  13.643  0.0560 -1.5073  0.5977
  140CHL1    C316547   5.567   0.465  12.261  0.2199 -0.2468  0.2233
  140CHL1    H316548   5.678   0.472  12.259  0.1197  2.1867 -0.6250
  140CHL1    O316549   5.514   0.472  12.132 -0.2344  0.0807  0.4074
  140CHL1   H3'16550   5.569   0.412  12.082  0.7452  0.9778  0.3835
  140CHL1    C416551   5.536   0.326  12.314 -0.3773  0.1054 -0.1393
  140CHL1   H4A16552   5.433   0.295  12.289 -0.0639 -0.6371 -0.5421
  140CHL1   H4B16553   5.602   0.263  12.250  1.3845  0.8493  0.8538
  140CHL1    C516554   5.591   0.309  12.455 -0.3839  0.6652 -0.2264
  140CHL1    C616555   5.679   0.211  12.481 -0.3401  0.1475 -0.7195
  140CHL1    H616556   5.713   0.139  12.406 -0.5347 -2.6708  1.7333
  140CHL1    C716557   5.728   0.173  12.613  0.3200  0.7763 -0.3294
  140CHL1   H7A16558   5.722   0.063  12.627 -0.0138  1.0428  2.0453
  140CHL1   H7B16559   5.833   0.205  12.631  0.7261 -0.5527 -0.2547
  140CHL1    C816560   5.654   0.253  12.729 -0.2139  0.6478 -0.6271
  140CHL1    H816561   5.557   0.198  12.732  0.8855 -1.4778 -1.6876
  140CHL1   C1416562   5.737   0.237  12.859 -0.5033  0.6846 -0.1235
  140CHL1   H1416563   5.837   0.282  12.840  0.8827 -1.9726  0.3594
  140CHL1   C1516564   5.778   0.097  12.899  0.2112  0.1360  0.1206
  140CHL1  H15A16565   5.691   0.028  12.888 -0.3424  0.7448  0.6047
  140CHL1  H15B16566   5.865   0.061  12.840 -0.2531  2.5791 -2.2263
  140CHL1   C1616567   5.821   0.122  13.046 -0.1250  0.4518 -0.0936
  140CHL1  H16A16568   5.778   0.042  13.109  0.0500  1.0972  0.8655
  140CHL1  H16B16569   5.932   0.112  13.051 -0.2298 -1.6682 -1.0561
  140CHL1   C1716570   5.771   0.265  13.092 -0.9230  0.0777  0.1934
  140CHL1   H1716571   5.855   0.335  13.075 -0.7589  0.0962  1.0130
  140CHL1   C1316572   5.669   0.306  12.974  0.1750  0.7307 -0.1508
  140CHL1   C1816573   5.528   0.243  13.010  0.0404  0.7468 -0.3075
  140CHL1  H18A16574   5.535   0.136  13.041 -0.9743  0.7647  0.0276
  140CHL1  H18B16575   5.485   0.305  13.091  2.1986  0.8963  0.7947
  140CHL1  H18C16576   5.468   0.246  12.916  0.5540 -0.1652 -0.6833
  140CHL1   C1216577   5.652   0.457  12.934 -0.4400  0.1561 -0.2962
  140CHL1  H12A16578   5.598   0.530  12.997  1.0634  1.4323 -0.4281
  140CHL1  H12B16579   5.749   0.502  12.903  0.0100  0.4985  1.5202
  140CHL1   C1116580   5.565   0.476  12.808  0.0696  0.2037  0.3039
  140CHL1  H11A16581   5.459   0.448  12.829 -1.2149  3.1321 -1.5463
  140CHL1  H11B16582   5.575   0.578  12.767  1.0784 -0.7171 -1.8637
  140CHL1    C916583   5.617   0.400  12.684 -0.1916  0.0287 -0.3509
  140CHL1    H916584   5.717   0.443  12.660 -0.8259  1.7618 -0.0223
  140CHL1   C1016585   5.539   0.415  12.557  0.0147  0.3623  0.1471
  140CHL1   C1916586   5.393   0.390  12.590  0.7872  0.2703 -0.8984
  140CHL1  H19A16587   5.355   0.477  12.648  0.4467 -0.3064 -0.2376
  140CHL1  H19B16588   5.322   0.384  12.505  0.9634  1.8960 -1.1933
  140CHL1  H19C16589   5.391   0.299  12.654  1.5373  1.1301  0.3820
  140CHL1    C116590   5.562   0.555  12.498  0.1437  0.4089  0.3775
  140CHL1   H1A16591   5.516   0.632  12.564 -3.1917 -0.0010 -1.2962
  140CHL1   H1B16592   5.671   0.576  12.494  0.0655  0.6112 -2.1271
  140CHL1    C216593   5.509   0.569  12.352 -0.1001 -0.0887 -0.3772
  140CHL1   H2A16594   5.532   0.673  12.321  0.1173 -0.2426 -0.7375
  140CHL1   H2B16595   5.400   0.550  12.348 -0.3126  1.1869 -0.9528
  140CHL1   C2016596   5.720   0.282  13.236 -0.1553 -0.6816 -0.3464
  140CHL1   H2016597   5.628   0.223  13.256 -0.9910  0.4635 -0.6596
  140CHL1   C2116598   5.690   0.428  13.270 -0.2558 -0.2253  0.1726
  140CHL1  H21A16599   5.765   0.488  13.214  1.6840 -1.4166  1.3981
  140CHL1  H21B16600   5.690   0.451  13.379 -1.7592  1.1578 -0.0758
  140CHL1  H21C16601   5.588   0.450  13.230 -0.3008 -2.0369 -0.7907
  140CHL1   C2216602   5.833   0.235  13.336 -0.3605 -0.0470  0.0176
  140CHL1  H22A16603   5.862   0.133  13.302  0.6560  0.0912  0.4275
  140CHL1  H22B16604   5.921   0.301  13.320 -1.3285  1.5517  1.0313
  140CHL1   C2316605   5.786   0.220  13.484  0.4667 -0.5167  0.4310
  140CHL1  H23A16606   5.744   0.314  13.525 -0.9481 -0.2723 -1.4850
  140CHL1  H23B16607   5.706   0.144  13.493 -1.2514  0.9291 -1.7548
  140CHL1   C2416608   5.903   0.166  13.575 -0.6933  0.4391  0.3623
  140CHL1  H24A16609   5.913   0.059  13.545  3.1289  0.1740  1.9914
  140CHL1  H24B16610   5.999   0.216  13.552 -0.0440 -1.3525 -1.0924
  140CHL1   C2516611   5.875   0.176  13.727 -0.3958  0.5935  0.1910
  140CHL1   H2516612   5.780   0.123  13.751 -1.9965  3.2210  0.0150
  140CHL1   C2616613   5.867   0.319  13.777 -0.1221  0.0563  0.2178
  140CHL1  H26A16614   5.869   0.325  13.888 -1.2942 -0.3101  0.2738
  140CHL1  H26B16615   5.945   0.384  13.732  0.5476 -1.0731 -0.2770
  140CHL1  H26C16616   5.769   0.366  13.754 -0.5993  0.4611  2.7045
  140CHL1   C2716617   5.987   0.098  13.791 -0.5160  0.4935  0.4682
  140CHL1  H27A16618   6.014   0.004  13.740 -0.6415  1.2322 -1.0328
  140CHL1  H27B16619   6.079   0.159  13.807 -0.3516 -0.0905  1.8409
  140CHL1  H27C16620   5.956   0.084  13.897  1.0145 -1.9627  0.6573
  141DOPC     N16621   3.729   3.246  17.486  0.1497 -0.2450  0.8798
  141DOPC   C1216622   3.709   3.331  17.356  0.0677  0.1008 -0.5495
  141DOPC  H12A16623   3.661   3.271  17.280  0.9892 -1.5808  0.1414
  141DOPC  H12B16624   3.806   3.351  17.313 -0.7437  4.3681 -0.8987
  141DOPC   C1316625   3.825   3.142  17.453 -0.7018  0.2586 -0.1445
  141DOPC  H13A16626   3.787   3.082  17.371 -0.2850 -1.9695  1.1931
  141DOPC  H13B16627   3.925   3.177  17.438  0.3516 -2.6060 -0.5215
  141DOPC  H13C16628   3.842   3.071  17.533  0.2535 -0.2518 -0.7791
  141DOPC   C1416629   3.598   3.189  17.525 -0.2155 -0.2211  0.6731
  141DOPC  H14A16630   3.562   3.107  17.465  0.1755  0.7816 -1.0079
  141DOPC  H14B16631   3.607   3.155  17.627  0.1027 -0.9392  0.4122
  141DOPC  H14C16632   3.521   3.265  17.522  0.8396  0.8411 -0.2684
  141DOPC   C1516633   3.783   3.337  17.595 -0.1503  0.4463  0.0131
  141DOPC  H15A16634   3.877   3.377  17.561  0.4265  0.4976  1.5890
  141DOPC  H15B16635   3.791   3.283  17.688  2.6680 -1.9352 -1.4472
  141DOPC  H15C16636   3.721   3.423  17.618  2.0561  2.3057 -0.6908
  141DOPC   C1116637   3.635   3.461  17.371 -0.1204 -0.3446  0.0435
  141DOPC  H11A16638   3.578   3.470  17.276  2.4552  0.5159 -1.5226
  141DOPC  H11B16639   3.576   3.458  17.464  0.5031 -0.1581  0.4530
  141DOPC     P16640   3.824   3.604  17.278 -0.2612  0.1140  0.0553
  141DOPC   O1316641   3.928   3.501  17.276 -0.1570 -0.0345 -0.6271
  141DOPC   O1416642   3.875   3.740  17.293  0.5696 -0.2413  0.1681
  141DOPC   O1216643   3.724   3.572  17.395 -0.7901  0.1859  0.3113
  141DOPC   O1116644   3.735   3.596  17.146  0.5877  0.2142  0.1040
  141DOPC    C116645   3.782   3.592  17.010 -0.1747  0.0088 -1.0233
  141DOPC    HA16646   3.827   3.691  16.987 -0.7684  0.3010 -0.9440
  141DOPC    HB16647   3.689   3.583  16.949 -1.0963  0.2366  0.3076
  141DOPC    C216648   3.874   3.468  16.974 -0.1228 -0.0230  0.3500
  141DOPC    HS16649   3.962   3.456  17.041  0.1607  3.7412  0.8421
  141DOPC   O2116650   3.908   3.486  16.838 -0.1849  0.2475 -0.1896
  141DOPC   C2116651   4.018   3.559  16.827 -0.1898  0.6098 -0.0294
  141DOPC   O2216652   4.090   3.601  16.914  0.1033 -0.0739  0.8498
  141DOPC   C2216653   4.053   3.550  16.671 -0.0949  1.3017 -0.2896
  141DOPC   H2R16654   3.969   3.509  16.611 -1.5302 -0.3657  2.6018
  141DOPC   H2S16655   4.139   3.483  16.647 -0.9155 -0.2224  0.8420
  141DOPC    C316656   3.796   3.331  16.973 -0.2232  0.3102 -0.3518
  141DOPC    HX16657   3.707   3.342  16.908  0.2624 -0.5591 -1.1829
  141DOPC    HY16658   3.766   3.330  17.080 -2.1923  2.6697 -0.7833
  141DOPC   O3116659   3.875   3.213  16.940  0.5480  0.6159 -0.6791
  141DOPC   C3116660   3.963   3.173  17.032  0.5505  0.3973  0.0004
  141DOPC   O3216661   3.977   3.217  17.144 -0.6783  0.1841  0.3342
  141DOPC   C3216662   4.046   3.055  16.982 -0.0378 -0.5340 -0.3360
  141DOPC   H2X16663   4.099   3.010  17.069  1.3379  0.5888 -0.5428
  141DOPC   H2Y16664   3.970   2.981  16.950 -0.1749 -1.0260  1.0956
  141DOPC   C2316665   4.073   3.692  16.610  0.9122  0.3851 -0.4538
  141DOPC   H3R16666   4.169   3.732  16.649  0.5841 -0.9584  1.9085
  141DOPC   H3S16667   3.989   3.756  16.646  1.3158  0.1935  0.8764
  141DOPC   C2416668   4.067   3.698  16.460  0.6777  0.8130  1.2002
  141DOPC   H4R16669   4.084   3.804  16.435 -0.2636  0.2745 -2.2664
  141DOPC   H4S16670   3.967   3.668  16.422  0.9293 -1.5906  2.2004
  141DOPC   C2516671   4.157   3.606  16.382 -0.7305  0.0832  0.1758
  141DOPC   H5R16672   4.140   3.499  16.405 -3.3641  0.6109  1.0347
  141DOPC   H5S16673   4.262   3.632  16.406 -0.2930 -0.8161 -0.6599
  141DOPC   C2616674   4.145   3.612  16.230  0.6204 -0.1685  0.2967
  141DOPC   H6R16675   4.039   3.595  16.201 -0.5743  0.5841  3.7561
  141DOPC   H6S16676   4.207   3.535  16.179  1.8615  1.5762 -0.9357
  141DOPC   C2716677   4.178   3.755  16.186  0.0772 -0.2543  0.4564
  141DOPC   H7R16678   4.263   3.790  16.248  0.6708 -1.9608  0.6628
  141DOPC   H7S16679   4.093   3.822  16.210 -0.0309  2.0101 -4.7940
  141DOPC   C2816680   4.205   3.770  16.032 -0.5076  0.0006 -0.1737
  141DOPC   H8R16681   4.119   3.739  15.969  0.7707  0.1367 -2.0750
  141DOPC   H8S16682   4.291   3.705  16.005  0.3630  1.0802 -0.0855
  141DOPC   C2916683   4.239   3.912  15.992  0.1681  0.0590  0.1584
  141DOPC   H9R16684   4.231   3.986  16.073 -0.3040 -0.1243  0.2767
  141DOPC  C21016685   4.281   3.952  15.869 -0.9230  0.0348 -0.7207
  141DOPC  H10R16686   4.331   4.050  15.861  1.8663 -1.3871 -2.2543
  141DOPC  C21116687   4.302   3.874  15.746  0.3692 -0.7958  0.0179
  141DOPC  H11R16688   4.276   3.767  15.762 -0.1979 -0.5474  0.7962
  141DOPC  H11S16689   4.409   3.857  15.721  0.3517 -0.1296 -0.5415
  141DOPC  C21216690   4.236   3.944  15.625 -0.2292 -0.5744  0.5967
  141DOPC  H12R16691   4.263   4.051  15.633 -0.7659 -0.2729 -1.2492
  141DOPC  H12S16692   4.126   3.955  15.634 -0.1707 -0.3811  1.0691
  141DOPC  C21316693   4.278   3.873  15.491  0.9044 -0.2774  0.1552
  141DOPC  H13R16694   4.259   3.764  15.506  1.4144 -0.0144  3.2553
  141DOPC  H13S16695   4.387   3.884  15.474  1.0239 -0.4919  0.7445
  141DOPC  C21416696   4.203   3.915  15.374  0.4000 -0.4015  0.8344
  141DOPC  H14R16697   4.227   4.023  15.365  2.3424 -0.8820 -0.2683
  141DOPC  H14S16698   4.092   3.908  15.378  0.3132  0.2936 -0.0662
  141DOPC  C21516699   4.258   3.846  15.254 -0.4414 -0.1801 -0.4316
  141DOPC  H15R16700   4.260   3.736  15.270  1.0332  0.0100  0.9269
  141DOPC  H15S16701   4.363   3.877  15.235 -0.2417 -0.3383  0.3599
  141DOPC  C21616702   4.171   3.881  15.132 -0.3132 -0.1239  0.5711
  141DOPC  H16R16703   4.066   3.861  15.164 -0.2512 -0.3445  0.6409
  141DOPC  H16S16704   4.202   3.810  15.053 -0.0383  2.8367 -2.1809
  141DOPC  C21716705   4.180   4.024  15.071  0.3017 -0.2693  0.2602
  141DOPC  H17R16706   4.157   4.010  14.963 -1.0906 -0.8312  0.6067
  141DOPC  H17S16707   4.283   4.066  15.078  0.2719 -0.2676  0.7033
  141DOPC  C21816708   4.080   4.116  15.130  0.0754 -0.0237  0.0884
  141DOPC  H18R16709   4.088   4.222  15.098 -0.7613 -0.6605 -2.4274
  141DOPC  H18S16710   4.067   4.104  15.240 -1.6818 -1.3166 -0.2312
  141DOPC  H18T16711   3.982   4.086  15.089  0.9626 -1.2122 -1.2134
  141DOPC   C3316712   4.151   3.093  16.873  0.0108  0.6443 -0.1547
  141DOPC   H3X16713   4.214   3.004  16.853 -0.7146 -0.4011  2.0054
  141DOPC   H3Y16714   4.219   3.172  16.913 -1.1728  1.9747 -0.6657
  141DOPC   C3416715   4.094   3.150  16.742 -0.4565 -0.7194  0.0758
  141DOPC   H4X16716   4.080   3.260  16.748  3.0838 -0.1876  1.0126
  141DOPC   H4Y16717   3.994   3.101  16.740  0.4803 -2.7724  1.1255
  141DOPC   C3516718   4.179   3.121  16.621 -0.1735  0.7390  0.1668
  141DOPC   H5X16719   4.177   3.010  16.614 -1.4390  0.8605 -2.1541
  141DOPC   H5Y16720   4.282   3.159  16.637 -0.2335  1.0891 -0.2818
  141DOPC   C3616721   4.134   3.178  16.484  0.7913  0.5249 -0.7565
  141DOPC   H6X16722   4.124   3.287  16.499 -1.1806  0.2917 -0.1362
  141DOPC   H6Y16723   4.211   3.156  16.407 -0.0442 -0.0904 -1.4358
  141DOPC   C3716724   4.010   3.114  16.428 -0.2652 -0.4840 -0.2180
  141DOPC   H7X16725   4.018   3.003  16.421 -0.2579 -0.4237 -1.3630
  141DOPC   H7Y16726   3.924   3.129  16.498  0.7588 -0.9875  1.1958
  141DOPC   C3816727   3.966   3.173  16.292 -0.1422  0.5785  0.7966
  141DOPC   H8X16728   3.990   3.281  16.292  0.2875  0.4827  1.4797
  141DOPC   H8Y16729   3.855   3.162  16.288 -0.0431 -0.1208 -0.5289
  141DOPC   C3916730   4.026   3.107  16.165  0.4510 -0.3277 -0.2739
  141DOPC   H9X16731   4.068   3.006  16.179  2.2849  0.5146  0.6190
  141DOPC  C31016732   4.059   3.177  16.054 -0.4240  0.1917 -0.2045
  141DOPC  H10X16733   4.093   3.107  15.977 -0.2190 -0.4927  0.5002
  141DOPC  C31116734   3.996   3.308  16.015  0.2885  0.4989  0.2289
  141DOPC  H11X16735   4.074   3.386  16.000  0.1427  0.8285  1.1273
  141DOPC  H11Y16736   3.921   3.346  16.087 -1.0367  0.6996 -1.2023
  141DOPC  C31216737   3.935   3.292  15.875  0.1534 -0.0786 -0.3096
  141DOPC  H12X16738   3.869   3.381  15.859 -0.5509 -0.4930  0.2125
  141DOPC  H12Y16739   3.868   3.205  15.857 -0.5318  0.2797  0.4467
  141DOPC  C31316740   4.031   3.298  15.756 -0.0153  0.2150  0.2603
  141DOPC  H13X16741   4.099   3.383  15.777  1.0877 -0.5895  0.0359
  141DOPC  H13Y16742   4.090   3.204  15.754 -0.7049 -0.2915  1.9057
  141DOPC  C31416743   3.963   3.324  15.618 -0.1804  0.2303  0.2509
  141DOPC  H14X16744   3.903   3.232  15.601 -0.6008  0.7352 -1.1389
  141DOPC  H14Y16745   3.897   3.413  15.631 -1.3988 -0.4884 -0.8253
  141DOPC  C31516746   4.059   3.341  15.504 -0.0777  0.1812  0.7232
  141DOPC  H15X16747   4.124   3.253  15.481 -1.4972 -0.8260  0.4329
  141DOPC  H15Y16748   4.124   3.428  15.524 -0.0201 -0.1532  2.0939
  141DOPC  C31616749   3.982   3.367  15.368  0.0064  0.5947 -0.0980
  141DOPC  H16X16750   4.059   3.362  15.289  0.0699 -0.6696  0.0322
  141DOPC  H16Y16751   3.911   3.286  15.341  1.1446 -0.4898  0.1071
  141DOPC  C31716752   3.899   3.502  15.362  0.3384  0.3212 -0.1575
  141DOPC  H17X16753   3.832   3.506  15.450  1.0358  1.2727  0.3525
  141DOPC  H17Y16754   3.959   3.596  15.368  0.2333  0.3673  0.1889
  141DOPC  C31816755   3.813   3.504  15.245  0.8190  0.6156  0.5731
  141DOPC  H18X16756   3.748   3.594  15.245  0.9799  0.9378 -3.8472
  141DOPC  H18Y16757   3.867   3.499  15.148  0.2307  0.2047  0.2587
  141DOPC  H18Z16758   3.738   3.422  15.247  2.6879 -1.1927  0.1404
  142DOPC     N16759   4.260   3.729  17.192 -0.0624  0.4550  0.5926
  142DOPC   C1216760   4.319   3.777  17.323  0.2857  0.1884  0.4213
  142DOPC  H12A16761   4.380   3.696  17.359 -0.2677 -0.6984 -0.6064
  142DOPC  H12B16762   4.241   3.787  17.398 -0.8459  1.0822 -0.8328
  142DOPC   C1316763   4.130   3.810  17.159 -0.4229 -0.0968 -0.4163
  142DOPC  H13A16764   4.083   3.763  17.075  0.1093 -0.4712 -0.5090
  142DOPC  H13B16765   4.056   3.806  17.238 -0.2073  1.6649 -0.0631
  142DOPC  H13C16766   4.151   3.913  17.135 -0.7944 -0.2716 -1.5451
  142DOPC   C1416767   4.207   3.587  17.208  0.1491  0.2479  0.2370
  142DOPC  H14A16768   4.116   3.585  17.267 -0.9492 -0.7019 -1.4047
  142DOPC  H14B16769   4.170   3.556  17.111 -0.2017 -2.0898  1.0625
  142DOPC  H14C16770   4.284   3.525  17.252 -0.4176  1.0578  2.5142
  142DOPC   C1516771   4.345   3.722  17.061  0.0772  0.2084 -0.7297
  142DOPC  H15A16772   4.385   3.820  17.037 -0.1801  0.7764  1.0135
  142DOPC  H15B16773   4.283   3.700  16.975 -0.3747 -3.3797  0.3475
  142DOPC  H15C16774   4.427   3.654  17.080 -1.3892 -1.0392  1.6095
  142DOPC   C1116775   4.401   3.908  17.310 -0.3910 -0.0536 -0.0349
  142DOPC  H11A16776   4.450   3.938  17.405 -0.3730  2.1134 -0.6693
  142DOPC  H11B16777   4.489   3.894  17.244  1.0474 -1.6355  2.0674
  142DOPC     P16778   4.216   4.069  17.379 -0.1186  0.3070 -0.1812
  142DOPC   O1316779   4.262   4.196  17.440 -0.2821  0.0028  0.5759
  142DOPC   O1416780   4.179   3.969  17.478 -0.3256 -0.7329  0.6218
  142DOPC   O1216781   4.320   4.016  17.275  0.1529 -0.2084  0.0148
  142DOPC   O1116782   4.095   4.100  17.280 -0.3080  0.3442 -0.1091
  142DOPC    C116783   4.129   4.183  17.169  0.0481  0.1424  0.4715
  142DOPC    HA16784   4.194   4.120  17.106  0.6385 -0.1398  1.3383
  142DOPC    HB16785   4.170   4.281  17.199  0.2381  0.1834  0.0776
  142DOPC    C216786   4.004   4.200  17.075 -0.4019  0.1034 -0.3493
  142DOPC    HS16787   3.910   4.220  17.131  0.0980 -1.3608  1.0766
  142DOPC   O2116788   3.989   4.084  16.994 -0.0581  0.4044 -0.2747
  142DOPC   C2116789   3.866   4.049  16.963 -0.0554  0.6877  0.8273
  142DOPC   O2216790   3.764   4.105  17.001 -0.0468 -0.3789 -0.5284
  142DOPC   C2216791   3.870   3.953  16.847  0.7798  0.4309 -0.9235
  142DOPC   H2R16792   3.941   3.876  16.882  0.5875  0.7342  0.1591
  142DOPC   H2S16793   3.903   4.003  16.753 -2.5935  0.6544 -2.1351
  142DOPC    C316794   4.029   4.323  16.978  0.7928  0.2005 -0.0961
  142DOPC    HX16795   4.121   4.311  16.918  1.7273 -1.0255  1.4984
  142DOPC    HY16796   4.031   4.416  17.038 -1.5344 -0.1259  0.6063
  142DOPC   O3116797   3.921   4.327  16.881 -0.4101  0.3472  0.0606
  142DOPC   C3116798   3.823   4.408  16.915 -1.3890  0.2534  0.6614
  142DOPC   O3216799   3.813   4.477  17.014  0.1357  0.5432  0.1558
  142DOPC   C3216800   3.729   4.413  16.794 -0.3145 -0.2207 -0.4993
  142DOPC   H2X16801   3.675   4.316  16.794  1.5109 -1.2921  0.9422
  142DOPC   H2Y16802   3.657   4.496  16.810  0.9416  0.7257  0.4714
  142DOPC   C2316803   3.730   3.887  16.822  0.2661  0.5637  0.6130
  142DOPC   H3R16804   3.692   3.866  16.925 -2.2191 -1.6588 -0.6274
  142DOPC   H3S16805   3.753   3.796  16.763 -1.7607  0.7513 -0.5748
  142DOPC   C2416806   3.637   3.976  16.746  0.4272 -0.2846 -0.0042
  142DOPC   H4R16807   3.655   4.084  16.759 -0.1969 -0.0689 -0.8057
  142DOPC   H4S16808   3.529   3.961  16.770  0.1410 -0.9435 -1.5702
  142DOPC   C2516809   3.627   3.957  16.590 -0.2995  0.5113 -0.6187
  142DOPC   H5R16810   3.576   3.864  16.560  0.3568 -0.0455 -0.0410
  142DOPC   H5S16811   3.726   3.961  16.539  0.5758 -0.2336  0.9485
  142DOPC   C2616812   3.550   4.078  16.520  0.2389 -0.0150 -0.0747
  142DOPC   H6R16813   3.582   4.183  16.540  0.6828  0.3949 -2.5795
  142DOPC   H6S16814   3.442   4.075  16.545  0.2974 -0.0611  0.1721
  142DOPC   C2716815   3.561   4.060  16.367 -0.3631 -0.5131 -0.1197
  142DOPC   H7R16816   3.486   3.982  16.343  0.2432 -0.9609 -0.5801
  142DOPC   H7S16817   3.663   4.025  16.342  0.4867  0.4996  1.7448
  142DOPC   C2816818   3.527   4.195  16.291  0.7041  0.0621  0.1134
  142DOPC   H8R16819   3.562   4.185  16.186  0.5164 -3.2389  0.2651
  142DOPC   H8S16820   3.591   4.268  16.346  2.3752  0.5653 -2.3384
  142DOPC   C2916821   3.379   4.229  16.311 -0.1357  0.5716 -0.6355
  142DOPC   H9R16822   3.311   4.149  16.344  1.1065 -0.2660 -0.0221
  142DOPC  C21016823   3.321   4.343  16.281  0.5825 -0.5849  0.7203
  142DOPC  H10R16824   3.211   4.354  16.285  0.1143 -4.3376  1.9280
  142DOPC  C21116825   3.387   4.466  16.221 -0.3680  0.0048  0.1563
  142DOPC  H11R16826   3.441   4.431  16.131 -1.0834 -2.0279  0.4810
  142DOPC  H11S16827   3.457   4.512  16.295 -1.9887  1.9788  0.5701
  142DOPC  C21216828   3.287   4.579  16.182 -0.7673  0.5410 -0.3376
  142DOPC  H12R16829   3.255   4.638  16.270 -0.7210  0.4348 -0.2484
  142DOPC  H12S16830   3.198   4.532  16.136 -0.2730 -0.9032  0.1436
  142DOPC  C21316831   3.349   4.674  16.070 -0.4943  0.2987  0.2570
  142DOPC  H13R16832   3.268   4.727  16.015  0.5635  0.6790 -0.9980
  142DOPC  H13S16833   3.397   4.605  15.998 -1.0377 -0.8529  0.9750
  142DOPC  C21416834   3.460   4.768  16.118  0.9482  1.5001  0.4056
  142DOPC  H14R16835   3.547   4.714  16.161  0.8622  0.0242 -1.1828
  142DOPC  H14S16836   3.411   4.828  16.198 -1.2748  0.3301  0.0193
  142DOPC  C21516837   3.511   4.865  16.007 -0.1077  0.0651 -0.2046
  142DOPC  H15R16838   3.575   4.942  16.055 -0.8122  0.4709  0.0987
  142DOPC  H15S16839   3.431   4.926  15.958 -0.1400  0.7019  0.6183
  142DOPC  C21616840   3.611   4.800  15.912 -0.0588 -0.3445  0.4787
  142DOPC  H16R16841   3.551   4.732  15.848 -0.7412  1.8717 -1.3731
  142DOPC  H16S16842   3.676   4.731  15.970 -1.5369 -1.4088  0.9351
  142DOPC  C21716843   3.690   4.906  15.836 -0.3068 -0.4046  0.1853
  142DOPC  H17R16844   3.768   4.948  15.903 -0.6230 -0.7754  0.7959
  142DOPC  H17S16845   3.634   4.999  15.812  0.5651  0.0035 -0.3135
  142DOPC  C21816846   3.752   4.838  15.712 -0.3064 -0.1577  0.4540
  142DOPC  H18R16847   3.669   4.796  15.651  1.5172 -0.1720 -2.1657
  142DOPC  H18S16848   3.820   4.756  15.745 -0.9398 -1.0011 -0.2836
  142DOPC  H18T16849   3.812   4.917  15.661 -2.3760 -0.6036 -2.9589
  142DOPC   C3316850   3.796   4.437  16.655  0.4038 -0.0538  0.5916
  142DOPC   H3X16851   3.757   4.356  16.589  1.3152 -2.2240  2.5641
  142DOPC   H3Y16852   3.906   4.422  16.657  0.1906 -2.4232 -1.1520
  142DOPC   C3416853   3.777   4.577  16.597 -0.5370  0.5637 -0.7309
  142DOPC   H4X16854   3.828   4.658  16.654 -2.1656  0.9617  0.2479
  142DOPC   H4Y16855   3.670   4.605  16.606 -1.4037 -2.3237 -0.8151
  142DOPC   C3516856   3.816   4.583  16.455  0.1405  0.5426 -0.4986
  142DOPC   H5X16857   3.762   4.501  16.404  0.3053  0.5352 -0.6633
  142DOPC   H5Y16858   3.923   4.563  16.432 -0.0075 -2.0764  0.7773
  142DOPC   C3616859   3.790   4.721  16.385  0.1274  0.7125 -0.1005
  142DOPC   H6X16860   3.679   4.725  16.377 -0.0792 -1.0003  1.2842
  142DOPC   H6Y16861   3.831   4.789  16.463  0.2908  0.2808  0.1951
  142DOPC   C3716862   3.877   4.750  16.262  0.1654  0.5860 -0.1387
  142DOPC   H7X16863   3.984   4.723  16.277  0.3761 -0.7259 -3.3182
  142DOPC   H7Y16864   3.845   4.682  16.181  3.1874 -2.0178  0.6579
  142DOPC   C3816865   3.856   4.904  16.225  0.3230  0.2710  0.8106
  142DOPC   H8X16866   3.747   4.912  16.207  0.4317  0.8382  0.3711
  142DOPC   H8Y16867   3.901   4.929  16.127  2.8074  0.4429  1.8985
  142DOPC   C3916868   3.888   5.006  16.336  0.2478 -0.1460 -0.4592
  142DOPC   H9X16869   3.990   4.997  16.377 -0.4142  1.7846  1.8065
  142DOPC  C31016870   3.800   5.077  16.412 -0.3003  0.0378  1.0424
  142DOPC  H10X16871   3.849   5.152  16.476 -1.8600  1.0655  1.0847
  142DOPC  C31116872   3.655   5.095  16.373 -0.6642  0.4605 -0.5740
  142DOPC  H11X16873   3.601   5.161  16.444 -1.4469  0.4027 -1.1058
  142DOPC  H11Y16874   3.610   4.995  16.363 -1.4448  0.9712 -2.6791
  142DOPC  C31216875   3.645   5.167  16.231  0.8920 -0.0797 -0.9125
  142DOPC  H12X16876   3.550   5.130  16.188  0.2303  0.3075  0.1888
  142DOPC  H12Y16877   3.729   5.140  16.162  0.1832 -1.1209 -1.4018
  142DOPC  C31316878   3.640   5.319  16.236 -0.2064 -0.9223  0.1213
  142DOPC  H13X16879   3.569   5.352  16.315 -0.6112 -1.8600  0.1608
  142DOPC  H13Y16880   3.740   5.361  16.261 -0.9747 -0.3106  2.4026
  142DOPC  C31416881   3.590   5.386  16.110  0.9575 -0.8018 -0.4626
  142DOPC  H14X16882   3.493   5.336  16.091  1.1415 -1.1027 -0.6165
  142DOPC  H14Y16883   3.555   5.488  16.137  1.6488 -0.2964 -1.4144
  142DOPC  C31516884   3.675   5.402  15.981  0.2040 -0.7310  0.3277
  142DOPC  H15X16885   3.697   5.297  15.956 -0.3896 -0.3539 -1.9749
  142DOPC  H15Y16886   3.762   5.469  16.001  0.4936 -1.7657  2.8822
  142DOPC  C31616887   3.600   5.475  15.870  0.3232 -0.4955  0.6103
  142DOPC  H16X16888   3.512   5.409  15.853  0.0831 -0.0422  0.0450
  142DOPC  H16Y16889   3.560   5.573  15.905 -1.4153 -0.0343 -2.3719
  142DOPC  C31716890   3.675   5.504  15.734  0.6886  0.1057 -0.0300
  142DOPC  H17X16891   3.608   5.567  15.672 -1.0399 -1.1991  0.4320
  142DOPC  H17Y16892   3.758   5.573  15.763 -0.0818  0.2373  2.0459
  142DOPC  C31816893   3.731   5.379  15.661 -1.1806  0.7150 -0.2048
  142DOPC  H18X16894   3.643   5.317  15.637 -1.0701 -0.0671  1.2937
  142DOPC  H18Y16895   3.774   5.401  15.561 -1.0292 -0.9433 -0.5217
  142DOPC  H18Z16896   3.803   5.329  15.729  0.5822  2.2047 -0.8903
  143DOPC     N16897   2.950   3.232  17.184  0.3682  0.3709 -0.0641
  143DOPC   C1216898   3.005   3.254  17.327  0.5859  1.1650 -0.0071
  143DOPC  H12A16899   3.094   3.197  17.349 -0.7973 -0.5707  1.4412
  143DOPC  H12B16900   2.938   3.199  17.391  0.2161 -0.0224 -1.3355
  143DOPC   C1316901   2.810   3.286  17.176  0.1274 -0.2587  0.1577
  143DOPC  H13A16902   2.787   3.305  17.072 -0.2328  2.6572  0.6948
  143DOPC  H13B16903   2.738   3.216  17.216 -0.4409 -0.8941 -1.8332
  143DOPC  H13C16904   2.797   3.380  17.228  0.5405  1.2910 -2.3223
  143DOPC   C1416905   2.933   3.091  17.149  0.0812  0.4401 -0.0524
  143DOPC  H14A16906   2.866   3.032  17.209 -0.3711 -2.8990 -3.4776
  143DOPC  H14B16907   2.914   3.068  17.045  1.8584  0.4903 -0.4275
  143DOPC  H14C16908   3.025   3.038  17.171  0.8673  2.5825  2.3743
  143DOPC   C1516909   3.049   3.293  17.091  0.3024  0.1683  0.1474
  143DOPC  H15A16910   3.010   3.294  16.990  1.1389  0.6035 -0.1786
  143DOPC  H15B16911   3.147   3.248  17.095  0.5819  0.8363  1.6192
  143DOPC  H15C16912   3.065   3.396  17.119  1.2497 -0.5875  2.6615
  143DOPC   C1116913   3.010   3.398  17.381 -0.5105 -0.2603 -0.0140
  143DOPC  H11A16914   2.915   3.455  17.368 -0.4961  0.8420  3.5608
  143DOPC  H11B16915   3.024   3.390  17.491 -0.3936 -2.0384 -0.1284
  143DOPC     P16916   3.266   3.444  17.350 -0.0332 -0.1681  0.1711
  143DOPC   O1316917   3.281   3.305  17.401 -0.0845 -0.1432  0.1194
  143DOPC   O1416918   3.310   3.553  17.442 -0.3548 -0.0635  0.7821
  143DOPC   O1216919   3.117   3.468  17.317 -0.0437 -0.3928  0.1115
  143DOPC   O1116920   3.345   3.460  17.217 -0.0296 -0.2250 -0.0088
  143DOPC    C116921   3.360   3.588  17.156  0.2609 -0.6020 -0.1323
  143DOPC    HA16922   3.467   3.616  17.166  0.0792 -0.5335  2.0833
  143DOPC    HB16923   3.299   3.672  17.196  1.5333  0.0489  0.5036
  143DOPC    C216924   3.335   3.607  17.005  0.0179 -0.2195 -0.0446
  143DOPC    HS16925   3.225   3.591  17.006  0.3693 -3.2791  0.5228
  143DOPC   O2116926   3.406   3.513  16.929  0.3773 -0.0662 -0.2507
  143DOPC   C2116927   3.350   3.468  16.825 -1.0022 -0.1745  0.2605
  143DOPC   O2216928   3.235   3.485  16.788 -0.0617 -0.6306 -0.0292
  143DOPC   C2216929   3.456   3.378  16.762  0.1907  0.4831 -0.0727
  143DOPC   H2R16930   3.403   3.306  16.696 -0.6557 -0.2525  1.3628
  143DOPC   H2S16931   3.513   3.324  16.840  0.5304 -0.5671 -1.0150
  143DOPC    C316932   3.372   3.752  16.958  0.9093  0.2721  0.8512
  143DOPC    HX16933   3.482   3.765  16.973  0.7642  0.4492  1.8707
  143DOPC    HY16934   3.313   3.823  17.021 -1.2668 -0.3372 -0.4066
  143DOPC   O3116935   3.348   3.770  16.814 -0.5955 -0.0759  0.3900
  143DOPC   C3116936   3.228   3.807  16.773  0.3734  0.0191 -0.1076
  143DOPC   O3216937   3.129   3.813  16.844 -0.2802 -0.3990 -0.5468
  143DOPC   C3216938   3.228   3.830  16.625 -0.3146 -0.3877 -0.4978
  143DOPC   H2X16939   3.191   3.934  16.622 -0.2767 -0.3865 -0.9686
  143DOPC   H2Y16940   3.333   3.818  16.588  0.1772 -0.4989  0.8921
  143DOPC   C2316941   3.549   3.459  16.677 -0.0726 -1.4480 -0.1882
  143DOPC   H3R16942   3.635   3.393  16.651  1.8330  0.6645  0.4826
  143DOPC   H3S16943   3.594   3.541  16.737 -0.2740 -1.2573 -0.2988
  143DOPC   C2416944   3.506   3.511  16.539 -0.0809  0.0920  0.5409
  143DOPC   H4R16945   3.426   3.588  16.548  0.0977  0.2928  0.4114
  143DOPC   H4S16946   3.466   3.425  16.481  0.0731  0.0549  0.4917
  143DOPC   C2516947   3.620   3.555  16.443  0.0871  0.3179 -0.0333
  143DOPC   H5R16948   3.695   3.473  16.438  0.5062  0.7588 -3.1002
  143DOPC   H5S16949   3.673   3.638  16.495 -0.3882  0.3028  0.4856
  143DOPC   C2616950   3.586   3.599  16.303  0.2062  0.8463  0.1812
  143DOPC   H6R16951   3.505   3.675  16.302 -1.7826 -1.1570 -0.8963
  143DOPC   H6S16952   3.552   3.520  16.233  1.4399  2.4908 -2.4696
  143DOPC   C2716953   3.701   3.675  16.239 -0.0842 -0.1747  0.4490
  143DOPC   H7R16954   3.789   3.608  16.226 -0.1890 -0.3527  0.6622
  143DOPC   H7S16955   3.741   3.747  16.313 -0.5082  0.2932  0.2289
  143DOPC   C2816956   3.685   3.738  16.099  0.5057  0.2928  0.6030
  143DOPC   H8R16957   3.593   3.800  16.098 -0.1611 -0.5592  2.5997
  143DOPC   H8S16958   3.648   3.655  16.035 -1.4440  3.7085 -3.2008
  143DOPC   C2916959   3.799   3.813  16.028  0.5928 -0.0941 -1.1279
  143DOPC   H9R16960   3.834   3.892  16.095  0.4736 -0.1297 -1.0222
  143DOPC  C21016961   3.860   3.791  15.910  0.3788 -0.4860  0.7123
  143DOPC  H10R16962   3.938   3.864  15.882 -0.1464  0.5321  1.8158
  143DOPC  C21116963   3.831   3.687  15.805 -0.9065  0.4017 -0.1124
  143DOPC  H11R16964   3.732   3.640  15.825 -0.6942 -0.3150 -0.6842
  143DOPC  H11S16965   3.903   3.603  15.808 -1.3519 -0.2369 -3.1771
  143DOPC  C21216966   3.826   3.749  15.666  0.1325  0.2073 -0.3085
  143DOPC  H12R16967   3.825   3.673  15.585  2.5949  0.6029 -0.8119
  143DOPC  H12S16968   3.923   3.795  15.634 -0.6088  0.5833 -2.1588
  143DOPC  C21316969   3.718   3.850  15.639  1.0690  0.3254  0.1412
  143DOPC  H13R16970   3.724   3.926  15.720  0.8316 -0.7581  1.1927
  143DOPC  H13S16971   3.618   3.803  15.638  0.8637  0.7510  0.2167
  143DOPC  C21416972   3.750   3.935  15.519  0.4388  0.8127  0.2741
  143DOPC  H14R16973   3.773   3.868  15.433  2.3712 -0.5052  1.7278
  143DOPC  H14S16974   3.843   3.993  15.536  0.0074  0.6231  3.9090
  143DOPC  C21516975   3.634   4.021  15.479 -0.4378 -0.6022  0.7716
  143DOPC  H15R16976   3.660   4.102  15.407  0.8112 -0.1297  1.7177
  143DOPC  H15S16977   3.603   4.063  15.578  0.4494  0.1960  0.7253
  143DOPC  C21616978   3.512   3.945  15.422  0.0899 -0.2311  0.4313
  143DOPC  H16R16979   3.500   3.851  15.479  1.5949  0.1563  1.4574
  143DOPC  H16S16980   3.528   3.912  15.318  0.1626 -2.0805  0.9901
  143DOPC  C21716981   3.385   4.026  15.425  0.5632  0.4849  0.2823
  143DOPC  H17R16982   3.368   4.046  15.533  3.8311 -2.6496  1.5931
  143DOPC  H17S16983   3.295   3.969  15.395  0.4432  0.3522  0.8785
  143DOPC  C21816984   3.386   4.157  15.342  0.2359  1.1304  0.3801
  143DOPC  H18R16985   3.434   4.239  15.399  1.2143 -0.4997  1.9980
  143DOPC  H18S16986   3.290   4.198  15.305  0.9362  3.1421  0.6397
  143DOPC  H18T16987   3.449   4.131  15.255 -1.3076 -0.7436 -0.2389
  143DOPC   C3316988   3.128   3.750  16.540  0.5108  0.4331  0.5311
  143DOPC   H3X16989   3.031   3.760  16.593 -1.0927 -0.9851 -1.9567
  143DOPC   H3Y16990   3.147   3.641  16.530 -2.6988 -0.3823  1.8944
  143DOPC   C3416991   3.095   3.815  16.404  0.2914  0.1943  0.2043
  143DOPC   H4X16992   3.045   3.914  16.414  2.6927  1.5683 -0.6648
  143DOPC   H4Y16993   3.028   3.748  16.346  0.3381  0.6085 -0.3355
  143DOPC   C3516994   3.210   3.847  16.308  0.3994 -0.2853  0.4816
  143DOPC   H5X16995   3.253   3.753  16.269 -0.9967 -0.2898 -1.1588
  143DOPC   H5Y16996   3.277   3.912  16.367 -0.2873  0.2621  0.6732
  143DOPC   C3616997   3.164   3.921  16.181  0.6357  0.3037 -0.1416
  143DOPC   H6X16998   3.098   3.854  16.122 -1.1859  1.3858  0.5859
  143DOPC   H6Y16999   3.115   4.018  16.202 -2.0516 -0.9386 -0.2465
  143DOPC   C3717000   3.278   3.963  16.083  0.0735 -0.5780  0.1269
  143DOPC   H7X17001   3.351   4.017  16.147 -1.2619  1.6562 -0.1536
  143DOPC   H7Y17002   3.325   3.868  16.049  0.3599 -1.0019  1.6087
  143DOPC   C3817003   3.229   4.039  15.960  0.2937  0.2654  0.3350
  143DOPC   H8X17004   3.200   4.135  16.008  0.6979 -0.1032  1.3193
  143DOPC   H8Y17005   3.139   3.981  15.930  0.4819 -0.3685  0.9959
  143DOPC   C3917006   3.320   4.059  15.844  0.1010 -0.2286 -0.3548
  143DOPC   H9X17007   3.352   3.962  15.803  1.5048 -0.7686  1.8553
  143DOPC  C31017008   3.363   4.177  15.792  0.3397  0.4136 -0.2764
  143DOPC  H10X17009   3.430   4.174  15.705 -1.1338 -0.1725 -1.4337
  143DOPC  C31117010   3.342   4.317  15.845 -0.3562  0.2118  0.4056
  143DOPC  H11X17011   3.439   4.370  15.847  0.4637 -1.2285  0.1693
  143DOPC  H11Y17012   3.288   4.314  15.942 -1.2755 -2.2759 -0.1065
  143DOPC  C31217013   3.251   4.396  15.745 -0.1021 -0.7818 -0.0802
  143DOPC  H12X17014   3.226   4.493  15.794 -2.7660  0.2481 -3.1241
  143DOPC  H12Y17015   3.157   4.342  15.723 -0.1505  0.2499 -2.8087
  143DOPC  C31317016   3.310   4.456  15.615  0.6261 -0.0868  0.4897
  143DOPC  H13X17017   3.411   4.501  15.625  1.4120 -2.0094  1.8461
  143DOPC  H13Y17018   3.314   4.370  15.546  0.2996 -0.1931  0.5992
  143DOPC  C31417019   3.198   4.551  15.552 -0.4690  0.1815 -0.0332
  143DOPC  H14X17020   3.119   4.494  15.497 -0.9315 -0.6172  1.3955
  143DOPC  H14Y17021   3.150   4.611  15.632  0.0358  0.8624 -0.2345
  143DOPC  C31517022   3.254   4.650  15.448  0.2989  0.1862  0.4066
  143DOPC  H15X17023   3.168   4.686  15.389  0.3437 -1.4509 -0.7263
  143DOPC  H15Y17024   3.302   4.586  15.371 -3.1360 -1.1105 -0.8302
  143DOPC  C31617025   3.345   4.767  15.492 -0.3557  0.1768  0.1775
  143DOPC  H16X17026   3.300   4.812  15.582  0.9694  0.4211  0.7523
  143DOPC  H16Y17027   3.444   4.720  15.513  1.3161  3.8423  1.3395
  143DOPC  C31717028   3.365   4.872  15.386 -0.0245  0.2502  0.6586
  143DOPC  H17X17029   3.269   4.926  15.374 -0.4051 -0.1054  1.9634
  143DOPC  H17Y17030   3.441   4.949  15.413  0.9841 -0.5212  0.0994
  143DOPC  C31817031   3.412   4.809  15.260 -0.1462  0.1164  1.1949
  143DOPC  H18X17032   3.485   4.729  15.286  1.0747  0.9944  0.5831
  143DOPC  H18Y17033   3.329   4.749  15.216  1.5775 -0.5647 -1.3735
  143DOPC  H18Z17034   3.444   4.879  15.180 -1.4785  0.6895  1.1365
  144DOPC     N17035   2.609   2.398  16.901  0.2122 -0.3290 -0.2610
  144DOPC   C1217036   2.462   2.407  16.849  0.1313  0.2724 -0.0270
  144DOPC  H12A17037   2.452   2.363  16.751 -0.2469 -1.0233  0.5696
  144DOPC  H12B17038   2.442   2.513  16.845  2.0688  0.6766 -0.2848
  144DOPC   C1317039   2.688   2.488  16.817  0.1006  0.1683 -0.5414
  144DOPC  H13A17040   2.783   2.513  16.861  0.9681 -0.9048 -1.7274
  144DOPC  H13B17041   2.704   2.447  16.718  1.0805  1.5681 -0.9897
  144DOPC  H13C17042   2.630   2.579  16.811 -0.2789 -0.0146  0.2167
  144DOPC   C1417043   2.660   2.262  16.887 -0.3758  0.1360  0.3083
  144DOPC  H14A17044   2.687   2.236  16.786  1.9961  0.5568  0.7712
  144DOPC  H14B17045   2.753   2.240  16.938  0.2644 -0.8064 -1.2061
  144DOPC  H14C17046   2.582   2.193  16.916 -0.0243 -0.3743  0.0440
  144DOPC   C1517047   2.619   2.441  17.043 -0.7552 -0.6831 -0.6069
  144DOPC  H15A17048   2.594   2.545  17.055 -0.4130 -0.6443 -0.2262
  144DOPC  H15B17049   2.723   2.432  17.071 -0.8690 -0.5948 -0.1394
  144DOPC  H15C17050   2.557   2.377  17.105 -1.6095 -1.2336 -1.9711
  144DOPC   C1117051   2.359   2.333  16.933  0.1714  0.0522 -0.3165
  144DOPC  H11A17052   2.360   2.384  17.031  3.0188 -1.8157  0.7708
  144DOPC  H11B17053   2.260   2.359  16.891 -0.0458  0.3354  0.3650
  144DOPC     P17054   2.285   2.084  16.886  0.0621  0.0218 -0.4122
  144DOPC   O1317055   2.156   2.074  16.954  0.1156 -0.9410 -0.5254
  144DOPC   O1417056   2.359   1.955  16.884 -0.1543  0.4653 -0.4100
  144DOPC   O1217057   2.376   2.197  16.958 -0.7989  0.0666 -0.0306
  144DOPC   O1117058   2.267   2.143  16.734 -0.0918  0.0216 -0.0066
  144DOPC    C117059   2.192   2.061  16.643  0.5037  0.1791 -0.0242
  144DOPC    HA17060   2.106   2.013  16.695 -0.5509  1.4304 -0.5697
  144DOPC    HB17061   2.252   1.979  16.599 -0.7060 -0.3910 -0.6624
  144DOPC    C217062   2.144   2.139  16.519 -0.3190  0.4146  0.4619
  144DOPC    HS17063   2.071   2.067  16.476  0.8767  0.5409 -2.0121
  144DOPC   O2117064   2.264   2.156  16.432 -0.1894 -0.6344 -0.5736
  144DOPC   C2117065   2.301   2.042  16.364  0.8539 -0.1125  0.5387
  144DOPC   O2217066   2.221   1.950  16.351  0.6560  0.3380 -0.5324
  144DOPC   C2217067   2.442   2.060  16.306 -0.1393  0.0578  0.2111
  144DOPC   H2R17068   2.495   1.963  16.311  1.7707  1.1043  1.8264
  144DOPC   H2S17069   2.495   2.132  16.372 -0.1983 -0.4040  0.7770
  144DOPC    C317070   2.076   2.271  16.561 -0.3983 -0.9701 -0.4521
  144DOPC    HX17071   2.143   2.324  16.632 -0.8893 -0.0732 -0.6444
  144DOPC    HY17072   1.987   2.249  16.623  1.8936 -1.6715  2.8382
  144DOPC   O3117073   2.049   2.342  16.443  0.6637 -0.3742  0.2859
  144DOPC   C3117074   2.131   2.451  16.411 -0.0770  0.1430  0.5551
  144DOPC   O3217075   2.229   2.484  16.472  0.4314  0.5569  0.1676
  144DOPC   C3217076   2.093   2.500  16.274 -0.1563 -0.3373  0.2334
  144DOPC   H2X17077   2.022   2.428  16.228 -1.6801  0.7288  0.8358
  144DOPC   H2Y17078   2.048   2.602  16.276  2.2664  0.8153  0.0493
  144DOPC   C2317079   2.454   2.108  16.155  0.0744 -0.0354 -0.2280
  144DOPC   H3R17080   2.409   2.210  16.149 -3.0041 -1.3061 -0.8320
  144DOPC   H3S17081   2.397   2.033  16.096  0.5396  0.5912 -1.5250
  144DOPC   C2417082   2.600   2.129  16.104  1.0096  0.4933 -0.4554
  144DOPC   H4R17083   2.660   2.038  16.124 -2.1160 -1.7823 -0.8089
  144DOPC   H4S17084   2.643   2.219  16.152  0.4402 -0.1398  1.3028
  144DOPC   C2517085   2.593   2.147  15.947  0.1459  0.6940 -0.7177
  144DOPC   H5R17086   2.498   2.198  15.920 -1.3707 -0.7593  1.5640
  144DOPC   H5S17087   2.578   2.045  15.908  1.2596 -1.1527  3.2013
  144DOPC   C2617088   2.725   2.203  15.879 -0.0365 -0.1608 -0.1271
  144DOPC   H6R17089   2.812   2.140  15.909  0.9791  1.3769  0.2840
  144DOPC   H6S17090   2.753   2.303  15.917  0.9629 -0.0415 -1.1385
  144DOPC   C2717091   2.718   2.206  15.725  0.4433  0.1090 -0.1017
  144DOPC   H7R17092   2.620   2.250  15.696 -0.0060  0.1766  1.4411
  144DOPC   H7S17093   2.717   2.098  15.696 -0.0906 -0.3090  1.3743
  144DOPC   C2817094   2.834   2.279  15.654 -0.1782 -0.6927  0.0566
  144DOPC   H8R17095   2.933   2.231  15.665 -0.3945 -1.4162 -1.0598
  144DOPC   H8S17096   2.853   2.378  15.702 -0.0110  0.4081 -2.1370
  144DOPC   C2917097   2.785   2.310  15.517  0.3550  0.1799  0.0428
  144DOPC   H9R17098   2.695   2.374  15.517 -0.4733 -0.8834 -1.7874
  144DOPC  C21017099   2.850   2.287  15.406 -0.2235 -0.0896  1.2369
  144DOPC  H10R17100   2.799   2.310  15.311  0.3002  0.1496  1.0091
  144DOPC  C21117101   2.989   2.232  15.392  0.1050 -0.3574 -0.1408
  144DOPC  H11R17102   3.004   2.122  15.399 -0.7456 -0.6504 -2.3392
  144DOPC  H11S17103   3.054   2.287  15.464  1.3706 -0.5482 -1.1126
  144DOPC  C21217104   3.049   2.276  15.258  0.2288  0.5686  0.0075
  144DOPC  H12R17105   3.159   2.269  15.266  0.0306 -2.1943  1.5435
  144DOPC  H12S17106   3.025   2.382  15.237 -1.3870  0.4521  1.0569
  144DOPC  C21317107   3.022   2.193  15.130 -0.0686  0.8489 -0.0759
  144DOPC  H13R17108   2.988   2.088  15.150  0.7906  0.6295  0.2616
  144DOPC  H13S17109   3.118   2.182  15.076 -0.5614  0.0041 -0.8204
  144DOPC  C21417110   2.918   2.257  15.028  0.0313  0.4491  0.2001
  144DOPC  H14R17111   2.949   2.359  14.998 -0.0934  0.4207 -0.0264
  144DOPC  H14S17112   2.819   2.273  15.076  0.2419 -3.1561  2.2119
  144DOPC  C21517113   2.912   2.166  14.905 -0.1209  0.1742  0.2516
  144DOPC  H15R17114   2.846   2.213  14.829  0.6836  2.0186  0.6427
  144DOPC  H15S17115   2.868   2.066  14.924 -0.6597  0.0073 -1.7089
  144DOPC  C21617116   3.048   2.145  14.831  0.3316  0.0693  0.0572
  144DOPC  H16R17117   3.114   2.080  14.893  0.0467 -1.4083 -1.1386
  144DOPC  H16S17118   3.095   2.244  14.812 -0.6790  0.4515 -0.5178
  144DOPC  C21717119   3.043   2.083  14.690 -0.5971 -0.5034  0.6505
  144DOPC  H17R17120   2.964   2.005  14.701  0.1663 -1.2497  0.9662
  144DOPC  H17S17121   3.132   2.028  14.655 -0.4477  1.7004 -2.8855
  144DOPC  C21817122   3.011   2.189  14.584  0.0266 -0.0456  0.4197
  144DOPC  H18R17123   2.928   2.261  14.601 -1.8407 -1.0362 -3.4372
  144DOPC  H18S17124   2.997   2.132  14.489 -1.0943 -0.6353  0.9157
  144DOPC  H18T17125   3.110   2.237  14.573 -1.1113  2.3534 -0.1729
  144DOPC   C3317126   2.208   2.528  16.174  0.2730 -0.1958 -0.5198
  144DOPC   H3X17127   2.305   2.481  16.202  0.3989 -0.4559 -1.3824
  144DOPC   H3Y17128   2.225   2.637  16.175 -0.1952 -0.1228  0.1806
  144DOPC   C3417129   2.165   2.479  16.039 -0.1151 -0.0619 -0.5113
  144DOPC   H4X17130   2.081   2.538  15.997 -0.9114 -0.5119  0.4283
  144DOPC   H4Y17131   2.137   2.372  16.035 -2.7251  0.5560 -0.2838
  144DOPC   C3517132   2.280   2.496  15.944  0.8097  0.0124  0.2137
  144DOPC   H5X17133   2.375   2.446  15.972  1.5012  1.1519 -0.0083
  144DOPC   H5Y17134   2.304   2.604  15.933 -2.8132  0.8686 -0.5486
  144DOPC   C3617135   2.247   2.449  15.797  0.4166 -0.2095 -0.0159
  144DOPC   H6X17136   2.194   2.352  15.793 -2.2068  1.1566 -0.7789
  144DOPC   H6Y17137   2.162   2.509  15.759  1.9995  0.5371 -2.6823
  144DOPC   C3717138   2.369   2.459  15.719 -0.5726  0.5328  0.0646
  144DOPC   H7X17139   2.400   2.564  15.696  1.8791 -0.6120 -2.3852
  144DOPC   H7Y17140   2.451   2.403  15.768  0.5712  1.6424 -0.5191
  144DOPC   C3817141   2.356   2.385  15.582  0.3727 -0.1471 -0.1843
  144DOPC   H8X17142   2.336   2.277  15.601  1.0001 -0.2107  0.1342
  144DOPC   H8Y17143   2.455   2.396  15.533  2.0918  1.0661  3.2724
  144DOPC   C3917144   2.248   2.441  15.493 -1.0212  0.5248 -0.4505
  144DOPC   H9X17145   2.149   2.399  15.517  0.1068 -0.7910  2.4177
  144DOPC  C31017146   2.268   2.511  15.386 -0.6698  0.3045  0.4621
  144DOPC  H10X17147   2.183   2.540  15.321 -1.7871  1.3791  2.3163
  144DOPC  C31117148   2.396   2.554  15.335 -0.1366 -0.3357  0.4929
  144DOPC  H11X17149   2.482   2.525  15.398  0.9463 -0.9927 -1.2215
  144DOPC  H11Y17150   2.399   2.664  15.327 -1.6027 -0.3015  0.0110
  144DOPC  C31217151   2.434   2.498  15.197 -0.8851 -0.3153  0.1167
  144DOPC  H12X17152   2.411   2.389  15.195  0.4415 -0.6347  0.8571
  144DOPC  H12Y17153   2.543   2.515  15.197 -0.8329 -0.6260  0.4588
  144DOPC  C31317154   2.354   2.568  15.086  0.6807  0.2701 -0.0660
  144DOPC  H13X17155   2.249   2.532  15.097  0.4431  1.1957  0.8522
  144DOPC  H13Y17156   2.347   2.677  15.104 -1.1118  0.0041  1.0653
  144DOPC  C31417157   2.408   2.532  14.945  0.0284 -0.7624  0.9944
  144DOPC  H14X17158   2.503   2.586  14.929 -0.0403 -0.5632  1.2525
  144DOPC  H14Y17159   2.416   2.422  14.931  0.0200 -1.0005  2.6713
  144DOPC  C31517160   2.316   2.578  14.837 -0.1071 -0.4523  0.1261
  144DOPC  H15X17161   2.295   2.687  14.842  2.1207  0.0382 -0.4194
  144DOPC  H15Y17162   2.222   2.519  14.838 -1.3451  1.4175  0.3688
  144DOPC  C31617163   2.378   2.564  14.696 -0.1426 -0.4880  0.3731
  144DOPC  H16X17164   2.457   2.641  14.683  1.4285 -2.0415  0.4441
  144DOPC  H16Y17165   2.427   2.467  14.676 -0.0346 -0.8538  2.2380
  144DOPC  C31717166   2.267   2.568  14.584 -0.4789 -0.5098  0.3637
  144DOPC  H17X17167   2.208   2.474  14.596 -0.0932 -0.7156  0.6703
  144DOPC  H17Y17168   2.203   2.655  14.608 -0.8614  0.2128 -2.8225
  144DOPC  C31817169   2.328   2.573  14.447 -0.9148 -0.0762 -0.4252
  144DOPC  H18X17170   2.407   2.652  14.457 -0.6931 -0.5430  1.9635
  144DOPC  H18Y17171   2.381   2.477  14.428  1.8059  0.5714  2.8865
  144DOPC  H18Z17172   2.261   2.606  14.364 -1.5484 -0.5684 -0.1124
  145DOPC     N17173   2.807   5.780  17.157 -0.4917  0.1513  0.4754
  145DOPC   C1217174   2.794   5.928  17.118  0.3648  0.2001 -0.6541
  145DOPC  H12A17175   2.890   5.970  17.091  1.0315 -1.4397 -0.9655
  145DOPC  H12B17176   2.752   5.978  17.204  4.4171 -0.0666  1.7371
  145DOPC   C1317177   2.862   5.699  17.040  0.1186 -0.1195  0.6480
  145DOPC  H13A17178   2.857   5.592  17.048  0.1135 -0.1729 -0.0128
  145DOPC  H13B17179   2.794   5.716  16.957 -0.8612  0.8637  1.6123
  145DOPC  H13C17180   2.964   5.724  17.017  0.1330  0.2076  1.0634
  145DOPC   C1417181   2.676   5.717  17.196 -0.0153 -0.3308 -0.0389
  145DOPC  H14A17182   2.631   5.760  17.284  2.9958 -0.4401  1.7179
  145DOPC  H14B17183   2.599   5.725  17.121 -0.6783  1.2056  0.7720
  145DOPC  H14C17184   2.692   5.612  17.220 -0.9656 -0.2941  0.8323
  145DOPC   C1517185   2.893   5.758  17.275  0.8436  0.6160 -0.6436
  145DOPC  H15A17186   2.861   5.828  17.351  1.6410  0.1589  0.1270
  145DOPC  H15B17187   2.995   5.792  17.259  0.8759  0.5247 -0.6299
  145DOPC  H15C17188   2.885   5.658  17.313 -0.4568  0.4435 -1.3103
  145DOPC   C1117189   2.708   5.963  16.990  0.2258  0.6668 -0.9854
  145DOPC  H11A17190   2.719   6.072  16.970  0.3702  0.9285  0.4636
  145DOPC  H11B17191   2.747   5.901  16.906 -0.3787 -0.2337 -0.6141
  145DOPC     P17192   2.467   6.044  17.035  0.0169  0.5092 -0.2269
  145DOPC   O1317193   2.504   6.126  17.153  0.2421 -0.0956 -0.0459
  145DOPC   O1417194   2.333   5.995  17.035  0.1241  0.4911 -0.7323
  145DOPC   O1217195   2.574   5.929  17.013  0.7702  0.1426  0.4435
  145DOPC   O1117196   2.477   6.132  16.900  0.7597 -0.7502  0.1999
  145DOPC    C117197   2.491   6.067  16.769  0.6282 -0.4167 -0.3406
  145DOPC    HA17198   2.422   5.981  16.757  0.0372  0.1236 -0.9183
  145DOPC    HB17199   2.594   6.029  16.755  0.3401 -1.4728  0.3140
  145DOPC    C217200   2.455   6.161  16.646  0.8108  0.0339 -0.3244
  145DOPC    HS17201   2.344   6.168  16.634  0.9082  0.1458 -1.2149
  145DOPC   O2117202   2.515   6.116  16.518  0.0726  0.2393 -0.0604
  145DOPC   C2117203   2.442   6.031  16.457  0.4093  0.0676 -1.0200
  145DOPC   O2217204   2.333   5.984  16.494 -0.3845 -0.1233 -0.5430
  145DOPC   C2217205   2.521   5.975  16.336  0.2514 -0.4106 -0.3873
  145DOPC   H2R17206   2.594   5.900  16.374  0.3067 -0.3299 -0.3364
  145DOPC   H2S17207   2.569   6.055  16.276  0.9143 -0.1787  0.4290
  145DOPC    C317208   2.514   6.299  16.672  0.1482 -0.3726  0.2654
  145DOPC    HX17209   2.624   6.300  16.684  0.1512  1.1117  0.3299
  145DOPC    HY17210   2.474   6.338  16.768 -2.6494 -1.8955 -0.1799
  145DOPC   O3117211   2.469   6.402  16.580  0.2661 -0.4840 -0.5596
  145DOPC   C3117212   2.556   6.432  16.484 -0.1181 -0.6783  0.1647
  145DOPC   O3217213   2.675   6.412  16.486 -0.0632 -0.3716 -0.1771
  145DOPC   C3217214   2.479   6.493  16.364  0.6687  0.0228 -1.1074
  145DOPC   H2X17215   2.390   6.430  16.346  0.2960  0.1154  0.2633
  145DOPC   H2Y17216   2.451   6.597  16.391 -2.5434 -0.8109 -0.8682
  145DOPC   C2317217   2.427   5.910  16.233 -0.3542 -0.0472 -0.1908
  145DOPC   H3R17218   2.350   5.982  16.199 -0.3776 -0.1680 -0.3940
  145DOPC   H3S17219   2.382   5.823  16.285 -0.0789  0.1278  0.3523
  145DOPC   C2417220   2.507   5.865  16.111  0.3038  0.0882 -0.7429
  145DOPC   H4R17221   2.584   5.796  16.151 -0.6381  0.7133  2.3655
  145DOPC   H4S17222   2.550   5.958  16.069 -1.5686  0.3564 -2.1857
  145DOPC   C2517223   2.422   5.793  16.002  0.5095  0.2337 -1.3350
  145DOPC   H5R17224   2.323   5.843  15.995  0.6964  0.6657 -0.9959
  145DOPC   H5S17225   2.419   5.687  16.033 -2.4876  1.2367  2.8583
  145DOPC   C2617226   2.486   5.787  15.863 -0.2722 -0.4128 -0.3023
  145DOPC   H6R17227   2.596   5.786  15.882 -0.1414  0.1434 -0.9953
  145DOPC   H6S17228   2.466   5.884  15.813  0.1726  0.3299  0.9096
  145DOPC   C2717229   2.442   5.677  15.761 -0.0214 -0.0328 -0.7747
  145DOPC   H7R17230   2.331   5.688  15.770  0.2497  3.4455 -0.1569
  145DOPC   H7S17231   2.490   5.585  15.801  2.5736  1.1058 -1.0962
  145DOPC   C2817232   2.500   5.705  15.614 -0.2423  0.1475 -1.0662
  145DOPC   H8R17233   2.610   5.714  15.627 -0.0812 -0.6617 -1.8016
  145DOPC   H8S17234   2.455   5.788  15.555 -2.5984  0.6802  1.2883
  145DOPC   C2917235   2.471   5.578  15.542  0.0856  0.8047  0.0852
  145DOPC   H9R17236   2.451   5.494  15.611 -0.0066 -1.4216 -2.4735
  145DOPC  C21017237   2.462   5.563  15.409  0.3191  0.5208 -0.5353
  145DOPC  H10R17238   2.455   5.457  15.381  2.7311  0.6744 -2.0261
  145DOPC  C21117239   2.484   5.663  15.301  0.5349  0.8720  0.2152
  145DOPC  H11R17240   2.520   5.762  15.336  0.2180  0.9414  0.3606
  145DOPC  H11S17241   2.390   5.680  15.243 -0.1788 -2.1396  0.3549
  145DOPC  C21217242   2.573   5.604  15.193 -0.2854 -0.3590  0.4165
  145DOPC  H12R17243   2.508   5.527  15.147 -1.3855  0.9894 -0.3559
  145DOPC  H12S17244   2.665   5.556  15.233  0.0213  1.2916  1.8061
  145DOPC  C21317245   2.623   5.705  15.089  0.1469  0.3237 -0.2836
  145DOPC  H13R17246   2.669   5.784  15.153 -0.0852  0.2064  0.0284
  145DOPC  H13S17247   2.537   5.751  15.037 -0.1894  0.1836  0.1403
  145DOPC  C21417248   2.711   5.652  14.976  0.0141  0.9589 -0.1643
  145DOPC  H14R17249   2.803   5.611  15.022  0.7260  2.7423  0.0849
  145DOPC  H14S17250   2.743   5.738  14.913 -1.0727  1.1320 -0.5183
  145DOPC  C21517251   2.648   5.539  14.890 -0.2491 -0.2220  0.0821
  145DOPC  H15R17252   2.634   5.451  14.956  2.6884 -1.1324 -0.3981
  145DOPC  H15S17253   2.724   5.513  14.814  0.6055 -1.4363  1.3119
  145DOPC  C21617254   2.532   5.593  14.806  0.3118  0.3815 -0.2906
  145DOPC  H16R17255   2.559   5.689  14.757  0.6807  1.3616  1.7510
  145DOPC  H16S17256   2.452   5.630  14.873  2.5155  3.4423  0.8422
  145DOPC  C21717257   2.479   5.496  14.704  0.5882 -0.0877  0.5589
  145DOPC  H17R17258   2.434   5.405  14.749  0.0119  1.5504  3.4944
  145DOPC  H17S17259   2.569   5.454  14.655  0.3889 -1.1855  1.1218
  145DOPC  C21817260   2.373   5.559  14.606 -0.6948  0.7587  0.3667
  145DOPC  H18R17261   2.285   5.595  14.663 -2.4425 -1.6370 -0.6950
  145DOPC  H18S17262   2.336   5.488  14.530 -0.4291  3.0734 -2.0766
  145DOPC  H18T17263   2.417   5.650  14.559  1.3297 -1.1417 -1.6325
  145DOPC   C3317264   2.556   6.500  16.233 -0.1532  0.6975 -0.0572
  145DOPC   H3X17265   2.590   6.396  16.213 -1.0261  0.1040  1.4068
  145DOPC   H3Y17266   2.650   6.557  16.252 -0.3151  0.9546 -0.0277
  145DOPC   C3417267   2.493   6.568  16.112 -0.6961  0.9118 -0.4367
  145DOPC   H4X17268   2.463   6.672  16.139 -0.0749  0.8180  0.6691
  145DOPC   H4Y17269   2.403   6.510  16.084  1.0649 -2.0360 -0.3929
  145DOPC   C3517270   2.576   6.552  15.985  0.1875  0.0326  0.1653
  145DOPC   H5X17271   2.618   6.451  15.967 -1.6147 -0.0541 -5.3067
  145DOPC   H5Y17272   2.661   6.624  15.980  0.6229 -0.4289  0.7994
  145DOPC   C3617273   2.484   6.585  15.867  0.3863  0.3945  0.4917
  145DOPC   H6X17274   2.398   6.514  15.868  2.2125 -1.9196  1.3785
  145DOPC   H6Y17275   2.439   6.687  15.873 -1.9708 -0.6013  0.8872
  145DOPC   C3717276   2.557   6.560  15.734  0.2433  0.8113 -0.2398
  145DOPC   H7X17277   2.645   6.627  15.720  1.1461 -0.6614 -2.0198
  145DOPC   H7Y17278   2.603   6.461  15.753  0.8925  1.3751  1.3076
  145DOPC   C3817279   2.462   6.570  15.615 -0.0564 -0.8698 -0.7432
  145DOPC   H8X17280   2.465   6.679  15.595  1.1970 -0.7993 -0.2921
  145DOPC   H8Y17281   2.355   6.547  15.634 -0.2897  0.2837 -0.5984
  145DOPC   C3917282   2.509   6.485  15.504  0.1804 -0.5063 -0.8278
  145DOPC   H9X17283   2.527   6.379  15.529 -0.0007 -0.2540  0.4681
  145DOPC  C31017284   2.556   6.525  15.385  0.5620 -0.2424 -0.4772
  145DOPC  H10X17285   2.585   6.446  15.314  1.0812 -1.0793  0.6181
  145DOPC  C31117286   2.554   6.658  15.322  0.0703  0.0312 -0.5921
  145DOPC  H11X17287   2.644   6.691  15.266  0.0516  2.1180  0.5090
  145DOPC  H11Y17288   2.555   6.738  15.399  0.9538  0.3712 -0.9394
  145DOPC  C31217289   2.443   6.687  15.217  0.2748  0.2494 -1.4108
  145DOPC  H12X17290   2.432   6.795  15.194  0.0175  1.3398  2.8528
  145DOPC  H12Y17291   2.346   6.641  15.247  1.2183 -1.3851 -0.7670
  145DOPC  C31317292   2.482   6.616  15.086  0.5469 -0.0541  0.7195
  145DOPC  H13X17293   2.583   6.650  15.054  1.6851 -3.8916 -0.2388
  145DOPC  H13Y17294   2.497   6.506  15.097  1.0629 -0.2869 -1.7671
  145DOPC  C31417295   2.378   6.619  14.975  0.1247 -0.2243  0.3249
  145DOPC  H14X17296   2.298   6.697  14.984  0.0795 -0.3933  1.4911
  145DOPC  H14Y17297   2.431   6.652  14.883 -0.5021  0.7395  0.2872
  145DOPC  C31517298   2.316   6.491  14.952  0.1125 -0.6114 -0.4530
  145DOPC  H15X17299   2.243   6.457  15.029  0.2532 -3.7575 -1.5582
  145DOPC  H15Y17300   2.400   6.418  14.949  1.0810  0.3998  0.6614
  145DOPC  C31617301   2.232   6.507  14.822  0.4818 -0.2223 -1.0444
  145DOPC  H16X17302   2.148   6.579  14.836 -1.3113 -2.2765 -0.7204
  145DOPC  H16Y17303   2.298   6.549  14.743 -0.5401 -1.3900 -2.5813
  145DOPC  C31717304   2.165   6.377  14.778  0.8632  0.1382  0.0499
  145DOPC  H17X17305   2.124   6.393  14.676  1.6347  2.5714  0.0466
  145DOPC  H17Y17306   2.245   6.301  14.768  0.6888 -0.0049 -0.2648
  145DOPC  C31817307   2.054   6.321  14.872  0.3973  0.2144 -0.0210
  145DOPC  H18X17308   2.091   6.308  14.976  2.9276  0.2477 -0.8603
  145DOPC  H18Y17309   1.967   6.391  14.874 -1.2402 -1.7079  0.0974
  145DOPC  H18Z17310   2.027   6.224  14.825  0.0732  1.3292 -2.2854
  146DOPC     N17311   4.711   4.170  17.238  0.5024 -0.2822 -0.5125
  146DOPC   C1217312   4.560   4.202  17.220  0.6961 -0.3870 -0.2462
  146DOPC  H12A17313   4.520   4.225  17.318 -0.0341 -1.0898 -0.3572
  146DOPC  H12B17314   4.513   4.113  17.179  0.5850 -0.3341 -0.2365
  146DOPC   C1317315   4.772   4.276  17.328  0.2099  0.0036  0.4957
  146DOPC  H13A17316   4.756   4.368  17.273  0.3069 -2.1165 -3.4216
  146DOPC  H13B17317   4.721   4.285  17.424 -1.4133  1.6140 -0.4452
  146DOPC  H13C17318   4.879   4.264  17.331  0.1762 -0.3363  0.2946
  146DOPC   C1417319   4.776   4.186  17.109  0.3415  0.2570  0.3905
  146DOPC  H14A17320   4.724   4.125  17.037  1.5129  2.1219 -2.2159
  146DOPC  H14B17321   4.770   4.288  17.075  1.2536  0.7597  1.6417
  146DOPC  H14C17322   4.880   4.158  17.117  0.3457  0.5378  1.5212
  146DOPC   C1517323   4.738   4.043  17.304 -0.1835  0.3384 -0.1070
  146DOPC  H15A17324   4.714   3.953  17.249  1.4383 -0.2128  0.0427
  146DOPC  H15B17325   4.670   4.040  17.388 -1.0376  1.1575 -0.7537
  146DOPC  H15C17326   4.838   4.038  17.345  0.9782 -1.8060 -2.8532
  146DOPC   C1117327   4.525   4.312  17.121  0.5659 -0.5087  0.0399
  146DOPC  H11A17328   4.540   4.288  17.013 -0.4002 -0.4236 -0.1197
  146DOPC  H11B17329   4.415   4.314  17.131  0.5274  1.8979 -0.2730
  146DOPC     P17330   4.497   4.557  17.195  0.3886  0.0207  0.1789
  146DOPC   O1317331   4.566   4.687  17.182 -0.3041 -0.9220  0.0899
  146DOPC   O1417332   4.436   4.530  17.326  0.7077 -0.1504 -0.5991
  146DOPC   O1217333   4.586   4.432  17.163  0.0023  0.3841  0.3284
  146DOPC   O1117334   4.373   4.559  17.095 -0.0856 -0.8959 -0.1310
  146DOPC    C117335   4.368   4.560  16.955 -0.2315 -0.0401  0.1380
  146DOPC    HA17336   4.284   4.493  16.929 -1.4410  2.6395 -3.5774
  146DOPC    HB17337   4.460   4.514  16.910  0.4640  0.0346  1.4317
  146DOPC    C217338   4.341   4.699  16.894 -0.1504 -0.1199 -0.3241
  146DOPC    HS17339   4.257   4.744  16.951  1.1601  0.4085  1.2806
  146DOPC   O2117340   4.302   4.676  16.750 -0.1254 -0.2998  0.4326
  146DOPC   C2117341   4.177   4.657  16.725  0.1728  0.6025  0.4827
  146DOPC   O2217342   4.087   4.663  16.808  0.2040 -0.1563  0.7472
  146DOPC   C2217343   4.155   4.611  16.584 -0.4816  0.3092  0.3094
  146DOPC   H2R17344   4.089   4.690  16.542  0.5703  0.6964 -0.6699
  146DOPC   H2S17345   4.091   4.520  16.579  0.0442 -0.0767  0.5312
  146DOPC    C317346   4.456   4.798  16.899  0.8258 -0.1703  0.8835
  146DOPC    HX17347   4.483   4.829  17.002  5.2512 -2.7984  0.7684
  146DOPC    HY17348   4.425   4.891  16.847 -0.9214 -1.8292 -1.2689
  146DOPC   O3117349   4.572   4.722  16.845 -0.2698  0.4893  0.5054
  146DOPC   C3117350   4.648   4.781  16.755 -0.2324 -0.2411  0.3632
  146DOPC   O3217351   4.624   4.895  16.712  0.1191 -0.4250  0.6257
  146DOPC   C3217352   4.756   4.688  16.704  0.0747  0.4602  0.2488
  146DOPC   H2X17353   4.837   4.682  16.781 -0.3727  1.1603  0.7888
  146DOPC   H2Y17354   4.705   4.590  16.695  1.4961 -0.3457  0.6295
  146DOPC   C2317355   4.288   4.593  16.496  0.4927  0.7863  0.1771
  146DOPC   H3R17356   4.361   4.539  16.559  0.4659 -1.9256 -1.9333
  146DOPC   H3S17357   4.326   4.694  16.469  0.2952  0.4586 -1.4203
  146DOPC   C2417358   4.261   4.522  16.361  0.1827  0.5768 -0.2758
  146DOPC   H4R17359   4.234   4.594  16.281 -0.8390 -0.0124 -0.4853
  146DOPC   H4S17360   4.166   4.464  16.369 -1.6638  3.2979 -1.0598
  146DOPC   C2517361   4.384   4.444  16.308  0.0877 -0.2057 -0.4457
  146DOPC   H5R17362   4.385   4.361  16.382 -0.1899 -2.0384 -2.4023
  146DOPC   H5S17363   4.470   4.515  16.309 -0.4029  0.3904 -0.5705
  146DOPC   C2617364   4.373   4.392  16.173  0.9379  1.4848  0.1475
  146DOPC   H6R17365   4.288   4.320  16.170  0.6841  1.7879 -0.1845
  146DOPC   H6S17366   4.464   4.329  16.165  1.1339  1.7861  0.0117
  146DOPC   C2717367   4.354   4.488  16.050  0.0623  0.2757 -0.5509
  146DOPC   H7R17368   4.439   4.561  16.045 -0.6109  1.1754  0.7028
  146DOPC   H7S17369   4.266   4.548  16.082  1.2760  1.2754  1.0943
  146DOPC   C2817370   4.353   4.433  15.904 -0.2388 -0.1625  0.1582
  146DOPC   H8R17371   4.365   4.522  15.839 -0.9899  0.8860  1.4097
  146DOPC   H8S17372   4.253   4.396  15.873 -0.3670  0.0059  0.3680
  146DOPC   C2917373   4.464   4.328  15.884 -0.2589 -0.3889 -0.2787
  146DOPC   H9R17374   4.500   4.275  15.974 -0.9617  0.6068  0.6075
  146DOPC  C21017375   4.526   4.301  15.769  0.3056  0.2262 -0.0702
  146DOPC  H10R17376   4.596   4.215  15.763 -0.1101 -0.1005 -0.2418
  146DOPC  C21117377   4.494   4.361  15.637  0.0452  0.1409 -0.0459
  146DOPC  H11R17378   4.575   4.425  15.597 -0.8291  1.0589 -0.3903
  146DOPC  H11S17379   4.395   4.410  15.633  0.7298  1.6172  0.6650
  146DOPC  C21217380   4.475   4.237  15.547 -0.5890 -0.6982  0.1480
  146DOPC  H12R17381   4.379   4.190  15.579 -0.4550 -0.4633  0.8973
  146DOPC  H12S17382   4.554   4.159  15.548  3.2621  2.8655  2.5830
  146DOPC  C21317383   4.468   4.267  15.395  0.0269  0.0827  0.7619
  146DOPC  H13R17384   4.416   4.363  15.372  0.9396  0.1792 -1.0441
  146DOPC  H13S17385   4.417   4.181  15.347  0.6701  0.6605 -1.0388
  146DOPC  C21417386   4.604   4.282  15.325 -0.3201 -0.0846 -0.0379
  146DOPC  H14R17387   4.664   4.193  15.355  2.0021  1.1956 -0.6244
  146DOPC  H14S17388   4.644   4.375  15.372  3.3588 -3.2058  3.8378
  146DOPC  C21517389   4.613   4.296  15.165 -0.1074  0.3732 -0.7025
  146DOPC  H15R17390   4.540   4.379  15.149 -0.8191 -0.3133 -1.0561
  146DOPC  H15S17391   4.566   4.204  15.124  0.2680 -0.8306  1.4344
  146DOPC  C21617392   4.750   4.326  15.110  0.0976 -0.0007  0.1339
  146DOPC  H16R17393   4.826   4.248  15.133  0.9994  1.2751  1.7163
  146DOPC  H16S17394   4.790   4.417  15.160 -3.4381  2.0934 -0.5271
  146DOPC  C21717395   4.768   4.358  14.957  0.1624 -0.1175 -0.5098
  146DOPC  H17R17396   4.705   4.446  14.931  1.1888  1.3525  1.6944
  146DOPC  H17S17397   4.728   4.270  14.902 -0.7867 -1.6444  2.4033
  146DOPC  C21817398   4.910   4.379  14.915  0.1062  0.2980  1.1798
  146DOPC  H18R17399   4.966   4.295  14.960 -0.3235 -1.9385 -2.1127
  146DOPC  H18S17400   4.953   4.470  14.960  1.7698 -0.4315  1.1187
  146DOPC  H18T17401   4.927   4.365  14.806  1.1006  0.1587  1.3506
  146DOPC   C3317402   4.807   4.729  16.561 -0.3433  0.9271  0.1808
  146DOPC   H3X17403   4.889   4.663  16.526 -0.1586  1.6558 -0.7788
  146DOPC   H3Y17404   4.853   4.830  16.563 -2.4978  2.0368 -1.8210
  146DOPC   C3417405   4.707   4.729  16.447 -0.5681  0.7783 -0.1989
  146DOPC   H4X17406   4.636   4.814  16.451 -0.5406  0.7644  1.1337
  146DOPC   H4Y17407   4.645   4.637  16.448  1.0353 -0.3333  0.3144
  146DOPC   C3517408   4.778   4.735  16.316 -0.0952  0.4905  0.8469
  146DOPC   H5X17409   4.842   4.647  16.298  0.7493  0.6485  2.7829
  146DOPC   H5Y17410   4.840   4.827  16.315  0.6984 -0.0337  1.2068
  146DOPC   C3617411   4.677   4.757  16.194  0.0873 -0.0153  0.4358
  146DOPC   H6X17412   4.614   4.670  16.167 -1.1669  1.7501 -3.0382
  146DOPC   H6Y17413   4.610   4.842  16.218  1.8607  1.5060  0.2541
  146DOPC   C3717414   4.763   4.785  16.067  0.5894 -0.2201  0.5214
  146DOPC   H7X17415   4.852   4.845  16.095 -0.5849  2.5166 -1.2064
  146DOPC   H7Y17416   4.790   4.681  16.038  0.2454 -0.2614  0.3313
  146DOPC   C3817417   4.687   4.860  15.959 -0.7222  0.2902  0.0300
  146DOPC   H8X17418   4.661   4.959  16.001 -0.0456  0.9076 -0.9805
  146DOPC   H8Y17419   4.589   4.814  15.935 -0.2929 -0.7641  0.1891
  146DOPC   C3917420   4.778   4.872  15.836  0.1823 -0.5496  0.0750
  146DOPC   H9X17421   4.874   4.924  15.849  0.5130 -1.0867 -0.1874
  146DOPC  C31017422   4.741   4.830  15.714  0.0006 -0.7618 -0.0665
  146DOPC  H10X17423   4.814   4.836  15.632 -0.2282  0.8511 -0.1634
  146DOPC  C31117424   4.609   4.766  15.679 -0.1680  0.7249 -0.1715
  146DOPC  H11X17425   4.526   4.839  15.682 -1.5378 -0.7821  0.0192
  146DOPC  H11Y17426   4.582   4.687  15.752  2.1829 -1.4309 -1.4494
  146DOPC  C31217427   4.605   4.701  15.541 -0.2291  0.7879  0.6158
  146DOPC  H12X17428   4.522   4.630  15.521  1.4324 -1.4745  1.1961
  146DOPC  H12Y17429   4.681   4.619  15.537 -1.5607 -0.5642  1.7681
  146DOPC  C31317430   4.614   4.792  15.412 -0.3865  0.0074 -0.7399
  146DOPC  H13X17431   4.523   4.842  15.372 -3.0400 -1.6525  2.7177
  146DOPC  H13Y17432   4.671   4.883  15.440  2.5715 -1.1642 -2.4426
  146DOPC  C31417433   4.701   4.728  15.299 -0.4739  0.1002 -0.4874
  146DOPC  H14X17434   4.797   4.705  15.350  0.0718  1.1781 -0.9913
  146DOPC  H14Y17435   4.650   4.635  15.266 -2.0215  1.3144 -1.7050
  146DOPC  C31517436   4.727   4.817  15.181  0.0755 -0.2515  0.2928
  146DOPC  H15X17437   4.746   4.921  15.215  2.7556 -0.5072 -0.1444
  146DOPC  H15Y17438   4.641   4.827  15.112  1.4076 -0.8433 -1.5357
  146DOPC  C31617439   4.851   4.780  15.098 -0.6763  0.5792 -0.5095
  146DOPC  H16X17440   4.944   4.789  15.158 -0.4923 -1.7874 -0.3426
  146DOPC  H16Y17441   4.848   4.671  15.076 -0.0894  0.7392 -1.4580
  146DOPC  C31717442   4.858   4.855  14.966  0.0241 -0.4564  0.3051
  146DOPC  H17X17443   4.756   4.850  14.923 -0.3024 -0.3428  1.0517
  146DOPC  H17Y17444   4.888   4.958  14.995 -0.6653 -0.2521  0.2979
  146DOPC  C31817445   4.962   4.803  14.863  0.4963  0.1726 -0.1928
  146DOPC  H18X17446   5.057   4.798  14.920 -1.5688  0.6753  3.6600
  146DOPC  H18Y17447   4.932   4.703  14.825  0.7743 -0.2249  0.6110
  146DOPC  H18Z17448   4.959   4.879  14.782 -1.4476 -0.9255 -1.2106
  147DOPC     N17449   3.350   2.128  17.021 -0.4095 -0.2401  0.5035
  147DOPC   C1217450   3.360   2.282  16.994  0.3571  0.7984  0.7780
  147DOPC  H12A17451   3.438   2.291  16.919  0.1229  1.9299  0.6613
  147DOPC  H12B17452   3.401   2.330  17.081  2.5466  1.6430 -0.6143
  147DOPC   C1317453   3.475   2.075  17.085  0.4539 -0.2707  0.1012
  147DOPC  H13A17454   3.466   1.970  17.108 -1.6136 -0.0979  0.2318
  147DOPC  H13B17455   3.566   2.096  17.029  0.5994  0.5712  0.6381
  147DOPC  H13C17456   3.497   2.130  17.176 -0.5030 -0.8576  0.6991
  147DOPC   C1417457   3.337   2.066  16.888 -0.4982  0.3223  0.4949
  147DOPC  H14A17458   3.427   2.086  16.830 -0.9727 -0.3080 -0.4855
  147DOPC  H14B17459   3.329   1.960  16.906 -0.8763  0.4262  0.9397
  147DOPC  H14C17460   3.256   2.100  16.826  0.3407 -0.1171 -0.8883
  147DOPC   C1517461   3.230   2.095  17.103  0.2295  0.0773  0.4024
  147DOPC  H15A17462   3.217   2.166  17.183 -2.0873  0.8665 -0.5734
  147DOPC  H15B17463   3.227   1.994  17.140 -0.9696 -0.4004 -0.8730
  147DOPC  H15C17464   3.144   2.102  17.038  0.7618 -1.3900 -0.5294
  147DOPC   C1117465   3.236   2.355  16.943  0.6447 -0.0701  0.0693
  147DOPC  H11A17466   3.273   2.452  16.905  1.6289 -1.2358 -2.1734
  147DOPC  H11B17467   3.197   2.305  16.851  0.3723  2.2813 -1.1642
  147DOPC     P17468   2.993   2.383  17.025 -0.1809 -0.3646 -0.0814
  147DOPC   O1317469   2.933   2.471  17.132 -0.0012  0.1119 -0.1229
  147DOPC   O1417470   2.954   2.243  17.034  0.2506 -0.1386  0.2481
  147DOPC   O1217471   3.148   2.384  17.052  0.3519  0.4693  0.0629
  147DOPC   O1117472   2.980   2.451  16.883 -0.2428  0.0899  0.1003
  147DOPC    C117473   3.030   2.589  16.881 -0.1513  0.5507 -0.1840
  147DOPC    HA17474   3.113   2.610  16.952  0.5875 -0.0107 -0.8711
  147DOPC    HB17475   2.949   2.655  16.919  0.0913  0.6435  0.1738
  147DOPC    C217476   3.063   2.627  16.741 -0.3095  0.4463  0.6454
  147DOPC    HS17477   2.984   2.601  16.667  0.1497  1.0497 -0.0711
  147DOPC   O2117478   3.192   2.562  16.717 -0.6855  0.2726 -0.1596
  147DOPC   C2117479   3.211   2.512  16.592  0.6625  0.8337 -0.7448
  147DOPC   O2217480   3.124   2.490  16.507  0.4081 -0.4691 -0.2927
  147DOPC   C2217481   3.359   2.476  16.579  0.3068  0.0395  0.5267
  147DOPC   H2R17482   3.379   2.368  16.563  3.6210  0.4156  1.2944
  147DOPC   H2S17483   3.402   2.498  16.679  1.3606  2.1279 -0.3269
  147DOPC    C317484   3.092   2.783  16.732  1.1194  0.1196  0.3286
  147DOPC    HX17485   3.156   2.805  16.820 -2.7726  1.8708  3.0265
  147DOPC    HY17486   3.002   2.848  16.741  0.5420 -0.7887  1.3395
  147DOPC   O3117487   3.166   2.814  16.613 -0.6289  0.5969 -0.0591
  147DOPC   C3117488   3.093   2.839  16.505 -0.3016  1.1204  0.2083
  147DOPC   O3217489   2.970   2.845  16.499 -0.1657  0.1857 -0.1090
  147DOPC   C3217490   3.186   2.859  16.379  0.4643 -0.2764  0.8857
  147DOPC   H2X17491   3.245   2.946  16.416 -1.8957  1.0662  1.6776
  147DOPC   H2Y17492   3.253   2.771  16.368  1.8845  0.8240  0.3173
  147DOPC   C2317493   3.417   2.544  16.456 -0.0982 -0.1095  0.4326
  147DOPC   H3R17494   3.412   2.654  16.475 -0.4695 -0.1582  0.6261
  147DOPC   H3S17495   3.361   2.510  16.367  0.0746 -2.6745  1.2178
  147DOPC   C2417496   3.564   2.510  16.439 -0.5228  0.7718  0.2615
  147DOPC   H4R17497   3.571   2.409  16.392  0.9575  1.1801 -0.4524
  147DOPC   H4S17498   3.613   2.503  16.539  1.1158 -0.3022 -0.5744
  147DOPC   C2517499   3.633   2.608  16.344 -0.2037 -0.7483  0.0667
  147DOPC   H5R17500   3.610   2.708  16.386  0.7492 -0.0190 -1.1090
  147DOPC   H5S17501   3.600   2.615  16.238  0.4374  0.9935 -0.0472
  147DOPC   C2617502   3.779   2.586  16.344  0.0153 -0.0328 -0.1899
  147DOPC   H6R17503   3.809   2.502  16.279 -0.3524 -0.2358 -0.0998
  147DOPC   H6S17504   3.818   2.570  16.447 -3.0802  0.5537  1.1652
  147DOPC   C2717505   3.845   2.714  16.291 -0.4774 -0.0822  0.5571
  147DOPC   H7R17506   3.955   2.699  16.303 -0.4255 -0.3259 -0.1749
  147DOPC   H7S17507   3.820   2.796  16.362  1.4527  0.0927  1.1135
  147DOPC   C2817508   3.805   2.757  16.141  0.4528  0.7542 -0.3525
  147DOPC   H8R17509   3.824   2.864  16.120  0.5670  0.4156 -2.1988
  147DOPC   H8S17510   3.695   2.744  16.131  0.4649  0.6404 -0.3401
  147DOPC   C2917511   3.875   2.660  16.045 -0.4792  0.1869  0.7492
  147DOPC   H9R17512   3.895   2.557  16.079 -0.6416  0.3104  1.2165
  147DOPC  C21017513   3.890   2.684  15.915 -0.4256  1.0298  0.7413
  147DOPC  H10R17514   3.944   2.605  15.860 -0.7338 -0.4169  2.4512
  147DOPC  C21117515   3.857   2.811  15.839 -0.2437 -0.1962 -0.8595
  147DOPC  H11R17516   3.945   2.877  15.824  0.6236 -1.0141  0.4821
  147DOPC  H11S17517   3.780   2.877  15.884  1.5847  0.8160  0.9448
  147DOPC  C21217518   3.801   2.787  15.695  0.1004 -0.3593 -0.4009
  147DOPC  H12R17519   3.714   2.718  15.708 -0.6403  0.6466  0.1636
  147DOPC  H12S17520   3.888   2.756  15.635  2.7237 -0.9694  3.3616
  147DOPC  C21317521   3.737   2.905  15.627 -0.0926 -0.1445  0.1922
  147DOPC  H13R17522   3.799   2.993  15.657 -0.4680  1.8663 -4.0970
  147DOPC  H13S17523   3.637   2.926  15.668  0.3350  2.6203  0.0418
  147DOPC  C21417524   3.749   2.898  15.475 -0.2510 -0.4607  0.4161
  147DOPC  H14R17525   3.685   2.814  15.442 -1.4319  0.6113 -0.1213
  147DOPC  H14S17526   3.848   2.874  15.430  0.4455  3.4402 -0.5677
  147DOPC  C21517527   3.698   3.027  15.407 -0.8283  0.5329 -0.0733
  147DOPC  H15R17528   3.768   3.109  15.436  1.0126 -1.0562  0.1612
  147DOPC  H15S17529   3.601   3.052  15.454 -0.1926 -1.0405  2.2376
  147DOPC  C21617530   3.672   3.017  15.254 -1.0065 -0.0426  0.0771
  147DOPC  H16R17531   3.614   3.104  15.216 -1.9474 -0.6666  0.0600
  147DOPC  H16S17532   3.597   2.937  15.233 -0.9352  0.0476 -0.5509
  147DOPC  C21717533   3.799   2.995  15.168  0.5936  0.0220 -0.3864
  147DOPC  H17R17534   3.864   2.935  15.235  0.6577  2.2961  1.7250
  147DOPC  H17S17535   3.831   3.100  15.151  1.7468 -0.4628 -1.3276
  147DOPC  C21817536   3.770   2.931  15.030 -0.1549  0.1885  0.0262
  147DOPC  H18R17537   3.857   2.946  14.962 -0.1920 -2.4070 -0.7169
  147DOPC  H18S17538   3.684   2.982  14.982  0.8268  2.7941  0.8381
  147DOPC  H18T17539   3.744   2.823  15.036  2.6014 -0.5799 -0.5065
  147DOPC   C3317540   3.115   2.876  16.241 -0.1652  0.1408 -0.4146
  147DOPC   H3X17541   3.028   2.946  16.246 -0.0692  0.2529 -0.2779
  147DOPC   H3Y17542   3.069   2.783  16.203 -0.6055  0.4445 -0.6421
  147DOPC   C3417543   3.205   2.933  16.125  1.0020  1.1948 -0.2094
  147DOPC   H4X17544   3.283   2.854  16.113  0.0103  0.1654 -0.0244
  147DOPC   H4Y17545   3.251   3.026  16.164 -1.2655  2.4312 -0.3486
  147DOPC   C3517546   3.128   2.938  15.995  0.9045 -0.1239 -0.5236
  147DOPC   H5X17547   3.023   2.972  16.011  1.1831  0.9120 -0.8159
  147DOPC   H5Y17548   3.107   2.835  15.958 -0.4922  0.5781 -1.8049
  147DOPC   C3617549   3.194   3.023  15.886  0.2952 -0.2136 -0.2866
  147DOPC   H6X17550   3.201   3.128  15.922  0.4442 -0.2884 -0.0946
  147DOPC   H6Y17551   3.301   2.993  15.879  0.4274 -0.3137  1.6968
  147DOPC   C3717552   3.113   3.030  15.756 -0.4671 -0.0024  0.2879
  147DOPC   H7X17553   3.106   2.937  15.696 -1.3000  1.1284 -1.4521
  147DOPC   H7Y17554   3.011   3.048  15.796 -1.8006 -3.3894 -1.2459
  147DOPC   C3817555   3.169   3.146  15.667 -0.1228 -0.2101 -0.1490
  147DOPC   H8X17556   3.274   3.123  15.638  1.1811  2.4977  1.9763
  147DOPC   H8Y17557   3.168   3.244  15.718 -2.1235  0.5372 -1.5176
  147DOPC   C3917558   3.084   3.167  15.549 -0.4856 -0.8091 -0.2057
  147DOPC   H9X17559   2.976   3.157  15.568 -0.4661  0.3450  0.5899
  147DOPC  C31017560   3.120   3.173  15.417 -0.3522  0.5429  0.2916
  147DOPC  H10X17561   3.050   3.208  15.340  2.9866  1.8631 -2.4020
  147DOPC  C31117562   3.257   3.161  15.357  0.3321 -0.1846  0.3647
  147DOPC  H11X17563   3.343   3.165  15.428  0.6228 -0.3732  0.0258
  147DOPC  H11Y17564   3.280   3.243  15.286  0.3516 -1.2366 -0.8715
  147DOPC  C31217565   3.300   3.032  15.279  0.5201 -1.4195  0.0143
  147DOPC  H12X17566   3.276   2.947  15.347  2.1116 -0.7070  1.5707
  147DOPC  H12Y17567   3.410   3.033  15.265  0.4203  1.8319 -1.4030
  147DOPC  C31317568   3.227   3.017  15.146  0.0173  0.3041 -0.8901
  147DOPC  H13X17569   3.243   2.918  15.097  0.6355 -0.0817  0.0574
  147DOPC  H13Y17570   3.119   3.041  15.155 -0.0538 -0.3096  0.0212
  147DOPC  C31417571   3.282   3.119  15.040 -0.3270  0.1562  0.4174
  147DOPC  H14X17572   3.196   3.149  14.975  0.3488  1.5717  0.1327
  147DOPC  H14Y17573   3.318   3.216  15.080  0.7942  0.4459 -1.2159
  147DOPC  C31517574   3.402   3.061  14.962 -0.4894 -1.0669  0.5396
  147DOPC  H15X17575   3.375   2.963  14.918  0.3635 -0.3709 -1.6454
  147DOPC  H15Y17576   3.488   3.059  15.032 -0.8766 -0.2452  1.0585
  147DOPC  C31617577   3.463   3.141  14.840  0.0996  0.4469 -0.3826
  147DOPC  H16X17578   3.557   3.085  14.820  1.7869  2.7567  0.6756
  147DOPC  H16Y17579   3.393   3.132  14.754 -0.3120  2.6243 -0.3305
  147DOPC  C31717580   3.491   3.295  14.866  0.2491  1.0496  0.7994
  147DOPC  H17X17581   3.521   3.334  14.767  0.7482 -0.4689  0.3155
  147DOPC  H17Y17582   3.399   3.353  14.891 -1.3880 -0.3045 -1.6321
  147DOPC  C31817583   3.602   3.325  14.953  0.2630  0.2533  0.5870
  147DOPC  H18X17584   3.698   3.341  14.900  0.1310 -3.1374 -0.9491
  147DOPC  H18Y17585   3.584   3.422  15.004  1.4411  0.2746  0.9875
  147DOPC  H18Z17586   3.617   3.240  15.023  0.2015 -0.1222  0.1542
  148DOPC     N17587   1.739   6.421  17.096 -0.4362 -0.0454  0.2175
  148DOPC   C1217588   1.731   6.547  17.011 -0.0109 -0.1990 -0.3935
  148DOPC  H12A17589   1.833   6.583  17.006 -0.3517  0.7519 -0.5987
  148DOPC  H12B17590   1.673   6.618  17.069 -0.0526 -1.4805  1.2108
  148DOPC   C1317591   1.799   6.450  17.231 -0.2773 -0.0821  0.1741
  148DOPC  H13A17592   1.743   6.532  17.274 -0.2926 -0.4963  0.9551
  148DOPC  H13B17593   1.790   6.363  17.295  0.7062 -0.4466 -0.1564
  148DOPC  H13C17594   1.903   6.473  17.212  0.4091 -1.3385  2.1435
  148DOPC   C1417595   1.826   6.321  17.035  0.1894  0.1901  0.1949
  148DOPC  H14A17596   1.782   6.260  16.957  0.6298  2.4366 -1.9310
  148DOPC  H14B17597   1.919   6.366  17.002  0.5664 -0.7172 -0.0218
  148DOPC  H14C17598   1.856   6.251  17.112  1.8675  0.1054 -0.5011
  148DOPC   C1517599   1.599   6.370  17.114 -0.0625 -0.0900 -0.0040
  148DOPC  H15A17600   1.564   6.339  17.017  0.9631 -0.0107 -0.4097
  148DOPC  H15B17601   1.533   6.450  17.144  0.4321  0.2155  0.2810
  148DOPC  H15C17602   1.603   6.289  17.185 -0.1898  0.1280  0.2554
  148DOPC   C1117603   1.658   6.531  16.877  0.0985  0.6233  0.0342
  148DOPC  H11A17604   1.702   6.450  16.814 -1.7837  0.0058 -0.5448
  148DOPC  H11B17605   1.559   6.484  16.895 -0.5336  2.4864  1.6997
  148DOPC     P17606   1.558   6.750  16.852  0.0993  0.2887  0.2952
  148DOPC   O1317607   1.628   6.809  16.969  0.6793  0.9955 -0.3284
  148DOPC   O1417608   1.430   6.679  16.874  0.6953  0.5419  0.0784
  148DOPC   O1217609   1.662   6.647  16.791 -0.1489  0.1082  0.4036
  148DOPC   O1117610   1.527   6.856  16.743  0.5240 -0.3881  0.0572
  148DOPC    C117611   1.614   6.963  16.717  0.1977  0.0118  0.1502
  148DOPC    HA17612   1.701   6.969  16.785 -0.0017 -0.0197  0.4100
  148DOPC    HB17613   1.564   7.062  16.719  2.1898  1.0640  0.1359
  148DOPC    C217614   1.649   6.952  16.569  0.4622 -0.1522  0.5380
  148DOPC    HS17615   1.721   7.037  16.568 -1.5938  1.6990  1.7131
  148DOPC   O2117616   1.536   6.982  16.483 -0.4474 -0.5434 -0.2819
  148DOPC   C2117617   1.555   7.045  16.366 -0.2616 -0.2165  0.1545
  148DOPC   O2217618   1.662   7.094  16.324 -0.1097 -0.3422  0.1432
  148DOPC   C2217619   1.424   7.052  16.290  0.6495  0.0137 -0.1043
  148DOPC   H2R17620   1.376   7.149  16.316  0.8923  0.3034 -0.7322
  148DOPC   H2S17621   1.363   6.970  16.333  1.5543 -0.9497 -0.6126
  148DOPC    C317622   1.709   6.822  16.525  0.2335  0.2756 -0.1887
  148DOPC    HX17623   1.633   6.742  16.511  0.0214  0.6721 -1.3401
  148DOPC    HY17624   1.780   6.789  16.604  0.9231  1.5530 -0.2493
  148DOPC   O3117625   1.803   6.826  16.416  0.0129  0.0667 -0.3780
  148DOPC   C3117626   1.750   6.779  16.301  0.3013 -0.4089  0.5292
  148DOPC   O3217627   1.632   6.744  16.281 -0.9868 -0.2765  0.5642
  148DOPC   C3217628   1.851   6.794  16.190  0.0881 -0.0116  0.4589
  148DOPC   H2X17629   1.884   6.900  16.189  1.5978 -0.4161 -2.1325
  148DOPC   H2Y17630   1.936   6.725  16.210  0.4451 -0.0268 -0.9647
  148DOPC   C2317631   1.441   7.040  16.138 -0.2115 -0.1340  0.4320
  148DOPC   H3R17632   1.498   6.947  16.118  0.7305  0.2946  1.0471
  148DOPC   H3S17633   1.503   7.129  16.115  1.1749 -1.1809 -0.0542
  148DOPC   C2417634   1.316   7.046  16.048 -0.1625 -0.1005  0.3620
  148DOPC   H4R17635   1.263   7.143  16.063 -1.2162 -0.8803  2.0098
  148DOPC   H4S17636   1.244   6.967  16.079 -0.4428  0.5906  1.5674
  148DOPC   C2517637   1.336   7.030  15.899 -0.2255  0.5386  0.5358
  148DOPC   H5R17638   1.331   6.923  15.869  1.0673  0.8248 -0.8400
  148DOPC   H5S17639   1.435   7.068  15.865 -1.1732  2.2121 -0.4161
  148DOPC   C2617640   1.241   7.108  15.808 -0.0295  0.2139 -0.4817
  148DOPC   H6R17641   1.241   7.212  15.846 -0.6928 -0.2610  0.8752
  148DOPC   H6S17642   1.135   7.075  15.812  0.1655 -0.6477 -1.6606
  148DOPC   C2717643   1.288   7.126  15.659 -0.2064 -0.6421  0.2778
  148DOPC   H7R17644   1.313   7.027  15.615 -1.4929 -1.1364  0.6146
  148DOPC   H7S17645   1.386   7.179  15.658 -0.6820  0.3223  1.7213
  148DOPC   C2817646   1.181   7.186  15.567 -0.2416 -0.3830 -0.5396
  148DOPC   H8R17647   1.165   7.294  15.589 -0.9699 -0.4320 -0.8111
  148DOPC   H8S17648   1.086   7.133  15.588 -0.1190 -1.5314 -2.5984
  148DOPC   C2917649   1.216   7.188  15.420 -0.0084 -0.3405  0.3987
  148DOPC   H9R17650   1.324   7.205  15.404  0.0478 -0.6644  0.4261
  148DOPC  C21017651   1.135   7.148  15.320 -0.3419 -0.0199  0.8400
  148DOPC  H10R17652   1.157   7.166  15.214 -1.1519  1.4623  0.8956
  148DOPC  C21117653   0.993   7.111  15.338 -0.0805 -0.8251 -0.3987
  148DOPC  H11R17654   0.938   7.198  15.295 -1.0332 -2.1067 -1.8620
  148DOPC  H11S17655   0.971   7.102  15.446  0.4139 -0.3849 -0.2600
  148DOPC  C21217656   0.951   6.984  15.262  0.4239 -0.1465  0.0692
  148DOPC  H12R17657   0.980   7.010  15.158 -1.4518 -1.2111 -0.7714
  148DOPC  H12S17658   0.842   6.963  15.264  0.1452  1.2508  0.8457
  148DOPC  C21317659   1.013   6.851  15.309  0.2898  0.2807 -0.2509
  148DOPC  H13R17660   1.105   6.830  15.250  0.4665  1.6111 -0.4687
  148DOPC  H13S17661   0.941   6.768  15.291 -0.7929  0.4414  2.7687
  148DOPC  C21417662   1.035   6.848  15.463  0.0647  0.9898  0.2320
  148DOPC  H14R17663   1.102   6.935  15.480 -0.2030  1.4447 -0.9487
  148DOPC  H14S17664   1.085   6.752  15.489 -2.9487 -0.2228  1.9969
  148DOPC  C21517665   0.917   6.834  15.559  0.1884  0.5919  1.2138
  148DOPC  H15R17666   0.879   6.730  15.556  1.1379  0.2306  1.2656
  148DOPC  H15S17667   0.838   6.905  15.525 -0.3204 -0.8040 -0.6774
  148DOPC  C21617668   0.962   6.882  15.696 -0.1315 -0.1033 -0.3836
  148DOPC  H16R17669   0.992   6.989  15.686  1.2710 -0.4183  0.2606
  148DOPC  H16S17670   1.046   6.823  15.738 -1.2460 -1.5844 -0.1500
  148DOPC  C21717671   0.849   6.886  15.800 -0.6384 -0.3509  0.0694
  148DOPC  H17R17672   0.810   6.785  15.827  0.5903 -0.5312  1.2582
  148DOPC  H17S17673   0.757   6.927  15.753 -1.7997 -2.0521  0.7360
  148DOPC  C21817674   0.876   6.962  15.933 -0.5454  0.0326 -0.1838
  148DOPC  H18R17675   0.967   6.924  15.984 -2.0385 -1.5906  1.4014
  148DOPC  H18S17676   0.794   6.945  16.006  0.8068 -1.0220  1.1512
  148DOPC  H18T17677   0.888   7.071  15.922 -2.8201  0.2810 -0.7011
  148DOPC   C3317678   1.797   6.747  16.047  0.4184 -1.0207  0.3045
  148DOPC   H3X17679   1.720   6.819  16.011  2.4813  1.4001  0.4364
  148DOPC   H3Y17680   1.736   6.655  16.053 -1.0500 -0.0898  0.2601
  148DOPC   C3417681   1.912   6.746  15.936  0.3579  0.0399 -0.1495
  148DOPC   H4X17682   1.998   6.685  15.970 -0.4229 -1.7127 -1.1919
  148DOPC   H4Y17683   1.952   6.848  15.915 -0.7151  0.1198 -1.9678
  148DOPC   C3517684   1.864   6.694  15.792  0.3530  0.0552  0.5963
  148DOPC   H5X17685   1.770   6.746  15.762  0.4920  0.8029  1.4342
  148DOPC   H5Y17686   1.848   6.585  15.810  3.0960 -0.6803 -0.8860
  148DOPC   C3617687   1.960   6.716  15.678  0.3386  0.5613  0.1968
  148DOPC   H6X17688   1.940   6.816  15.636 -0.9118 -0.1252 -0.9378
  148DOPC   H6Y17689   2.065   6.718  15.715 -0.0471  4.2971  1.4346
  148DOPC   C3717690   1.947   6.619  15.557 -0.0944  0.6573 -0.0472
  148DOPC   H7X17691   1.993   6.523  15.590 -1.1325  0.2171  0.1695
  148DOPC   H7Y17692   1.838   6.601  15.543  0.1230  0.4065 -1.5418
  148DOPC   C3817693   2.014   6.683  15.431  0.4439 -0.0541 -0.3333
  148DOPC   H8X17694   2.116   6.721  15.453  0.7626  1.2492 -3.4879
  148DOPC   H8Y17695   1.956   6.772  15.399  1.6678  0.6501 -0.6490
  148DOPC   C3917696   2.031   6.581  15.320  0.2953  0.3269 -0.3609
  148DOPC   H9X17697   2.054   6.483  15.365  0.3835  0.8137  0.6851
  148DOPC  C31017698   1.990   6.584  15.190 -0.0674  0.5448  0.7922
  148DOPC  H10X17699   2.021   6.512  15.113  0.5091  3.4847 -1.9274
  148DOPC  C31117700   1.911   6.695  15.132  0.4437 -0.0881 -0.0367
  148DOPC  H11X17701   1.970   6.788  15.144  0.7551 -0.3738  0.6851
  148DOPC  H11Y17702   1.810   6.687  15.178 -0.4029  1.8115 -1.4363
  148DOPC  C31217703   1.894   6.692  14.983  0.3368  1.2085 -0.4866
  148DOPC  H12X17704   1.855   6.593  14.954  1.5539  1.4272 -3.1758
  148DOPC  H12Y17705   1.994   6.688  14.935  0.3180  0.2118 -0.4458
  148DOPC  C31317706   1.819   6.814  14.943  0.7041 -0.1247  0.3340
  148DOPC  H13X17707   1.723   6.820  15.000 -0.0365  1.3420 -0.9793
  148DOPC  H13Y17708   1.875   6.908  14.964 -1.4842  1.6756 -1.3018
  148DOPC  C31417709   1.789   6.813  14.791  0.4097 -0.2238  0.3626
  148DOPC  H14X17710   1.734   6.721  14.764 -0.7139  0.2456  1.0100
  148DOPC  H14Y17711   1.731   6.906  14.774 -0.5930 -0.9800 -0.5090
  148DOPC  C31517712   1.923   6.806  14.714 -0.5798 -0.0793  0.2281
  148DOPC  H15X17713   1.966   6.703  14.716  0.1070  0.1653  3.7649
  148DOPC  H15Y17714   1.988   6.873  14.775 -1.2631 -1.0279  2.0731
  148DOPC  C31617715   1.905   6.859  14.572 -0.0600  0.9072 -0.5698
  148DOPC  H16X17716   1.869   6.773  14.511 -0.4630  0.3527  0.4106
  148DOPC  H16Y17717   1.823   6.933  14.584 -1.9572 -1.0340 -0.8310
  148DOPC  C31717718   2.032   6.896  14.494  0.4110  0.1195  0.1539
  148DOPC  H17X17719   1.995   6.915  14.391  1.0921  0.3586 -0.0528
  148DOPC  H17Y17720   2.084   6.990  14.523  2.8097 -1.1709  0.3039
  148DOPC  C31817721   2.137   6.787  14.468  0.3083  0.6728 -0.2024
  148DOPC  H18X17722   2.187   6.769  14.566  0.5928 -1.9228 -0.7630
  148DOPC  H18Y17723   2.085   6.698  14.428  0.8101  0.4122 -0.2727
  148DOPC  H18Z17724   2.208   6.829  14.394 -1.5405  1.1935 -1.7673
  149DOPC     N17725   1.689   4.865  17.677 -0.0896 -0.0340  0.3915
  149DOPC   C1217726   1.591   4.805  17.576 -0.4284 -0.5907 -0.4894
  149DOPC  H12A17727   1.512   4.877  17.563  0.5862  0.7830  0.5972
  149DOPC  H12B17728   1.550   4.716  17.622  0.4772 -1.2518 -0.9155
  149DOPC   C1317729   1.706   5.012  17.647 -0.8970 -0.0304  0.2170
  149DOPC  H13A17730   1.622   5.072  17.681 -0.2552  2.5876 -2.3554
  149DOPC  H13B17731   1.793   5.061  17.689  0.1273  2.2440 -3.9609
  149DOPC  H13C17732   1.725   5.014  17.541  0.6375  0.3729  0.4713
  149DOPC   C1417733   1.825   4.811  17.660 -0.0072 -0.4770 -0.9361
  149DOPC  H14A17734   1.833   4.709  17.696 -0.4928 -0.1624  0.0988
  149DOPC  H14B17735   1.847   4.811  17.554 -1.4833 -0.6502 -1.2605
  149DOPC  H14C17736   1.897   4.878  17.704  0.2934 -0.8439 -0.8623
  149DOPC   C1517737   1.632   4.839  17.813 -0.0739  0.2605  0.3210
  149DOPC  H15A17738   1.674   4.903  17.890 -0.6719 -0.7941  1.5631
  149DOPC  H15B17739   1.633   4.735  17.841 -2.8264  0.5982  2.0923
  149DOPC  H15C17740   1.531   4.877  17.809  0.5674  1.9897 -0.5651
  149DOPC   C1117741   1.642   4.742  17.442  0.0862 -0.3552  0.4594
  149DOPC  H11A17742   1.717   4.663  17.461  1.5435  0.0711 -2.8865
  149DOPC  H11B17743   1.560   4.690  17.388  0.0561 -1.0990  1.2008
  149DOPC     P17744   1.614   4.912  17.237 -0.1029 -0.1650 -0.4422
  149DOPC   O1317745   1.690   5.029  17.184  0.5243 -0.0783  0.1106
  149DOPC   O1417746   1.473   4.925  17.282  0.0744  0.1669  0.3812
  149DOPC   O1217747   1.698   4.846  17.356  0.3385  0.3935 -0.3790
  149DOPC   O1117748   1.616   4.799  17.122 -0.0924 -0.4840 -0.2990
  149DOPC    C117749   1.735   4.739  17.077 -0.6111 -0.2350  0.3278
  149DOPC    HA17750   1.755   4.650  17.142  1.8993  0.5712  0.7787
  149DOPC    HB17751   1.824   4.806  17.081 -1.2571  0.7155 -0.8634
  149DOPC    C217752   1.711   4.688  16.933 -0.7418  1.0540 -0.0356
  149DOPC    HS17753   1.645   4.601  16.955  1.6405 -0.7094  0.5291
  149DOPC   O2117754   1.835   4.647  16.889 -0.1260 -0.8854 -0.1726
  149DOPC   C2117755   1.857   4.524  16.849  0.2746 -0.0516 -0.2340
  149DOPC   O2217756   1.772   4.449  16.811  0.2772  0.3165  0.7541
  149DOPC   C2217757   2.010   4.513  16.838  0.6920  0.8916  0.2798
  149DOPC   H2R17758   2.046   4.410  16.857 -0.7926  0.2219 -0.3220
  149DOPC   H2S17759   2.042   4.571  16.927  0.8349 -2.5500  2.6472
  149DOPC    C317760   1.652   4.791  16.835  0.0276  0.7814  0.3136
  149DOPC    HX17761   1.725   4.872  16.817  0.9898 -0.7152 -3.2620
  149DOPC    HY17762   1.564   4.844  16.878 -0.2353 -0.3912  1.3043
  149DOPC   O3117763   1.621   4.717  16.709  0.2766  0.3630  0.0615
  149DOPC   C3117764   1.599   4.784  16.596 -0.7954  0.1031 -0.9514
  149DOPC   O3217765   1.600   4.907  16.592  0.2380 -0.1354  0.1321
  149DOPC   C3217766   1.547   4.697  16.481 -0.5206 -0.3354  0.3392
  149DOPC   H2X17767   1.604   4.601  16.480  0.3711  0.1877 -1.0589
  149DOPC   H2Y17768   1.442   4.663  16.499 -0.9667 -0.1058 -1.5954
  149DOPC   C2317769   2.055   4.569  16.701  0.0187 -0.8576  0.0773
  149DOPC   H3R17770   2.166   4.572  16.695 -0.0178  0.9492 -0.4658
  149DOPC   H3S17771   2.021   4.675  16.698 -2.2045 -1.5103  0.4436
  149DOPC   C2417772   2.015   4.503  16.570  0.1462 -0.0445  0.1721
  149DOPC   H4R17773   1.907   4.480  16.557 -0.0090 -0.4616  1.9604
  149DOPC   H4S17774   2.071   4.409  16.552  0.2607  0.2924 -1.3323
  149DOPC   C2517775   2.054   4.580  16.440 -0.6319  0.5860 -0.4226
  149DOPC   H5R17776   2.165   4.588  16.436 -0.5213  0.2237  1.3686
  149DOPC   H5S17777   2.001   4.677  16.450  1.2317  1.4718  1.6848
  149DOPC   C2617778   2.007   4.508  16.306 -0.4770 -0.7256  0.2976
  149DOPC   H6R17779   1.897   4.522  16.299 -0.7452 -2.3467  0.7706
  149DOPC   H6S17780   2.020   4.399  16.323 -1.8991 -1.3234 -1.9928
  149DOPC   C2717781   2.081   4.561  16.181 -0.3193  0.0307 -0.4530
  149DOPC   H7R17782   2.189   4.556  16.208 -0.2844 -0.4368 -0.6912
  149DOPC   H7S17783   2.045   4.666  16.169  0.5366  0.1947 -1.8062
  149DOPC   C2817784   2.047   4.492  16.050  0.2862 -0.6363 -0.0090
  149DOPC   H8R17785   2.019   4.388  16.077 -0.5177 -0.9306 -1.8116
  149DOPC   H8S17786   2.125   4.485  15.972 -1.1769  1.2408 -1.7583
  149DOPC   C2917787   1.922   4.546  15.993  0.5924 -0.2530 -0.5425
  149DOPC   H9R17788   1.843   4.543  16.070  0.7478 -2.3264 -0.4188
  149DOPC  C21017789   1.888   4.585  15.872  0.0343 -1.0730  0.1128
  149DOPC  H10R17790   1.794   4.640  15.860 -0.7004 -2.2695  0.2817
  149DOPC  C21117791   1.996   4.606  15.766 -0.3014 -0.7213  0.9987
  149DOPC  H11R17792   2.089   4.546  15.778  0.9520  0.7254 -0.9620
  149DOPC  H11S17793   2.036   4.710  15.775 -1.8284  0.0596 -0.7451
  149DOPC  C21217794   1.960   4.580  15.615 -0.3600  0.5199  0.4226
  149DOPC  H12R17795   1.871   4.647  15.608  0.6541  1.8254 -0.5574
  149DOPC  H12S17796   1.942   4.471  15.603 -0.2847  0.7149 -1.9097
  149DOPC  C21317797   2.054   4.650  15.514  0.0225  0.2132 -0.1059
  149DOPC  H13R17798   2.125   4.571  15.481 -2.4063 -2.6860  1.1952
  149DOPC  H13S17799   2.105   4.746  15.539 -0.5497  0.1314  1.4242
  149DOPC  C21417800   1.978   4.678  15.387 -0.3124 -0.5172  0.4794
  149DOPC  H14R17801   1.920   4.766  15.420  1.0064  0.0326  1.4389
  149DOPC  H14S17802   1.913   4.591  15.367 -0.0642 -0.9360  1.4109
  149DOPC  C21517803   2.073   4.704  15.269 -0.4095 -0.2694  0.6949
  149DOPC  H15R17804   2.149   4.623  15.268 -0.5504 -0.4046  0.0716
  149DOPC  H15S17805   2.128   4.799  15.284 -0.7462  0.2362 -0.9821
  149DOPC  C21617806   2.005   4.703  15.128 -0.0256  0.2362  0.3080
  149DOPC  H16R17807   1.964   4.605  15.096 -0.9285  1.6210 -3.1568
  149DOPC  H16S17808   2.081   4.744  15.058  0.0292 -0.7586 -0.2299
  149DOPC  C21717809   1.905   4.813  15.118 -0.4056  0.6264 -0.7636
  149DOPC  H17R17810   1.947   4.914  15.138 -0.3959  0.4465  0.2094
  149DOPC  H17S17811   1.822   4.791  15.188 -1.0532  1.4236 -1.2660
  149DOPC  C21817812   1.846   4.817  14.983 -0.1832 -0.2676  0.0582
  149DOPC  H18R17813   1.928   4.818  14.909 -0.4200 -1.1047 -0.2339
  149DOPC  H18S17814   1.777   4.902  14.963 -1.1381 -0.5737  1.8238
  149DOPC  H18T17815   1.801   4.716  14.972  0.0694 -0.0997 -3.9623
  149DOPC   C3317816   1.561   4.765  16.347 -0.5990  0.1360 -0.1368
  149DOPC   H3X17817   1.669   4.786  16.328 -0.3512  0.3413  1.3988
  149DOPC   H3Y17818   1.514   4.865  16.347 -1.0387  0.0283  3.1330
  149DOPC   C3417819   1.512   4.674  16.239 -0.0222 -0.3714  0.3479
  149DOPC   H4X17820   1.402   4.655  16.247 -0.1379  0.4722  0.9445
  149DOPC   H4Y17821   1.568   4.579  16.246  0.8985 -0.0024 -1.5686
  149DOPC   C3517822   1.528   4.732  16.096  0.0034  0.5672 -0.2247
  149DOPC   H5X17823   1.631   4.767  16.073 -0.6311  0.4765 -3.7864
  149DOPC   H5Y17824   1.469   4.826  16.097  0.6241  0.9769 -1.1147
  149DOPC   C3617825   1.484   4.645  15.979 -0.5139  0.5881 -0.0830
  149DOPC   H6X17826   1.543   4.552  15.992 -1.0690  0.2374 -0.0578
  149DOPC   H6Y17827   1.382   4.609  16.003 -0.3615  0.4031  0.2869
  149DOPC   C3717828   1.494   4.703  15.833 -0.2773  0.0657 -0.0569
  149DOPC   H7X17829   1.436   4.797  15.844  2.6580  1.8782  1.0222
  149DOPC   H7Y17830   1.601   4.731  15.819 -0.2809 -0.0388 -0.2858
  149DOPC   C3817831   1.457   4.610  15.725 -0.1040  0.4413 -0.0388
  149DOPC   H8X17832   1.354   4.590  15.763  0.8162 -0.1369  2.3290
  149DOPC   H8Y17833   1.519   4.518  15.730 -0.2764  0.3780  1.8704
  149DOPC   C3917834   1.460   4.684  15.594 -0.0884  0.1050 -0.2140
  149DOPC   H9X17835   1.389   4.767  15.594  0.9173  0.9800 -0.1825
  149DOPC  C31017836   1.517   4.652  15.475  0.2990 -0.5604  0.0439
  149DOPC  H10X17837   1.492   4.708  15.384 -0.8125 -0.9668  0.0865
  149DOPC  C31117838   1.600   4.529  15.451  0.1699 -0.1654 -0.1558
  149DOPC  H11X17839   1.605   4.465  15.542 -0.1558  0.9653  0.6804
  149DOPC  H11Y17840   1.703   4.562  15.428 -0.9621  2.0008 -2.6241
  149DOPC  C31217841   1.550   4.439  15.336 -0.4059 -0.3571 -0.8194
  149DOPC  H12X17842   1.441   4.417  15.342 -0.7039  1.4736  2.4649
  149DOPC  H12Y17843   1.596   4.338  15.343 -1.3101 -0.6906  0.7823
  149DOPC  C31317844   1.583   4.496  15.200 -0.0706  0.3917 -0.3024
  149DOPC  H13X17845   1.505   4.573  15.181 -1.1086 -0.3331  0.8568
  149DOPC  H13Y17846   1.679   4.551  15.211  1.6425 -2.6118  1.1459
  149DOPC  C31417847   1.593   4.392  15.095  0.7595  0.0346  0.0748
  149DOPC  H14X17848   1.671   4.322  15.132  1.4849 -0.2097 -1.8203
  149DOPC  H14Y17849   1.496   4.338  15.086  0.0944  1.2491 -0.3372
  149DOPC  C31517850   1.621   4.439  14.955 -0.1435  0.2714 -0.1229
  149DOPC  H15X17851   1.641   4.353  14.887  1.0249  1.4618 -1.3448
  149DOPC  H15Y17852   1.708   4.508  14.959 -1.7441  2.3540  0.7239
  149DOPC  C31617853   1.501   4.515  14.888  0.2173 -0.3108  0.5927
  149DOPC  H16X17854   1.415   4.444  14.880 -0.5815  0.7237 -0.3704
  149DOPC  H16Y17855   1.474   4.598  14.957  0.3258 -0.4398  0.7933
  149DOPC  C31717856   1.525   4.572  14.746  0.0447 -0.1667 -0.1478
  149DOPC  H17X17857   1.563   4.480  14.696  0.3326  0.5936 -1.3553
  149DOPC  H17Y17858   1.427   4.591  14.699 -0.7460 -2.7404  0.2976
  149DOPC  C31817859   1.625   4.685  14.733  0.6292  0.1519  0.0886
  149DOPC  H18X17860   1.727   4.648  14.761 -0.2560 -0.5008  2.7681
  149DOPC  H18Y17861   1.634   4.720  14.628  1.4844  1.5155  0.5929
  149DOPC  H18Z17862   1.597   4.763  14.806 -0.9615 -0.2018 -0.1161
  150DOPC     N17863   3.640   0.524  17.102  0.5022  0.8631  0.0782
  150DOPC   C1217864   3.766   0.448  17.142 -0.2151 -0.2995  0.0882
  150DOPC  H12A17865   3.729   0.374  17.211 -2.8452  0.3209 -0.5069
  150DOPC  H12B17866   3.830   0.507  17.205 -1.8064 -0.0894  1.5775
  150DOPC   C1317867   3.526   0.422  17.089 -0.5052  0.3370 -0.6693
  150DOPC  H13A17868   3.522   0.359  17.177  2.2207 -2.8085 -2.5340
  150DOPC  H13B17869   3.425   0.451  17.066 -0.8413 -1.0547 -1.0819
  150DOPC  H13C17870   3.544   0.355  17.006 -2.1151 -1.5065  0.3814
  150DOPC   C1417871   3.667   0.595  16.975  0.2309 -0.4654  0.2647
  150DOPC  H14A17872   3.599   0.672  16.941  1.0430  0.2022  0.1144
  150DOPC  H14B17873   3.758   0.654  16.974 -0.4272  0.5720 -0.5679
  150DOPC  H14C17874   3.673   0.519  16.899  0.1331 -3.1883  2.8117
  150DOPC   C1517875   3.600   0.620  17.211 -0.0693 -0.1640  0.4189
  150DOPC  H15A17876   3.503   0.665  17.198 -0.4726 -1.1202  0.0601
  150DOPC  H15B17877   3.678   0.695  17.219  0.5008 -0.5124 -1.4827
  150DOPC  H15C17878   3.585   0.571  17.306 -0.4804 -1.2894 -0.2040
  150DOPC   C1117879   3.846   0.371  17.036 -0.7531  0.0142 -0.1123
  150DOPC  H11A17880   3.845   0.426  16.940 -0.5769  1.0953  0.4979
  150DOPC  H11B17881   3.954   0.347  17.050 -0.6570  1.0992  1.1946
  150DOPC     P17882   3.763   0.112  17.085  0.2130 -0.0677  0.2331
  150DOPC   O1317883   3.627   0.094  17.136 -0.2805 -0.3601  0.0317
  150DOPC   O1417884   3.881   0.095  17.173 -0.5779  0.1784 -0.3749
  150DOPC   O1217885   3.774   0.255  17.014  0.4435  0.2878  0.4348
  150DOPC   O1117886   3.794   0.021  16.961  1.0160  0.0509  0.1713
  150DOPC    C117887   3.690  -0.031  16.871  0.3672 -0.5316 -0.3776
  150DOPC    HA17888   3.591   0.018  16.873  1.3662  1.6991 -1.3405
  150DOPC    HB17889   3.670  -0.137  16.898  0.1588 -0.5867 -0.7488
  150DOPC    C217890   3.734  -0.021  16.718  0.1451 -0.0006 -1.1445
  150DOPC    HS17891   3.818  -0.093  16.703  1.3449  0.5441  2.1279
  150DOPC   O2117892   3.771   0.113  16.690  0.0649 -0.1953 -0.2222
  150DOPC   C2117893   3.863   0.129  16.600  0.0810 -0.0749 -0.5912
  150DOPC   O2217894   3.930   0.041  16.545  0.0727  0.0026  0.0435
  150DOPC   C2217895   3.861   0.281  16.571 -0.6617  0.7382 -0.4765
  150DOPC   H2R17896   3.875   0.330  16.670 -1.2695 -0.5895  0.2921
  150DOPC   H2S17897   3.762   0.306  16.528 -0.9470 -0.8223 -0.7816
  150DOPC    C317898   3.614  -0.063  16.625 -0.0645  0.1544 -0.0872
  150DOPC    HX17899   3.531   0.002  16.660  0.2336 -0.1712  1.2938
  150DOPC    HY17900   3.592  -0.168  16.654  1.5618  0.0647  0.9686
  150DOPC   O3117901   3.650  -0.050  16.485 -0.1424  0.1581  0.3172
  150DOPC   C3117902   3.582   0.034  16.409 -0.5050  0.1017  0.1851
  150DOPC   O3217903   3.489   0.103  16.448 -0.2405 -0.0073 -0.4785
  150DOPC   C3217904   3.641   0.029  16.267 -0.0310 -0.2435 -0.6504
  150DOPC   H2X17905   3.752   0.032  16.275 -0.0770  1.7298 -0.3921
  150DOPC   H2Y17906   3.616  -0.072  16.228 -0.8602 -0.5191  0.5268
  150DOPC   C2317907   3.982   0.332  16.483  0.7666  0.3800  0.0359
  150DOPC   H3R17908   4.081   0.289  16.512  0.7270 -0.7112 -1.3732
  150DOPC   H3S17909   3.985   0.443  16.483 -0.0920  0.4562 -2.4337
  150DOPC   C2417910   3.942   0.311  16.336 -0.1528 -0.0180  0.3462
  150DOPC   H4R17911   3.832   0.314  16.326 -0.1070  1.0870  0.0637
  150DOPC   H4S17912   3.982   0.212  16.305 -0.8497 -0.9157  2.1650
  150DOPC   C2517913   3.999   0.415  16.241  0.5389  0.8743 -0.6254
  150DOPC   H5R17914   4.110   0.415  16.235  0.7042  2.8519  1.3431
  150DOPC   H5S17915   3.962   0.513  16.277 -0.0776  0.8617 -1.1970
  150DOPC   C2617916   3.964   0.397  16.094 -0.2386  0.2561 -0.8568
  150DOPC   H6R17917   3.853   0.395  16.082 -0.2008 -1.4517 -1.1556
  150DOPC   H6S17918   4.002   0.299  16.057 -0.0774 -0.3116  0.7459
  150DOPC   C2717919   4.011   0.508  16.007  0.4733  0.1638 -0.3649
  150DOPC   H7R17920   4.117   0.507  15.974  0.3696  1.4410 -0.8086
  150DOPC   H7S17921   3.994   0.608  16.053 -0.7543  1.0338 -2.5854
  150DOPC   C2817922   3.923   0.511  15.882 -0.4317  0.5911  0.6556
  150DOPC   H8R17923   3.818   0.490  15.912 -0.1226 -0.9398  0.7027
  150DOPC   H8S17924   3.955   0.425  15.820 -1.1663  0.8252 -0.0674
  150DOPC   C2917925   3.929   0.640  15.814  0.3586  0.7732  0.6088
  150DOPC   H9R17926   3.909   0.727  15.879  0.5114  1.9370 -0.8640
  150DOPC  C21017927   4.003   0.661  15.704 -0.0034  0.2066 -0.1670
  150DOPC  H10R17928   4.014   0.761  15.659 -0.9323  0.5563  0.3580
  150DOPC  C21117929   4.051   0.556  15.611 -0.5146 -0.2879 -0.3998
  150DOPC  H11R17930   3.983   0.469  15.606 -0.0354 -0.6334 -0.9929
  150DOPC  H11S17931   4.145   0.508  15.646 -0.9326 -0.8765 -0.0489
  150DOPC  C21217932   4.076   0.618  15.471 -0.3596  0.4272 -0.4185
  150DOPC  H12R17933   4.137   0.546  15.414  0.0310  1.1545 -0.9400
  150DOPC  H12S17934   4.142   0.707  15.476 -0.1654  0.6783 -4.2772
  150DOPC  C21317935   3.946   0.639  15.395  0.0627 -0.5497  0.3830
  150DOPC  H13R17936   3.907   0.739  15.423 -0.6451 -0.7215  0.0418
  150DOPC  H13S17937   3.863   0.567  15.414  0.7282 -1.0681  1.4263
  150DOPC  C21417938   3.965   0.643  15.241  0.0351  0.2497 -0.2942
  150DOPC  H14R17939   4.040   0.720  15.211  2.2557 -0.6454  2.4978
  150DOPC  H14S17940   3.872   0.677  15.191  1.0816  3.2606 -0.4361
  150DOPC  C21517941   4.006   0.521  15.175 -0.7590 -0.5438 -0.6149
  150DOPC  H15R17942   3.964   0.429  15.221  1.9574 -1.8237 -0.4738
  150DOPC  H15S17943   4.116   0.508  15.184 -0.8997 -3.3201 -1.9263
  150DOPC  C21617944   3.952   0.502  15.034  0.1458 -0.0726 -0.0531
  150DOPC  H16R17945   3.842   0.491  15.037  0.0566  0.5202 -0.8994
  150DOPC  H16S17946   4.002   0.411  14.996 -0.5022 -0.6968  0.5655
  150DOPC  C21717947   3.976   0.614  14.930 -0.0308 -0.1176 -0.5154
  150DOPC  H17R17948   3.938   0.712  14.967 -0.1087 -0.8021  1.3018
  150DOPC  H17S17949   3.915   0.594  14.840  1.3363 -0.1228 -1.4739
  150DOPC  C21817950   4.119   0.629  14.876  0.6133  0.3345 -0.5916
  150DOPC  H18R17951   4.204   0.597  14.941  1.8675  0.7516 -1.9669
  150DOPC  H18S17952   4.137   0.709  14.802 -2.7984  0.3832 -1.5329
  150DOPC  H18T17953   4.107   0.550  14.799 -1.7077 -2.1514  2.0990
  150DOPC   C3317954   3.593   0.132  16.169 -0.3259 -0.1829 -0.3609
  150DOPC   H3X17955   3.583   0.231  16.218 -1.4655 -1.2658  1.7070
  150DOPC   H3Y17956   3.490   0.104  16.138 -0.1506  0.8708 -1.9932
  150DOPC   C3417957   3.688   0.135  16.041  0.7073  0.0492 -0.1943
  150DOPC   H4X17958   3.709   0.035  15.999  2.6736  0.9593 -1.5681
  150DOPC   H4Y17959   3.786   0.178  16.074  0.8318 -0.1066 -0.3598
  150DOPC   C3517960   3.625   0.222  15.929  0.2012 -0.0514  0.1565
  150DOPC   H5X17961   3.591   0.323  15.963 -1.1708 -1.1967  2.4250
  150DOPC   H5Y17962   3.534   0.162  15.906 -0.3662  0.6168  0.5911
  150DOPC   C3617963   3.707   0.231  15.800  0.1404  0.4698 -0.4559
  150DOPC   H6X17964   3.681   0.323  15.743  0.2234  0.3337 -0.7121
  150DOPC   H6Y17965   3.814   0.244  15.829 -0.8914  1.6513  3.3444
  150DOPC   C3717966   3.693   0.115  15.700 -0.1009 -0.7247  0.4091
  150DOPC   H7X17967   3.724   0.021  15.750  0.7285 -1.4328 -1.3332
  150DOPC   H7Y17968   3.583   0.112  15.686 -0.2208 -2.3566  1.5392
  150DOPC   C3817969   3.780   0.132  15.574  0.5146  0.4260 -0.2132
  150DOPC   H8X17970   3.769   0.045  15.507  5.1121 -1.5771  1.2117
  150DOPC   H8Y17971   3.887   0.120  15.603 -0.2280 -1.9767  1.8611
  150DOPC   C3917972   3.766   0.260  15.505  0.3370  0.2509 -0.4110
  150DOPC   H9X17973   3.763   0.349  15.570 -1.7230  0.3432 -0.5733
  150DOPC  C31017974   3.747   0.284  15.371 -0.3007  0.4666 -0.4163
  150DOPC  H10X17975   3.764   0.387  15.336  1.2094  0.6356  0.7059
  150DOPC  C31117976   3.737   0.176  15.262 -0.8059 -0.5073  0.2950
  150DOPC  H11X17977   3.642   0.192  15.207 -0.9113 -0.5552  0.4608
  150DOPC  H11Y17978   3.734   0.071  15.299  0.6947  0.4852  3.5924
  150DOPC  C31217979   3.835   0.194  15.146 -0.5461 -0.4493  0.9831
  150DOPC  H12X17980   3.941   0.182  15.177 -1.4656 -4.5755  3.0966
  150DOPC  H12Y17981   3.816   0.295  15.102  3.9711  0.9378  1.6398
  150DOPC  C31317982   3.818   0.079  15.042  0.1619  0.5614 -0.0043
  150DOPC  H13X17983   3.836  -0.020  15.090 -0.2240  0.5052  0.0238
  150DOPC  H13Y17984   3.711   0.086  15.015  0.2032  0.0448 -0.3229
  150DOPC  C31417985   3.910   0.107  14.933  0.4578  0.0201 -0.0102
  150DOPC  H14X17986   3.892   0.209  14.893  0.6772 -0.2688 -0.8836
  150DOPC  H14Y17987   4.014   0.104  14.972  0.2787 -0.2246  0.4501
  150DOPC  C31517988   3.890   0.005  14.817  0.4387  0.5913 -0.0353
  150DOPC  H15X17989   3.782  -0.016  14.801  0.8718 -0.3337 -1.9454
  150DOPC  H15Y17990   3.944  -0.090  14.834 -1.2622 -0.4334 -0.1722
  150DOPC  C31617991   3.946   0.064  14.684  0.4292  0.2981  0.1524
  150DOPC  H16X17992   3.908   0.168  14.670 -0.1655  0.0731  0.0459
  150DOPC  H16Y17993   4.056   0.076  14.689  0.5010  0.2592 -1.1405
  150DOPC  C31717994   3.919  -0.017  14.557 -0.0467  0.8807 -0.2363
  150DOPC  H17X17995   3.968   0.038  14.474  1.5653 -1.4568 -0.9456
  150DOPC  H17Y17996   3.976  -0.113  14.553 -1.7738 -0.1815 -0.7808
  150DOPC  C31817997   3.776  -0.051  14.519 -0.0018 -0.4910  0.1156
  150DOPC  H18X17998   3.734  -0.139  14.571 -2.0486  0.8333  0.8665
  150DOPC  H18Y17999   3.715   0.038  14.548 -0.7297  0.0067 -2.6417
  150DOPC  H18Z18000   3.770  -0.068  14.410  0.6120 -1.4203  0.2208
  151DOPC     N18001   1.136   3.415  17.111  0.2585 -0.2996 -0.6496
  151DOPC   C1218002   1.127   3.558  17.062 -0.6720  0.2379 -0.0830
  151DOPC  H12A18003   1.196   3.565  16.979 -0.5947  1.9598  0.0974
  151DOPC  H12B18004   1.163   3.632  17.132 -0.5309 -1.7366  2.0258
  151DOPC   C1318005   1.063   3.408  17.244 -0.0483 -0.3776 -0.4995
  151DOPC  H13A18006   1.105   3.477  17.316  0.0108 -0.3077 -0.6000
  151DOPC  H13B18007   0.958   3.423  17.228 -0.1251 -1.2012 -0.8118
  151DOPC  H13C18008   1.064   3.309  17.286 -0.1094 -0.8662 -1.6086
  151DOPC   C1418009   1.280   3.373  17.129  0.7824 -0.3419  0.3691
  151DOPC  H14A18010   1.322   3.424  17.215  1.9839  2.5957 -1.8044
  151DOPC  H14B18011   1.280   3.267  17.149 -1.1557 -0.6307 -0.8952
  151DOPC  H14C18012   1.337   3.383  17.038  0.3428 -1.5444 -0.0518
  151DOPC   C1518013   1.068   3.320  17.019 -0.5731 -0.3872  0.0829
  151DOPC  H15A18014   0.971   3.360  16.994 -0.1141  0.0277 -1.0780
  151DOPC  H15B18015   1.032   3.225  17.057 -2.1912  0.1135 -0.1303
  151DOPC  H15C18016   1.125   3.295  16.931  0.5279 -1.6930  1.1080
  151DOPC   C1118017   0.989   3.611  17.017 -0.0380 -0.2427 -0.1271
  151DOPC  H11A18018   1.010   3.714  16.982 -1.1765  0.7992  2.0427
  151DOPC  H11B18019   0.971   3.550  16.926  0.8056  0.3420 -0.6947
  151DOPC     P18020   0.816   3.733  17.179 -0.0560 -0.5713  0.2683
  151DOPC   O1318021   0.914   3.824  17.242  0.4779 -0.1413 -0.2981
  151DOPC   O1418022   0.706   3.681  17.255  0.6870  0.4688  0.0097
  151DOPC   O1218023   0.878   3.610  17.110  0.1682 -0.1668 -0.5172
  151DOPC   O1118024   0.753   3.813  17.060  0.7109  0.1896 -0.1148
  151DOPC    C118025   0.650   3.752  16.979 -0.7066  0.1606  0.5029
  151DOPC    HA18026   0.549   3.759  17.025 -1.3825 -1.2827 -0.6642
  151DOPC    HB18027   0.656   3.641  16.977 -1.4563  0.0999 -1.8838
  151DOPC    C218028   0.643   3.803  16.834 -0.2472  0.5567  0.3757
  151DOPC    HS18029   0.579   3.731  16.778  0.8154 -1.4908  1.6766
  151DOPC   O2118030   0.774   3.810  16.778  0.5584  0.2098  0.1413
  151DOPC   C2118031   0.826   3.687  16.746  0.1427 -0.4798 -0.1378
  151DOPC   O2218032   0.774   3.578  16.750  0.4391  0.3702  0.4261
  151DOPC   C2218033   0.962   3.712  16.690  0.0191  0.3712  0.1751
  151DOPC   H2R18034   1.009   3.613  16.674  0.2984  0.1328  2.1835
  151DOPC   H2S18035   1.030   3.757  16.766  2.5057 -1.0527 -1.0667
  151DOPC    C318036   0.584   3.943  16.833  0.6856  0.7987 -0.4439
  151DOPC    HX18037   0.644   4.012  16.898  0.5601  0.7721 -0.2995
  151DOPC    HY18038   0.481   3.937  16.873  1.3606  2.5934  1.8545
  151DOPC   O3118039   0.586   3.993  16.699 -0.6792 -0.0228 -0.0095
  151DOPC   C3118040   0.682   4.082  16.664  0.2654  0.0957  0.4234
  151DOPC   O3218041   0.785   4.101  16.723  0.0524  0.0790 -0.6379
  151DOPC   C3218042   0.637   4.153  16.538  0.3583 -0.0762 -0.0068
  151DOPC   H2X18043   0.584   4.082  16.471 -1.2754  3.0974 -2.3708
  151DOPC   H2Y18044   0.547   4.214  16.563  0.2637 -0.6103  1.0167
  151DOPC   C2318045   0.977   3.808  16.565 -0.8559  0.3690  0.1412
  151DOPC   H3R18046   0.978   3.914  16.597  0.4136  0.4696 -0.2126
  151DOPC   H3S18047   0.884   3.787  16.508  0.2646 -0.3797 -1.4662
  151DOPC   C2418048   1.090   3.762  16.469 -0.3205  0.6714 -0.2852
  151DOPC   H4R18049   1.073   3.655  16.443 -1.1553  0.5640  0.6289
  151DOPC   H4S18050   1.181   3.767  16.532  0.5459 -1.7732 -1.1979
  151DOPC   C2518051   1.119   3.847  16.345 -0.0145  0.0462 -0.1874
  151DOPC   H5R18052   1.222   3.818  16.317  0.9588  1.7145  1.4556
  151DOPC   H5S18053   1.101   3.953  16.372 -1.3284 -0.6355  1.9372
  151DOPC   C2618054   1.006   3.811  16.242 -0.3121  0.7598 -0.3681
  151DOPC   H6R18055   1.026   3.855  16.142 -0.1864 -1.1859 -1.2457
  151DOPC   H6S18056   0.908   3.849  16.279 -0.0479  3.6776 -2.2994
  151DOPC   C2718057   0.998   3.658  16.198  0.6572 -0.4029 -0.9317
  151DOPC   H7R18058   0.937   3.611  16.279 -1.0789  2.8273 -0.2137
  151DOPC   H7S18059   1.092   3.599  16.205 -0.9596 -2.9791  1.2472
  151DOPC   C2818060   0.935   3.636  16.055 -0.0253 -0.0609  0.5230
  151DOPC   H8R18061   0.846   3.702  16.049 -0.4863 -0.7267 -0.1903
  151DOPC   H8S18062   0.896   3.531  16.052 -1.4187  0.2984  3.1291
  151DOPC   C2918063   1.037   3.661  15.947 -0.3861 -0.0709 -0.0819
  151DOPC   H9R18064   1.103   3.749  15.954 -0.8458  0.2024  1.0210
  151DOPC  C21018065   1.017   3.607  15.826 -0.0719  0.2419  0.4243
  151DOPC  H10R18066   1.084   3.637  15.744 -1.2053 -1.3924 -1.1471
  151DOPC  C21118067   0.906   3.508  15.774  0.1580 -0.5142  0.7687
  151DOPC  H11R18068   0.813   3.521  15.834 -0.4322 -0.8129 -0.0422
  151DOPC  H11S18069   0.942   3.403  15.763  1.2677 -0.1088  0.4305
  151DOPC  C21218070   0.857   3.556  15.635  0.4000 -0.2455 -0.1514
  151DOPC  H12R18071   0.819   3.660  15.630  1.0241  0.0184  0.4815
  151DOPC  H12S18072   0.765   3.500  15.607  0.0067  0.3294 -0.0265
  151DOPC  C21318073   0.956   3.522  15.520 -0.0907 -0.2607 -0.9194
  151DOPC  H13R18074   0.946   3.413  15.500 -2.8112  0.0660 -1.7599
  151DOPC  H13S18075   1.062   3.540  15.546  0.3446 -0.4610 -2.4798
  151DOPC  C21418076   0.936   3.593  15.385 -0.2914  0.4870 -0.5426
  151DOPC  H14R18077   1.027   3.584  15.322  0.8281  2.2265  0.7457
  151DOPC  H14S18078   0.921   3.700  15.410 -0.5622  0.9262 -2.4937
  151DOPC  C21518079   0.817   3.546  15.304 -1.1700 -0.0266  0.7424
  151DOPC  H15R18080   0.719   3.553  15.355 -1.0129  0.7315  0.9497
  151DOPC  H15S18081   0.832   3.437  15.284 -1.1748 -0.2512  1.9012
  151DOPC  C21618082   0.810   3.620  15.167  0.5114 -0.2448 -0.4052
  151DOPC  H16R18083   0.907   3.618  15.113  0.2361 -0.2385 -0.9016
  151DOPC  H16S18084   0.791   3.727  15.190  0.6463 -0.3005 -0.0178
  151DOPC  C21718085   0.714   3.564  15.060 -0.2952 -0.4211 -0.0359
  151DOPC  H17R18086   0.614   3.604  15.085 -0.2275 -1.0177  1.3191
  151DOPC  H17S18087   0.717   3.453  15.071  1.0734 -0.4736 -0.7313
  151DOPC  C21818088   0.743   3.609  14.917  0.5676 -0.0841  0.0844
  151DOPC  H18R18089   0.767   3.717  14.907  0.0299 -0.1592 -2.6437
  151DOPC  H18S18090   0.664   3.576  14.847 -0.9674  3.1167  0.0878
  151DOPC  H18T18091   0.834   3.562  14.875  2.9531  2.7851  1.6888
  151DOPC   C3318092   0.744   4.221  16.459 -0.4988  0.0890  0.1033
  151DOPC   H3X18093   0.831   4.255  16.520  0.0377 -0.2665 -0.4512
  151DOPC   H3Y18094   0.695   4.310  16.414  0.8639  1.2094  0.7579
  151DOPC   C3418095   0.796   4.131  16.344 -0.1772 -0.1530 -0.2997
  151DOPC   H4X18096   0.792   4.026  16.380 -0.1973 -0.1745 -0.3645
  151DOPC   H4Y18097   0.900   4.162  16.320 -0.2576  0.5754  0.2429
  151DOPC   C3518098   0.705   4.126  16.218 -0.9063 -0.3259 -0.1825
  151DOPC   H5X18099   0.710   4.226  16.168  0.0829  0.6326  1.7338
  151DOPC   H5Y18100   0.597   4.106  16.236 -1.0719  0.5528 -0.1584
  151DOPC   C3618101   0.754   4.021  16.112  0.4941 -0.0915  0.0377
  151DOPC   H6X18102   0.863   4.035  16.098  0.3566  1.2588  0.1838
  151DOPC   H6Y18103   0.730   3.922  16.157  1.2388  1.2862  3.8284
  151DOPC   C3718104   0.676   4.050  15.974 -0.1283  0.6441 -0.5280
  151DOPC   H7X18105   0.567   4.035  15.991  0.5431 -2.0760  2.3921
  151DOPC   H7Y18106   0.691   4.157  15.948  1.0780  0.8500  0.8666
  151DOPC   C3818107   0.726   3.958  15.866  0.0003 -0.1999 -0.0287
  151DOPC   H8X18108   0.703   3.853  15.892  0.1614 -0.0268  0.8266
  151DOPC   H8Y18109   0.837   3.962  15.871 -0.0578 -0.1477  1.3734
  151DOPC   C3918110   0.653   3.980  15.737 -0.1933  0.9920 -0.4911
  151DOPC   H9X18111   0.544   3.988  15.748 -0.2221  2.5887 -1.6100
  151DOPC  C31018112   0.710   3.984  15.613 -0.3427  0.2976 -0.0583
  151DOPC  H10X18113   0.640   4.004  15.530 -2.5183 -0.9334  1.4174
  151DOPC  C31118114   0.855   3.977  15.577 -0.1581 -0.1668  0.6799
  151DOPC  H11X18115   0.876   3.874  15.542 -0.6684 -0.5546  1.5032
  151DOPC  H11Y18116   0.913   4.003  15.667  0.6306  1.3707 -0.2261
  151DOPC  C31218117   0.890   4.086  15.473  0.0346  0.6629  0.2447
  151DOPC  H12X18118   0.993   4.065  15.434  0.5243  3.1297  0.0566
  151DOPC  H12Y18119   0.896   4.185  15.522 -1.4976  1.7825 -1.6973
  151DOPC  C31318120   0.808   4.080  15.344 -0.1046  0.3196 -0.1659
  151DOPC  H13X18121   0.804   3.973  15.312 -0.5408 -0.0473  1.0481
  151DOPC  H13Y18122   0.708   4.122  15.367 -0.5974  1.1272 -3.2802
  151DOPC  C31418123   0.868   4.166  15.236  0.1697  0.6799 -0.5179
  151DOPC  H14X18124   0.873   4.272  15.271 -0.6470  0.8233 -0.8152
  151DOPC  H14Y18125   0.971   4.137  15.207  0.6537  1.0704  0.7393
  151DOPC  C31518126   0.785   4.170  15.107  0.4351  0.1731 -0.0704
  151DOPC  H15X18127   0.822   4.252  15.042  0.3748 -0.0598 -0.4024
  151DOPC  H15Y18128   0.678   4.199  15.109  0.1205 -0.5526 -2.5748
  151DOPC  C31618129   0.799   4.033  15.028  0.7151 -0.6275 -0.7669
  151DOPC  H16X18130   0.908   4.021  15.010  1.2562  0.5310  1.4176
  151DOPC  H16Y18131   0.759   3.951  15.091 -0.8695  0.2027 -0.6207
  151DOPC  C31718132   0.707   4.033  14.906 -0.1668  0.4673  0.2103
  151DOPC  H17X18133   0.742   3.939  14.857 -0.7627  0.8292 -0.9417
  151DOPC  H17Y18134   0.601   4.026  14.938 -0.2530  1.8996  0.3111
  151DOPC  C31818135   0.714   4.159  14.813 -0.3850  0.3315  0.4837
  151DOPC  H18X18136   0.674   4.246  14.870 -2.3653 -0.0212 -0.2607
  151DOPC  H18Y18137   0.814   4.187  14.774  1.2088 -1.9232  2.6437
  151DOPC  H18Z18138   0.639   4.162  14.731 -0.7758 -0.2028  0.8171
  152DOPC     N18139   4.430   3.105  17.519  0.4825  0.4579  0.5345
  152DOPC   C1218140   4.385   3.133  17.374  0.5760  0.8762 -0.7726
  152DOPC  H12A18141   4.449   3.211  17.337  2.6214  0.3942  1.5428
  152DOPC  H12B18142   4.284   3.169  17.385 -0.0565 -1.1551  0.6267
  152DOPC   C1318143   4.569   3.055  17.494 -0.0767  1.1264 -0.3313
  152DOPC  H13A18144   4.574   2.967  17.432  0.6714  0.3652  0.7630
  152DOPC  H13B18145   4.635   3.129  17.451  1.1211  0.2615 -0.0649
  152DOPC  H13C18146   4.609   3.028  17.590 -0.2596 -2.1649 -1.0646
  152DOPC   C1418147   4.351   3.000  17.594  0.2646  0.1846 -0.5417
  152DOPC  H14A18148   4.393   2.980  17.692  0.9502 -0.2769 -0.9241
  152DOPC  H14B18149   4.247   3.030  17.598  0.4273  0.6956 -0.0613
  152DOPC  H14C18150   4.357   2.907  17.540 -1.0094 -0.1255 -0.1849
  152DOPC   C1518151   4.443   3.233  17.599 -0.1941 -0.1277  0.5208
  152DOPC  H15A18152   4.496   3.307  17.541 -0.3658 -0.2195  0.2400
  152DOPC  H15B18153   4.501   3.215  17.688  0.2224 -2.4259 -0.1327
  152DOPC  H15C18154   4.347   3.273  17.626 -0.1242  0.3675  0.0620
  152DOPC   C1118155   4.380   3.015  17.268  0.2817 -0.1514 -0.1068
  152DOPC  H11A18156   4.325   3.062  17.183  1.4904  1.4460 -0.0715
  152DOPC  H11B18157   4.484   2.991  17.237  0.4479  0.5206 -0.0931
  152DOPC     P18158   4.379   2.756  17.296 -0.4104  0.1874  0.3695
  152DOPC   O1318159   4.301   2.658  17.370  0.5398  0.4995  0.3021
  152DOPC   O1418160   4.517   2.764  17.345  0.1876  0.2253 -0.5748
  152DOPC   O1218161   4.312   2.900  17.307 -0.3982 -0.2896  0.3094
  152DOPC   O1118162   4.384   2.724  17.140  0.5313 -0.3717  0.7585
  152DOPC    C118163   4.262   2.753  17.066 -0.0890 -0.0750 -0.3768
  152DOPC    HA18164   4.291   2.772  16.960  0.3837 -1.3009 -0.4899
  152DOPC    HB18165   4.208   2.845  17.095 -0.0325 -0.1234 -0.1160
  152DOPC    C218166   4.153   2.642  17.054 -0.6814 -0.7122  0.2376
  152DOPC    HS18167   4.126   2.610  17.157 -2.1715 -0.1570  0.0451
  152DOPC   O2118168   4.210   2.534  16.980  0.2369  0.2080 -0.7978
  152DOPC   C2118169   4.172   2.414  17.022  0.6122 -0.4511  0.5584
  152DOPC   O2218170   4.102   2.382  17.116  0.0853 -0.4635  0.0898
  152DOPC   C2218171   4.219   2.305  16.921 -0.0360 -0.0777  0.3832
  152DOPC   H2R18172   4.330   2.311  16.923  0.1638  0.9370 -3.9677
  152DOPC   H2S18173   4.193   2.348  16.822  1.1513 -2.2380 -0.9399
  152DOPC    C318174   4.029   2.698  16.991 -0.3891  0.4805  0.4679
  152DOPC    HX18175   3.986   2.773  17.061 -0.8178 -0.4607  1.2383
  152DOPC    HY18176   3.964   2.610  16.974  0.4624  0.4294 -3.4906
  152DOPC   O3118177   4.064   2.751  16.861  0.3017  0.3177 -0.3030
  152DOPC   C3118178   4.026   2.678  16.756  0.2638 -0.3023  0.0480
  152DOPC   O3218179   3.965   2.570  16.762 -0.0574  0.0427 -0.1821
  152DOPC   C3218180   4.065   2.739  16.620 -0.0686  0.2773 -0.2596
  152DOPC   H2X18181   3.970   2.737  16.562 -0.6131 -2.2484  0.6259
  152DOPC   H2Y18182   4.100   2.844  16.635 -0.2289  0.4271 -0.9079
  152DOPC   C2318183   4.171   2.157  16.950  0.1838  0.0523 -0.4526
  152DOPC   H3R18184   4.066   2.170  16.984  0.5679 -1.4770  1.4996
  152DOPC   H3S18185   4.234   2.122  17.035 -0.0977 -0.0044 -0.2682
  152DOPC   C2418186   4.175   2.076  16.826 -0.3736 -0.3262 -0.3376
  152DOPC   H4R18187   4.277   2.066  16.784  0.5660  1.1658  1.4590
  152DOPC   H4S18188   4.103   2.116  16.751 -2.1982 -0.5975  1.1967
  152DOPC   C2518189   4.128   1.932  16.839 -0.9113  0.9260 -0.1059
  152DOPC   H5R18190   4.024   1.942  16.877  0.0942  0.9392  2.8799
  152DOPC   H5S18191   4.191   1.885  16.917 -1.3707  2.1287  1.0202
  152DOPC   C2618192   4.139   1.850  16.705 -0.1062  0.2525 -1.0193
  152DOPC   H6R18193   4.245   1.854  16.671  0.8956  1.2871  1.9238
  152DOPC   H6S18194   4.074   1.913  16.640  2.5061  1.9956 -2.1325
  152DOPC   C2718195   4.089   1.704  16.721  0.1043 -0.2674 -0.0117
  152DOPC   H7R18196   3.989   1.726  16.763  1.1955  0.3726  2.4062
  152DOPC   H7S18197   4.154   1.644  16.789  2.2507 -0.4500 -2.0769
  152DOPC   C2818198   4.100   1.621  16.590 -0.0545 -0.3443  0.1877
  152DOPC   H8R18199   4.063   1.519  16.615 -0.5499 -0.3339 -0.4669
  152DOPC   H8S18200   4.209   1.616  16.567 -0.2671 -2.3332 -0.5948
  152DOPC   C2918201   4.014   1.673  16.473  0.8717 -0.2178  0.3941
  152DOPC   H9R18202   3.905   1.672  16.488  0.8842  1.4833  0.8040
  152DOPC  C21018203   4.063   1.727  16.358  1.0718  0.3604 -0.0932
  152DOPC  H10R18204   3.980   1.734  16.286  1.8581 -0.9449 -1.1703
  152DOPC  C21118205   4.203   1.735  16.302 -0.4717  0.2904  0.5563
  152DOPC  H11R18206   4.273   1.666  16.353  0.2290  0.5273 -0.0587
  152DOPC  H11S18207   4.242   1.839  16.294 -2.7882  1.0603 -2.9703
  152DOPC  C21218208   4.198   1.686  16.158 -0.3747 -0.1791  0.3262
  152DOPC  H12R18209   4.124   1.603  16.151  0.1662 -0.6930  0.5601
  152DOPC  H12S18210   4.300   1.653  16.129  0.4028  2.5341 -0.3145
  152DOPC  C21318211   4.158   1.792  16.048  0.4958 -0.1779  0.3456
  152DOPC  H13R18212   4.218   1.886  16.050  1.2813 -0.6707  0.3952
  152DOPC  H13S18213   4.055   1.830  16.065 -0.0482 -0.0848 -2.5846
  152DOPC  C21418214   4.171   1.733  15.907  0.2719 -0.4540  0.4924
  152DOPC  H14R18215   4.108   1.642  15.915 -3.3551  1.9212  0.7680
  152DOPC  H14S18216   4.277   1.723  15.873  0.2544  1.5562 -0.2537
  152DOPC  C21518217   4.097   1.829  15.812  0.0615 -0.4529 -0.5872
  152DOPC  H15R18218   4.142   1.928  15.834  0.4165 -0.9173  0.8790
  152DOPC  H15S18219   3.990   1.829  15.843 -0.5945  0.4208 -2.6538
  152DOPC  C21618220   4.101   1.779  15.666 -0.1730  0.7472  0.0782
  152DOPC  H16R18221   4.032   1.692  15.660 -2.4602  2.4385  0.5400
  152DOPC  H16S18222   4.199   1.749  15.624 -1.3753 -0.2285 -2.2244
  152DOPC  C21718223   4.038   1.887  15.577 -0.6080 -0.3043  1.0026
  152DOPC  H17R18224   4.109   1.973  15.574  0.0561 -0.8626 -0.9491
  152DOPC  H17S18225   3.943   1.928  15.618  0.5013  3.6414  0.0857
  152DOPC  C21818226   4.020   1.835  15.430  0.2857  0.0863  0.4101
  152DOPC  H18R18227   3.963   1.739  15.431  0.0807  0.1876 -0.7564
  152DOPC  H18S18228   4.119   1.815  15.383 -0.1670  0.0866 -0.5426
  152DOPC  H18T18229   3.956   1.905  15.374  1.4867  2.0557  1.3584
  152DOPC   C3318230   4.177   2.658  16.548 -0.3555  0.1398  0.5828
  152DOPC   H3X18231   4.268   2.665  16.612 -1.5042 -1.7970  2.6141
  152DOPC   H3Y18232   4.195   2.703  16.449  0.8933 -0.9245  0.3015
  152DOPC   C3418233   4.145   2.514  16.525 -0.1192  0.3217 -0.2677
  152DOPC   H4X18234   4.057   2.506  16.457  0.5954  0.2145 -1.1985
  152DOPC   H4Y18235   4.122   2.469  16.624  0.2442  0.1030 -0.2821
  152DOPC   C3518236   4.271   2.439  16.472  0.0530 -0.9457 -0.9966
  152DOPC   H5X18237   4.233   2.335  16.460  0.6090 -1.3999  0.9158
  152DOPC   H5Y18238   4.342   2.442  16.557 -1.1558  0.6932  0.0308
  152DOPC   C3618239   4.336   2.497  16.349 -0.0814  0.5752 -0.6138
  152DOPC   H6X18240   4.408   2.578  16.375 -0.0925 -0.6681  4.2349
  152DOPC   H6Y18241   4.396   2.409  16.320 -0.4701  0.0275  0.2222
  152DOPC   C3718242   4.236   2.507  16.225 -0.2254 -0.6505 -0.0941
  152DOPC   H7X18243   4.186   2.409  16.214 -0.5157 -0.5556  0.3760
  152DOPC   H7Y18244   4.153   2.577  16.248  2.2478  2.0839  1.3122
  152DOPC   C3818245   4.299   2.550  16.093  0.5198  0.5374  0.6137
  152DOPC   H8X18246   4.225   2.542  16.010  1.3485  1.6501 -0.2555
  152DOPC   H8Y18247   4.373   2.469  16.078  0.0651  0.2556 -0.1537
  152DOPC   C3918248   4.367   2.684  16.088 -0.3222 -0.1626 -0.2377
  152DOPC   H9X18249   4.443   2.692  16.167  0.7997 -0.3163 -1.2776
  152DOPC  C31018250   4.350   2.791  16.013 -0.1843  0.3163 -0.2395
  152DOPC  H10X18251   4.421   2.874  16.020  0.8111 -0.5566  0.4211
  152DOPC  C31118252   4.247   2.811  15.903  0.1202 -0.2615 -0.4706
  152DOPC  H11X18253   4.152   2.861  15.931 -0.0267 -0.8806  0.1631
  152DOPC  H11Y18254   4.221   2.710  15.865 -2.2370 -0.2741  1.0068
  152DOPC  C31218255   4.305   2.880  15.774 -0.4561  0.4769 -0.1086
  152DOPC  H12X18256   4.379   2.813  15.726  0.9815  0.0306  2.5820
  152DOPC  H12Y18257   4.345   2.980  15.801  0.7728 -0.1308  0.3888
  152DOPC  C31318258   4.195   2.912  15.670 -0.0180 -0.5084  0.1608
  152DOPC  H13X18259   4.143   2.814  15.657  0.3482 -0.5294 -1.2879
  152DOPC  H13Y18260   4.132   2.992  15.713  0.8901  0.1050  0.3909
  152DOPC  C31418261   4.249   2.949  15.529 -0.8322  0.0759 -0.3018
  152DOPC  H14X18262   4.285   3.054  15.526  0.1876 -0.2633 -0.2846
  152DOPC  H14Y18263   4.336   2.883  15.508  1.4963  2.8116  0.0273
  152DOPC  C31518264   4.135   2.947  15.428 -0.2259 -0.0479 -0.2220
  152DOPC  H15X18265   4.042   3.002  15.453 -1.0353 -0.9260 -1.2313
  152DOPC  H15Y18266   4.111   2.838  15.429  2.1545 -0.6229  0.4578
  152DOPC  C31618267   4.174   3.000  15.288  0.0542  0.3167 -0.0475
  152DOPC  H16X18268   4.085   3.027  15.227 -0.8656  3.2958  2.3528
  152DOPC  H16Y18269   4.229   3.096  15.301 -0.6266  0.6998  0.0413
  152DOPC  C31718270   4.257   2.905  15.201  0.1748  0.0217 -0.5930
  152DOPC  H17X18271   4.362   2.917  15.233  0.2758  0.7310 -1.1647
  152DOPC  H17Y18272   4.229   2.798  15.206  1.4041 -0.4571 -2.6470
  152DOPC  C31818273   4.259   2.953  15.055  0.2495 -0.5843  0.4458
  152DOPC  H18X18274   4.158   2.980  15.018  0.6151 -0.6067 -0.5936
  152DOPC  H18Y18275   4.316   3.048  15.044 -0.1538 -0.4541 -0.6706
  152DOPC  H18Z18276   4.294   2.879  14.981 -0.2897 -2.5171  2.0413
  153DOPC     N18277   4.959   0.379  16.585  0.4479  0.2033 -0.4808
  153DOPC   C1218278   5.099   0.422  16.542  0.2072 -0.3854  0.0856
  153DOPC  H12A18279   5.089   0.515  16.488  0.4551 -1.4226 -1.8399
  153DOPC  H12B18280   5.153   0.351  16.481 -0.9480 -0.8387 -0.4335
  153DOPC   C1318281   4.960   0.267  16.684 -0.2939 -0.1776  0.0847
  153DOPC  H13A18282   4.861   0.242  16.718 -0.2278 -0.0702  0.3590
  153DOPC  H13B18283   4.986   0.174  16.636  0.4872 -0.7045  1.4623
  153DOPC  H13C18284   5.014   0.285  16.776  1.3728  0.1810 -0.9222
  153DOPC   C1418285   4.876   0.337  16.468  0.5102 -0.5756  0.3708
  153DOPC  H14A18286   4.777   0.304  16.497  0.1424 -0.6840 -0.9080
  153DOPC  H14B18287   4.858   0.426  16.408 -0.0255  0.0289  1.4025
  153DOPC  H14C18288   4.916   0.251  16.417 -1.5582 -1.2973 -0.1660
  153DOPC   C1518289   4.892   0.498  16.651 -0.6790  0.7071  0.7009
  153DOPC  H15A18290   4.965   0.536  16.721  0.7152 -2.1976  0.9521
  153DOPC  H15B18291   4.804   0.471  16.706 -0.7250  0.2822  0.4250
  153DOPC  H15C18292   4.869   0.582  16.587  0.0506  2.6262  2.8292
  153DOPC   C1118293   5.193   0.466  16.662  1.0935  0.6365  0.2804
  153DOPC  H11A18294   5.191   0.384  16.737 -2.5838 -0.4291 -0.7589
  153DOPC  H11B18295   5.295   0.468  16.617  0.8436 -1.1125 -0.4403
  153DOPC     P18296   5.195   0.721  16.646  0.2455  0.0229 -0.0740
  153DOPC   O1318297   5.343   0.740  16.667  0.1876 -0.2694 -0.6293
  153DOPC   O1418298   5.100   0.820  16.695  0.4991  0.5003 -0.7977
  153DOPC   O1218299   5.152   0.587  16.717  0.2520 -0.3825  0.2055
  153DOPC   O1118300   5.163   0.685  16.497  0.1354 -0.3228 -0.0563
  153DOPC    C118301   5.084   0.767  16.408  0.0408  0.1662  0.4578
  153DOPC    HA18302   5.128   0.869  16.408 -0.5667  0.4335  0.1310
  153DOPC    HB18303   4.977   0.754  16.436 -0.6129  0.2181 -1.8291
  153DOPC    C218304   5.093   0.721  16.254  0.6088 -0.0410  0.3595
  153DOPC    HS18305   5.076   0.611  16.259  2.1624 -0.4003 -1.1676
  153DOPC   O2118306   5.228   0.729  16.209  0.3232 -0.3788 -0.1203
  153DOPC   C2118307   5.276   0.639  16.125 -0.1035 -0.9811  0.0172
  153DOPC   O2218308   5.216   0.538  16.089  0.4056 -0.3077 -0.0509
  153DOPC   C2218309   5.415   0.688  16.079  0.1555 -0.6711 -0.5412
  153DOPC   H2R18310   5.479   0.691  16.170  1.3527 -0.1739 -1.3803
  153DOPC   H2S18311   5.413   0.795  16.049  3.1607  0.0439  1.3595
  153DOPC    C318312   4.999   0.789  16.159 -0.3268 -0.6519 -0.6268
  153DOPC    HX18313   4.998   0.897  16.183  2.6937 -0.7578  0.3872
  153DOPC    HY18314   4.895   0.761  16.189  0.5953 -0.4838  3.1768
  153DOPC   O3118315   5.022   0.762  16.019  0.1038  0.0904 -0.4300
  153DOPC   C3118316   4.957   0.663  15.963  0.4520 -0.2589  0.0054
  153DOPC   O3218317   4.869   0.590  16.012 -0.1006  0.4607 -1.2522
  153DOPC   C3218318   5.009   0.659  15.824  0.4229 -0.0412 -0.0393
  153DOPC   H2X18319   4.937   0.725  15.769 -1.0022 -0.2555  1.4846
  153DOPC   H2Y18320   5.101   0.720  15.820  0.4599 -0.1271 -0.5104
  153DOPC   C2318321   5.488   0.601  15.976 -0.2857 -0.1639 -0.5472
  153DOPC   H3R18322   5.506   0.499  16.017  0.0338  0.0307 -0.1980
  153DOPC   H3S18323   5.589   0.648  15.974 -0.2033 -0.2525  0.7764
  153DOPC   C2418324   5.436   0.618  15.832 -0.5869  0.3889 -0.4526
  153DOPC   H4R18325   5.426   0.727  15.810  3.2570  0.6108 -1.7970
  153DOPC   H4S18326   5.338   0.565  15.830 -1.0116  0.6269  4.1800
  153DOPC   C2518327   5.539   0.562  15.732  0.0544 -0.6318 -0.1162
  153DOPC   H5R18328   5.557   0.455  15.758  1.3410 -0.6397 -0.9592
  153DOPC   H5S18329   5.633   0.618  15.751  0.7632 -2.5753  2.9098
  153DOPC   C2618330   5.497   0.585  15.589  0.0779  0.4762 -0.2845
  153DOPC   H6R18331   5.472   0.691  15.572 -0.0742  0.7673  1.5552
  153DOPC   H6S18332   5.408   0.520  15.578 -0.2776  0.8046  0.5721
  153DOPC   C2718333   5.590   0.541  15.484 -0.1018 -0.0586  0.4070
  153DOPC   H7R18334   5.628   0.445  15.525 -0.3230  0.6031  2.2443
  153DOPC   H7S18335   5.680   0.605  15.469 -0.7910  0.5311 -1.5761
  153DOPC   C2818336   5.515   0.502  15.346  0.0017 -0.0313 -0.4398
  153DOPC   H8R18337   5.440   0.434  15.391  1.3005 -0.5800  0.9898
  153DOPC   H8S18338   5.581   0.438  15.284 -2.4063 -2.6389 -0.5162
  153DOPC   C2918339   5.452   0.614  15.268 -0.4488 -0.2291  0.5106
  153DOPC   H9R18340   5.362   0.657  15.314 -0.8168 -2.2162  1.7718
  153DOPC  C21018341   5.484   0.657  15.145  0.2796 -0.2864  0.0996
  153DOPC  H10R18342   5.436   0.748  15.107 -0.4290  0.0379  1.7004
  153DOPC  C21118343   5.589   0.601  15.052 -0.1170  0.6523 -0.0072
  153DOPC  H11R18344   5.672   0.551  15.107 -0.5618 -1.2670 -0.9764
  153DOPC  H11S18345   5.639   0.688  15.003 -0.4654 -0.1171 -1.8294
  153DOPC  C21218346   5.541   0.485  14.958 -0.0964  0.2095  0.2855
  153DOPC  H12R18347   5.487   0.412  15.021 -0.3634  0.4532  0.3414
  153DOPC  H12S18348   5.627   0.427  14.919  0.5369  0.4924  1.2168
  153DOPC  C21318349   5.460   0.533  14.845 -0.0615  0.2156 -0.2592
  153DOPC  H13R18350   5.512   0.605  14.779 -1.4514  0.6537 -0.8961
  153DOPC  H13S18351   5.371   0.585  14.886  0.2459  0.2451  0.3928
  153DOPC  C21418352   5.415   0.422  14.750 -0.4069  0.0695  0.2188
  153DOPC  H14R18353   5.384   0.335  14.812 -3.9053  0.9907 -0.0430
  153DOPC  H14S18354   5.501   0.386  14.689 -0.1691 -2.1072  1.7251
  153DOPC  C21518355   5.304   0.464  14.658  0.1946 -0.2913 -0.5364
  153DOPC  H15R18356   5.305   0.571  14.629  1.0341 -0.2656 -0.4375
  153DOPC  H15S18357   5.218   0.457  14.729  0.5233  0.8588 -0.0049
  153DOPC  C21618358   5.290   0.373  14.533 -1.1971 -0.2981 -0.3933
  153DOPC  H16R18359   5.263   0.268  14.557 -2.5443 -0.1467 -1.1222
  153DOPC  H16S18360   5.389   0.376  14.482 -0.9710 -1.9217 -0.0899
  153DOPC  C21718361   5.194   0.417  14.430  0.4668  0.3719  0.0973
  153DOPC  H17R18362   5.219   0.364  14.336 -0.3222  0.7126 -0.3113
  153DOPC  H17S18363   5.210   0.524  14.405 -0.1926  0.3180 -0.5899
  153DOPC  C21818364   5.050   0.405  14.474 -0.3354 -0.1139 -0.3510
  153DOPC  H18R18365   5.041   0.299  14.508 -0.0822 -0.3839 -1.1057
  153DOPC  H18S18366   4.973   0.435  14.401  0.4933 -1.1510 -1.6915
  153DOPC  H18T18367   5.018   0.472  14.557  0.5250  0.3590 -0.3873
  153DOPC   C3318368   5.014   0.517  15.754 -1.1381 -0.2895 -0.8097
  153DOPC   H3X18369   4.911   0.480  15.733 -0.9461 -0.3986 -1.5595
  153DOPC   H3Y18370   5.065   0.452  15.829  0.2378  2.0749  0.4460
  153DOPC   C3418371   5.088   0.525  15.625  0.7447  0.5462  0.1402
  153DOPC   H4X18372   5.118   0.420  15.603  1.2977  0.2465  2.0801
  153DOPC   H4Y18373   5.173   0.597  15.628  1.2743 -0.0923  0.9717
  153DOPC   C3518374   4.991   0.553  15.505  0.1973 -0.0220  0.2217
  153DOPC   H5X18375   4.966   0.660  15.492 -2.3627 -0.6696 -0.6456
  153DOPC   H5Y18376   4.897   0.496  15.523  1.1153 -1.6664  0.0659
  153DOPC   C3618377   5.052   0.522  15.370  0.2117 -0.2560  0.7857
  153DOPC   H6X18378   5.152   0.571  15.361 -0.9248  1.8782 -1.6486
  153DOPC   H6Y18379   5.065   0.413  15.357 -0.8804 -0.3375  0.3148
  153DOPC   C3718380   4.967   0.573  15.250  0.3749 -0.3378  0.3577
  153DOPC   H7X18381   4.886   0.497  15.239  0.6215 -0.7160  1.0962
  153DOPC   H7Y18382   4.928   0.674  15.276 -0.3778 -1.0563  2.2155
  153DOPC   C3818383   5.051   0.599  15.126 -0.1403 -0.1767  0.5672
  153DOPC   H8X18384   5.111   0.509  15.103  1.1448  0.5296  1.0226
  153DOPC   H8Y18385   5.127   0.676  15.153  0.4703 -1.0259  1.3166
  153DOPC   C3918386   4.960   0.629  15.011 -0.3051  0.6010 -0.0596
  153DOPC   H9X18387   4.869   0.566  15.010  0.0124  0.1407 -0.4202
  153DOPC  C31018388   4.975   0.711  14.909  0.3117  0.8753 -0.5904
  153DOPC  H10X18389   4.902   0.711  14.827  0.7650 -0.8049 -1.0325
  153DOPC  C31118390   5.107   0.791  14.901  0.3078  0.1190  0.8927
  153DOPC  H11X18391   5.187   0.739  14.958 -0.2982  0.3622  1.9961
  153DOPC  H11Y18392   5.087   0.893  14.941  1.5743  0.6540  0.2235
  153DOPC  C31218393   5.150   0.820  14.756  0.2813 -0.2884 -0.1555
  153DOPC  H12X18394   5.079   0.883  14.698 -1.3911 -1.3085  0.6991
  153DOPC  H12Y18395   5.143   0.722  14.703 -1.2059 -0.9202  1.1208
  153DOPC  C31318396   5.289   0.881  14.759 -0.3301  1.0197 -0.2311
  153DOPC  H13X18397   5.276   0.991  14.768 -0.6787  0.9386  0.3271
  153DOPC  H13Y18398   5.352   0.839  14.840 -1.1229 -0.0269 -0.1395
  153DOPC  C31418399   5.367   0.846  14.628  0.5015 -0.2829  0.6218
  153DOPC  H14X18400   5.460   0.906  14.635 -0.0192  0.3576  2.5340
  153DOPC  H14Y18401   5.403   0.740  14.630  0.8067 -0.1768  2.4584
  153DOPC  C31518402   5.291   0.869  14.489  0.6340  0.5371  0.6433
  153DOPC  H15X18403   5.244   0.969  14.492 -0.6852  0.0002 -0.5852
  153DOPC  H15Y18404   5.216   0.789  14.473  0.6502  0.6445  0.0061
  153DOPC  C31618405   5.400   0.862  14.372  0.4342 -0.1848  0.3217
  153DOPC  H16X18406   5.481   0.937  14.383  2.0696 -2.1118  2.1474
  153DOPC  H16Y18407   5.450   0.764  14.388  0.2694 -0.0577  1.6849
  153DOPC  C31718408   5.347   0.859  14.227 -0.4674 -0.4604 -0.1219
  153DOPC  H17X18409   5.253   0.918  14.216  0.0868  0.2797 -1.1025
  153DOPC  H17Y18410   5.421   0.914  14.164  0.6675  0.7237  2.1363
  153DOPC  C31818411   5.326   0.717  14.187  0.1467 -0.6253 -0.1356
  153DOPC  H18X18412   5.282   0.658  14.270 -0.1823 -0.3115 -0.0874
  153DOPC  H18Y18413   5.252   0.709  14.103 -0.9495  0.4449  0.6937
  153DOPC  H18Z18414   5.418   0.667  14.151  0.9180 -0.0017  0.9241
  154DOPC     N18415   5.387   4.553  17.346  0.0118 -0.6589  0.5959
  154DOPC   C1218416   5.278   4.544  17.247  0.7038  0.0093  0.2363
  154DOPC  H12A18417   5.204   4.612  17.288 -1.2871 -0.8916 -1.6657
  154DOPC  H12B18418   5.227   4.449  17.249 -0.4128  0.5446  3.1710
  154DOPC   C1318419   5.328   4.534  17.487 -0.0414  0.0841  0.6294
  154DOPC  H13A18420   5.404   4.557  17.560  1.1417  0.6638 -0.7421
  154DOPC  H13B18421   5.250   4.608  17.501 -0.5817 -0.3864  0.1491
  154DOPC  H13C18422   5.290   4.436  17.510  1.5067 -0.4835  0.8782
  154DOPC   C1418423   5.450   4.685  17.352  0.0434 -0.1243 -0.0777
  154DOPC  H14A18424   5.375   4.759  17.376 -0.5203 -1.1359  1.4552
  154DOPC  H14B18425   5.520   4.698  17.433 -1.0459 -0.2233  0.9116
  154DOPC  H14C18426   5.495   4.719  17.260  2.1161  0.5482  1.1154
  154DOPC   C1518427   5.492   4.450  17.317 -0.1062 -0.4812 -0.2931
  154DOPC  H15A18428   5.441   4.362  17.281 -1.5343  0.3500 -0.3550
  154DOPC  H15B18429   5.550   4.429  17.406 -0.9545 -1.2625  0.0994
  154DOPC  H15C18430   5.551   4.493  17.238  0.9531 -1.0360  0.1720
  154DOPC   C1118431   5.304   4.585  17.106  0.1531  0.5574  0.8751
  154DOPC  H11A18432   5.204   4.592  17.057 -0.5080  2.3841  2.3655
  154DOPC  H11B18433   5.324   4.694  17.103  1.1409  0.3664 -1.4487
  154DOPC     P18434   5.375   4.365  16.969  0.1144 -0.0428 -0.1965
  154DOPC   O1318435   5.361   4.268  17.078  0.4926 -0.3078  0.1047
  154DOPC   O1418436   5.479   4.341  16.871 -0.1501  0.6053 -0.6049
  154DOPC   O1218437   5.404   4.508  17.033 -0.0618 -0.3507  0.3283
  154DOPC   O1118438   5.235   4.372  16.889 -0.5288  0.2262 -0.2752
  154DOPC    C118439   5.213   4.474  16.799 -0.2864  0.2138 -0.2040
  154DOPC    HA18440   5.255   4.572  16.832  0.4696  0.0386 -0.6285
  154DOPC    HB18441   5.104   4.489  16.783 -0.7221  0.7403  2.6750
  154DOPC    C218442   5.275   4.446  16.661  0.0033 -0.1524 -0.1735
  154DOPC    HS18443   5.386   4.454  16.659  0.2253 -2.6997 -1.5305
  154DOPC   O2118444   5.200   4.517  16.559  0.1704  0.3037  0.3202
  154DOPC   C2118445   5.230   4.648  16.545 -0.7456  0.3811 -0.0304
  154DOPC   O2218446   5.318   4.705  16.603 -0.2828 -0.6754 -0.1155
  154DOPC   C2218447   5.155   4.716  16.440  0.3237  0.1605 -0.1752
  154DOPC   H2R18448   5.116   4.807  16.491  1.6875  0.2029  0.8569
  154DOPC   H2S18449   5.072   4.654  16.399  0.2382 -0.4444  0.8651
  154DOPC    C318450   5.261   4.293  16.623 -0.4443 -0.4932  0.3577
  154DOPC    HX18451   5.155   4.271  16.647 -0.5626  0.5042  0.8067
  154DOPC    HY18452   5.335   4.250  16.693 -1.3921 -3.6266 -0.3821
  154DOPC   O3118453   5.290   4.262  16.480  0.1611  0.5598 -0.3700
  154DOPC   C3118454   5.315   4.134  16.461  0.6182 -0.1412 -0.0509
  154DOPC   O3218455   5.315   4.044  16.541  0.3657  0.6542  0.2953
  154DOPC   C3218456   5.341   4.114  16.312  0.0950 -0.4864  0.6946
  154DOPC   H2X18457   5.332   4.004  16.295 -2.1827 -0.0009 -2.0815
  154DOPC   H2Y18458   5.261   4.171  16.260  1.6445  2.4777  1.3451
  154DOPC   C2318459   5.236   4.754  16.317 -0.6007 -0.0125  0.7850
  154DOPC   H3R18460   5.280   4.663  16.271  3.6091  1.5324  1.2777
  154DOPC   H3S18461   5.329   4.809  16.343 -0.5382  1.8655 -2.8862
  154DOPC   C2418462   5.164   4.824  16.206  0.1878 -0.3222  0.1785
  154DOPC   H4R18463   5.126   4.923  16.239  1.9598  0.5384 -0.2336
  154DOPC   H4S18464   5.085   4.756  16.169 -0.5442  0.7279 -0.2231
  154DOPC   C2518465   5.250   4.858  16.085 -0.0603  0.8640  0.2169
  154DOPC   H5R18466   5.286   4.768  16.031  0.2220  0.9906  0.1927
  154DOPC   H5S18467   5.338   4.912  16.126  0.6447  0.4674 -0.7254
  154DOPC   C2618468   5.178   4.950  15.984 -0.2782  0.3409 -0.1031
  154DOPC   H6R18469   5.128   5.028  16.045  2.3575  0.5595  1.9462
  154DOPC   H6S18470   5.089   4.903  15.937  0.9732  2.0043 -4.8162
  154DOPC   C2718471   5.262   5.003  15.865  0.0110  0.1835 -0.2053
  154DOPC   H7R18472   5.351   5.048  15.913 -0.9524 -0.6241  2.5375
  154DOPC   H7S18473   5.202   5.079  15.810  0.1029 -1.0559 -2.0986
  154DOPC   C2818474   5.290   4.894  15.761 -0.5225  0.1890  0.2394
  154DOPC   H8R18475   5.326   4.803  15.814 -0.1697  1.0718  1.5782
  154DOPC   H8S18476   5.371   4.930  15.694 -0.1563  2.3953  1.7455
  154DOPC   C2918477   5.163   4.865  15.682 -0.3973  0.8758  0.2783
  154DOPC   H9R18478   5.096   4.793  15.731  0.0187 -0.0749 -0.5208
  154DOPC  C21018479   5.121   4.910  15.565 -0.0909  0.0785  0.4201
  154DOPC  H10R18480   5.027   4.866  15.530 -0.3862 -0.1422  1.4690
  154DOPC  C21118481   5.183   5.006  15.465  0.8453 -0.1119  0.6045
  154DOPC  H11R18482   5.263   5.059  15.521  1.5324  0.0874 -0.5461
  154DOPC  H11S18483   5.107   5.082  15.438  2.5793  1.0561 -1.2662
  154DOPC  C21218484   5.247   4.950  15.341  0.4174  0.0453  0.2491
  154DOPC  H12R18485   5.189   4.859  15.313  0.3638  0.5342 -1.3286
  154DOPC  H12S18486   5.355   4.929  15.356  0.9040  2.6049  0.7964
  154DOPC  C21318487   5.244   5.039  15.222  0.0909  0.8291  0.1537
  154DOPC  H13R18488   5.324   5.117  15.228 -0.5815  1.5990 -0.5300
  154DOPC  H13S18489   5.149   5.096  15.221 -0.5064 -0.0137  2.6996
  154DOPC  C21418490   5.279   4.970  15.093 -0.0378  1.4918  0.2498
  154DOPC  H14R18491   5.198   4.899  15.069  0.0074  1.5465 -0.0711
  154DOPC  H14S18492   5.371   4.915  15.124  0.6837  0.8848 -2.6332
  154DOPC  C21518493   5.307   5.062  14.973 -0.0426 -0.6059  0.4360
  154DOPC  H15R18494   5.391   5.131  14.993 -0.5758  0.2700 -0.2338
  154DOPC  H15S18495   5.224   5.136  14.961  0.2537 -0.0180  1.8922
  154DOPC  C21618496   5.329   4.989  14.844 -0.2719  0.0692 -0.6399
  154DOPC  H16R18497   5.245   4.932  14.799 -1.3526  1.4782 -0.4590
  154DOPC  H16S18498   5.407   4.913  14.869 -0.7439 -0.3647 -0.4664
  154DOPC  C21718499   5.382   5.082  14.732  1.0080 -0.0334 -0.4014
  154DOPC  H17R18500   5.480   5.129  14.759 -0.4585  1.8548  2.0499
  154DOPC  H17S18501   5.305   5.160  14.714  0.7199 -0.2568 -0.1495
  154DOPC  C21818502   5.409   5.007  14.606 -0.0468  0.8200  0.5758
  154DOPC  H18R18503   5.463   4.911  14.615 -0.4849  0.6704  1.9459
  154DOPC  H18S18504   5.466   5.066  14.531 -0.7835 -2.5021 -2.8751
  154DOPC  H18T18505   5.317   4.979  14.552  0.5405  0.9665 -0.5238
  154DOPC   C3318506   5.486   4.163  16.271  0.5047  0.1856 -0.6911
  154DOPC   H3X18507   5.558   4.126  16.348 -2.4507 -2.6442  0.9652
  154DOPC   H3Y18508   5.491   4.274  16.274 -1.8023  0.3678 -1.4734
  154DOPC   C3418509   5.524   4.113  16.132 -0.1592  0.0897  0.8531
  154DOPC   H4X18510   5.500   4.004  16.126 -0.0204  0.0375  1.2404
  154DOPC   H4Y18511   5.635   4.117  16.124 -0.3163  1.3848 -2.8033
  154DOPC   C3518512   5.451   4.181  16.017 -0.1297  0.0373 -0.2536
  154DOPC   H5X18513   5.461   4.291  16.028 -1.6002  0.1408  0.2891
  154DOPC   H5Y18514   5.346   4.145  16.028 -0.1661 -0.9501 -3.1577
  154DOPC   C3618515   5.497   4.129  15.882 -0.2887 -0.0200  0.3203
  154DOPC   H6X18516   5.607   4.134  15.866 -0.0719 -0.9348  1.3665
  154DOPC   H6Y18517   5.477   4.020  15.873 -1.6355  0.3219 -1.3547
  154DOPC   C3718518   5.427   4.200  15.760  0.8730 -0.3659 -0.7057
  154DOPC   H7X18519   5.317   4.184  15.770  0.8363  0.9040  1.2235
  154DOPC   H7Y18520   5.436   4.311  15.761 -0.5196 -0.2376  0.5346
  154DOPC   C3818521   5.482   4.144  15.625 -0.1245 -0.4099 -0.5381
  154DOPC   H8X18522   5.404   4.144  15.545 -1.4737 -1.4037  0.7072
  154DOPC   H8Y18523   5.493   4.036  15.646 -1.0017 -0.6786 -1.3548
  154DOPC   C3918524   5.602   4.217  15.575  0.7608 -0.2849 -0.0049
  154DOPC   H9X18525   5.637   4.298  15.641  2.4252 -2.2713  1.6515
  154DOPC  C31018526   5.669   4.175  15.463 -0.1667  0.1873 -0.4042
  154DOPC  H10X18527   5.758   4.234  15.434 -0.6671 -0.1474 -2.7585
  154DOPC  C31118528   5.642   4.051  15.380 -0.8070 -0.1727  0.7391
  154DOPC  H11X18529   5.546   4.009  15.417 -0.8002  0.0758  1.0492
  154DOPC  H11Y18530   5.719   3.977  15.406  0.7574  1.0936 -0.0917
  154DOPC  C31218531   5.627   4.068  15.229 -0.2367  1.0578  0.5387
  154DOPC  H12X18532   5.565   4.157  15.205 -0.0163  1.3053  0.8757
  154DOPC  H12Y18533   5.575   3.985  15.177  1.2379  1.5157 -1.8114
  154DOPC  C31318534   5.761   4.097  15.159 -0.3602  0.1226 -0.2248
  154DOPC  H13X18535   5.794   4.201  15.178  2.4845 -0.2446 -2.4231
  154DOPC  H13Y18536   5.833   4.035  15.217 -1.7827  0.1462  1.6411
  154DOPC  C31418537   5.759   4.077  15.010  0.1748 -0.2856 -0.1104
  154DOPC  H14X18538   5.852   4.120  14.967  3.4037 -5.1634  1.1215
  154DOPC  H14Y18539   5.756   3.969  14.984  0.8370  0.1619 -2.2386
  154DOPC  C31518540   5.639   4.142  14.944 -0.4044 -0.4383  0.4992
  154DOPC  H15X18541   5.615   4.248  14.967 -1.2926 -0.4175 -0.4467
  154DOPC  H15Y18542   5.544   4.092  14.975 -1.5881 -0.3282 -2.6502
  154DOPC  C31618543   5.642   4.132  14.787 -0.7031 -0.6013  0.4763
  154DOPC  H16X18544   5.730   4.187  14.749 -2.0948  1.4438  0.0443
  154DOPC  H16Y18545   5.646   4.023  14.764  0.8730 -0.8445  1.7533
  154DOPC  C31718546   5.524   4.189  14.714  0.1071  0.1047 -0.9478
  154DOPC  H17X18547   5.432   4.143  14.755  0.5898  0.1281  0.2106
  154DOPC  H17Y18548   5.517   4.298  14.734  1.1085  0.1223 -0.5941
  154DOPC  C31818549   5.536   4.154  14.565  0.5570 -0.4063  0.7700
  154DOPC  H18X18550   5.470   4.215  14.500  0.3432 -1.3428  0.0813
  154DOPC  H18Y18551   5.639   4.180  14.532 -0.2540  1.7553 -0.2242
  154DOPC  H18Z18552   5.523   4.045  14.545  0.9592 -0.1586 -1.0927
  155DOPC     N18553   2.330   2.544  17.449  0.2579  0.5020  0.4172
  155DOPC   C1218554   2.227   2.615  17.372 -0.4997  0.5140 -0.7986
  155DOPC  H12A18555   2.271   2.712  17.351  1.5717 -0.6784 -2.2491
  155DOPC  H12B18556   2.143   2.630  17.438  0.0219 -0.3730  0.0917
  155DOPC   C1318557   2.269   2.413  17.510  0.0727  0.3821 -0.3300
  155DOPC  H13A18558   2.186   2.440  17.574  0.4299  2.1618 -0.5644
  155DOPC  H13B18559   2.232   2.345  17.436 -0.3897 -1.1909  1.2769
  155DOPC  H13C18560   2.344   2.369  17.574 -1.0074  1.1505  1.5451
  155DOPC   C1418561   2.395   2.623  17.557  0.8750 -0.1600 -0.2635
  155DOPC  H14A18562   2.416   2.721  17.519  0.2263  0.0818 -0.0137
  155DOPC  H14B18563   2.330   2.640  17.641  0.4198 -1.1920 -0.3790
  155DOPC  H14C18564   2.470   2.564  17.608 -0.3411 -1.1323  0.4679
  155DOPC   C1518565   2.431   2.504  17.353  0.1422 -0.5932  0.2491
  155DOPC  H15A18566   2.500   2.586  17.335 -0.2002 -0.0299  1.3742
  155DOPC  H15B18567   2.385   2.470  17.261  1.3851 -1.9571  0.1007
  155DOPC  H15C18568   2.491   2.420  17.384  0.9723  0.7508  2.5512
  155DOPC   C1118569   2.187   2.559  17.235 -0.0844  0.5292 -0.4461
  155DOPC  H11A18570   2.176   2.449  17.244  0.4775  0.5708  1.0372
  155DOPC  H11B18571   2.089   2.604  17.209  0.0337  0.2152 -1.4781
  155DOPC     P18572   2.321   2.726  17.088 -0.3098  0.7451  0.3027
  155DOPC   O1318573   2.460   2.749  17.129  0.0629 -0.1186 -0.3725
  155DOPC   O1418574   2.226   2.824  17.135  0.0054  0.1574 -0.5051
  155DOPC   O1218575   2.280   2.580  17.130 -0.3869  0.1602  0.1926
  155DOPC   O1118576   2.312   2.726  16.933  0.0120 -0.7859 -1.3011
  155DOPC    C118577   2.184   2.728  16.867  0.2674 -0.4371  0.0379
  155DOPC    HA18578   2.123   2.812  16.906  0.8078  0.8441 -1.7528
  155DOPC    HB18579   2.125   2.636  16.885  1.2844 -0.9704  0.7459
  155DOPC    C218580   2.204   2.752  16.719  0.1330  0.1486 -0.2244
  155DOPC    HS18581   2.238   2.656  16.674 -2.3905 -1.1704  0.4951
  155DOPC   O2118582   2.290   2.866  16.711  0.2815  0.7216  0.3336
  155DOPC   C2118583   2.418   2.843  16.687 -0.5599  0.3236 -0.6562
  155DOPC   O2218584   2.478   2.739  16.701  0.0480  0.1990  0.4343
  155DOPC   C2218585   2.496   2.962  16.636  0.4644  0.4420  0.0229
  155DOPC   H2R18586   2.603   2.941  16.620  0.5621  0.0356  1.1350
  155DOPC   H2S18587   2.501   3.042  16.712 -0.3998  0.5619 -0.0338
  155DOPC    C318588   2.064   2.785  16.652  0.8451  0.4117  0.4547
  155DOPC    HX18589   2.021   2.866  16.715 -2.1575 -1.8652  1.5935
  155DOPC    HY18590   2.008   2.689  16.661 -1.5709  1.7430  0.4693
  155DOPC   O3118591   2.070   2.803  16.514  0.0866 -0.4189 -0.3768
  155DOPC   C3118592   2.075   2.921  16.463  0.2261  0.3488 -0.2457
  155DOPC   O3218593   2.060   3.026  16.528 -0.6108 -0.1876  0.1814
  155DOPC   C3218594   2.126   2.912  16.315  0.1891 -0.6222  1.0814
  155DOPC   H2X18595   2.225   2.864  16.303  1.1663  2.0299 -3.8922
  155DOPC   H2Y18596   2.047   2.850  16.267  0.7937  0.6175 -1.6901
  155DOPC   C2318597   2.433   3.014  16.500 -0.3759 -0.5773 -0.2446
  155DOPC   H3R18598   2.470   3.116  16.475  1.2314 -0.8641  0.7951
  155DOPC   H3S18599   2.322   3.019  16.500 -0.3944 -0.5805 -1.7250
  155DOPC   C2418600   2.490   2.941  16.378 -0.1941  0.7770 -0.6657
  155DOPC   H4R18601   2.467   2.989  16.281 -0.8884  0.0695 -0.8723
  155DOPC   H4S18602   2.442   2.840  16.378  1.8501 -0.2926  1.2339
  155DOPC   C2518603   2.640   2.917  16.365  0.3017 -0.1949  0.5343
  155DOPC   H5R18604   2.675   2.851  16.447  0.0330  0.5503  1.2561
  155DOPC   H5S18605   2.697   3.012  16.366  0.0938  0.0686 -2.5599
  155DOPC   C2618606   2.692   2.864  16.226  0.6436  1.2389  0.2458
  155DOPC   H6R18607   2.803   2.856  16.235  0.5879  0.2136  0.2260
  155DOPC   H6S18608   2.667   2.946  16.156 -0.5738 -0.0876 -0.9363
  155DOPC   C2718609   2.613   2.736  16.176 -0.7103 -0.4022  0.0045
  155DOPC   H7R18610   2.502   2.748  16.179 -0.7710 -0.6234 -1.0697
  155DOPC   H7S18611   2.643   2.647  16.236  0.1478 -1.5404 -2.0180
  155DOPC   C2818612   2.646   2.691  16.029 -0.3673  0.8128 -0.3501
  155DOPC   H8R18613   2.627   2.787  15.978 -0.7174  1.3968  0.8453
  155DOPC   H8S18614   2.570   2.627  15.980  0.7657  0.2296 -1.4143
  155DOPC   C2918615   2.788   2.644  16.007 -0.4892 -0.0827  0.2707
  155DOPC   H9R18616   2.826   2.570  16.079 -0.6635 -0.7493 -0.3065
  155DOPC  C21018617   2.868   2.678  15.899  0.0754  0.0471  0.0171
  155DOPC  H10R18618   2.962   2.622  15.886 -0.5585 -0.6237 -2.0996
  155DOPC  C21118619   2.831   2.764  15.785 -0.2863 -0.5171 -0.4442
  155DOPC  H11R18620   2.905   2.847  15.778 -1.2824  0.3917 -0.3293
  155DOPC  H11S18621   2.733   2.814  15.798  0.9374  1.7918  0.4708
  155DOPC  C21218622   2.829   2.688  15.648  0.6019  0.1549 -0.5718
  155DOPC  H12R18623   2.777   2.591  15.648  2.4218 -0.9138  1.4334
  155DOPC  H12S18624   2.932   2.656  15.620  1.7212  1.7839  1.3183
  155DOPC  C21318625   2.765   2.775  15.537 -0.1292  0.9458  0.2621
  155DOPC  H13R18626   2.677   2.821  15.587  1.2257  3.0416  0.8687
  155DOPC  H13S18627   2.719   2.711  15.460 -1.5229  0.6684  1.2937
  155DOPC  C21418628   2.864   2.872  15.476 -0.8360 -0.6198 -0.5381
  155DOPC  H14R18629   2.899   2.937  15.558 -1.5422 -1.2382  0.2731
  155DOPC  H14S18630   2.821   2.927  15.389 -0.3192  0.7102  0.0340
  155DOPC  C21518631   2.992   2.812  15.418 -0.3711 -0.0762  0.2588
  155DOPC  H15R18632   3.051   2.774  15.503 -0.3014  1.7450  1.0571
  155DOPC  H15S18633   3.055   2.882  15.360  0.7379 -1.0877  0.2106
  155DOPC  C21618634   2.975   2.691  15.316 -0.3256 -0.2661 -0.7186
  155DOPC  H16R18635   2.931   2.607  15.375  0.0598  1.1388  1.7088
  155DOPC  H16S18636   3.072   2.657  15.273 -0.3237 -0.4451 -0.5738
  155DOPC  C21718637   2.880   2.713  15.201  0.3515 -0.1599  0.7149
  155DOPC  H17R18638   2.781   2.753  15.234 -0.0450 -1.2167  0.8550
  155DOPC  H17S18639   2.863   2.615  15.150  3.2068 -0.1729 -0.3791
  155DOPC  C21818640   2.934   2.803  15.085 -0.6808 -0.4576  0.0680
  155DOPC  H18R18641   2.939   2.904  15.130 -2.6039 -1.2792  2.3090
  155DOPC  H18S18642   2.863   2.805  14.999  1.5103  0.3844 -1.8591
  155DOPC  H18T18643   3.036   2.771  15.053 -0.7391 -1.0982  0.5145
  155DOPC   C3318644   2.123   3.055  16.254  0.0822 -0.0199  0.5633
  155DOPC   H3X18645   2.177   3.121  16.324  0.6778 -0.1435  0.2322
  155DOPC   H3Y18646   2.015   3.080  16.258  0.2865  0.8059  1.0451
  155DOPC   C3418647   2.175   3.063  16.108 -0.1695 -0.2584  0.0055
  155DOPC   H4X18648   2.285   3.055  16.121 -0.4857 -0.5877  3.2538
  155DOPC   H4Y18649   2.164   3.166  16.069  4.5244  0.8106  0.9702
  155DOPC   C3518650   2.109   2.965  16.009  0.3974 -0.4141 -0.3624
  155DOPC   H5X18651   2.003   2.997  16.004  0.1893 -0.9730  0.3489
  155DOPC   H5Y18652   2.102   2.863  16.051  0.2526  0.3088  1.4753
  155DOPC   C3618653   2.191   2.964  15.880  1.0509 -0.0073 -0.1857
  155DOPC   H6X18654   2.195   3.069  15.841 -0.3691 -0.1425 -0.7685
  155DOPC   H6Y18655   2.294   2.926  15.896  0.1951 -1.7991  1.4212
  155DOPC   C3718656   2.131   2.866  15.780  0.6393  0.7238 -0.3552
  155DOPC   H7X18657   2.142   2.763  15.822  0.2313  1.1199  0.7688
  155DOPC   H7Y18658   2.022   2.886  15.771  0.1027 -1.5053  0.3509
  155DOPC   C3818659   2.199   2.876  15.646  0.0670  0.0179  0.7375
  155DOPC   H8X18660   2.159   2.792  15.584  0.0373 -0.6212  1.6090
  155DOPC   H8Y18661   2.308   2.860  15.658 -0.3475 -3.4095  0.8303
  155DOPC   C3918662   2.161   3.004  15.579 -0.6182  0.6628 -0.0007
  155DOPC   H9X18663   2.120   3.083  15.644 -0.9093 -0.0858  0.7441
  155DOPC  C31018664   2.190   3.036  15.450  0.0532  0.4655 -0.4897
  155DOPC  H10X18665   2.146   3.127  15.406  0.6681 -0.0419 -2.2115
  155DOPC  C31118666   2.258   2.945  15.345 -0.1316 -0.1309  0.3418
  155DOPC  H11X18667   2.297   2.861  15.405  0.8851 -0.4710 -0.7690
  155DOPC  H11Y18668   2.343   2.985  15.286 -0.1019 -2.7512 -1.5153
  155DOPC  C31218669   2.162   2.887  15.249  0.5724 -0.2502 -0.3733
  155DOPC  H12X18670   2.067   2.846  15.288 -0.9561  2.6086 -0.8666
  155DOPC  H12Y18671   2.204   2.796  15.201  1.1791 -1.2632  1.8947
  155DOPC  C31318672   2.127   2.990  15.139  0.1566  0.3898 -0.1879
  155DOPC  H13X18673   2.070   3.070  15.191  0.8071  0.4041  0.5320
  155DOPC  H13Y18674   2.216   3.040  15.094 -0.5712  1.6871 -0.2267
  155DOPC  C31418675   2.044   2.926  15.028 -0.0495 -0.0460 -0.0757
  155DOPC  H14X18676   2.094   2.843  14.975 -1.2277 -1.2465  0.6288
  155DOPC  H14Y18677   1.963   2.874  15.083 -1.0801  1.6889  0.1543
  155DOPC  C31518678   1.976   3.022  14.925  0.3479  0.3325  0.7871
  155DOPC  H15X18679   2.058   3.066  14.865 -0.3546  0.0370 -0.4318
  155DOPC  H15Y18680   1.926   3.109  14.972  0.3472 -0.2010  1.8024
  155DOPC  C31618681   1.886   2.943  14.828  0.9502  0.1817 -0.0905
  155DOPC  H16X18682   1.814   2.883  14.888 -0.8819  0.6432 -1.7567
  155DOPC  H16Y18683   1.830   3.021  14.773 -0.0742 -0.9405 -0.6901
  155DOPC  C31718684   1.959   2.861  14.724  0.4127 -0.4406 -0.1320
  155DOPC  H17X18685   2.021   2.931  14.665 -1.5067  2.6767  1.2954
  155DOPC  H17Y18686   2.019   2.789  14.783 -1.8332 -2.1987  0.1859
  155DOPC  C31818687   1.869   2.784  14.630 -0.6772  0.1360 -0.0945
  155DOPC  H18X18688   1.926   2.703  14.580 -0.3227  0.1306  0.3042
  155DOPC  H18Y18689   1.787   2.737  14.688  0.8803 -1.1160  1.2205
  155DOPC  H18Z18690   1.837   2.851  14.548 -0.7054 -0.1123 -0.2892
  156DOPC     N18691   4.362   6.553  17.118  0.3550  0.0711 -0.5229
  156DOPC   C1218692   4.393   6.419  17.185  0.0476 -0.0196 -0.0405
  156DOPC  H12A18693   4.350   6.408  17.284 -3.2484 -3.1843 -1.5884
  156DOPC  H12B18694   4.496   6.401  17.212 -0.0479 -0.6208 -0.0706
  156DOPC   C1318695   4.221   6.564  17.063  0.2421 -0.2375  0.8868
  156DOPC  H13A18696   4.209   6.505  16.974  3.2008  2.0508 -1.1997
  156DOPC  H13B18697   4.149   6.529  17.136 -1.6462 -1.6199 -1.4821
  156DOPC  H13C18698   4.203   6.669  17.047  0.8535 -0.3281 -0.4690
  156DOPC   C1418699   4.464   6.595  17.010  0.2376 -0.4128 -0.0290
  156DOPC  H14A18700   4.563   6.601  17.053 -0.5889  1.7006  1.7618
  156DOPC  H14B18701   4.458   6.511  16.943 -2.4800 -1.4977  1.4106
  156DOPC  H14C18702   4.443   6.680  16.948 -2.6653 -0.4442  0.7798
  156DOPC   C1518703   4.364   6.663  17.228 -0.1311 -0.3756 -0.0816
  156DOPC  H15A18704   4.455   6.664  17.285 -0.6307  1.2948  0.7563
  156DOPC  H15B18705   4.286   6.633  17.297  1.2510  1.3987  2.3688
  156DOPC  H15C18706   4.355   6.763  17.187 -0.0475  0.2029  1.2589
  156DOPC   C1118707   4.357   6.294  17.102 -0.0939 -0.0115 -0.5941
  156DOPC  H11A18708   4.357   6.216  17.180 -2.6273  2.0952  1.7127
  156DOPC  H11B18709   4.249   6.286  17.076 -0.2713 -0.7116  0.3145
  156DOPC     P18710   4.489   6.151  16.925  0.1429  0.4075 -0.1998
  156DOPC   O1318711   4.400   6.048  16.975  0.2526 -0.1907 -0.8450
  156DOPC   O1418712   4.633   6.133  16.941  0.4254  0.0657  0.1250
  156DOPC   O1218713   4.446   6.290  16.992 -0.0329 -0.4113  0.3890
  156DOPC   O1118714   4.454   6.170  16.770  0.3118  0.2077  0.2001
  156DOPC    C118715   4.341   6.244  16.729 -0.4518  0.2464  0.5680
  156DOPC    HA18716   4.342   6.344  16.777  2.3417  0.7924 -0.4376
  156DOPC    HB18717   4.243   6.193  16.747  0.3277 -1.4081  0.3037
  156DOPC    C218718   4.341   6.281  16.580 -0.4044  0.4947 -0.3846
  156DOPC    HS18719   4.240   6.318  16.557 -0.5817  0.5406  0.4452
  156DOPC   O2118720   4.379   6.169  16.498 -0.2906 -0.3746  0.0901
  156DOPC   C2118721   4.289   6.079  16.477  0.3458  0.0483  0.0987
  156DOPC   O2218722   4.175   6.080  16.520  0.8145  0.0242  0.4244
  156DOPC   C2218723   4.346   5.964  16.393 -1.5372  0.4062 -0.3157
  156DOPC   H2R18724   4.425   5.911  16.449 -0.7518  1.0839 -0.7600
  156DOPC   H2S18725   4.401   6.009  16.308 -0.8952 -0.4350 -0.3498
  156DOPC    C318726   4.432   6.405  16.552 -0.2143  0.1877 -0.3940
  156DOPC    HX18727   4.530   6.382  16.598 -0.0711 -0.3696 -0.9835
  156DOPC    HY18728   4.384   6.483  16.616  0.9529  0.2973  0.3796
  156DOPC   O3118729   4.445   6.430  16.407 -0.3038  0.1260 -0.0909
  156DOPC   C3118730   4.425   6.555  16.370  0.9634  0.4262 -0.1311
  156DOPC   O3218731   4.414   6.649  16.446  0.0742 -0.1926  0.0909
  156DOPC   C3218732   4.411   6.557  16.222  0.1208  0.0014  0.2686
  156DOPC   H2X18733   4.493   6.497  16.178 -2.0719 -1.7822 -1.6261
  156DOPC   H2Y18734   4.319   6.503  16.191 -1.1088  1.9302  0.4331
  156DOPC   C2318735   4.238   5.859  16.348 -0.2513  0.2877  0.2749
  156DOPC   H3R18736   4.171   5.831  16.432  2.0257  1.0393  2.4786
  156DOPC   H3S18737   4.292   5.763  16.333  1.8329  0.8760  3.0678
  156DOPC   C2418738   4.152   5.901  16.230  0.1314  0.0486  0.0715
  156DOPC   H4R18739   4.102   5.989  16.276  1.8887  0.8985  0.4647
  156DOPC   H4S18740   4.077   5.824  16.202 -1.5950  1.5509  0.3437
  156DOPC   C2518741   4.218   5.938  16.101  0.9179  0.1190  0.5359
  156DOPC   H5R18742   4.300   5.867  16.075 -0.7894 -0.8027 -2.8067
  156DOPC   H5S18743   4.266   6.037  16.118 -0.6304  0.9835  0.0116
  156DOPC   C2618744   4.127   5.937  15.977 -0.1082  0.1907 -0.4363
  156DOPC   H6R18745   4.029   5.989  15.987 -0.3396 -0.6480  2.3454
  156DOPC   H6S18746   4.102   5.829  15.972 -1.7023  0.4351  1.3364
  156DOPC   C2718747   4.199   5.976  15.851 -0.0261 -0.3293  0.4487
  156DOPC   H7R18748   4.283   5.909  15.822  0.2128  0.1277  0.0914
  156DOPC   H7S18749   4.221   6.084  15.852 -3.2604  0.4699 -0.6372
  156DOPC   C2818750   4.112   5.975  15.723  0.3481  0.6596 -0.3224
  156DOPC   H8R18751   4.182   6.004  15.642  1.6588 -0.8458  0.2110
  156DOPC   H8S18752   4.030   6.048  15.735  0.8898  1.6222 -2.1753
  156DOPC   C2918753   4.049   5.842  15.698  0.0169 -0.1623 -0.3474
  156DOPC   H9R18754   3.998   5.793  15.782 -0.5940 -0.0261 -0.6332
  156DOPC  C21018755   4.064   5.770  15.587  0.0228 -0.0017 -0.1996
  156DOPC  H10R18756   4.035   5.664  15.580  1.3181 -0.3984  0.0018
  156DOPC  C21118757   4.155   5.801  15.469 -0.1544  0.6860  0.8597
  156DOPC  H11R18758   4.187   5.701  15.431  1.6740  0.0950  3.6831
  156DOPC  H11S18759   4.254   5.839  15.501  0.1008  1.3927 -0.6536
  156DOPC  C21218760   4.082   5.902  15.373 -0.3590  0.1979  1.0390
  156DOPC  H12R18761   4.096   6.003  15.416 -1.6767  0.3085  1.2522
  156DOPC  H12S18762   3.971   5.890  15.366 -0.3723  1.2268 -1.3278
  156DOPC  C21318763   4.140   5.892  15.240  0.1260 -0.5388 -0.1026
  156DOPC  H13R18764   4.096   5.811  15.178  0.9543 -0.2524 -1.1038
  156DOPC  H13S18765   4.248   5.869  15.255  0.5113  0.7619 -0.7110
  156DOPC  C21418766   4.127   6.031  15.184  0.1206 -0.1390  0.0443
  156DOPC  H14R18767   4.185   6.103  15.244  0.2558  0.2913 -0.5924
  156DOPC  H14S18768   4.020   6.059  15.201 -0.3505 -0.2889 -2.3283
  156DOPC  C21518769   4.140   6.039  15.036  0.0126 -0.1930 -0.3179
  156DOPC  H15R18770   4.108   6.139  15.000 -0.7423 -0.0785  0.6364
  156DOPC  H15S18771   4.068   5.966  14.993  1.0459 -1.6086  0.2857
  156DOPC  C21618772   4.281   6.006  14.984  0.2968 -0.2307 -0.8983
  156DOPC  H16R18773   4.325   5.932  15.054 -1.7185 -0.2063  0.4861
  156DOPC  H16S18774   4.332   6.105  14.986 -0.8620  0.3764  0.1574
  156DOPC  C21718775   4.294   5.948  14.846 -0.2826  0.0482  0.5219
  156DOPC  H17R18776   4.229   6.004  14.775  0.2337 -0.4036 -0.3302
  156DOPC  H17S18777   4.254   5.845  14.832  1.7654 -1.0081  1.9346
  156DOPC  C21818778   4.441   5.955  14.793 -0.2405 -0.0173  0.6452
  156DOPC  H18R18779   4.502   5.882  14.851 -2.2249 -1.9688  0.4515
  156DOPC  H18S18780   4.477   6.057  14.817 -1.9829  0.9111 -0.4687
  156DOPC  H18T18781   4.454   5.923  14.688  1.6442 -0.3440  0.9445
  156DOPC   C3318782   4.399   6.701  16.164  0.3647 -0.0276 -0.5510
  156DOPC   H3X18783   4.475   6.773  16.200  1.0341 -1.3985  0.9198
  156DOPC   H3Y18784   4.299   6.740  16.194  0.3355  0.7743 -1.6218
  156DOPC   C3418785   4.401   6.692  16.010 -0.1570  0.2808  0.0746
  156DOPC   H4X18786   4.318   6.624  15.983  1.3968 -2.2017  1.2388
  156DOPC   H4Y18787   4.488   6.626  15.990 -0.5790  0.7800 -4.3318
  156DOPC   C3518788   4.412   6.823  15.938 -0.5234 -0.3204 -0.1649
  156DOPC   H5X18789   4.481   6.880  16.003 -1.7745 -0.2071  1.1101
  156DOPC   H5Y18790   4.319   6.883  15.942 -0.0826  0.7524 -3.2201
  156DOPC   C3618791   4.450   6.813  15.796 -0.6409 -0.3110  0.5004
  156DOPC   H6X18792   4.472   6.908  15.742  2.0361  0.0211  1.9834
  156DOPC   H6Y18793   4.547   6.760  15.778 -0.6529  0.0405 -0.7144
  156DOPC   C3718794   4.342   6.733  15.716  0.0628  0.1157 -0.8878
  156DOPC   H7X18795   4.333   6.629  15.753 -1.4346  0.7231  0.6096
  156DOPC   H7Y18796   4.255   6.802  15.720 -0.3628 -0.3834 -1.4709
  156DOPC   C3818797   4.380   6.720  15.568  0.1056  0.4047  0.1489
  156DOPC   H8X18798   4.475   6.664  15.556 -0.5373 -0.6527 -0.0646
  156DOPC   H8Y18799   4.426   6.817  15.536 -0.3181  0.9373  1.1091
  156DOPC   C3918800   4.264   6.676  15.476 -0.5874 -0.1328 -0.1531
  156DOPC   H9X18801   4.245   6.568  15.485  0.3500 -0.4380 -1.4590
  156DOPC  C31018802   4.201   6.762  15.389  0.3143 -0.1770  0.5858
  156DOPC  H10X18803   4.112   6.732  15.331  0.1825  2.2457 -0.6138
  156DOPC  C31118804   4.242   6.906  15.368 -0.4942 -0.5334  0.2478
  156DOPC  H11X18805   4.333   6.933  15.426  1.2542 -1.8714 -1.7201
  156DOPC  H11Y18806   4.168   6.988  15.383 -0.3658  0.3042 -2.8646
  156DOPC  C31218807   4.315   6.931  15.229 -0.1269 -0.5447  0.6259
  156DOPC  H12X18808   4.410   6.873  15.223  0.2754  0.1991 -0.8188
  156DOPC  H12Y18809   4.350   7.037  15.228  2.0766 -1.2362  0.4195
  156DOPC  C31318810   4.243   6.899  15.097  0.6111 -0.1168 -0.4619
  156DOPC  H13X18811   4.212   6.793  15.093  1.5632 -0.4448  0.4759
  156DOPC  H13Y18812   4.156   6.969  15.097  0.3478 -0.4398 -0.6064
  156DOPC  C31418813   4.334   6.931  14.978  0.3753 -0.1209 -0.4490
  156DOPC  H14X18814   4.385   7.027  15.003  0.6255 -0.0480 -1.2109
  156DOPC  H14Y18815   4.417   6.857  14.975 -0.0277 -0.6083  0.1944
  156DOPC  C31518816   4.255   6.942  14.851 -0.1266 -0.5176  0.1349
  156DOPC  H15X18817   4.187   7.029  14.858  2.5672  1.9828 -2.0659
  156DOPC  H15Y18818   4.203   6.844  14.841  1.1270 -1.0984 -1.1625
  156DOPC  C31618819   4.335   6.966  14.726 -0.7748 -0.1535 -1.0059
  156DOPC  H16X18820   4.400   7.054  14.748  2.4275 -2.9946  2.2623
  156DOPC  H16Y18821   4.421   6.896  14.716  0.9261  1.7299 -0.3944
  156DOPC  C31718822   4.247   6.990  14.604  0.4536  0.0540  0.3090
  156DOPC  H17X18823   4.198   6.893  14.578  0.6054  0.1646 -0.4078
  156DOPC  H17Y18824   4.178   7.073  14.631  2.7672  2.7376 -1.4768
  156DOPC  C31818825   4.321   7.029  14.478 -0.3160  0.0585  0.2879
  156DOPC  H18X18826   4.366   7.130  14.484 -0.1537  0.1395 -1.6752
  156DOPC  H18Y18827   4.404   6.957  14.465  1.5291  1.9850  0.8271
  156DOPC  H18Z18828   4.246   7.029  14.396  0.3491  2.1750 -0.3906
  157DOPC     N18829   5.757   2.045  17.084  0.1518  0.0240  0.2490
  157DOPC   C1218830   5.809   2.074  16.940  0.1039  0.6275 -0.6228
  157DOPC  H12A18831   5.809   1.981  16.885  0.5311 -0.2805  0.8561
  157DOPC  H12B18832   5.916   2.092  16.944  0.2900 -0.5363  0.2091
  157DOPC   C1318833   5.848   1.938  17.149  0.0993 -0.0282  0.3573
  157DOPC  H13A18834   5.795   1.891  17.230 -0.5582  0.2139  0.0753
  157DOPC  H13B18835   5.861   1.869  17.067 -0.1130 -0.2896  0.5438
  157DOPC  H13C18836   5.944   1.970  17.186 -0.4857  0.0897  1.8512
  157DOPC   C1418837   5.614   2.006  17.075  0.5129  0.0718  0.0633
  157DOPC  H14A18838   5.572   1.993  17.174 -3.3646 -1.7942 -1.6140
  157DOPC  H14B18839   5.550   2.085  17.038 -1.4933 -0.4079  2.2457
  157DOPC  H14C18840   5.599   1.920  17.012 -0.6820  0.6861 -0.5185
  157DOPC   C1518841   5.757   2.170  17.166 -0.5090 -0.0996 -0.1591
  157DOPC  H15A18842   5.715   2.153  17.264 -0.7221 -0.9178 -0.3788
  157DOPC  H15B18843   5.693   2.243  17.120 -0.6675 -0.7879 -1.0694
  157DOPC  H15C18844   5.858   2.207  17.172  0.3441 -2.3335  0.4483
  157DOPC   C1118845   5.736   2.181  16.857  0.6012 -0.0027  0.2879
  157DOPC  H11A18846   5.796   2.177  16.764  0.9139 -1.0156  0.5210
  157DOPC  H11B18847   5.634   2.140  16.842  0.6433  0.2882 -0.8480
  157DOPC     P18848   5.643   2.423  16.867  0.1400  0.3620 -0.4210
  157DOPC   O1318849   5.708   2.549  16.906 -0.2559  0.0634  0.4835
  157DOPC   O1418850   5.511   2.385  16.925  0.1754  0.2711  0.3699
  157DOPC   O1218851   5.749   2.312  16.917  0.4627 -0.8309  0.2116
  157DOPC   O1118852   5.644   2.401  16.710 -0.3292  0.3436 -1.0281
  157DOPC    C118853   5.751   2.465  16.634  0.6374  0.2308 -0.2383
  157DOPC    HA18854   5.803   2.391  16.569 -1.5785 -1.7956  0.1167
  157DOPC    HB18855   5.827   2.510  16.701  1.6100 -2.5060  0.6477
  157DOPC    C218856   5.694   2.587  16.554  0.2639 -0.1329 -0.4237
  157DOPC    HS18857   5.627   2.638  16.626 -0.4438 -0.6200 -0.7262
  157DOPC   O2118858   5.618   2.531  16.443 -0.7237 -0.1322 -0.4318
  157DOPC   C2118859   5.486   2.548  16.441 -0.0015 -0.1631  0.1132
  157DOPC   O2218860   5.422   2.623  16.512 -0.0331  0.1872 -0.5723
  157DOPC   C2218861   5.434   2.443  16.339 -0.4331  0.0853  0.5521
  157DOPC   H2R18862   5.481   2.347  16.370 -0.4220 -0.3148 -0.6401
  157DOPC   H2S18863   5.473   2.470  16.239  0.2011 -0.5591  0.6163
  157DOPC    C318864   5.810   2.674  16.504  0.0577  0.6528 -0.4046
  157DOPC    HX18865   5.892   2.615  16.459  0.3556 -0.5427  1.5970
  157DOPC    HY18866   5.863   2.720  16.590 -1.5888  0.4116  0.7819
  157DOPC   O3118867   5.747   2.772  16.417 -0.0466  0.5442 -0.5326
  157DOPC   C3118868   5.678   2.867  16.476  0.0081  0.5078  0.3265
  157DOPC   O3218869   5.679   2.885  16.597 -0.6171  0.4233 -0.3676
  157DOPC   C3218870   5.587   2.943  16.382 -0.2765 -0.0871  0.7536
  157DOPC   H2X18871   5.487   2.900  16.402 -0.5575 -0.8718 -1.9534
  157DOPC   H2Y18872   5.588   3.043  16.430 -1.3143 -0.1368  0.9042
  157DOPC   C2318873   5.279   2.424  16.346 -0.3603  0.1291 -0.3394
  157DOPC   H3R18874   5.224   2.511  16.304  0.1876  1.1600  0.9747
  157DOPC   H3S18875   5.251   2.434  16.453 -0.4129 -0.5286 -0.2847
  157DOPC   C2418876   5.224   2.295  16.280 -0.3746  0.1784 -0.0547
  157DOPC   H4R18877   5.113   2.284  16.280 -0.3291 -1.2323 -2.5770
  157DOPC   H4S18878   5.265   2.216  16.345 -0.6311  1.1567  1.3522
  157DOPC   C2518879   5.278   2.257  16.143 -0.1103 -0.1398 -0.3001
  157DOPC   H5R18880   5.251   2.152  16.123  1.0842 -0.3007 -1.1494
  157DOPC   H5S18881   5.389   2.258  16.138 -0.1039  1.3611 -0.4041
  157DOPC   C2618882   5.218   2.352  16.034  0.1240 -0.5914 -0.6860
  157DOPC   H6R18883   5.249   2.456  16.055 -2.0440  0.1369 -0.8753
  157DOPC   H6S18884   5.108   2.339  16.033  0.0929 -0.3181 -1.1317
  157DOPC   C2718885   5.270   2.323  15.896  0.3739 -0.2984 -0.0445
  157DOPC   H7R18886   5.232   2.228  15.854 -0.7400  0.3589 -0.5796
  157DOPC   H7S18887   5.381   2.322  15.901  0.3829 -0.9617 -0.3778
  157DOPC   C2818888   5.232   2.440  15.802  0.1161 -0.1342 -0.1734
  157DOPC   H8R18889   5.243   2.536  15.858  0.3549  0.8204 -1.8006
  157DOPC   H8S18890   5.121   2.432  15.795  0.1136  0.9633 -2.0579
  157DOPC   C2918891   5.300   2.447  15.670  1.1976 -0.0750  0.4146
  157DOPC   H9R18892   5.407   2.470  15.680  0.9301  2.8525 -2.0366
  157DOPC  C21018893   5.249   2.411  15.552  0.4291 -0.4810 -0.2406
  157DOPC  H10R18894   5.318   2.415  15.466  0.6159 -1.9078 -0.1849
  157DOPC  C21118895   5.104   2.391  15.523 -0.6160  0.2619 -0.0450
  157DOPC  H11R18896   5.040   2.481  15.535 -1.8733 -0.1224 -2.9517
  157DOPC  H11S18897   5.068   2.311  15.592  0.9006  2.0134  3.0048
  157DOPC  C21218898   5.076   2.360  15.376  0.0110 -0.5808  0.1075
  157DOPC  H12R18899   5.127   2.268  15.339  1.6986  0.8971 -1.4558
  157DOPC  H12S18900   5.118   2.446  15.320 -2.6051 -0.0908 -1.2509
  157DOPC  C21318901   4.927   2.365  15.348 -0.3486  0.4361 -0.3354
  157DOPC  H13R18902   4.902   2.473  15.357 -0.4868  0.7399 -3.2671
  157DOPC  H13S18903   4.861   2.306  15.416 -0.4066  1.9704  0.9912
  157DOPC  C21418904   4.894   2.337  15.196 -0.5781 -0.2663 -0.1490
  157DOPC  H14R18905   4.784   2.352  15.197 -0.5401  0.3911 -1.8968
  157DOPC  H14S18906   4.918   2.233  15.167  3.3881  0.1460  1.0935
  157DOPC  C21518907   4.958   2.426  15.089  0.1419 -0.3061 -0.6165
  157DOPC  H15R18908   5.062   2.392  15.068 -0.7077 -2.8177 -1.0693
  157DOPC  H15S18909   4.960   2.531  15.125 -1.3722 -0.5850  0.3681
  157DOPC  C21618910   4.863   2.418  14.966 -0.1186 -0.0912  0.1269
  157DOPC  H16R18911   4.777   2.481  14.999  0.3717  0.2487  0.7805
  157DOPC  H16S18912   4.845   2.309  14.952 -0.9739  0.1922 -1.0585
  157DOPC  C21718913   4.910   2.483  14.832 -0.2829  0.2390 -0.4955
  157DOPC  H17R18914   5.008   2.438  14.806  1.0809  2.6567  0.1012
  157DOPC  H17S18915   4.931   2.590  14.855  0.1147  0.2052 -0.6872
  157DOPC  C21818916   4.816   2.475  14.719  0.3692  0.0269 -0.5330
  157DOPC  H18R18917   4.729   2.542  14.732  0.1753 -0.4771  1.0560
  157DOPC  H18S18918   4.783   2.373  14.688  0.8964 -0.5772  0.7894
  157DOPC  H18T18919   4.861   2.524  14.630 -1.2393  1.0020 -0.8531
  157DOPC   C3318920   5.626   2.946  16.239  0.7552  0.0515 -0.0431
  157DOPC   H3X18921   5.735   2.952  16.219  0.1836 -1.4142 -4.6142
  157DOPC   H3Y18922   5.582   3.036  16.191 -0.7974 -1.3161 -1.3062
  157DOPC   C3418923   5.571   2.824  16.161 -0.3719  0.3628 -0.5135
  157DOPC   H4X18924   5.460   2.828  16.159 -0.4131 -0.1798  0.0912
  157DOPC   H4Y18925   5.586   2.729  16.217 -1.8662  0.1542 -0.4027
  157DOPC   C3518926   5.634   2.807  16.023 -0.8411 -0.4823  0.7649
  157DOPC   H5X18927   5.743   2.787  16.032 -0.8562 -0.5957  0.6990
  157DOPC   H5Y18928   5.621   2.904  15.970 -1.7493 -0.4555  1.0169
  157DOPC   C3618929   5.559   2.704  15.937  0.5697  0.7839  0.1624
  157DOPC   H6X18930   5.544   2.606  15.988  0.5329 -0.2219 -1.7051
  157DOPC   H6Y18931   5.454   2.733  15.914 -0.1959 -2.9063 -1.6873
  157DOPC   C3718932   5.623   2.700  15.796  0.0530 -0.2014 -0.4851
  157DOPC   H7X18933   5.726   2.741  15.802 -0.1847  0.6415 -1.6964
  157DOPC   H7Y18934   5.623   2.597  15.754 -0.6985 -0.2744 -0.3238
  157DOPC   C3818935   5.547   2.789  15.690  0.2633  0.0611  0.2111
  157DOPC   H8X18936   5.627   2.815  15.617  1.0540  1.8861  1.6461
  157DOPC   H8Y18937   5.552   2.888  15.740 -0.3450 -0.1914  0.7845
  157DOPC   C3918938   5.410   2.761  15.636  1.1169 -0.0270  0.0172
  157DOPC   H9X18939   5.324   2.782  15.701 -0.9360 -1.4225 -2.1308
  157DOPC  C31018940   5.386   2.705  15.516  0.5528 -1.1456 -0.2872
  157DOPC  H10X18941   5.282   2.697  15.483  0.4482  0.3801 -0.4132
  157DOPC  C31118942   5.487   2.668  15.417 -0.1498 -0.3006 -0.0925
  157DOPC  H11X18943   5.509   2.559  15.421  0.0340 -0.2708 -0.2261
  157DOPC  H11Y18944   5.586   2.716  15.433 -0.3326 -0.2530  0.9520
  157DOPC  C31218945   5.450   2.691  15.269 -0.2839 -0.0426  0.3170
  157DOPC  H12X18946   5.541   2.661  15.213 -0.0459 -0.7025  1.0323
  157DOPC  H12Y18947   5.435   2.801  15.263  1.2247  0.1639 -0.1322
  157DOPC  C31318948   5.325   2.616  15.220  0.4556 -0.2448 -0.3642
  157DOPC  H13X18949   5.338   2.508  15.241  1.0058 -0.2587 -0.7474
  157DOPC  H13Y18950   5.245   2.659  15.284  0.2364  1.2890 -1.5898
  157DOPC  C31418951   5.276   2.664  15.089 -0.2699  0.4094  0.4651
  157DOPC  H14X18952   5.167   2.645  15.082 -0.1194 -0.0914 -1.0292
  157DOPC  H14Y18953   5.273   2.774  15.096 -1.3032  0.3308  1.4582
  157DOPC  C31518954   5.349   2.614  14.959 -0.6975 -0.3115  0.2107
  157DOPC  H15X18955   5.338   2.504  14.953 -0.3355 -0.4145  1.3266
  157DOPC  H15Y18956   5.458   2.630  14.974 -0.9202  0.0901  1.5210
  157DOPC  C31618957   5.300   2.679  14.828 -0.0968 -0.1218 -0.1724
  157DOPC  H16X18958   5.190   2.673  14.818 -0.0342  0.6797 -1.5395
  157DOPC  H16Y18959   5.318   2.788  14.836 -2.3995  0.1860  2.5934
  157DOPC  C31718960   5.374   2.656  14.697  0.0198  0.0263  0.2995
  157DOPC  H17X18961   5.484   2.668  14.709 -0.1957  1.6744  0.8489
  157DOPC  H17Y18962   5.364   2.547  14.676  0.6258 -0.4741  2.3667
  157DOPC  C31818963   5.322   2.745  14.584 -0.6227 -0.1592 -0.2572
  157DOPC  H18X18964   5.211   2.759  14.584 -0.5795  0.2094  0.1730
  157DOPC  H18Y18965   5.369   2.845  14.596 -1.5247  0.3984 -1.1547
  157DOPC  H18Z18966   5.350   2.706  14.484  1.3697 -1.0032  0.5978
  158DOPC     N18967   4.288   0.592  17.346 -0.2435 -0.2107 -0.0787
  158DOPC   C1218968   4.144   0.629  17.384  0.0707 -0.5461  0.1998
  158DOPC  H12A18969   4.137   0.736  17.385 -0.8805 -0.5861 -0.5212
  158DOPC  H12B18970   4.132   0.597  17.487 -1.4567 -1.0608 -0.1097
  158DOPC   C1318971   4.304   0.446  17.372  0.3723  0.5959 -0.2530
  158DOPC  H13A18972   4.406   0.420  17.346  0.9862  1.3268  1.2350
  158DOPC  H13B18973   4.297   0.427  17.479  2.1687  0.5300 -0.1154
  158DOPC  H13C18974   4.233   0.388  17.315 -0.7109  0.2455  1.3847
  158DOPC   C1418975   4.386   0.658  17.439  0.0373 -0.8554 -0.4828
  158DOPC  H14A18976   4.377   0.764  17.454  0.4536 -1.1969  3.2583
  158DOPC  H14B18977   4.382   0.617  17.539  1.3475 -1.5525 -0.7042
  158DOPC  H14C18978   4.487   0.634  17.410  0.6985  1.2703 -0.1017
  158DOPC   C1518979   4.321   0.626  17.205  0.3476 -0.1114  0.0314
  158DOPC  H15A18980   4.419   0.595  17.174  0.4803 -0.0258  0.3620
  158DOPC  H15B18981   4.305   0.732  17.190 -0.5467 -0.3593 -0.9015
  158DOPC  H15C18982   4.246   0.583  17.141 -0.3707  2.7860 -1.2417
  158DOPC   C1118983   4.030   0.577  17.306  0.0058  0.1200  0.0233
  158DOPC  H11A18984   4.025   0.466  17.307  0.1256  0.1114 -0.3901
  158DOPC  H11B18985   3.929   0.602  17.345  0.7053  0.3497  1.7722
  158DOPC     P18986   3.994   0.756  17.127  0.2054  0.4112 -0.0703
  158DOPC   O1318987   4.116   0.836  17.121  0.1280  0.2519 -0.3225
  158DOPC   O1418988   3.883   0.801  17.212 -0.5767  0.0063 -0.2626
  158DOPC   O1218989   4.034   0.611  17.170  0.0453 -0.1829  0.6888
  158DOPC   O1118990   3.943   0.744  16.976 -0.3056  0.1340  0.5917
  158DOPC    C118991   4.032   0.675  16.884 -0.0138  0.2173  0.0557
  158DOPC    HA18992   4.033   0.567  16.909 -1.6979 -0.4385 -2.2985
  158DOPC    HB18993   4.135   0.717  16.887  0.8015 -1.6774  0.2785
  158DOPC    C218994   3.985   0.705  16.733  0.3248 -0.6467 -0.4582
  158DOPC    HS18995   3.986   0.816  16.727 -0.6491 -0.5434  0.8700
  158DOPC   O2118996   3.853   0.639  16.728 -1.2903 -0.7753 -0.3867
  158DOPC   C2118997   3.769   0.711  16.658  0.2954 -0.2958  0.2727
  158DOPC   O2218998   3.780   0.830  16.635  0.5375  0.1782 -0.5111
  158DOPC   C2218999   3.655   0.618  16.606  0.7485 -0.1974  0.4987
  158DOPC   H2R19000   3.577   0.601  16.684 -1.6531 -0.0102 -1.7010
  158DOPC   H2S19001   3.694   0.519  16.572 -1.6012 -0.3048 -2.3443
  158DOPC    C319002   4.086   0.643  16.636 -0.1105 -0.2302 -0.7234
  158DOPC    HX19003   4.073   0.537  16.668  0.7367  0.1581  1.0460
  158DOPC    HY19004   4.192   0.671  16.652  0.1907  0.2096 -3.1633
  158DOPC   O3119005   4.057   0.663  16.494  0.8837  0.0971  0.2664
  158DOPC   C3119006   4.094   0.780  16.445 -0.4159 -1.2052 -0.1248
  158DOPC   O3219007   4.152   0.865  16.516 -0.0833 -0.4522  0.2686
  158DOPC   C3219008   4.075   0.775  16.300  0.6158 -0.1640 -0.2961
  158DOPC   H2X19009   4.099   0.676  16.256 -0.5973 -1.0932  1.0323
  158DOPC   H2Y19010   3.970   0.799  16.274  1.1384  1.4340 -1.0459
  158DOPC   C2319011   3.573   0.682  16.490 -0.2485 -0.2167 -0.6197
  158DOPC   H3R19012   3.552   0.789  16.513  2.7759  0.7024 -1.5684
  158DOPC   H3S19013   3.470   0.641  16.489 -0.8238  1.0556 -3.4374
  158DOPC   C2419014   3.641   0.666  16.356  0.4086  0.1174 -0.1002
  158DOPC   H4R19015   3.686   0.565  16.363  1.9217  0.8437  1.1113
  158DOPC   H4S19016   3.721   0.739  16.335 -0.1891  0.4764 -1.2144
  158DOPC   C2519017   3.540   0.666  16.245  0.2547 -0.2126 -0.2058
  158DOPC   H5R19018   3.464   0.747  16.248  1.2939  0.7803  0.2907
  158DOPC   H5S19019   3.475   0.577  16.252  0.9747 -0.8810 -1.5047
  158DOPC   C2619020   3.606   0.691  16.113 -0.0810  0.0047  1.0368
  158DOPC   H6R19021   3.678   0.611  16.084  0.9893  1.1563  0.4428
  158DOPC   H6S19022   3.663   0.786  16.105  2.4449 -1.4204  1.1557
  158DOPC   C2719023   3.506   0.697  15.999 -0.3672  0.2919  0.1618
  158DOPC   H7R19024   3.440   0.781  16.028 -1.5614 -0.2276 -0.9447
  158DOPC   H7S19025   3.455   0.599  16.015  1.0190 -0.6462 -0.9132
  158DOPC   C2819026   3.562   0.696  15.857 -0.2286  0.1204  0.3281
  158DOPC   H8R19027   3.618   0.605  15.825 -1.3167  0.3312 -2.4514
  158DOPC   H8S19028   3.647   0.767  15.848  0.3934 -0.4446  1.4451
  158DOPC   C2919029   3.442   0.712  15.764  0.1302 -0.0345  0.5449
  158DOPC   H9R19030   3.343   0.714  15.812  0.1638 -2.6445  0.8644
  158DOPC  C21019031   3.438   0.723  15.632 -0.1528 -0.0623 -0.0767
  158DOPC  H10R19032   3.347   0.754  15.577  0.7658  1.1047 -0.9994
  158DOPC  C21119033   3.561   0.732  15.544 -0.5023  0.9558  0.6835
  158DOPC  H11R19034   3.647   0.686  15.597 -0.6793 -0.6730 -0.3860
  158DOPC  H11S19035   3.574   0.840  15.521 -0.9611  0.4113 -2.7073
  158DOPC  C21219036   3.536   0.659  15.406  0.0230  0.2513  0.0338
  158DOPC  H12R19037   3.513   0.551  15.423  1.8680 -0.7210 -2.9485
  158DOPC  H12S19038   3.624   0.649  15.339 -0.8257  0.8082 -1.2029
  158DOPC  C21319039   3.424   0.729  15.315  0.3670  0.0890 -0.0676
  158DOPC  H13R19040   3.456   0.833  15.294 -0.7699  0.4530 -0.0736
  158DOPC  H13S19041   3.334   0.723  15.379  1.1060 -2.1184  0.8526
  158DOPC  C21419042   3.392   0.657  15.185 -0.1928 -0.2529  0.6190
  158DOPC  H14R19043   3.298   0.705  15.150 -0.6433 -0.4498  1.5342
  158DOPC  H14S19044   3.369   0.552  15.212 -2.0060 -0.0671 -0.0744
  158DOPC  C21519045   3.510   0.645  15.076 -0.5174 -0.3465 -0.0018
  158DOPC  H15R19046   3.609   0.619  15.120 -1.3032  0.1729  2.2286
  158DOPC  H15S19047   3.527   0.746  15.031  0.5821 -1.1366 -1.4502
  158DOPC  C21619048   3.474   0.559  14.960  0.2617 -0.4090  0.1584
  158DOPC  H16R19049   3.390   0.603  14.902  0.0834  1.0570  1.4611
  158DOPC  H16S19050   3.439   0.468  15.011 -0.8818  1.9212  3.9460
  158DOPC  C21719051   3.594   0.537  14.860  0.0742 -0.1105  0.3572
  158DOPC  H17R19052   3.575   0.446  14.798  0.4975 -0.6816  1.0604
  158DOPC  H17S19053   3.676   0.509  14.929  0.8475 -1.7543 -1.1524
  158DOPC  C21819054   3.622   0.665  14.770  0.3904  0.6032  0.0143
  158DOPC  H18R19055   3.659   0.748  14.835 -1.8782  1.3963  0.3901
  158DOPC  H18S19056   3.531   0.707  14.723  0.2895  1.5760  1.0076
  158DOPC  H18T19057   3.688   0.630  14.689 -1.7242  0.0673 -1.5606
  158DOPC   C3319058   4.166   0.880  16.233  0.0105 -0.2868  0.6719
  158DOPC   H3X19059   4.270   0.862  16.267  0.9952  0.1677 -1.8469
  158DOPC   H3Y19060   4.148   0.988  16.249 -1.7686 -0.0544 -2.1859
  158DOPC   C3419061   4.175   0.856  16.081  0.6240  1.0724  0.5064
  158DOPC   H4X19062   4.078   0.887  16.036 -0.5826 -3.7553 -0.8625
  158DOPC   H4Y19063   4.181   0.747  16.060  0.1381  1.3003 -0.9243
  158DOPC   C3519064   4.279   0.934  16.002  0.0392  0.0534 -0.0851
  158DOPC   H5X19065   4.382   0.892  16.000  0.8500  1.9671 -1.4679
  158DOPC   H5Y19066   4.271   1.037  16.043 -1.3799  0.1954 -0.6357
  158DOPC   C3619067   4.235   0.948  15.850 -0.0389 -0.3433 -0.1071
  158DOPC   H6X19068   4.166   0.871  15.810 -2.0980  1.2691  0.1492
  158DOPC   H6Y19069   4.181   1.045  15.838  0.2670 -0.3162 -1.3412
  158DOPC   C3719070   4.357   0.949  15.749  0.4302  0.6977 -0.6162
  158DOPC   H7X19071   4.424   1.029  15.786 -0.4485  1.2952 -0.2941
  158DOPC   H7Y19072   4.409   0.851  15.762 -1.1666  0.0046  0.8156
  158DOPC   C3819073   4.299   0.964  15.611 -0.4375 -0.0090 -0.4320
  158DOPC   H8X19074   4.211   1.031  15.614 -0.2194  0.2769 -0.2967
  158DOPC   H8Y19075   4.276   0.862  15.575 -0.3024  0.5498 -2.1919
  158DOPC   C3919076   4.394   1.041  15.524 -0.0806  0.6241 -0.4705
  158DOPC   H9X19077   4.471   1.102  15.573  1.3584 -0.3974 -1.3527
  158DOPC  C31019078   4.367   1.055  15.393  0.4749  0.1303  0.0553
  158DOPC  H10X19079   4.427   1.119  15.326  0.2793 -1.0732 -1.3180
  158DOPC  C31119080   4.241   0.991  15.328  0.6287  0.1213  0.3019
  158DOPC  H11X19081   4.143   1.010  15.375 -0.0995  1.1905 -1.5275
  158DOPC  H11Y19082   4.262   0.882  15.317  1.5769  0.0967  2.0077
  158DOPC  C31219083   4.225   1.052  15.187  0.4476  0.1394 -0.4038
  158DOPC  H12X19084   4.226   1.162  15.202  0.3788  0.1509 -0.4830
  158DOPC  H12Y19085   4.134   1.028  15.129  0.6363  1.5918 -1.3481
  158DOPC  C31319086   4.337   1.023  15.081 -0.9865  0.1428 -0.5410
  158DOPC  H13X19087   4.438   1.031  15.129  0.0014 -1.2351 -2.2574
  158DOPC  H13Y19088   4.322   0.919  15.046  0.5581 -0.3983  0.2884
  158DOPC  C31419089   4.330   1.107  14.946  0.7176  0.6691 -0.9196
  158DOPC  H14X19090   4.224   1.136  14.931  0.5653 -0.1470 -1.5046
  158DOPC  H14Y19091   4.397   1.194  14.958 -0.4039  1.3838  0.4934
  158DOPC  C31519092   4.376   1.029  14.822 -0.2230 -0.2113 -0.3826
  158DOPC  H15X19093   4.313   0.938  14.817 -1.3738  0.5536 -0.2836
  158DOPC  H15Y19094   4.481   0.996  14.834 -1.0121 -2.9517 -0.4367
  158DOPC  C31619095   4.356   1.120  14.697 -0.0629  0.0897  0.2382
  158DOPC  H16X19096   4.248   1.147  14.692 -0.1220 -0.0455  0.7940
  158DOPC  H16Y19097   4.405   1.219  14.708  0.6206 -0.1541 -0.4892
  158DOPC  C31719098   4.396   1.042  14.570  0.3389 -0.5033  1.1486
  158DOPC  H17X19099   4.498   1.002  14.586 -0.0220 -1.9426  0.0293
  158DOPC  H17Y19100   4.339   0.947  14.572  0.6057 -0.8076 -1.6923
  158DOPC  C31819101   4.367   1.105  14.429  0.1393 -0.9086 -1.0525
  158DOPC  H18X19102   4.425   1.197  14.404 -1.1221 -0.4084 -2.2543
  158DOPC  H18Y19103   4.379   1.023  14.356 -1.3539 -1.9727 -0.1476
  158DOPC  H18Z19104   4.265   1.147  14.424  0.4012 -0.1713 -0.4535
  159DOPC     N19105   5.776   4.610  16.974  0.2611 -0.3455  0.6977
  159DOPC   C1219106   5.738   4.467  16.973  0.1602  0.0517  0.2970
  159DOPC  H12A19107   5.786   4.429  16.884 -2.3598  1.0534 -1.6178
  159DOPC  H12B19108   5.633   4.444  16.962  0.8695 -2.2521 -4.3616
  159DOPC   C1319109   5.729   4.683  16.846 -0.5134 -0.4779 -0.1756
  159DOPC  H13A19110   5.762   4.786  16.846 -0.3888 -0.5151  0.1227
  159DOPC  H13B19111   5.773   4.641  16.757 -2.6062  0.9643 -1.9908
  159DOPC  H13C19112   5.622   4.673  16.847 -0.8976  2.7100  0.4781
  159DOPC   C1419113   5.921   4.635  16.985  0.2778 -0.5422  0.0171
  159DOPC  H14A19114   5.956   4.598  16.890 -2.1257 -0.8818 -0.7942
  159DOPC  H14B19115   5.955   4.737  16.992 -0.5124 -0.1411 -1.4955
  159DOPC  H14C19116   5.966   4.585  17.070  0.6865  0.4962  0.4269
  159DOPC   C1519117   5.706   4.672  17.091  0.6802  0.1865  0.4753
  159DOPC  H15A19118   5.598   4.666  17.098  0.7827 -0.7838  1.5286
  159DOPC  H15B19119   5.713   4.779  17.076  1.2481 -0.0568 -1.2532
  159DOPC  H15C19120   5.754   4.642  17.183  0.0253  1.6284  1.3313
  159DOPC   C1119121   5.799   4.378  17.075 -0.0722  0.5695  0.0581
  159DOPC  H11A19122   5.788   4.416  17.179 -0.4732  0.0043  0.2218
  159DOPC  H11B19123   5.737   4.286  17.075  0.8349 -0.0931  1.9030
  159DOPC     P19124   5.981   4.231  16.971 -0.3480 -0.0579  0.2395
  159DOPC   O1319125   5.885   4.232  16.859  0.1477  0.1070  0.2689
  159DOPC   O1419126   5.978   4.120  17.064 -0.1053 -0.1385 -0.1063
  159DOPC   O1219127   5.942   4.361  17.049  0.1511  0.1693  0.0471
  159DOPC   O1119128   6.129   4.255  16.927 -0.5598 -0.2534  0.0238
  159DOPC    C119129   6.182   4.376  16.877 -0.2734 -0.4294  0.0080
  159DOPC    HA19130   6.276   4.409  16.926  0.4230  0.6448 -1.9632
  159DOPC    HB19131   6.120   4.468  16.886 -0.5683 -0.7129  1.0472
  159DOPC    C219132   6.221   4.370  16.724 -0.8831  0.1174 -0.5111
  159DOPC    HS19133   6.249   4.473  16.692 -0.7058 -0.9059 -4.0251
  159DOPC   O2119134   6.122   4.313  16.643 -0.0649 -0.4772 -0.2463
  159DOPC   C2119135   6.014   4.392  16.632 -0.7419  0.5726 -0.3743
  159DOPC   O2219136   6.000   4.498  16.693  0.0898  0.2830 -0.1041
  159DOPC   C2219137   5.909   4.336  16.532 -0.1286 -0.2194 -0.4517
  159DOPC   H2R19138   5.923   4.397  16.440  1.7892  2.0200  1.2141
  159DOPC   H2S19139   5.809   4.362  16.573  0.0552 -0.1176 -0.0630
  159DOPC    C319140   6.344   4.280  16.712 -0.4659 -0.3135 -0.1026
  159DOPC    HX19141   6.296   4.181  16.728  0.0459 -0.5802 -0.1851
  159DOPC    HY19142   6.396   4.293  16.809  0.3244 -0.7944 -0.4505
  159DOPC   O3119143   6.420   4.298  16.592  0.4554 -0.1822 -0.4915
  159DOPC   C3119144   6.451   4.188  16.529 -0.0026 -0.9903  0.3290
  159DOPC   O3219145   6.429   4.075  16.569  0.0426 -0.1353 -0.0984
  159DOPC   C3219146   6.534   4.227  16.404 -0.6247 -0.4550 -0.4085
  159DOPC   H2X19147   6.552   4.336  16.404  0.4824 -0.6265  0.2209
  159DOPC   H2Y19148   6.626   4.167  16.419 -0.9313 -1.1926 -1.3641
  159DOPC   C2319149   5.912   4.180  16.517 -0.3125 -0.1624 -0.0311
  159DOPC   H3R19150   5.817   4.138  16.478 -0.2827  1.1325 -1.5821
  159DOPC   H3S19151   5.930   4.130  16.615 -1.1759  0.3174  0.3870
  159DOPC   C2419152   6.015   4.132  16.410  0.4335 -0.0091 -0.9353
  159DOPC   H4R19153   6.017   4.021  16.418  0.7936  0.0931  0.6900
  159DOPC   H4S19154   6.117   4.170  16.432  1.7801 -2.7091 -2.0821
  159DOPC   C2519155   5.971   4.175  16.269  0.2020 -0.3905  0.1497
  159DOPC   H5R19156   5.976   4.286  16.274  0.5806 -0.1769 -2.8700
  159DOPC   H5S19157   5.863   4.152  16.255 -1.2048  4.2813  1.3332
  159DOPC   C2619158   6.059   4.132  16.157  0.3298  0.0484  0.2070
  159DOPC   H6R19159   6.040   4.022  16.166 -1.9671  0.4820  1.3343
  159DOPC   H6S19160   6.162   4.163  16.187  1.0525 -1.1340 -0.9437
  159DOPC   C2719161   6.033   4.179  16.012 -0.1826  0.3411  0.2801
  159DOPC   H7R19162   6.115   4.139  15.948 -1.6005  2.0130 -2.8414
  159DOPC   H7S19163   6.038   4.290  16.021  1.0547  0.1493  2.9808
  159DOPC   C2819164   5.909   4.130  15.943  0.2404 -0.3271 -0.2401
  159DOPC   H8R19165   5.820   4.174  15.993 -1.5064 -0.9035 -2.6571
  159DOPC   H8S19166   5.896   4.022  15.965 -2.8884  0.0735  0.4003
  159DOPC   C2919167   5.907   4.162  15.797 -0.1553  0.5785  0.2418
  159DOPC   H9R19168   5.898   4.269  15.775  2.4636  0.7601 -0.2871
  159DOPC  C21019169   5.908   4.080  15.692 -0.3393 -0.1515 -0.0778
  159DOPC  H10R19170   5.899   4.122  15.590 -0.4812  3.4720  1.3018
  159DOPC  C21119171   5.914   3.931  15.698 -0.2977 -0.2872  0.0826
  159DOPC  H11R19172   5.810   3.892  15.687 -1.0216  1.7526 -0.7262
  159DOPC  H11S19173   5.949   3.891  15.796 -1.1126  0.4295  0.6829
  159DOPC  C21219174   5.990   3.870  15.579 -1.0014  0.5185  0.3357
  159DOPC  H12R19175   6.091   3.915  15.576 -0.3200 -0.6624  2.7509
  159DOPC  H12S19176   5.934   3.895  15.486 -1.0154 -0.1245  0.1642
  159DOPC  C21319177   5.993   3.718  15.583  0.2309  0.4639 -0.0967
  159DOPC  H13R19178   5.891   3.679  15.603  1.3062 -2.2024  0.6128
  159DOPC  H13S19179   6.058   3.686  15.667  0.1425 -2.9172 -1.1711
  159DOPC  C21419180   6.041   3.649  15.459 -0.2778  0.4898  0.6619
  159DOPC  H14R19181   6.031   3.540  15.475  2.8141  0.0944  0.4941
  159DOPC  H14S19182   6.148   3.675  15.444  0.0174 -1.3446 -0.6463
  159DOPC  C21519183   5.951   3.684  15.328  0.2010 -0.0408  0.4914
  159DOPC  H15R19184   5.945   3.795  15.320 -1.4726 -0.2287 -2.3178
  159DOPC  H15S19185   5.851   3.638  15.347 -0.2079  0.1998 -0.9818
  159DOPC  C21619186   6.014   3.625  15.200  0.2712  0.2512 -0.0457
  159DOPC  H16R19187   5.991   3.517  15.191  1.3085  0.0536 -0.3961
  159DOPC  H16S19188   6.125   3.628  15.202  0.2683  0.2720  1.5694
  159DOPC  C21719189   5.983   3.718  15.078  0.3616  0.3431  0.4406
  159DOPC  H17R19190   6.060   3.698  15.001 -0.4256  1.9371 -0.8097
  159DOPC  H17S19191   6.003   3.824  15.103  0.2447 -0.0250  2.2684
  159DOPC  C21819192   5.850   3.692  15.005 -0.3490  1.0841  0.2257
  159DOPC  H18R19193   5.854   3.589  14.963  2.0051  1.5676 -0.9056
  159DOPC  H18S19194   5.841   3.765  14.921  2.5242 -1.7761 -2.9010
  159DOPC  H18T19195   5.766   3.697  15.077 -0.2963 -0.7251  0.4589
  159DOPC   C3319196   6.465   4.189  16.275  0.3822 -0.1530 -0.1319
  159DOPC   H3X19197   6.359   4.218  16.289 -0.5493 -1.6878 -3.0791
  159DOPC   H3Y19198   6.485   4.085  16.240  0.0712  0.1421 -1.2098
  159DOPC   C3419199   6.518   4.289  16.167  0.0730  0.4341  0.5656
  159DOPC   H4X19200   6.626   4.265  16.165 -0.3159 -1.8413  2.6268
  159DOPC   H4Y19201   6.523   4.395  16.199 -1.7264  1.0436 -0.9718
  159DOPC   C3519202   6.444   4.286  16.032  0.5686 -0.2923 -0.2359
  159DOPC   H5X19203   6.445   4.395  16.014 -2.5285  0.1552  1.6553
  159DOPC   H5Y19204   6.339   4.254  16.048  1.1579 -0.8126  3.2305
  159DOPC   C3619205   6.517   4.196  15.928  0.2134  0.3890  0.2477
  159DOPC   H6X19206   6.621   4.233  15.919  0.5707 -0.2920  1.3525
  159DOPC   H6Y19207   6.516   4.092  15.969  1.0942 -0.3062 -1.3945
  159DOPC   C3719208   6.448   4.180  15.800  0.4445 -0.5605 -0.7640
  159DOPC   H7X19209   6.494   4.099  15.740  0.8213 -1.2329  0.4041
  159DOPC   H7Y19210   6.347   4.144  15.830 -1.2176  5.8529  3.2623
  159DOPC   C3819211   6.435   4.301  15.707  1.0101 -0.6512 -0.3596
  159DOPC   H8X19212   6.369   4.376  15.757 -2.0216 -1.8613 -2.2539
  159DOPC   H8Y19213   6.389   4.259  15.615  1.6617 -1.4427 -0.3280
  159DOPC   C3919214   6.566   4.363  15.680  0.1315 -0.4482 -0.0755
  159DOPC   H9X19215   6.617   4.405  15.768  0.7713 -0.6861 -0.3263
  159DOPC  C31019216   6.637   4.358  15.566 -0.2286  0.1748 -0.3429
  159DOPC  H10X19217   6.722   4.428  15.552 -1.2186  1.4765 -0.0490
  159DOPC  C31119218   6.593   4.311  15.432  0.1006 -0.3809 -0.6071
  159DOPC  H11X19219   6.482   4.306  15.428  0.0224  0.7559 -0.1090
  159DOPC  H11Y19220   6.642   4.211  15.428  1.0450  0.0903 -1.0073
  159DOPC  C31219221   6.635   4.398  15.315  0.3353  0.1296  0.3030
  159DOPC  H12X19222   6.734   4.377  15.269 -0.8750 -2.0018 -1.5211
  159DOPC  H12Y19223   6.655   4.500  15.356 -1.3148  0.5627  0.1149
  159DOPC  C31319224   6.526   4.414  15.216  0.0082 -0.2672  1.0728
  159DOPC  H13X19225   6.434   4.459  15.259  0.3256  1.4099  0.0946
  159DOPC  H13Y19226   6.560   4.492  15.144  3.7799 -0.6290  2.2323
  159DOPC  C31419227   6.493   4.287  15.129 -0.8132 -0.8596  0.3429
  159DOPC  H14X19228   6.587   4.242  15.092 -0.4449 -1.0484  1.4717
  159DOPC  H14Y19229   6.439   4.225  15.205 -1.2684  0.2685  0.9634
  159DOPC  C31519230   6.397   4.302  15.008  0.2407 -0.3398  0.5785
  159DOPC  H15X19231   6.338   4.208  15.007 -0.2411 -0.0602 -1.4015
  159DOPC  H15Y19232   6.448   4.303  14.909 -0.0514 -2.8419  0.3434
  159DOPC  C31619233   6.310   4.422  15.019  0.4812 -0.2690  0.1908
  159DOPC  H16X19234   6.258   4.409  15.117  3.1657 -0.4458  1.6972
  159DOPC  H16Y19235   6.364   4.518  15.030 -1.8029  1.2614 -1.0426
  159DOPC  C31719236   6.204   4.444  14.913  0.2613 -0.6088 -0.2570
  159DOPC  H17X19237   6.263   4.474  14.824  1.4235  0.2138  0.7706
  159DOPC  H17Y19238   6.144   4.355  14.884 -2.5015  1.7573 -2.4763
  159DOPC  C31819239   6.103   4.558  14.963 -0.5245  0.4500  0.0800
  159DOPC  H18X19240   6.060   4.508  15.053  0.6349  1.7645  1.4025
  159DOPC  H18Y19241   6.166   4.646  14.988  1.5922 -0.7104 -0.8550
  159DOPC  H18Z19242   6.033   4.582  14.880 -1.1774  1.3147  0.8651
  160DOPC     N19243   6.284   0.351  16.699 -0.2761 -0.5906  0.0205
  160DOPC   C1219244   6.199   0.281  16.591  0.3215  0.5386 -0.7791
  160DOPC  H12A19245   6.165   0.356  16.521  0.8506 -0.6266 -2.3430
  160DOPC  H12B19246   6.113   0.238  16.642  0.1148 -2.0163 -3.0647
  160DOPC   C1319247   6.390   0.423  16.623  0.1430 -0.2997 -0.0357
  160DOPC  H13A19248   6.351   0.500  16.557  2.2329  0.9597  0.1323
  160DOPC  H13B19249   6.459   0.474  16.688 -0.3815  1.2441 -0.6376
  160DOPC  H13C19250   6.451   0.347  16.577  0.8886 -1.1783  2.2687
  160DOPC   C1419251   6.350   0.249  16.779  0.4101  0.4082  0.5008
  160DOPC  H14A19252   6.389   0.172  16.715  1.0086  0.2048  1.0994
  160DOPC  H14B19253   6.432   0.293  16.834  1.2367  0.4503 -0.7103
  160DOPC  H14C19254   6.286   0.211  16.857  0.6664  1.2552  1.1367
  160DOPC   C1519255   6.204   0.443  16.786  0.4065 -0.1299 -0.1676
  160DOPC  H15A19256   6.119   0.395  16.831  0.0363 -0.0317 -0.7558
  160DOPC  H15B19257   6.168   0.524  16.725 -2.4028 -0.9301  0.3083
  160DOPC  H15C19258   6.269   0.487  16.861 -1.8537  1.1486  1.1304
  160DOPC   C1119259   6.263   0.171  16.498  0.5227 -0.4166 -0.4670
  160DOPC  H11A19260   6.307   0.087  16.556  1.6565 -0.7361 -1.7479
  160DOPC  H11B19261   6.184   0.144  16.425  1.1126 -0.0299 -1.2558
  160DOPC     P19262   6.485   0.161  16.368  0.3671 -0.6879  0.0681
  160DOPC   O1319263   6.541   0.085  16.482  0.1750 -0.3256  0.4498
  160DOPC   O1419264   6.576   0.255  16.300 -0.0835 -0.2826  0.3396
  160DOPC   O1219265   6.358   0.237  16.416  0.0077  0.2080 -0.0942
  160DOPC   O1119266   6.434   0.065  16.254 -0.6529 -0.2313 -0.2744
  160DOPC    C119267   6.325   0.102  16.165  0.6211 -0.1657 -0.4834
  160DOPC    HA19268   6.284   0.203  16.189  2.6458  0.2822  1.4862
  160DOPC    HB19269   6.250   0.024  16.189  2.9456 -2.5698 -0.6011
  160DOPC    C219270   6.368   0.095  16.018 -0.0782  0.5120  0.8885
  160DOPC    HS19271   6.289   0.137  15.952  0.5338 -0.5127 -0.5494
  160DOPC   O2119272   6.401  -0.037  15.977 -0.2788  0.2221  0.3499
  160DOPC   C2119273   6.303  -0.128  15.975  0.1420  0.1583  0.3276
  160DOPC   O2219274   6.188  -0.111  15.999 -0.4610  0.5236 -0.6298
  160DOPC   C2219275   6.361  -0.263  15.932 -0.6499 -0.4113  0.1606
  160DOPC   H2R19276   6.329  -0.338  16.007  0.0862 -0.1297  0.7724
  160DOPC   H2S19277   6.471  -0.266  15.941 -0.3883  0.1439 -2.2009
  160DOPC    C319278   6.496   0.183  16.000  0.0570  0.3426  0.0421
  160DOPC    HX19279   6.572   0.125  16.056 -0.4089 -0.2714  0.0458
  160DOPC    HY19280   6.489   0.282  16.050 -1.5321  0.4546 -0.3349
  160DOPC   O3119281   6.536   0.187  15.863 -0.0339  0.3064  0.4847
  160DOPC   C3119282   6.486   0.294  15.799 -0.1576  0.2275  0.8772
  160DOPC   O3219283   6.424   0.386  15.848 -0.1906  0.3723 -0.2643
  160DOPC   C3219284   6.498   0.263  15.654 -1.0085  0.9555  0.4228
  160DOPC   H2X19285   6.561   0.346  15.617  1.1004 -0.6709  0.1457
  160DOPC   H2Y19286   6.557   0.170  15.641  1.3688  2.2375  1.4266
  160DOPC   C2319287   6.299  -0.315  15.802 -0.0130  0.5792 -0.0719
  160DOPC   H3R19288   6.190  -0.331  15.816 -0.1938  3.0239  2.0157
  160DOPC   H3S19289   6.339  -0.417  15.782 -0.2959 -0.1633  2.6870
  160DOPC   C2419290   6.331  -0.234  15.679  0.4682  0.2688  0.3012
  160DOPC   H4R19291   6.439  -0.238  15.652 -0.0249  2.6966 -2.5572
  160DOPC   H4S19292   6.315  -0.127  15.702  0.6225  1.0625 -2.8468
  160DOPC   C2519293   6.235  -0.265  15.566 -0.5917 -0.1403 -0.2671
  160DOPC   H5R19294   6.127  -0.250  15.586 -0.7197  1.1144 -1.7382
  160DOPC   H5S19295   6.259  -0.366  15.529  0.1271  0.1671 -0.6579
  160DOPC   C2619296   6.256  -0.175  15.440 -1.2337  0.7676 -0.0114
  160DOPC   H6R19297   6.366  -0.178  15.424 -0.7857  2.8531  2.0549
  160DOPC   H6S19298   6.208  -0.075  15.446 -0.6110  0.9938  2.0124
  160DOPC   C2719299   6.193  -0.237  15.311  0.1071  0.4516 -0.6263
  160DOPC   H7R19300   6.085  -0.234  15.334  0.7406 -0.1883  2.9888
  160DOPC   H7S19301   6.245  -0.334  15.296  0.2610  0.6413 -1.4057
  160DOPC   C2819302   6.224  -0.145  15.187  0.3536  0.3125  0.0182
  160DOPC   H8R19303   6.200  -0.038  15.205 -2.8122  0.2894 -3.0540
  160DOPC   H8S19304   6.141  -0.178  15.121  0.6118 -2.2818  0.8606
  160DOPC   C2919305   6.359  -0.174  15.119  0.6840 -0.6926 -0.0916
  160DOPC   H9R19306   6.443  -0.194  15.187  0.6240  0.4442  0.3463
  160DOPC  C21019307   6.384  -0.211  14.987  0.1486  0.2439 -0.2047
  160DOPC  H10R19308   6.484  -0.243  14.956  0.5335  0.0235  1.1682
  160DOPC  C21119309   6.279  -0.220  14.879 -0.1151 -0.2250  1.0531
  160DOPC  H11R19310   6.200  -0.145  14.904  1.6355  1.8356  0.7406
  160DOPC  H11S19311   6.239  -0.322  14.866 -2.3221  0.6099  0.8334
  160DOPC  C21219312   6.339  -0.175  14.744 -0.2319 -0.3780  0.4055
  160DOPC  H12R19313   6.440  -0.221  14.741  0.0776  0.2393  0.9423
  160DOPC  H12S19314   6.358  -0.066  14.739 -0.3304 -0.4303 -2.3168
  160DOPC  C21319315   6.258  -0.208  14.612  0.1569  0.9417 -0.1792
  160DOPC  H13R19316   6.167  -0.143  14.611 -0.7350 -0.2693 -0.1376
  160DOPC  H13S19317   6.233  -0.315  14.626  1.5928  0.8271  1.9697
  160DOPC  C21419318   6.333  -0.203  14.480 -0.6633  0.0603  0.8284
  160DOPC  H14R19319   6.372  -0.099  14.473  0.1798 -0.2911  0.2119
  160DOPC  H14S19320   6.265  -0.213  14.393  1.1350  0.9650 -0.7554
  160DOPC  C21519321   6.455  -0.300  14.457  0.1937 -0.1076 -0.0475
  160DOPC  H15R19322   6.421  -0.405  14.461 -1.2574  0.1890 -2.6049
  160DOPC  H15S19323   6.526  -0.288  14.542 -1.8196 -0.3084  1.7569
  160DOPC  C21619324   6.529  -0.273  14.319  0.3544 -0.1436 -0.2038
  160DOPC  H16R19325   6.628  -0.322  14.328  0.6950  0.8109  1.8571
  160DOPC  H16S19326   6.537  -0.163  14.303 -1.0436  0.6342  3.4493
  160DOPC  C21719327   6.446  -0.319  14.200  0.1540 -0.0036  0.8930
  160DOPC  H17R19328   6.349  -0.265  14.199 -0.6680 -1.2389 -2.6737
  160DOPC  H17S19329   6.412  -0.424  14.188 -3.4208  0.9954  1.1094
  160DOPC  C21819330   6.519  -0.286  14.074 -0.3297 -0.4008  0.2167
  160DOPC  H18R19331   6.451  -0.299  13.987 -0.1932 -2.3321  0.3542
  160DOPC  H18S19332   6.615  -0.341  14.064 -0.5438 -0.8051  0.3559
  160DOPC  H18T19333   6.544  -0.178  14.084 -0.1881 -0.6181  2.5700
  160DOPC   C3319334   6.365   0.263  15.587 -0.0093 -0.2049  0.1778
  160DOPC   H3X19335   6.324   0.366  15.579 -0.0091  0.1801  3.6062
  160DOPC   H3Y19336   6.293   0.205  15.650  0.1021 -1.6949 -1.0199
  160DOPC   C3419337   6.362   0.194  15.448  0.4765  0.3367  0.0664
  160DOPC   H4X19338   6.257   0.182  15.414  0.3969 -0.9929  0.6893
  160DOPC   H4Y19339   6.397   0.088  15.451 -0.5677 -0.0753 -1.4460
  160DOPC   C3519340   6.438   0.257  15.333 -0.2783  0.4218  0.1820
  160DOPC   H5X19341   6.548   0.261  15.348 -0.1940  0.5306 -0.4389
  160DOPC   H5Y19342   6.396   0.360  15.329 -4.0226 -0.9748 -1.2968
  160DOPC   C3619343   6.420   0.198  15.196  0.3086  0.1097 -0.3214
  160DOPC   H6X19344   6.452   0.091  15.201 -1.7201 -0.4733  1.5783
  160DOPC   H6Y19345   6.312   0.205  15.170  0.2117  1.1839  0.3273
  160DOPC   C3719346   6.485   0.280  15.077  0.0537 -0.1224  0.7859
  160DOPC   H7X19347   6.430   0.377  15.079 -0.7770 -0.5872  1.4510
  160DOPC   H7Y19348   6.586   0.313  15.108 -0.0119  1.2037 -0.2990
  160DOPC   C3819349   6.499   0.204  14.946 -0.2496  0.7374 -0.3380
  160DOPC   H8X19350   6.544   0.106  14.976 -1.7914 -0.4359 -1.7025
  160DOPC   H8Y19351   6.564   0.266  14.882  0.1976  0.6297 -0.0014
  160DOPC   C3919352   6.369   0.175  14.873 -0.4065  0.6750  0.0475
  160DOPC   H9X19353   6.300   0.118  14.936  0.3364 -2.0219 -1.3874
  160DOPC  C31019354   6.344   0.202  14.743 -0.1146  0.1573 -0.3187
  160DOPC  H10X19355   6.242   0.186  14.705  0.6768 -0.8693 -2.0751
  160DOPC  C31119356   6.434   0.281  14.646  0.5885  0.0311 -0.0858
  160DOPC  H11X19357   6.429   0.227  14.549  0.0722  0.0141 -0.0538
  160DOPC  H11Y19358   6.543   0.272  14.665  0.2160 -1.8076  1.5700
  160DOPC  C31219359   6.391   0.426  14.604 -0.6011  0.2092 -0.4194
  160DOPC  H12X19360   6.367   0.481  14.697  1.4928 -0.9493  0.8916
  160DOPC  H12Y19361   6.312   0.426  14.526  0.0849  1.5074 -1.1503
  160DOPC  C31319362   6.504   0.507  14.535 -0.1767  0.3627 -0.7807
  160DOPC  H13X19363   6.599   0.506  14.593 -0.7818  0.7966  0.2552
  160DOPC  H13Y19364   6.522   0.460  14.436 -1.0287 -1.1979 -0.2364
  160DOPC  C31419365   6.474   0.653  14.501  0.4929 -0.3232  0.0928
  160DOPC  H14X19366   6.451   0.711  14.593  1.1093  1.9389 -1.0894
  160DOPC  H14Y19367   6.567   0.699  14.459 -0.3052 -0.3371 -1.7909
  160DOPC  C31519368   6.370   0.677  14.395  0.9807 -0.6180 -0.4119
  160DOPC  H15X19369   6.279   0.617  14.417  1.0878 -0.9122 -0.7595
  160DOPC  H15Y19370   6.412   0.635  14.301  0.4166 -0.2563 -0.8351
  160DOPC  C31619371   6.318   0.818  14.392 -0.4481 -0.2907  0.5223
  160DOPC  H16X19372   6.246   0.834  14.475 -1.1334 -1.1043  0.1077
  160DOPC  H16Y19373   6.409   0.880  14.400  1.1807 -2.1543 -1.9055
  160DOPC  C31719374   6.239   0.838  14.261 -0.8052  0.0648 -0.2005
  160DOPC  H17X19375   6.168   0.753  14.255  0.6056 -1.1630 -0.0279
  160DOPC  H17Y19376   6.183   0.934  14.264  0.2050  0.6698  0.0776
  160DOPC  C31819377   6.320   0.869  14.137 -0.3817 -0.2320  0.1734
  160DOPC  H18X19378   6.251   0.885  14.051  1.1760 -2.8690 -1.7397
  160DOPC  H18Y19379   6.394   0.951  14.151 -0.3448 -0.2156 -0.0973
  160DOPC  H18Z19380   6.388   0.786  14.108  0.2418  0.9159 -1.8800
  161DOPC     N19381   3.821   1.134  17.028  0.2174 -0.3993  0.2256
  161DOPC   C1219382   3.767   1.275  16.985 -0.1013 -0.1447 -0.2202
  161DOPC  H12A19383   3.736   1.269  16.882  1.4756  0.2031 -0.7362
  161DOPC  H12B19384   3.845   1.349  16.987 -0.4518  0.2386 -0.6130
  161DOPC   C1319385   3.840   1.132  17.176 -0.2209 -0.6024  0.2730
  161DOPC  H13A19386   3.751   1.171  17.223  0.6835  0.1913  1.4074
  161DOPC  H13B19387   3.856   1.031  17.211 -2.1526 -1.3469 -0.8499
  161DOPC  H13C19388   3.919   1.202  17.201 -1.1104  2.2764 -3.9203
  161DOPC   C1419389   3.951   1.108  16.964 -0.1022  0.3069  0.5076
  161DOPC  H14A19390   4.031   1.143  17.027  1.0187 -1.1253 -0.0529
  161DOPC  H14B19391   3.956   1.002  16.941 -1.7500 -0.0355  1.5002
  161DOPC  H14C19392   3.956   1.168  16.875 -0.1270  1.8623  1.5076
  161DOPC   C1519393   3.725   1.028  16.984 -0.2731 -0.4548  0.1181
  161DOPC  H15A19394   3.775   0.933  16.999 -1.8214 -1.4933 -0.9385
  161DOPC  H15B19395   3.702   1.038  16.879  0.4572 -0.1594 -0.0221
  161DOPC  H15C19396   3.630   1.040  17.034 -0.2162  0.0612  0.1031
  161DOPC   C1119397   3.652   1.325  17.063 -0.1210 -0.8666 -0.1041
  161DOPC  H11A19398   3.684   1.362  17.162 -1.9581  0.3633  0.0972
  161DOPC  H11B19399   3.630   1.418  17.006  1.3466 -0.6206 -0.2881
  161DOPC     P19400   3.437   1.210  16.955 -0.3868 -0.3397 -0.2823
  161DOPC   O1319401   3.302   1.276  16.975  0.3403  0.3829 -0.0600
  161DOPC   O1419402   3.437   1.062  16.935 -0.0130  0.0525 -0.0356
  161DOPC   O1219403   3.536   1.245  17.072 -0.2718 -0.1697  0.9453
  161DOPC   O1119404   3.509   1.268  16.822  0.1978  0.4454  0.0558
  161DOPC    C119405   3.440   1.367  16.739 -0.0401 -0.3275 -0.1248
  161DOPC    HA19406   3.510   1.406  16.662 -1.5192 -0.6159 -1.6481
  161DOPC    HB19407   3.399   1.454  16.794 -1.2832 -0.8734 -0.1531
  161DOPC    C219408   3.320   1.309  16.665 -0.4061  0.2007 -0.3254
  161DOPC    HS19409   3.242   1.277  16.737 -1.8154 -0.7772 -2.2155
  161DOPC   O2119410   3.370   1.192  16.590 -1.3408 -0.4150 -0.0100
  161DOPC   C2119411   3.275   1.113  16.559  0.2264 -0.7444 -0.0798
  161DOPC   O2219412   3.159   1.123  16.606  0.0404  0.1275 -0.7441
  161DOPC   C2219413   3.327   1.005  16.457 -0.1717  0.3902 -0.9715
  161DOPC   H2R19414   3.324   0.920  16.529  0.6493  1.2158  0.0752
  161DOPC   H2S19415   3.428   1.033  16.421  0.9743 -2.2250 -0.0459
  161DOPC    C319416   3.255   1.406  16.569  0.2538  0.2727  0.1388
  161DOPC    HX19417   3.252   1.507  16.615  0.0753 -0.1685  1.1055
  161DOPC    HY19418   3.148   1.387  16.546  0.2405  0.3153  0.1650
  161DOPC   O3119419   3.337   1.411  16.450  0.0331  0.0257  0.4229
  161DOPC   C3119420   3.304   1.484  16.351  0.2750  0.5510  1.0846
  161DOPC   O3219421   3.209   1.565  16.336 -0.3062  0.3605 -0.1261
  161DOPC   C3219422   3.415   1.465  16.247  1.0201  0.9627 -0.0300
  161DOPC   H2X19423   3.477   1.557  16.245  1.2237  0.8441  0.5519
  161DOPC   H2Y19424   3.476   1.376  16.274 -0.8322 -0.3250  0.0793
  161DOPC   C2319425   3.236   0.977  16.327 -0.6414 -0.1102  0.7422
  161DOPC   H3R19426   3.133   0.971  16.369 -0.3420 -0.0520  1.4843
  161DOPC   H3S19427   3.277   0.877  16.302  1.3803  0.7075  0.5950
  161DOPC   C2419428   3.266   1.077  16.211  0.3268 -0.2930  0.4356
  161DOPC   H4R19429   3.377   1.081  16.204  0.3949 -1.5076  0.5799
  161DOPC   H4S19430   3.225   1.177  16.234 -1.0499 -0.8251  0.4063
  161DOPC   C2519431   3.221   1.017  16.079  0.4994 -0.1356 -0.1285
  161DOPC   H5R19432   3.110   1.021  16.067  0.3877 -0.0761  0.8812
  161DOPC   H5S19433   3.257   0.912  16.075  1.0235  0.0470 -0.3087
  161DOPC   C2619434   3.267   1.093  15.959  0.0621  0.2265 -0.3682
  161DOPC   H6R19435   3.377   1.109  15.960  0.0317  0.5453  1.0430
  161DOPC   H6S19436   3.216   1.192  15.964 -0.9173 -0.2969  0.2803
  161DOPC   C2719437   3.219   1.026  15.830 -0.1727 -0.5390 -0.0177
  161DOPC   H7R19438   3.109   1.014  15.826 -0.3139 -0.6777  2.6313
  161DOPC   H7S19439   3.268   0.926  15.826 -0.1897 -0.6360  1.6162
  161DOPC   C2819440   3.262   1.102  15.704 -0.5995 -0.3592  0.6197
  161DOPC   H8R19441   3.373   1.092  15.705 -0.4306  1.2795  1.3748
  161DOPC   H8S19442   3.236   1.210  15.717  0.3972 -0.0914  0.5188
  161DOPC   C2919443   3.207   1.046  15.572  0.1271 -0.0854 -1.1843
  161DOPC   H9R19444   3.112   0.995  15.588  1.6978 -2.2102  2.6341
  161DOPC  C21019445   3.262   1.061  15.452 -0.3528  0.1782  0.3134
  161DOPC  H10R19446   3.200   1.022  15.369  2.0056  0.4422 -1.6788
  161DOPC  C21119447   3.386   1.148  15.419 -0.2639  0.2384 -0.4623
  161DOPC  H11R19448   3.461   1.082  15.371  1.3523  2.7985 -1.7273
  161DOPC  H11S19449   3.438   1.201  15.501  1.0506  0.1032 -1.1703
  161DOPC  C21219450   3.356   1.272  15.325  0.5525  0.5529  0.1158
  161DOPC  H12R19451   3.445   1.335  15.305  2.7130 -1.6815  2.0155
  161DOPC  H12S19452   3.271   1.339  15.351  0.9159  1.8287 -1.7992
  161DOPC  C21319453   3.310   1.227  15.185  0.4558 -1.0018  0.2413
  161DOPC  H13R19454   3.290   1.327  15.142 -0.9398 -0.4019  2.1252
  161DOPC  H13S19455   3.211   1.176  15.193 -0.8915  0.8119 -3.0869
  161DOPC  C21419456   3.401   1.155  15.090  0.0567  0.9583 -0.3676
  161DOPC  H14R19457   3.430   1.050  15.114  0.7973  1.3141  0.3478
  161DOPC  H14S19458   3.498   1.209  15.085 -0.1337  1.2108 -1.6363
  161DOPC  C21519459   3.336   1.141  14.950 -0.1717  0.4180 -0.4740
  161DOPC  H15R19460   3.309   1.246  14.925  0.0873  0.3693 -0.9901
  161DOPC  H15S19461   3.247   1.074  14.951 -1.0067  1.5002  1.0811
  161DOPC  C21619462   3.436   1.100  14.843 -0.4465  0.3661  0.5458
  161DOPC  H16R19463   3.487   1.005  14.869  0.2807  0.0184 -1.9211
  161DOPC  H16S19464   3.507   1.184  14.830 -2.2761  1.7868 -0.7516
  161DOPC  C21719465   3.364   1.077  14.713  0.3420 -0.3188 -0.0572
  161DOPC  H17R19466   3.320   1.172  14.675 -0.2248 -0.7054 -0.3859
  161DOPC  H17S19467   3.282   1.006  14.734 -1.4507  1.0192 -2.0780
  161DOPC  C21819468   3.459   1.032  14.601 -0.2377 -0.2482  0.2029
  161DOPC  H18R19469   3.394   1.001  14.517  0.2451 -0.7330  0.0017
  161DOPC  H18S19470   3.533   0.958  14.638  0.3201 -0.1800 -0.7433
  161DOPC  H18T19471   3.521   1.111  14.554 -0.1279 -2.4422 -3.7909
  161DOPC   C3319472   3.356   1.439  16.099 -0.8727  0.1863 -0.1000
  161DOPC   H3X19473   3.276   1.363  16.090 -2.8253  1.8428  1.8530
  161DOPC   H3Y19474   3.446   1.389  16.058  1.4256  3.4397  0.5097
  161DOPC   C3419475   3.334   1.565  16.022  0.2826  0.1319  0.7617
  161DOPC   H4X19476   3.425   1.627  16.009 -0.8038  1.5023 -0.7704
  161DOPC   H4Y19477   3.262   1.633  16.072  0.6198  1.7139 -0.8265
  161DOPC   C3519478   3.296   1.534  15.868  0.0231 -0.3223 -0.3303
  161DOPC   H5X19479   3.277   1.637  15.833 -0.3077  0.2746  1.4593
  161DOPC   H5Y19480   3.207   1.467  15.869 -0.3664  0.1804 -1.1922
  161DOPC   C3619481   3.414   1.473  15.784 -0.1107  0.7663 -0.2087
  161DOPC   H6X19482   3.512   1.512  15.819  0.0022  2.7859 -2.5187
  161DOPC   H6Y19483   3.408   1.364  15.807 -0.8683  0.8846  0.1695
  161DOPC   C3719484   3.397   1.495  15.636  0.3771  0.6906  0.6577
  161DOPC   H7X19485   3.464   1.424  15.583  2.2827  1.3148  2.1538
  161DOPC   H7Y19486   3.289   1.467  15.628  0.3442  0.1748  2.4440
  161DOPC   C3819487   3.438   1.627  15.586 -0.1205 -0.1071  0.4592
  161DOPC   H8X19488   3.398   1.712  15.646  2.9338  0.5589  1.7440
  161DOPC   H8Y19489   3.392   1.643  15.486 -0.9765  1.3970  1.0604
  161DOPC   C3919490   3.585   1.653  15.581 -0.0607 -0.0918  0.0739
  161DOPC   H9X19491   3.640   1.674  15.674 -0.4975  0.2332  0.2627
  161DOPC  C31019492   3.655   1.674  15.470 -0.1971  0.4789 -0.1372
  161DOPC  H10X19493   3.755   1.720  15.478 -0.4236  0.9932 -0.2555
  161DOPC  C31119494   3.602   1.645  15.332  0.3634  0.2443  0.4683
  161DOPC  H11X19495   3.550   1.732  15.287  2.1328  0.0336 -2.1850
  161DOPC  H11Y19496   3.528   1.562  15.334  0.2062  0.3883  0.6674
  161DOPC  C31219497   3.710   1.608  15.230 -0.1700  0.2178  0.6741
  161DOPC  H12X19498   3.794   1.538  15.246 -0.6514 -1.6452 -3.5182
  161DOPC  H12Y19499   3.761   1.699  15.193 -0.0600  0.3961  1.2453
  161DOPC  C31319500   3.630   1.554  15.107 -0.5651  0.8058 -0.4111
  161DOPC  H13X19501   3.607   1.447  15.125 -2.4434  1.1202 -0.7417
  161DOPC  H13Y19502   3.533   1.607  15.101 -1.9379 -1.3989  1.0138
  161DOPC  C31419503   3.700   1.578  14.973  0.5505 -0.0192 -0.1799
  161DOPC  H14X19504   3.741   1.680  14.961  1.0066 -0.3697 -1.8674
  161DOPC  H14Y19505   3.792   1.514  14.968  0.4564 -0.1712  0.0134
  161DOPC  C31519506   3.599   1.569  14.857 -0.0265  0.6407  0.3655
  161DOPC  H15X19507   3.521   1.638  14.896  0.2333 -0.8272  3.8114
  161DOPC  H15Y19508   3.555   1.467  14.853  0.1210  0.5716  0.4821
  161DOPC  C31619509   3.658   1.601  14.722  0.4732 -0.3155  0.2677
  161DOPC  H16X19510   3.705   1.701  14.731  2.1734 -0.9705 -0.7853
  161DOPC  H16Y19511   3.736   1.526  14.696  0.7046  0.6035 -1.9047
  161DOPC  C31719512   3.563   1.593  14.598  0.4375 -0.0379  0.2283
  161DOPC  H17X19513   3.525   1.489  14.594 -1.3139  0.5967 -0.7485
  161DOPC  H17Y19514   3.476   1.661  14.610  0.4637  0.1466 -0.5246
  161DOPC  C31819515   3.633   1.632  14.474 -0.4379  0.1105 -0.0962
  161DOPC  H18X19516   3.560   1.622  14.391  0.2582  2.3623 -1.0773
  161DOPC  H18Y19517   3.660   1.740  14.475  1.6769 -0.3549  1.7886
  161DOPC  H18Z19518   3.730   1.585  14.449  0.1887  1.2654  0.0649
  162DOPC     N19519   0.881   0.722  16.441  0.5218  1.0090 -0.2100
  162DOPC   C1219520   0.798   0.824  16.368  0.3584 -0.9145  0.0262
  162DOPC  H12A19521   0.853   0.916  16.350 -0.1912 -0.3838  1.0069
  162DOPC  H12B19522   0.712   0.856  16.424 -0.4603 -1.9143 -0.6416
  162DOPC   C1319523   0.798   0.603  16.476 -0.5945 -0.1277  0.4224
  162DOPC  H13A19524   0.758   0.540  16.398 -0.0768 -2.3928  1.8695
  162DOPC  H13B19525   0.860   0.540  16.538 -0.5024  1.3055  1.8554
  162DOPC  H13C19526   0.709   0.628  16.532 -0.6154 -0.4748  0.5495
  162DOPC   C1419527   0.932   0.794  16.566 -0.0984 -0.1885 -0.0140
  162DOPC  H14A19528   0.858   0.827  16.637 -1.0040 -1.0145 -0.5589
  162DOPC  H14B19529   0.997   0.737  16.631 -1.5472  0.9915  2.6090
  162DOPC  H14C19530   0.989   0.878  16.528 -1.8128  0.0779 -2.1974
  162DOPC   C1519531   1.002   0.690  16.353  0.6898  0.2675 -0.1461
  162DOPC  H15A19532   1.055   0.778  16.321 -0.0117  0.9486  0.5121
  162DOPC  H15B19533   0.957   0.645  16.265 -1.9589  2.5712 -0.1195
  162DOPC  H15C19534   1.062   0.618  16.406 -1.4359 -2.7105 -1.4714
  162DOPC   C1119535   0.734   0.775  16.228 -0.0925 -0.1260 -0.1186
  162DOPC  H11A19536   0.690   0.863  16.176 -1.0641  0.0971  1.0586
  162DOPC  H11B19537   0.814   0.740  16.159 -0.4262  0.5090 -0.8476
  162DOPC     P19538   0.486   0.727  16.267 -0.1441  0.2781  0.0429
  162DOPC   O1319539   0.484   0.829  16.376  0.2096 -0.0720 -0.3030
  162DOPC   O1419540   0.396   0.609  16.273 -0.1203 -0.0089 -0.0386
  162DOPC   O1219541   0.633   0.677  16.247 -0.1460 -0.0334 -0.4030
  162DOPC   O1119542   0.460   0.808  16.133 -0.0117 -0.2080  0.0212
  162DOPC    C119543   0.355   0.771  16.039  0.4133 -0.5365 -0.2249
  162DOPC    HA19544   0.276   0.848  16.051  1.6038  0.6065  0.5486
  162DOPC    HB19545   0.322   0.668  16.064  3.7495 -1.9562 -1.1658
  162DOPC    C219546   0.401   0.785  15.897 -0.1743  0.2644  0.1584
  162DOPC    HS19547   0.318   0.750  15.831  1.3116  0.2309 -1.8038
  162DOPC   O2119548   0.518   0.708  15.882  0.0053 -0.0208  0.0733
  162DOPC   C2119549   0.503   0.580  15.886 -0.2575  0.2700  0.0086
  162DOPC   O2219550   0.395   0.524  15.901 -0.5584 -0.1579  0.3681
  162DOPC   C2219551   0.637   0.507  15.854 -0.2491 -0.7301 -0.0977
  162DOPC   H2R19552   0.626   0.398  15.872  0.9540 -0.6062  1.5792
  162DOPC   H2S19553   0.717   0.531  15.927 -1.5878 -1.2689  1.6072
  162DOPC    C319554   0.444   0.929  15.857  0.3049  0.0512  0.3442
  162DOPC    HX19555   0.544   0.944  15.903 -0.0052 -0.6502  1.2691
  162DOPC    HY19556   0.366   1.000  15.891 -0.2064 -0.0888 -0.4960
  162DOPC   O3119557   0.447   0.945  15.715  1.0941  0.7557  0.2819
  162DOPC   C3119558   0.483   1.069  15.680  0.1591  0.0623 -0.5977
  162DOPC   O3219559   0.503   1.160  15.760  0.9022 -0.1221  0.5025
  162DOPC   C3219560   0.484   1.081  15.527 -0.2979  0.0021 -0.4632
  162DOPC   H2X19561   0.508   0.980  15.489  2.0539  1.0386 -2.0001
  162DOPC   H2Y19562   0.384   1.109  15.488 -0.9937 -2.4759 -0.5695
  162DOPC   C2319563   0.687   0.545  15.710 -0.0825 -0.6624 -0.3017
  162DOPC   H3R19564   0.781   0.493  15.682 -0.0669 -1.6129  1.3771
  162DOPC   H3S19565   0.709   0.653  15.705  0.3917 -0.4715  3.0949
  162DOPC   C2419566   0.601   0.483  15.599 -0.4749 -0.3796 -0.3339
  162DOPC   H4R19567   0.497   0.519  15.608  0.6962  3.1986  0.7927
  162DOPC   H4S19568   0.603   0.372  15.606 -0.9413 -0.4587 -1.3333
  162DOPC   C2519569   0.641   0.517  15.460  0.5960 -0.3619  0.2981
  162DOPC   H5R19570   0.717   0.449  15.417 -1.2666 -1.2970 -1.7476
  162DOPC   H5S19571   0.671   0.623  15.450 -0.3536 -0.1148 -0.1118
  162DOPC   C2619572   0.515   0.508  15.370 -0.6937 -0.2526 -0.2779
  162DOPC   H6R19573   0.432   0.575  15.399  0.4270  0.5268  1.3314
  162DOPC   H6S19574   0.480   0.402  15.375  1.0462 -0.9249 -1.3051
  162DOPC   C2719575   0.558   0.531  15.218  0.3907 -0.1755  0.1361
  162DOPC   H7R19576   0.462   0.557  15.168  0.3923 -2.2550 -1.0462
  162DOPC   H7S19577   0.584   0.431  15.179 -1.3279 -1.1358  1.3033
  162DOPC   C2819578   0.654   0.641  15.188  0.2896 -0.1630 -0.1421
  162DOPC   H8R19579   0.755   0.638  15.234 -0.0423 -1.5861  0.5443
  162DOPC   H8S19580   0.605   0.727  15.239 -1.4683 -0.9955 -0.3635
  162DOPC   C2919581   0.673   0.673  15.040  0.9775 -0.0343  0.1083
  162DOPC   H9R19582   0.676   0.584  14.977 -1.0180 -0.8180  1.0427
  162DOPC  C21019583   0.654   0.792  14.980  0.1085  0.1191 -0.5552
  162DOPC  H10R19584   0.673   0.798  14.872  2.0514  1.2025 -0.2080
  162DOPC  C21119585   0.645   0.921  15.054  0.3269 -0.8478 -0.5077
  162DOPC  H11R19586   0.706   0.921  15.147  1.3149 -1.4039 -1.1343
  162DOPC  H11S19587   0.539   0.929  15.087 -0.0349  0.8650 -1.9480
  162DOPC  C21219588   0.688   1.047  14.979 -0.0204 -0.1646 -0.3742
  162DOPC  H12R19589   0.793   1.045  14.942  0.7835  0.8399  1.6936
  162DOPC  H12S19590   0.690   1.134  15.048 -2.3365  0.7713 -1.3981
  162DOPC  C21319591   0.593   1.080  14.867 -0.3267 -0.0574 -0.0365
  162DOPC  H13R19592   0.572   1.189  14.852 -0.0002  0.1614  0.9952
  162DOPC  H13S19593   0.498   1.022  14.869 -0.7516  0.6494  1.3703
  162DOPC  C21419594   0.650   1.051  14.724  0.3038  0.0683  0.5229
  162DOPC  H14R19595   0.678   0.943  14.721  0.0486  0.0140 -0.7972
  162DOPC  H14S19596   0.737   1.114  14.698 -1.4245  1.2769 -2.8879
  162DOPC  C21519597   0.552   1.089  14.610 -0.1401  0.1064 -0.5879
  162DOPC  H15R19598   0.524   1.195  14.629 -0.6385 -0.3897  1.8519
  162DOPC  H15S19599   0.458   1.030  14.613  0.3909 -0.7286 -0.2109
  162DOPC  C21619600   0.617   1.072  14.474 -0.2519 -0.3818 -0.3919
  162DOPC  H16R19601   0.679   0.979  14.472 -0.8993 -0.8369  0.2533
  162DOPC  H16S19602   0.673   1.167  14.462  0.0517 -0.4814  0.1964
  162DOPC  C21719603   0.518   1.068  14.358  0.2678  0.1661  0.1123
  162DOPC  H17R19604   0.463   0.973  14.377 -0.3738  0.5130  0.0134
  162DOPC  H17S19605   0.577   1.054  14.266  0.0447 -1.4888  0.1862
  162DOPC  C21819606   0.421   1.182  14.329  0.7478 -0.7954  0.1053
  162DOPC  H18R19607   0.348   1.165  14.248  0.5055  0.5376  0.0201
  162DOPC  H18S19608   0.486   1.266  14.295  2.0580 -1.2137  1.4656
  162DOPC  H18T19609   0.368   1.224  14.417  2.3871 -0.5061  1.0047
  162DOPC   C3319610   0.587   1.180  15.479 -0.2734 -0.1146 -0.0452
  162DOPC   H3X19611   0.685   1.135  15.504 -0.5972  0.1646  1.8032
  162DOPC   H3Y19612   0.578   1.270  15.542 -2.7709 -0.5201  0.2751
  162DOPC   C3419613   0.586   1.189  15.327 -0.0321 -0.1859 -0.0657
  162DOPC   H4X19614   0.589   1.087  15.283  0.7053  0.2184 -1.0006
  162DOPC   H4Y19615   0.672   1.249  15.290 -1.9707  1.3452 -2.4522
  162DOPC   C3519616   0.459   1.256  15.271  0.7840 -0.1688  0.1813
  162DOPC   H5X19617   0.440   1.345  15.335  3.4259  0.0832  0.7219
  162DOPC   H5Y19618   0.373   1.186  15.283 -0.5684  1.8454  3.6597
  162DOPC   C3619619   0.473   1.293  15.124 -0.2724 -0.4214  0.2693
  162DOPC   H6X19620   0.570   1.338  15.093 -1.0444  1.0708 -0.0914
  162DOPC   H6Y19621   0.453   1.197  15.071 -3.3094 -0.1629  0.7540
  162DOPC   C3719622   0.366   1.395  15.084  0.3118  0.0883  0.3363
  162DOPC   H7X19623   0.261   1.361  15.100  0.4327  0.0903  1.1472
  162DOPC   H7Y19624   0.394   1.488  15.139  3.4285 -0.4767 -0.1088
  162DOPC   C3819625   0.370   1.428  14.930  0.2195  0.2777  0.4982
  162DOPC   H8X19626   0.476   1.431  14.896 -0.0056  1.7246 -0.1680
  162DOPC   H8Y19627   0.333   1.531  14.909  0.9486  0.3992 -0.2572
  162DOPC   C3919628   0.292   1.326  14.852 -0.2566 -0.4932 -0.3839
  162DOPC   H9X19629   0.297   1.228  14.902  1.5223 -0.7051 -0.9291
  162DOPC  C31019630   0.263   1.329  14.726  0.2368 -0.2598  0.3915
  162DOPC  H10X19631   0.204   1.247  14.683 -0.0611  0.2046 -0.0989
  162DOPC  C31119632   0.286   1.448  14.637 -0.3847  0.3616 -0.0889
  162DOPC  H11X19633   0.380   1.431  14.580 -1.0875 -3.9770 -0.2861
  162DOPC  H11Y19634   0.291   1.543  14.693 -2.8173  0.1022  0.6924
  162DOPC  C31219635   0.168   1.477  14.543 -0.0624 -0.3780 -0.2694
  162DOPC  H12X19636   0.079   1.513  14.598  0.3874  0.8718 -0.3410
  162DOPC  H12Y19637   0.139   1.389  14.481  0.4933 -0.5426 -0.2974
  162DOPC  C31319638   0.205   1.590  14.449 -0.3228 -0.2606 -0.0598
  162DOPC  H13X19639   0.212   1.684  14.508  3.1481 -0.1231 -0.4798
  162DOPC  H13Y19640   0.309   1.566  14.418 -0.1482  0.1570  0.2016
  162DOPC  C31419641   0.111   1.613  14.328 -0.3560 -0.3487  0.2265
  162DOPC  H14X19642   0.091   1.521  14.269 -1.3232  0.3797 -0.6091
  162DOPC  H14Y19643   0.012   1.656  14.353 -0.2169  0.7334 -0.9795
  162DOPC  C31519644   0.176   1.716  14.237  0.9253 -0.2966 -0.0630
  162DOPC  H15X19645   0.203   1.808  14.293 -1.7074  0.2289  0.4747
  162DOPC  H15Y19646   0.102   1.745  14.159 -1.8076 -0.1687  2.4103
  162DOPC  C31619647   0.294   1.652  14.165 -0.7169 -1.3311  0.2109
  162DOPC  H16X19648   0.364   1.604  14.236  1.4551  2.8509  1.2448
  162DOPC  H16Y19649   0.251   1.574  14.100 -2.4584 -0.5707  0.3979
  162DOPC  C31719650   0.380   1.753  14.086  0.2908  0.2835 -0.1365
  162DOPC  H17X19651   0.433   1.823  14.155 -0.8089 -0.4554  1.5339
  162DOPC  H17Y19652   0.461   1.701  14.032 -0.0789 -1.0683  0.5690
  162DOPC  C31819653   0.295   1.829  13.989 -0.0644 -0.2978 -0.1369
  162DOPC  H18X19654   0.360   1.878  13.914 -2.2228 -0.3015 -2.1161
  162DOPC  H18Y19655   0.228   1.754  13.942 -0.1350 -1.3916  1.6390
  162DOPC  H18Z19656   0.232   1.917  14.015 -2.4279 -1.8574 -0.3157
  163DOPC     N19657   0.085   5.188  17.034 -0.3014  0.2049  0.1252
  163DOPC   C1219658   0.097   5.131  16.895  0.3424 -0.9481 -0.2126
  163DOPC  H12A19659   0.195   5.089  16.882  0.8315 -0.5486  1.7870
  163DOPC  H12B19660   0.095   5.215  16.827  0.4789 -0.4667  0.3692
  163DOPC   C1319661   0.117   5.085  17.137  0.7902  1.1024 -0.2943
  163DOPC  H13A19662   0.124   5.126  17.237  0.2193  0.5995 -0.0452
  163DOPC  H13B19663   0.051   5.000  17.138  3.0171 -0.7300  0.8502
  163DOPC  H13C19664   0.216   5.045  17.120  0.1719 -1.2913  1.3023
  163DOPC   C1419665  -0.059   5.236  17.062 -0.0850 -0.2527 -0.0055
  163DOPC  H14A19666  -0.054   5.284  17.159 -0.7960  0.5541 -0.3514
  163DOPC  H14B19667  -0.089   5.305  16.984  0.2018  0.3023  0.3667
  163DOPC  H14C19668  -0.132   5.158  17.067  1.6246 -1.8634  1.5046
  163DOPC   C1519669   0.179   5.303  17.057 -0.0300  0.1765  0.2207
  163DOPC  H15A19670   0.271   5.306  17.000  1.5363  1.2647  2.6241
  163DOPC  H15B19671   0.192   5.305  17.164 -2.5622 -0.0816  0.5957
  163DOPC  H15C19672   0.125   5.392  17.028 -1.4224 -0.5372  0.5377
  163DOPC   C1119673  -0.009   5.021  16.855 -0.0594  0.7386 -0.1464
  163DOPC  H11A19674  -0.108   5.071  16.859 -1.1456 -1.4069  2.0335
  163DOPC  H11B19675   0.012   4.990  16.750 -1.0287  1.7667 -0.6593
  163DOPC     P19676  -0.144   4.829  16.960  0.3305  0.0586 -0.1047
  163DOPC   O1319677  -0.247   4.911  17.035  0.0226 -0.1427  0.3889
  163DOPC   O1419678  -0.105   4.701  17.024 -0.5226  0.9405  0.6844
  163DOPC   O1219679  -0.013   4.908  16.937 -0.5339 -0.6142 -0.0517
  163DOPC   O1119680  -0.170   4.799  16.807 -0.2593  0.0962 -0.6926
  163DOPC    C119681  -0.103   4.683  16.754 -0.2604  0.0906 -0.2405
  163DOPC    HA19682  -0.144   4.588  16.795 -0.7075 -0.3686 -1.6713
  163DOPC    HB19683   0.006   4.699  16.769 -0.3136 -1.3579  2.2515
  163DOPC    C219684  -0.129   4.672  16.604  0.4508  0.2028 -0.1554
  163DOPC    HS19685  -0.101   4.771  16.562  0.3961 -0.1988 -1.1618
  163DOPC   O2119686  -0.271   4.648  16.579  0.5064  0.3900 -0.6937
  163DOPC   C2119687  -0.320   4.691  16.465  0.5624 -0.5071  0.7713
  163DOPC   O2219688  -0.255   4.759  16.384  0.2972  0.0949 -0.3950
  163DOPC   C2219689  -0.478   4.666  16.458  0.2260 -0.5760  0.4168
  163DOPC   H2R19690  -0.512   4.744  16.529  0.5509 -0.4235  0.4022
  163DOPC   H2S19691  -0.498   4.561  16.490 -0.3445  0.1298  2.5343
  163DOPC    C319692  -0.031   4.568  16.538  0.5982 -0.1582 -0.0822
  163DOPC    HX19693  -0.058   4.464  16.568  1.6997 -0.2597  0.5807
  163DOPC    HY19694   0.064   4.566  16.594  0.1058  1.4377  0.8957
  163DOPC   O3119695  -0.013   4.577  16.391  0.1615 -0.5930  0.0192
  163DOPC   C3119696   0.057   4.686  16.356 -0.6971 -0.1703  0.1420
  163DOPC   O3219697   0.107   4.761  16.437 -0.1527  0.1014  0.2633
  163DOPC   C3219698   0.071   4.701  16.205 -0.6203 -0.4982 -0.2131
  163DOPC   H2X19699  -0.002   4.783  16.187 -0.5867  0.0783  2.0580
  163DOPC   H2Y19700   0.175   4.735  16.187  0.5481 -1.9431  3.0255
  163DOPC   C2319701  -0.541   4.706  16.320 -0.2809 -0.6268 -0.1595
  163DOPC   H3R19702  -0.502   4.807  16.294  2.1731 -2.1874 -3.1180
  163DOPC   H3S19703  -0.652   4.714  16.323 -0.2354  0.3602 -0.7005
  163DOPC   C2419704  -0.504   4.612  16.205  0.4452 -0.5911  0.2226
  163DOPC   H4R19705  -0.538   4.510  16.233  1.3414 -1.0051 -0.1589
  163DOPC   H4S19706  -0.394   4.606  16.201  0.6477  1.6783  1.0990
  163DOPC   C2519707  -0.561   4.657  16.066 -0.3737 -0.0316 -0.0105
  163DOPC   H5R19708  -0.509   4.754  16.051 -0.1275 -0.4522 -2.2667
  163DOPC   H5S19709  -0.670   4.680  16.063 -0.3356  0.2920  0.8462
  163DOPC   C2619710  -0.514   4.566  15.955  0.2850 -0.5817  0.4499
  163DOPC   H6R19711  -0.548   4.463  15.980  1.0796 -0.6693  1.2552
  163DOPC   H6S19712  -0.403   4.564  15.952  0.3258  0.8870  0.2947
  163DOPC   C2719713  -0.570   4.609  15.823 -0.0046  0.5281 -0.8129
  163DOPC   H7R19714  -0.672   4.653  15.827  0.5484  1.7919 -0.3260
  163DOPC   H7S19715  -0.589   4.519  15.760  1.8872  0.9634 -2.0695
  163DOPC   C2819716  -0.488   4.714  15.743  0.0142 -0.7788 -0.1423
  163DOPC   H8R19717  -0.453   4.779  15.827  1.6519 -0.3373 -1.1296
  163DOPC   H8S19718  -0.559   4.764  15.675  0.9736 -0.2695 -0.7895
  163DOPC   C2919719  -0.365   4.662  15.677 -1.0981 -0.2033 -0.0844
  163DOPC   H9R19720  -0.291   4.605  15.734 -1.4092 -1.4683 -0.9096
  163DOPC  C21019721  -0.319   4.682  15.548  1.0065 -0.2131  0.4340
  163DOPC  H10R19722  -0.218   4.653  15.516  0.1789  0.7792 -3.6734
  163DOPC  C21119723  -0.395   4.751  15.437 -0.9946  0.3769  0.7875
  163DOPC  H11R19724  -0.488   4.805  15.467 -0.1527  0.3487  3.7776
  163DOPC  H11S19725  -0.419   4.678  15.357 -1.4364  0.5531  0.7540
  163DOPC  C21219726  -0.308   4.865  15.376 -0.3760 -0.3216 -0.1373
  163DOPC  H12R19727  -0.207   4.825  15.353 -0.9688 -1.5943 -0.6587
  163DOPC  H12S19728  -0.295   4.939  15.457  1.8349 -0.7012 -0.0932
  163DOPC  C21319729  -0.354   4.943  15.246  0.0824  0.5015 -0.0456
  163DOPC  H13R19730  -0.307   5.043  15.248 -0.8561  1.0552 -2.4227
  163DOPC  H13S19731  -0.465   4.937  15.248  0.1131 -0.5330 -0.6903
  163DOPC  C21419732  -0.320   4.868  15.114  0.4037  0.3529 -0.1784
  163DOPC  H14R19733  -0.391   4.917  15.044 -0.6150  0.6318  1.0244
  163DOPC  H14S19734  -0.343   4.762  15.134  1.2866  0.4701  1.6796
  163DOPC  C21519735  -0.171   4.891  15.075 -0.6589  0.0598 -0.2739
  163DOPC  H15R19736  -0.113   4.854  15.162 -0.9992  1.6190  0.6466
  163DOPC  H15S19737  -0.170   5.002  15.071 -0.2883  0.0358 -0.8678
  163DOPC  C21619738  -0.134   4.833  14.938 -0.6223 -0.5440 -0.3098
  163DOPC  H16R19739  -0.184   4.736  14.920  1.9842 -1.8578 -1.0052
  163DOPC  H16S19740  -0.024   4.820  14.930 -0.4476  1.2974 -1.9510
  163DOPC  C21719741  -0.175   4.940  14.834 -0.2493 -0.3455 -1.0317
  163DOPC  H17R19742  -0.163   5.042  14.877 -1.4795 -0.0262 -1.4043
  163DOPC  H17S19743  -0.284   4.941  14.813 -0.2429 -0.6095 -1.0823
  163DOPC  C21819744  -0.110   4.935  14.692 -0.0534  0.2046  0.2637
  163DOPC  H18R19745  -0.004   4.965  14.691 -0.2249  0.8371  0.8140
  163DOPC  H18S19746  -0.163   5.007  14.626 -0.5941  1.0352  1.5860
  163DOPC  H18T19747  -0.117   4.833  14.647  2.3432 -0.6963  1.7446
  163DOPC   C3319748   0.038   4.589  16.114  0.2989  0.8172 -0.0695
  163DOPC   H3X19749  -0.069   4.557  16.119  0.3368  0.6768 -0.1702
  163DOPC   H3Y19750   0.096   4.495  16.123 -0.7785  0.0232 -1.0223
  163DOPC   C3419751   0.048   4.626  15.960 -0.3600 -0.5491 -0.2839
  163DOPC   H4X19752   0.033   4.535  15.898 -0.9976  1.7752 -3.8133
  163DOPC   H4Y19753   0.151   4.664  15.943  0.0268 -1.2730  0.3764
  163DOPC   C3519754  -0.055   4.726  15.918 -0.2531 -0.2032  0.4802
  163DOPC   H5X19755  -0.048   4.818  15.979  0.3449  0.4619 -0.5567
  163DOPC   H5Y19756  -0.154   4.679  15.932  0.4963 -0.9958  4.1243
  163DOPC   C3619757  -0.046   4.777  15.772 -0.8732  0.2229  0.2849
  163DOPC   H6X19758  -0.061   4.685  15.713 -3.1117  0.4598  0.3941
  163DOPC   H6Y19759  -0.124   4.856  15.765  0.4537  1.5365 -0.4855
  163DOPC   C3719760   0.089   4.839  15.721  0.3728 -0.1229 -0.3821
  163DOPC   H7X19761   0.118   4.924  15.786  1.5903 -1.4327  0.8449
  163DOPC   H7Y19762   0.172   4.765  15.719 -0.5239 -1.1606 -0.2486
  163DOPC   C3819763   0.077   4.882  15.572  0.5900 -0.0920  0.4597
  163DOPC   H8X19764   0.153   4.960  15.550 -0.4181  0.8537  0.2262
  163DOPC   H8Y19765  -0.020   4.936  15.570 -0.8070 -2.3865  1.6772
  163DOPC   C3919766   0.073   4.770  15.474 -0.7163  0.2776  0.6302
  163DOPC   H9X19767  -0.011   4.701  15.493 -1.8958  0.5424 -2.8799
  163DOPC  C31019768   0.141   4.760  15.358 -0.6157  0.0354 -0.3223
  163DOPC  H10X19769   0.132   4.664  15.305  1.4396 -1.4012  1.7328
  163DOPC  C31119770   0.252   4.854  15.314  1.1166 -0.0150  0.1349
  163DOPC  H11X19771   0.348   4.799  15.323 -0.4438 -3.4853 -2.2413
  163DOPC  H11Y19772   0.246   4.946  15.376 -0.5702 -0.2223  0.3304
  163DOPC  C31219773   0.249   4.900  15.169  0.3192 -0.0365  0.2079
  163DOPC  H12X19774   0.333   4.969  15.147 -0.9831  1.4543 -0.2199
  163DOPC  H12Y19775   0.150   4.947  15.156  1.0622  1.1951 -1.2254
  163DOPC  C31319776   0.235   4.778  15.077 -1.0156 -0.1761  0.4342
  163DOPC  H13X19777   0.315   4.701  15.088  0.8827  1.6736  0.2622
  163DOPC  H13Y19778   0.132   4.739  15.086 -0.8799 -0.1705  2.2286
  163DOPC  C31419779   0.258   4.815  14.925 -0.6189 -0.3027 -0.0708
  163DOPC  H14X19780   0.209   4.908  14.888  1.8329  1.3163  0.5085
  163DOPC  H14Y19781   0.367   4.829  14.909 -0.3875 -0.5491  1.1950
  163DOPC  C31519782   0.245   4.705  14.811 -0.1867 -0.0798 -0.3015
  163DOPC  H15X19783   0.298   4.612  14.840 -2.8172 -2.0243 -1.2783
  163DOPC  H15Y19784   0.277   4.739  14.710  1.0002  1.0596  0.4277
  163DOPC  C31619785   0.105   4.645  14.794  0.0731 -0.6396 -0.0476
  163DOPC  H16X19786   0.081   4.611  14.896  1.2889 -1.5785 -0.0496
  163DOPC  H16Y19787   0.026   4.715  14.761 -1.3212 -1.9638  0.3600
  163DOPC  C31719788   0.106   4.520  14.707 -0.4599 -0.0516 -0.1843
  163DOPC  H17X19789   0.107   4.557  14.603 -1.8892  2.2129  0.5440
  163DOPC  H17Y19790   0.197   4.462  14.736 -1.7166 -1.3682  1.3746
  163DOPC  C31819791  -0.013   4.428  14.732  0.2166  0.6912  0.0229
  163DOPC  H18X19792  -0.029   4.365  14.642  0.1483 -1.5526  1.5191
  163DOPC  H18Y19793   0.012   4.372  14.824 -0.8972  1.8834  1.0825
  163DOPC  H18Z19794  -0.111   4.479  14.741 -0.8617 -0.9499 -1.5974
  164DOPC     N19795   1.332   2.739  17.387  0.6523  0.1464  0.2433
  164DOPC   C1219796   1.435   2.783  17.291  0.1236  0.5961 -0.5443
  164DOPC  H12A19797   1.523   2.720  17.288 -0.0639  0.3493 -1.3580
  164DOPC  H12B19798   1.456   2.885  17.320 -1.0856  0.5236  0.6844
  164DOPC   C1319799   1.235   2.849  17.420  0.1739  0.5560  0.2484
  164DOPC  H13A19800   1.182   2.884  17.333  0.7334  0.0595 -0.3002
  164DOPC  H13B19801   1.153   2.805  17.475  2.6605 -2.2020  2.0410
  164DOPC  H13C19802   1.284   2.928  17.475  2.3494 -0.1941 -0.5187
  164DOPC   C1419803   1.397   2.693  17.512  0.2797  0.4020 -0.0630
  164DOPC  H14A19804   1.443   2.597  17.491 -1.3820 -0.6450  0.8045
  164DOPC  H14B19805   1.461   2.764  17.561  1.6572 -1.0926  0.3763
  164DOPC  H14C19806   1.319   2.662  17.579  2.5494  0.1444  2.6171
  164DOPC   C1519807   1.252   2.640  17.318 -0.3256 -0.1913 -0.1707
  164DOPC  H15A19808   1.175   2.591  17.375 -0.1169 -0.3473 -0.0174
  164DOPC  H15B19809   1.306   2.553  17.284 -1.3740 -1.0429  0.2869
  164DOPC  H15C19810   1.210   2.683  17.228 -0.8856 -1.5224 -0.5767
  164DOPC   C1119811   1.395   2.785  17.136 -0.1414 -0.4139  0.3584
  164DOPC  H11A19812   1.473   2.842  17.081 -1.4093  0.4513 -0.6231
  164DOPC  H11B19813   1.405   2.682  17.094  0.2392 -0.4728  0.5928
  164DOPC     P19814   1.253   3.000  17.104 -0.1289  0.2631 -0.3105
  164DOPC   O1319815   1.338   3.049  17.212  0.1874 -0.3550  0.2024
  164DOPC   O1419816   1.109   3.039  17.108 -0.0726  0.3612  0.3370
  164DOPC   O1219817   1.266   2.842  17.106 -0.4667  0.0688 -0.3676
  164DOPC   O1119818   1.305   3.050  16.967 -0.2056  0.3627  0.0383
  164DOPC    C119819   1.235   2.985  16.857 -0.5255  0.8279  0.0731
  164DOPC    HA19820   1.130   3.021  16.850 -1.5598 -1.5628  1.7372
  164DOPC    HB19821   1.236   2.874  16.870  0.6804  1.0471  2.5311
  164DOPC    C219822   1.303   3.010  16.719  0.6541 -0.6264  0.3555
  164DOPC    HS19823   1.410   2.983  16.725  0.5453 -1.3975 -0.7840
  164DOPC   O2119824   1.279   3.150  16.691  0.3366  0.5611 -0.0974
  164DOPC   C2119825   1.378   3.232  16.659 -0.5626  0.7423  0.5993
  164DOPC   O2219826   1.496   3.212  16.679 -0.3286 -0.2366 -0.3862
  164DOPC   C2219827   1.317   3.362  16.602 -1.0902 -0.0529  1.1710
  164DOPC   H2R19828   1.360   3.441  16.667  0.8661  0.5140 -0.7065
  164DOPC   H2S19829   1.206   3.359  16.607 -1.0214 -1.1252  3.3622
  164DOPC    C319830   1.238   2.922  16.605 -0.5371 -0.0915 -0.1614
  164DOPC    HX19831   1.129   2.946  16.609 -0.0027  2.5804  2.0458
  164DOPC    HY19832   1.263   2.818  16.632 -0.2293  0.2443  0.9172
  164DOPC   O3119833   1.289   2.944  16.475 -0.2772  0.2076 -0.0030
  164DOPC   C3119834   1.281   2.849  16.384  0.0161  0.0748  0.3849
  164DOPC   O3219835   1.231   2.737  16.405  0.1555 -0.3525 -0.1846
  164DOPC   C3219836   1.346   2.892  16.261  0.3211 -0.4941  0.7141
  164DOPC   H2X19837   1.305   2.991  16.234  1.1903 -0.2218  0.3419
  164DOPC   H2Y19838   1.455   2.911  16.275  0.2115  1.0027 -0.2403
  164DOPC   C2319839   1.375   3.387  16.460  0.5724  0.9648 -0.1689
  164DOPC   H3R19840   1.484   3.374  16.448  0.4197  0.2562 -0.8886
  164DOPC   H3S19841   1.351   3.494  16.444 -1.0048  0.6487 -0.1284
  164DOPC   C2419842   1.299   3.307  16.357  0.0937  0.2286  0.9251
  164DOPC   H4R19843   1.189   3.309  16.369 -0.1291 -2.9906  0.4730
  164DOPC   H4S19844   1.314   3.197  16.370 -0.6481  0.1130  0.8648
  164DOPC   C2519845   1.321   3.360  16.211  0.0616 -0.2023  0.2183
  164DOPC   H5R19846   1.431   3.366  16.201 -0.0759  0.7186 -0.9089
  164DOPC   H5S19847   1.303   3.469  16.202  0.5855 -0.2309 -1.5685
  164DOPC   C2619848   1.260   3.278  16.098 -0.0130 -0.2678 -0.1492
  164DOPC   H6R19849   1.150   3.286  16.097  0.1062  2.2419 -1.5201
  164DOPC   H6S19850   1.293   3.172  16.095  1.7517  0.2298  0.5102
  164DOPC   C2719851   1.305   3.341  15.968  0.2937 -0.0985 -0.6126
  164DOPC   H7R19852   1.412   3.372  15.972  0.2855  0.0383 -1.3364
  164DOPC   H7S19853   1.254   3.439  15.959  1.6309  0.7316  0.4066
  164DOPC   C2819854   1.275   3.243  15.854 -0.3345 -0.1031  0.4712
  164DOPC   H8R19855   1.169   3.214  15.866  0.1009 -1.5901  0.8632
  164DOPC   H8S19856   1.323   3.145  15.871  0.3962  0.3271  0.9518
  164DOPC   C2919857   1.312   3.295  15.718  0.8196  0.3157  0.3263
  164DOPC   H9R19858   1.394   3.368  15.708 -0.1155  1.2375 -1.0267
  164DOPC  C21019859   1.249   3.265  15.603 -0.3179 -0.1571  0.0449
  164DOPC  H10R19860   1.291   3.301  15.508  2.0347  1.5971  1.6307
  164DOPC  C21119861   1.131   3.172  15.600 -0.2859  0.5929 -0.1033
  164DOPC  H11R19862   1.038   3.232  15.606  0.2634  1.4626 -0.0692
  164DOPC  H11S19863   1.147   3.100  15.683  1.8173 -0.7780 -1.5899
  164DOPC  C21219864   1.126   3.080  15.469  0.3749 -0.1552 -0.6829
  164DOPC  H12R19865   1.031   3.022  15.470 -0.6559  1.4932  0.0846
  164DOPC  H12S19866   1.218   3.017  15.475 -0.2814 -1.3483 -2.2985
  164DOPC  C21319867   1.140   3.159  15.341  0.4043 -0.3029 -0.3754
  164DOPC  H13R19868   1.246   3.185  15.320  0.4628  0.5176  0.8173
  164DOPC  H13S19869   1.082   3.253  15.356  2.4595  0.6554  2.5086
  164DOPC  C21419870   1.098   3.075  15.216  0.1955  0.3738 -0.9674
  164DOPC  H14R19871   0.989   3.064  15.230  0.0684  0.5578 -1.7815
  164DOPC  H14S19872   1.145   2.974  15.213  2.4910  1.1225  2.6150
  164DOPC  C21519873   1.132   3.152  15.088  0.2771  0.2063  0.5438
  164DOPC  H15R19874   1.241   3.159  15.071  0.2924 -2.8553 -1.4678
  164DOPC  H15S19875   1.099   3.256  15.108 -1.9001 -0.2554 -0.3218
  164DOPC  C21619876   1.072   3.092  14.961 -0.1042 -0.8061  0.2846
  164DOPC  H16R19877   0.962   3.080  14.961 -0.6222  2.1844 -3.3744
  164DOPC  H16S19878   1.116   2.990  14.952  0.7950 -0.3840 -0.2485
  164DOPC  C21719879   1.110   3.169  14.841  0.1597  0.0132 -0.4377
  164DOPC  H17R19880   1.086   3.117  14.745 -0.4417  0.5629 -0.5875
  164DOPC  H17S19881   1.221   3.172  14.841  0.3540 -1.9550 -3.3156
  164DOPC  C21819882   1.039   3.304  14.817 -0.6252 -0.2839  0.0976
  164DOPC  H18R19883   1.072   3.362  14.728  0.3118  1.3082  1.4120
  164DOPC  H18S19884   1.042   3.378  14.900  0.2966 -1.4574  1.1354
  164DOPC  H18T19885   0.932   3.282  14.795 -0.2485 -2.5822  0.3533
  164DOPC   C3319886   1.332   2.791  16.145 -0.5761 -0.0359 -0.3243
  164DOPC   H3X19887   1.224   2.780  16.124 -1.3950  0.8549  2.8534
  164DOPC   H3Y19888   1.365   2.688  16.169  1.5681  0.4654 -0.8449
  164DOPC   C3419889   1.408   2.851  16.020 -0.6928 -0.1062  0.2221
  164DOPC   H4X19890   1.510   2.807  16.029  0.0786  1.0549 -2.1282
  164DOPC   H4Y19891   1.421   2.961  16.018  0.8078 -0.1856  2.3909
  164DOPC   C3519892   1.344   2.800  15.885  0.2689 -0.4016 -0.0761
  164DOPC   H5X19893   1.248   2.850  15.859  0.3858  0.1007  0.4281
  164DOPC   H5Y19894   1.323   2.691  15.891 -2.2779  0.0328 -0.3146
  164DOPC   C3619895   1.443   2.823  15.770  0.8121 -0.2477 -0.8511
  164DOPC   H6X19896   1.462   2.931  15.750 -0.9741  0.0569 -1.0909
  164DOPC   H6Y19897   1.538   2.773  15.798 -0.1555 -2.1409 -0.8204
  164DOPC   C3719898   1.382   2.773  15.633  0.8718  0.6222 -0.4169
  164DOPC   H7X19899   1.373   2.662  15.634  3.2049  0.3505 -1.8155
  164DOPC   H7Y19900   1.284   2.826  15.627  0.3176 -0.4220 -0.8894
  164DOPC   C3819901   1.470   2.805  15.509  0.4008 -0.5061 -0.1301
  164DOPC   H8X19902   1.571   2.760  15.516  1.3282  1.6733  5.1863
  164DOPC   H8Y19903   1.483   2.915  15.500 -0.3959 -0.4628 -0.9867
  164DOPC   C3919904   1.398   2.764  15.382 -0.4369  0.5606  0.0766
  164DOPC   H9X19905   1.358   2.661  15.389  0.9586 -0.0082 -0.1002
  164DOPC  C31019906   1.378   2.822  15.266 -0.8900  0.3273  0.1548
  164DOPC  H10X19907   1.314   2.781  15.187 -0.2674  4.2936 -2.7148
  164DOPC  C31119908   1.446   2.950  15.229  0.3251  0.2103 -0.3558
  164DOPC  H11X19909   1.545   2.971  15.276 -0.5795 -0.7100  2.1094
  164DOPC  H11Y19910   1.383   3.034  15.264 -1.0992 -1.2308  0.6716
  164DOPC  C31219911   1.448   2.944  15.077  0.1293 -0.5933 -0.1692
  164DOPC  H12X19912   1.508   3.032  15.047 -0.7735  0.4921  1.1088
  164DOPC  H12Y19913   1.354   2.981  15.030  1.7855  4.3086 -0.1690
  164DOPC  C31319914   1.513   2.811  15.023 -0.5251 -0.1377  0.1631
  164DOPC  H13X19915   1.621   2.824  15.048 -0.8786 -1.3147  2.5946
  164DOPC  H13Y19916   1.467   2.717  15.063  0.8310 -1.0919 -0.4363
  164DOPC  C31419917   1.496   2.793  14.869 -0.2460 -0.4056 -0.3334
  164DOPC  H14X19918   1.539   2.692  14.854 -1.8467 -1.2347  0.4410
  164DOPC  H14Y19919   1.542   2.878  14.813  0.0729 -0.0031  0.5150
  164DOPC  C31519920   1.355   2.789  14.820 -0.2220  0.0552  0.2364
  164DOPC  H15X19921   1.315   2.892  14.823  1.5572  0.8904 -1.7658
  164DOPC  H15Y19922   1.293   2.730  14.891 -0.9368 -0.2751 -0.6443
  164DOPC  C31619923   1.343   2.727  14.681  0.1769 -0.7529 -0.5227
  164DOPC  H16X19924   1.399   2.783  14.602  1.5930 -0.5200  0.6017
  164DOPC  H16Y19925   1.379   2.622  14.693  1.3924 -0.1211  1.9441
  164DOPC  C31719926   1.188   2.735  14.651 -0.0698  0.2212  0.1765
  164DOPC  H17X19927   1.132   2.661  14.712 -0.3489  0.0815 -0.2482
  164DOPC  H17Y19928   1.154   2.839  14.672 -0.4832  0.4760 -1.5744
  164DOPC  C31819929   1.150   2.695  14.505  0.4586  0.7939 -0.3465
  164DOPC  H18X19930   1.195   2.760  14.427 -2.8924 -0.0208 -3.2721
  164DOPC  H18Y19931   1.193   2.593  14.493 -0.7132 -0.1373  2.5051
  164DOPC  H18Z19932   1.041   2.683  14.483  0.2194 -2.5276  1.9856
  165DOPC     N19933   6.439   1.819  16.925  0.6285 -0.9962 -0.2342
  165DOPC   C1219934   6.428   1.881  16.786  0.0384  0.6137  0.0614
  165DOPC  H12A19935   6.512   1.839  16.733 -0.6868 -0.2718 -0.4072
  165DOPC  H12B19936   6.447   1.987  16.791 -2.5548  1.1185  0.5972
  165DOPC   C1319937   6.395   1.679  16.917  0.4759  0.5580  0.3006
  165DOPC  H13A19938   6.288   1.669  16.911  0.6473 -1.5280  0.2401
  165DOPC  H13B19939   6.447   1.626  16.838  0.0141  1.3266 -0.5427
  165DOPC  H13C19940   6.421   1.634  17.011  0.4774 -0.9039 -0.3820
  165DOPC   C1419941   6.334   1.885  17.026  0.4294 -0.0661  0.1539
  165DOPC  H14A19942   6.328   1.829  17.118  0.3621  0.0105  0.1948
  165DOPC  H14B19943   6.357   1.988  17.047  1.0789 -0.2043  0.1486
  165DOPC  H14C19944   6.238   1.891  16.977 -0.2383  1.4604  1.5745
  165DOPC   C1519945   6.570   1.828  16.992 -0.2295  0.6220  0.0492
  165DOPC  H15A19946   6.607   1.928  17.007  4.0098 -0.3818 -2.1091
  165DOPC  H15B19947   6.653   1.782  16.941 -1.2640 -1.2642 -0.0397
  165DOPC  H15C19948   6.559   1.776  17.086 -0.0217 -0.9000 -0.7377
  165DOPC   C1119949   6.295   1.857  16.712 -0.1502  0.1442 -0.0555
  165DOPC  H11A19950   6.311   1.901  16.611  0.7816 -1.2866 -0.5696
  165DOPC  H11B19951   6.281   1.750  16.686 -0.2962  0.1553 -0.0216
  165DOPC     P19952   6.158   2.067  16.754 -0.2158  0.1927 -0.2996
  165DOPC   O1319953   6.272   2.138  16.690 -0.1701  0.3495 -0.3488
  165DOPC   O1419954   6.127   2.118  16.890  0.0099 -1.2920 -0.1745
  165DOPC   O1219955   6.180   1.908  16.775  0.1778 -0.4350  0.8462
  165DOPC   O1119956   6.027   2.080  16.662  0.2368 -0.1540  0.0041
  165DOPC    C119957   5.973   1.964  16.591 -0.2152 -0.0391 -0.1355
  165DOPC    HA19958   5.949   1.879  16.658 -2.1208 -1.7770 -2.8310
  165DOPC    HB19959   6.046   1.927  16.517 -1.2894  1.0392 -1.7991
  165DOPC    C219960   5.854   2.012  16.499 -0.0324 -0.0118 -0.6429
  165DOPC    HS19961   5.794   2.092  16.548 -0.9328  0.3615 -2.2657
  165DOPC   O2119962   5.766   1.906  16.474  0.2940  0.0009  0.0503
  165DOPC   C2119963   5.682   1.878  16.572 -0.0104  0.5019 -0.0856
  165DOPC   O2219964   5.684   1.917  16.687 -0.1063  0.5381  0.7449
  165DOPC   C2219965   5.569   1.784  16.528  0.0317 -0.4249 -0.5914
  165DOPC   H2R19966   5.514   1.748  16.617 -0.7214  0.7600 -0.5657
  165DOPC   H2S19967   5.598   1.692  16.472  1.0577 -0.1848 -0.4728
  165DOPC    C319968   5.908   2.075  16.366  0.8324 -0.2364 -0.1728
  165DOPC    HX19969   5.944   1.990  16.303 -0.0136 -1.8469  1.4092
  165DOPC    HY19970   5.998   2.132  16.397  0.4132  0.8116 -0.8130
  165DOPC   O3119971   5.815   2.162  16.295  0.6816  0.1658 -0.2177
  165DOPC   C3119972   5.848   2.282  16.263 -0.6588  0.0086  0.2214
  165DOPC   O3219973   5.951   2.337  16.305  0.3946  0.2903  0.8370
  165DOPC   C3219974   5.749   2.341  16.171  0.0521  0.0510  0.2486
  165DOPC   H2X19975   5.685   2.262  16.128  0.2015  0.6809 -1.1823
  165DOPC   H2Y19976   5.685   2.400  16.240  1.3149  0.9463  0.7055
  165DOPC   C2319977   5.470   1.840  16.425  0.8556 -0.5056 -0.2094
  165DOPC   H3R19978   5.455   1.949  16.444 -0.7301 -0.7674  0.1951
  165DOPC   H3S19979   5.374   1.788  16.446  0.5516 -1.1960 -3.0013
  165DOPC   C2419980   5.513   1.811  16.276  0.5377 -0.6731 -0.6413
  165DOPC   H4R19981   5.521   1.701  16.260  2.0641 -0.4272 -1.7717
  165DOPC   H4S19982   5.613   1.860  16.269  1.0944 -1.1486  2.5161
  165DOPC   C2519983   5.419   1.869  16.175 -0.3357  0.3319 -0.4753
  165DOPC   H5R19984   5.410   1.978  16.196  1.3537  0.6495 -1.2218
  165DOPC   H5S19985   5.321   1.817  16.180  0.5854 -1.4385  0.5779
  165DOPC   C2619986   5.469   1.856  16.027  0.2016 -0.0440 -0.0624
  165DOPC   H6R19987   5.460   1.751  15.994  0.0826 -0.2036  0.4782
  165DOPC   H6S19988   5.577   1.879  16.016  0.7256 -1.8252  1.0478
  165DOPC   C2719989   5.405   1.948  15.928  0.4069 -0.6831 -0.3465
  165DOPC   H7R19990   5.428   2.051  15.962 -1.6763 -0.7881  1.6036
  165DOPC   H7S19991   5.295   1.941  15.940  0.3793  1.4575  1.3934
  165DOPC   C2819992   5.446   1.913  15.778  0.0330  0.5385 -0.0981
  165DOPC   H8R19993   5.417   1.812  15.741  0.6166  0.5327 -0.5473
  165DOPC   H8S19994   5.557   1.913  15.779  0.0347 -0.3656  0.8897
  165DOPC   C2919995   5.390   2.009  15.683  0.0753 -0.2896 -0.0280
  165DOPC   H9R19996   5.370   2.108  15.726 -1.7744 -0.3925 -0.5395
  165DOPC  C21019997   5.346   1.985  15.553  0.7037 -0.0681 -0.5058
  165DOPC  H10R19998   5.308   2.065  15.488  1.5757  1.7855  1.1929
  165DOPC  C21119999   5.358   1.855  15.484 -0.1966  0.4535  0.8009
  165DOPC  H11R20000   5.254   1.819  15.470  0.3291 -0.3164 -1.5225
  165DOPC  H11S20001   5.410   1.779  15.546  2.3595  1.0149 -0.5196
  165DOPC  C21220002   5.423   1.867  15.342  0.4738 -0.4757 -0.1180
  165DOPC  H12R20003   5.412   1.775  15.281  0.6939  0.5803 -1.8199
  165DOPC  H12S20004   5.532   1.880  15.360  0.1367  0.7876  1.1451
  165DOPC  C21320005   5.383   1.987  15.253 -0.2129  0.7428 -0.4175
  165DOPC  H13R20006   5.443   1.973  15.161  1.0348 -0.7195  0.5545
  165DOPC  H13S20007   5.419   2.083  15.296  1.3578 -0.1392  0.3339
  165DOPC  C21420008   5.234   1.990  15.216  0.2909  0.1377 -0.4443
  165DOPC  H14R20009   5.173   2.003  15.309  0.1493  0.4311 -0.5776
  165DOPC  H14S20010   5.216   1.889  15.172  1.4396 -0.2554 -0.0452
  165DOPC  C21520011   5.201   2.106  15.124  0.4865 -0.3679  0.7443
  165DOPC  H15R20012   5.266   2.193  15.150  2.2971 -1.6599  0.7661
  165DOPC  H15S20013   5.098   2.143  15.139 -0.0766 -0.6905 -1.8439
  165DOPC  C21620014   5.234   2.081  14.983  0.3284 -0.0559  0.3556
  165DOPC  H16R20015   5.162   2.010  14.937  0.3012 -0.8314  1.5397
  165DOPC  H16S20016   5.337   2.040  14.991  1.3038  2.4708  2.1458
  165DOPC  C21720017   5.241   2.208  14.895 -0.2151 -0.2105 -0.2823
  165DOPC  H17R20018   5.336   2.259  14.924 -0.1696 -0.0229 -0.7522
  165DOPC  H17S20019   5.172   2.290  14.923  1.1069  0.8815 -0.0975
  165DOPC  C21820020   5.243   2.181  14.748  0.1708 -1.4109  0.2684
  165DOPC  H18R20021   5.230   2.276  14.692 -0.8625 -0.8307  1.4296
  165DOPC  H18S20022   5.168   2.108  14.709 -3.4646  2.5626 -0.9160
  165DOPC  H18T20023   5.346   2.157  14.714 -0.3605  1.0373 -3.7008
  165DOPC   C3320024   5.817   2.414  16.055 -0.0861 -0.0333  0.0314
  165DOPC   H3X20025   5.875   2.492  16.109 -0.2712 -0.8664  1.4575
  165DOPC   H3Y20026   5.738   2.465  15.994 -0.8962 -0.2634  0.8675
  165DOPC   C3420027   5.926   2.336  15.976 -0.0123 -0.3148 -0.3541
  165DOPC   H4X20028   6.014   2.297  16.031  0.6064  1.9947  0.3941
  165DOPC   H4Y20029   5.966   2.415  15.910  0.8274  0.3080  0.8662
  165DOPC   C3520030   5.879   2.215  15.884  0.7267  0.2943  0.3966
  165DOPC   H5X20031   5.844   2.148  15.965 -2.1082  1.9475  0.6819
  165DOPC   H5Y20032   5.963   2.180  15.820  1.3041 -0.5288  1.5733
  165DOPC   C3620033   5.778   2.239  15.781 -0.5516 -0.1331  0.0657
  165DOPC   H6X20034   5.751   2.139  15.741  0.2797 -0.3279 -0.0190
  165DOPC   H6Y20035   5.681   2.280  15.818 -0.5743  0.4302 -0.6009
  165DOPC   C3720036   5.817   2.339  15.669  0.5171  0.1149  0.3331
  165DOPC   H7X20037   5.921   2.310  15.643  1.0846  0.5011  1.9935
  165DOPC   H7Y20038   5.827   2.444  15.704  1.3058  0.5614 -1.1787
  165DOPC   C3820039   5.710   2.341  15.555 -0.1536  0.0369 -0.1111
  165DOPC   H8X20040   5.612   2.377  15.591  0.0688 -0.5909  1.1529
  165DOPC   H8Y20041   5.693   2.239  15.515 -1.0641  0.0990  0.1093
  165DOPC   C3920042   5.766   2.433  15.448  0.1953 -0.7409 -0.2632
  165DOPC   H9X20043   5.787   2.536  15.481 -1.1225 -0.2185 -0.9718
  165DOPC  C31020044   5.767   2.417  15.313 -0.9262  0.2613 -0.1045
  165DOPC  H10X20045   5.824   2.494  15.259  1.8538 -1.3000  0.4225
  165DOPC  C31120046   5.759   2.288  15.237 -0.0742 -1.0646  0.3945
  165DOPC  H11X20047   5.782   2.196  15.296  0.7637 -1.8774 -1.1346
  165DOPC  H11Y20048   5.841   2.294  15.162 -0.3178  1.2807  0.2476
  165DOPC  C31220049   5.623   2.271  15.172  0.1208  0.4749 -0.1084
  165DOPC  H12X20050   5.543   2.267  15.249  2.6623  0.4038  2.7054
  165DOPC  H12Y20051   5.626   2.172  15.122  0.4294  0.9794 -1.1199
  165DOPC  C31320052   5.586   2.359  15.055 -0.4272 -0.0221 -0.1348
  165DOPC  H13X20053   5.480   2.347  15.026 -2.1341  2.9485  3.8690
  165DOPC  H13Y20054   5.588   2.466  15.087  2.4501  0.3654 -1.2909
  165DOPC  C31420055   5.680   2.326  14.939 -0.0443 -0.3717  0.0604
  165DOPC  H14X20056   5.788   2.329  14.966 -0.0161 -0.3936 -0.0448
  165DOPC  H14Y20057   5.681   2.216  14.926 -0.1522 -0.5703  1.5474
  165DOPC  C31520058   5.644   2.404  14.809  0.8981  0.0702 -0.0842
  165DOPC  H15X20059   5.647   2.514  14.824 -0.6224 -0.0333  1.3362
  165DOPC  H15Y20060   5.542   2.387  14.768  1.9662  0.4461 -3.1272
  165DOPC  C31620061   5.721   2.380  14.675 -0.0626 -0.0717  0.0854
  165DOPC  H16X20062   5.827   2.408  14.689  0.0753 -0.6466  0.2380
  165DOPC  H16Y20063   5.724   2.269  14.679 -2.7990 -0.2363 -0.6016
  165DOPC  C31720064   5.652   2.419  14.540 -0.1516  0.3849  0.1501
  165DOPC  H17X20065   5.550   2.377  14.540  0.0412 -0.1104 -1.0250
  165DOPC  H17Y20066   5.655   2.531  14.541  2.7058  0.3996  0.3257
  165DOPC  C31820067   5.725   2.357  14.418 -0.4008 -0.3669 -0.4843
  165DOPC  H18X20068   5.680   2.397  14.325  1.9717 -3.2895 -3.0945
  165DOPC  H18Y20069   5.831   2.386  14.433 -0.9660  3.4824 -2.5923
  165DOPC  H18Z20070   5.716   2.247  14.428 -2.4155 -0.2576 -0.6403
  166DOPC     N20071   0.443   5.824  16.733  0.3447 -0.0563  0.2351
  166DOPC   C1220072   0.417   5.670  16.747 -0.4576 -0.8085  0.5644
  166DOPC  H12A20073   0.410   5.651  16.853 -0.6139  0.0684  0.7186
  166DOPC  H12B20074   0.508   5.618  16.718  0.7649  1.0763  0.8322
  166DOPC   C1320075   0.347   5.894  16.818  0.6415  0.0921 -0.3482
  166DOPC  H13A20076   0.245   5.859  16.817  0.4855  0.4597  0.8292
  166DOPC  H13B20077   0.376   5.877  16.921  0.0519 -0.4797 -0.2774
  166DOPC  H13C20078   0.349   6.002  16.810  0.2324 -0.0074 -2.0388
  166DOPC   C1420079   0.424   5.859  16.589  0.1950  0.5873 -0.6454
  166DOPC  H14A20080   0.454   5.961  16.572 -0.4292  0.9879  0.5454
  166DOPC  H14B20081   0.474   5.806  16.509 -1.1389  0.5052 -1.4487
  166DOPC  H14C20082   0.318   5.852  16.570 -0.6983  0.8866  3.3741
  166DOPC   C1520083   0.577   5.856  16.788  0.1461 -0.2452  0.9608
  166DOPC  H15A20084   0.591   5.961  16.805  0.3911 -0.1288  0.0601
  166DOPC  H15B20085   0.649   5.826  16.714 -1.0883  1.5423 -1.0915
  166DOPC  H15C20086   0.603   5.807  16.881 -0.5457 -0.5966  0.9788
  166DOPC   C1120087   0.296   5.603  16.666 -0.1714  0.1958  0.1492
  166DOPC  H11A20088   0.324   5.606  16.559 -2.2790 -0.2392 -0.4632
  166DOPC  H11B20089   0.304   5.495  16.692  2.5732  0.1457 -0.5270
  166DOPC     P20090   0.064   5.589  16.784  0.2377 -0.2529  0.8803
  166DOPC   O1320091  -0.072   5.637  16.754  0.4497 -0.2107 -0.4627
  166DOPC   O1420092   0.106   5.591  16.926 -0.6067 -0.1116  0.1639
  166DOPC   O1220093   0.171   5.660  16.687  0.0518 -0.6775 -0.3102
  166DOPC   O1120094   0.061   5.439  16.736  0.3501 -0.0630 -0.2538
  166DOPC    C120095  -0.041   5.368  16.669 -0.3334  0.1995 -0.1863
  166DOPC    HA20096  -0.144   5.402  16.694 -0.4554  0.1747 -0.6398
  166DOPC    HB20097  -0.034   5.263  16.702  2.2363  0.2093 -0.4663
  166DOPC    C220098  -0.026   5.358  16.516 -0.7821 -0.7186  0.6979
  166DOPC    HS20099  -0.084   5.275  16.471 -1.2315 -0.5974  1.0420
  166DOPC   O2120100   0.115   5.363  16.482  0.5083  0.7610 -0.1685
  166DOPC   C2120101   0.176   5.248  16.506 -0.6856 -0.9330 -0.5355
  166DOPC   O2220102   0.139   5.157  16.582  0.4528 -0.0264 -0.0080
  166DOPC   C2220103   0.313   5.236  16.454  0.0769  0.1291 -0.6425
  166DOPC   H2R20104   0.396   5.263  16.523  0.0581 -1.3893  0.0040
  166DOPC   H2S20105   0.323   5.300  16.363 -0.4023 -0.6646 -1.2642
  166DOPC    C320106  -0.080   5.488  16.447  0.2953  0.0965 -0.2123
  166DOPC    HX20107  -0.030   5.581  16.481 -0.7752  0.5061  0.2586
  166DOPC    HY20108  -0.186   5.497  16.479  0.5216  1.3782  0.2108
  166DOPC   O3120109  -0.077   5.466  16.303 -0.1058  0.2423 -0.0780
  166DOPC   C3120110  -0.112   5.568  16.227  0.2545 -0.0178 -0.7458
  166DOPC   O3220111  -0.135   5.680  16.267  0.0491 -0.4568  0.5646
  166DOPC   C3220112  -0.105   5.527  16.085 -0.4393  0.1402 -0.2612
  166DOPC   H2X20113   0.002   5.519  16.055 -0.4914 -1.7750 -0.0796
  166DOPC   H2Y20114  -0.147   5.424  16.077 -0.0279 -0.4052  2.9425
  166DOPC   C2320115   0.349   5.094  16.401  0.1934  0.0803 -0.4159
  166DOPC   H3R20116   0.305   5.025  16.476  0.1628 -0.3385 -0.8203
  166DOPC   H3S20117   0.459   5.076  16.406  0.4338  1.0708 -1.6027
  166DOPC   C2420118   0.297   5.059  16.261 -0.3730  0.0435 -0.1136
  166DOPC   H4R20119   0.187   5.054  16.249 -0.1151 -0.6367 -2.7457
  166DOPC   H4S20120   0.335   4.958  16.235  2.2098  1.1382 -0.8942
  166DOPC   C2520121   0.341   5.148  16.141  0.1899 -0.5202  0.3482
  166DOPC   H5R20122   0.447   5.182  16.150 -0.4284  1.5761  0.1643
  166DOPC   H5S20123   0.280   5.240  16.150  1.5508  0.6417 -1.6618
  166DOPC   C2620124   0.302   5.081  16.007 -0.1174 -0.3245  0.7525
  166DOPC   H6R20125   0.198   5.043  16.004  0.2678 -1.3797  0.1401
  166DOPC   H6S20126   0.366   4.990  15.998 -0.9563 -0.8826  0.2949
  166DOPC   C2720127   0.328   5.169  15.877 -0.6524  0.1938 -0.6007
  166DOPC   H7R20128   0.320   5.090  15.800  1.0938 -0.2409 -0.3800
  166DOPC   H7S20129   0.434   5.203  15.875  0.2845 -2.3605  1.2553
  166DOPC   C2820130   0.233   5.293  15.866  0.6759 -0.3042  0.1215
  166DOPC   H8R20131   0.271   5.357  15.783 -3.7313  0.3380 -1.6905
  166DOPC   H8S20132   0.239   5.361  15.954  0.5340  0.9467 -0.7952
  166DOPC   C2920133   0.092   5.252  15.842  0.5283  0.3022 -0.1601
  166DOPC   H9R20134   0.035   5.211  15.927  0.8094  0.8973  0.3198
  166DOPC  C21020135   0.033   5.245  15.719 -0.1473 -0.6147  0.0493
  166DOPC  H10R20136  -0.074   5.217  15.719 -0.6737  1.2613  0.4191
  166DOPC  C21120137   0.097   5.285  15.590 -0.0113  0.1221  0.7347
  166DOPC  H11R20138   0.193   5.235  15.568 -0.2463  0.7057 -2.0481
  166DOPC  H11S20139   0.121   5.393  15.588  1.7261 -0.2250  1.6410
  166DOPC  C21220140  -0.000   5.245  15.477  0.8369 -0.1585 -0.7256
  166DOPC  H12R20141  -0.101   5.285  15.503  0.7537 -0.1880 -1.0041
  166DOPC  H12S20142  -0.016   5.136  15.462 -2.2167  0.1789 -0.6621
  166DOPC  C21320143   0.029   5.297  15.338  0.0943 -1.4414 -0.5779
  166DOPC  H13R20144   0.127   5.263  15.299 -0.4984 -1.8852 -1.7444
  166DOPC  H13S20145   0.032   5.408  15.338 -0.9445 -1.2383  3.5108
  166DOPC  C21420146  -0.071   5.242  15.244  0.4529 -0.1655  0.5646
  166DOPC  H14R20147  -0.177   5.236  15.277  0.5056  2.1389  1.3587
  166DOPC  H14S20148  -0.036   5.139  15.221 -0.1404 -0.1176 -0.6194
  166DOPC  C21520149  -0.080   5.303  15.107 -0.6675 -0.2466 -0.0209
  166DOPC  H15R20150  -0.127   5.404  15.104  0.1372  0.1306 -0.3248
  166DOPC  H15S20151  -0.144   5.231  15.053 -0.0925 -1.7570  1.2544
  166DOPC  C21620152   0.061   5.332  15.044  0.2576  0.5306  0.6482
  166DOPC  H16R20153   0.102   5.229  15.048 -0.4859  0.1415 -1.0023
  166DOPC  H16S20154   0.115   5.407  15.106 -0.8044  1.9223 -0.0529
  166DOPC  C21720155   0.060   5.386  14.898  0.0315  0.0943  0.2519
  166DOPC  H17R20156   0.165   5.393  14.863  0.0693 -0.7293  0.1781
  166DOPC  H17S20157   0.017   5.489  14.897 -0.1842  0.0722 -2.5823
  166DOPC  C21820158  -0.024   5.301  14.797  0.3902 -0.0712 -0.1586
  166DOPC  H18R20159  -0.019   5.349  14.697  0.5979 -1.3203 -0.7687
  166DOPC  H18S20160  -0.132   5.316  14.821  0.9853  1.5305  1.7957
  166DOPC  H18T20161   0.005   5.194  14.804 -0.9589 -0.4458 -0.0235
  166DOPC   C3320162  -0.166   5.625  15.981  0.1721  0.6099  0.1813
  166DOPC   H3X20163  -0.106   5.718  15.980 -0.8741  1.3283  1.5132
  166DOPC   H3Y20164  -0.263   5.661  16.021 -0.7049 -1.4972  0.0908
  166DOPC   C3420165  -0.174   5.573  15.839  0.6809  0.5295 -0.4899
  166DOPC   H4X20166  -0.254   5.497  15.842 -1.1402  2.3591 -0.7161
  166DOPC   H4Y20167  -0.075   5.531  15.809  0.8095  1.9527 -2.2894
  166DOPC   C3520168  -0.213   5.684  15.733 -0.1963  0.4213  0.2558
  166DOPC   H5X20169  -0.116   5.736  15.719 -0.8530  2.0414  1.4095
  166DOPC   H5Y20170  -0.294   5.752  15.767  1.1056  1.9394  0.4422
  166DOPC   C3620171  -0.259   5.632  15.598 -0.9245 -0.1532  0.7053
  166DOPC   H6X20172  -0.196   5.541  15.584  0.3573  0.8748 -0.3945
  166DOPC   H6Y20173  -0.367   5.607  15.605 -1.3824  1.4201 -0.2415
  166DOPC   C3720174  -0.245   5.738  15.483  0.1364 -0.6579  0.4099
  166DOPC   H7X20175  -0.334   5.805  15.485 -0.1267 -1.0113  0.9036
  166DOPC   H7Y20176  -0.154   5.798  15.503 -0.2421 -0.8849  3.2715
  166DOPC   C3820177  -0.231   5.671  15.341 -0.3327  0.1860  0.6869
  166DOPC   H8X20178  -0.167   5.580  15.334 -1.8042 -0.7769 -2.2212
  166DOPC   H8Y20179  -0.166   5.736  15.278 -0.1358  0.3542  1.0622
  166DOPC   C3920180  -0.361   5.633  15.271 -0.0995  0.0512 -0.5478
  166DOPC   H9X20181  -0.435   5.589  15.340  0.7714  0.6662  0.8278
  166DOPC  C31020182  -0.382   5.638  15.139  0.4850  0.6308  0.0134
  166DOPC  H10X20183  -0.482   5.598  15.118  0.7303 -0.2041  0.3990
  166DOPC  C31120184  -0.292   5.702  15.030 -0.2509  0.1861 -0.1647
  166DOPC  H11X20185  -0.186   5.687  15.059 -0.7127  0.7364  1.9722
  166DOPC  H11Y20186  -0.313   5.807  15.002  0.3154  0.8140  1.6558
  166DOPC  C31220187  -0.313   5.626  14.896 -0.2271  0.0168  0.4840
  166DOPC  H12X20188  -0.411   5.643  14.848  0.5923  0.7457 -0.9785
  166DOPC  H12Y20189  -0.295   5.517  14.909  0.3723  0.2530  1.8929
  166DOPC  C31320190  -0.208   5.673  14.792 -0.5568 -0.2496  0.5655
  166DOPC  H13X20191  -0.213   5.778  14.758 -2.0248 -0.9497 -1.5206
  166DOPC  H13Y20192  -0.107   5.665  14.838  0.0190 -1.8556 -0.8670
  166DOPC  C31420193  -0.215   5.593  14.657 -0.0305  0.1011 -0.2751
  166DOPC  H14X20194  -0.212   5.483  14.664 -5.1539 -0.3159 -1.1076
  166DOPC  H14Y20195  -0.318   5.601  14.616  0.5241 -0.6174 -1.9120
  166DOPC  C31520196  -0.109   5.644  14.560  0.3980  0.9067 -0.4370
  166DOPC  H15X20197  -0.016   5.627  14.618 -0.9499  0.1967  1.6068
  166DOPC  H15Y20198  -0.106   5.754  14.539 -0.0175  0.9793 -0.1258
  166DOPC  C31620199  -0.098   5.557  14.437  0.1171  0.3554  0.7814
  166DOPC  H16X20200  -0.102   5.450  14.467 -1.7910  0.0802 -0.3240
  166DOPC  H16Y20201  -0.186   5.591  14.379 -0.0328  0.4967  1.0876
  166DOPC  C31720202   0.024   5.599  14.354  0.0281 -0.4893  0.1113
  166DOPC  H17X20203   0.016   5.708  14.333  0.2973  0.0828  2.6806
  166DOPC  H17Y20204   0.126   5.583  14.395  0.5547 -1.3459 -1.4390
  166DOPC  C31820205   0.033   5.516  14.218  0.0546  0.6132 -0.5878
  166DOPC  H18X20206   0.027   5.408  14.242  1.8278  0.5080 -0.5569
  166DOPC  H18Y20207  -0.039   5.546  14.139  2.4733  1.2615 -2.6325
  166DOPC  H18Z20208   0.138   5.519  14.184  0.2104 -0.6163 -0.2597
  167DOPC     N20209   6.269   3.302  17.218  0.9194 -0.2735  0.0053
  167DOPC   C1220210   6.377   3.382  17.145  0.5735  0.0375 -0.2261
  167DOPC  H12A20211   6.414   3.316  17.068 -0.1815 -1.6884  0.8325
  167DOPC  H12B20212   6.458   3.402  17.213  0.7898 -0.7380 -0.2428
  167DOPC   C1320213   6.247   3.364  17.352  0.2242 -0.0873  0.2213
  167DOPC  H13A20214   6.326   3.340  17.421 -0.6928  1.8565  2.0709
  167DOPC  H13B20215   6.244   3.472  17.346  0.8319 -0.0736  0.1219
  167DOPC  H13C20216   6.161   3.324  17.403  1.2351  2.2155  4.1687
  167DOPC   C1420217   6.313   3.164  17.246  0.0829  0.3867 -0.6449
  167DOPC  H14A20218   6.413   3.154  17.286 -0.2142 -1.2200 -0.2290
  167DOPC  H14B20219   6.242   3.111  17.308  0.3027 -1.6250 -2.0283
  167DOPC  H14C20220   6.308   3.108  17.154  0.4528  0.9219 -0.9937
  167DOPC   C1520221   6.133   3.312  17.148 -1.0612  0.3575 -0.3602
  167DOPC  H15A20222   6.146   3.252  17.059  0.3296 -1.7271  1.1440
  167DOPC  H15B20223   6.097   3.411  17.126 -2.0607 -0.2340 -1.5320
  167DOPC  H15C20224   6.062   3.259  17.209 -0.1765  1.3220  1.5896
  167DOPC   C1120225   6.333   3.519  17.083  0.0946  0.9983 -0.0927
  167DOPC  H11A20226   6.423   3.549  17.025  0.1416 -1.1935 -1.2744
  167DOPC  H11B20227   6.249   3.503  17.011 -2.1800  1.4775  2.2982
  167DOPC     P20228   6.158   3.697  17.168 -0.1309  0.3403  0.1121
  167DOPC   O1320229   6.147   3.786  17.283  0.5512 -0.2289 -0.4990
  167DOPC   O1420230   6.041   3.604  17.152 -0.2025 -0.4644 -0.3777
  167DOPC   O1220231   6.287   3.609  17.186  0.0225 -0.4646  0.7108
  167DOPC   O1120232   6.195   3.771  17.040  0.0291 -0.3263 -0.0196
  167DOPC    C120233   6.107   3.861  16.968 -0.0945  0.3641 -0.0901
  167DOPC    HA20234   6.152   3.962  16.973  0.7759 -0.0294  4.4254
  167DOPC    HB20235   6.004   3.870  17.008  0.8649  2.7960  2.0997
  167DOPC    C220236   6.078   3.813  16.822  0.0126 -0.2753 -0.3829
  167DOPC    HS20237   5.994   3.742  16.840  0.1454 -0.4901 -0.6097
  167DOPC   O2120238   6.197   3.757  16.769  0.3837  0.3840  0.7969
  167DOPC   C2120239   6.177   3.640  16.703 -0.2680 -0.2040 -0.3554
  167DOPC   O2220240   6.077   3.577  16.714 -0.6547 -0.1261  0.8891
  167DOPC   C2220241   6.301   3.612  16.622  0.4363 -0.5828 -0.5684
  167DOPC   H2R20242   6.280   3.519  16.565  0.7186 -0.4639 -0.8662
  167DOPC   H2S20243   6.387   3.598  16.690 -0.4132 -0.0032  0.6699
  167DOPC    C320244   6.026   3.928  16.731  0.0057  0.0329 -1.1531
  167DOPC    HX20245   6.111   3.995  16.710 -1.4257  2.8860  1.3059
  167DOPC    HY20246   5.957   3.999  16.781  0.6275  0.2071 -0.5193
  167DOPC   O3120247   5.982   3.877  16.607  0.5223 -0.2352  0.1948
  167DOPC   C3120248   5.854   3.830  16.626  0.5368 -1.0478 -0.7670
  167DOPC   O3220249   5.796   3.831  16.734 -0.4021  0.3690 -0.3613
  167DOPC   C3220250   5.792   3.766  16.504 -0.0812  0.3484  0.0693
  167DOPC   H2X20251   5.873   3.772  16.428 -0.8852 -0.4964 -0.8763
  167DOPC   H2Y20252   5.774   3.661  16.536  1.1831  0.1434  0.1574
  167DOPC   C2320253   6.342   3.733  16.522  0.4503  0.0466  0.6752
  167DOPC   H3R20254   6.447   3.756  16.548  0.1938  0.5484  1.2816
  167DOPC   H3S20255   6.281   3.825  16.534 -0.4581 -0.4091 -0.3216
  167DOPC   C2420256   6.351   3.693  16.372 -0.1298  0.7344  0.0534
  167DOPC   H4R20257   6.399   3.593  16.375 -1.2856  0.1599  3.7424
  167DOPC   H4S20258   6.413   3.764  16.314 -0.4785 -0.0611 -1.3440
  167DOPC   C2520259   6.215   3.682  16.308  0.2018  0.4269 -0.2070
  167DOPC   H5R20260   6.158   3.777  16.313  0.9576  0.8506  0.5396
  167DOPC   H5S20261   6.161   3.604  16.366  1.2196  1.9557  3.0273
  167DOPC   C2620262   6.228   3.632  16.163 -0.6463  0.0127  0.0609
  167DOPC   H6R20263   6.288   3.539  16.161 -1.9892 -0.8812 -0.0992
  167DOPC   H6S20264   6.290   3.701  16.102  0.8131  0.3184  1.7871
  167DOPC   C2720265   6.091   3.633  16.086  0.1143  0.4007 -0.2287
  167DOPC   H7R20266   6.028   3.716  16.124  0.6791  1.4367 -1.4966
  167DOPC   H7S20267   6.044   3.536  16.114 -0.4145  0.8792  0.5765
  167DOPC   C2820268   6.099   3.641  15.937  0.5694 -0.0666  0.7303
  167DOPC   H8R20269   6.159   3.731  15.911  0.8395 -0.2448  0.7379
  167DOPC   H8S20270   5.996   3.667  15.904  0.8448  0.9031  0.6028
  167DOPC   C2920271   6.159   3.512  15.885 -0.0573  0.2414  0.8533
  167DOPC   H9R20272   6.123   3.419  15.933 -1.4967  1.3722  2.1016
  167DOPC  C21020273   6.278   3.494  15.831 -0.5660  0.4946  0.3569
  167DOPC  H10R20274   6.314   3.391  15.821 -0.2714  0.4273  1.8317
  167DOPC  C21120275   6.377   3.591  15.771  0.4807  0.1744 -0.0632
  167DOPC  H11R20276   6.361   3.692  15.815 -1.9044  0.1297 -0.6833
  167DOPC  H11S20277   6.359   3.590  15.661  0.2068  1.3899 -0.0442
  167DOPC  C21220278   6.516   3.539  15.786 -0.6156 -0.0840  0.3409
  167DOPC  H12R20279   6.548   3.436  15.760  0.9097  0.0658  1.4679
  167DOPC  H12S20280   6.586   3.598  15.722  1.7352 -3.1885 -0.1611
  167DOPC  C21320281   6.556   3.543  15.936 -0.4797 -0.3732 -0.4714
  167DOPC  H13R20282   6.481   3.502  16.007  0.1548  0.2494  0.5887
  167DOPC  H13S20283   6.567   3.646  15.975  1.4751 -0.9158  0.5421
  167DOPC  C21420284   6.698   3.486  15.967 -0.6279  0.1461 -0.2356
  167DOPC  H14R20285   6.771   3.561  15.929 -0.8643  0.3623 -0.2691
  167DOPC  H14S20286   6.722   3.388  15.922 -1.0364 -0.3872  0.6847
  167DOPC  C21520287   6.724   3.480  16.113 -1.0398 -0.1766  0.1056
  167DOPC  H15R20288   6.656   3.401  16.152 -1.2567 -0.4686 -0.8465
  167DOPC  H15S20289   6.701   3.580  16.156 -0.6584 -0.0472  0.0107
  167DOPC  C21620290   6.869   3.445  16.164  0.5899  0.0141  0.1490
  167DOPC  H16R20291   6.950   3.515  16.132  0.9421  0.4826  1.9451
  167DOPC  H16S20292   6.893   3.344  16.125 -1.2378 -1.5394  2.7577
  167DOPC  C21720293   6.877   3.428  16.321 -0.3575 -0.7286  0.5466
  167DOPC  H17R20294   6.791   3.361  16.343 -2.7264  1.7165 -0.6258
  167DOPC  H17S20295   6.845   3.523  16.371  0.4251 -0.7168  1.0527
  167DOPC  C21820296   7.013   3.377  16.368  0.8301 -0.3781 -0.0894
  167DOPC  H18R20297   7.016   3.337  16.471  2.9103 -2.6016 -0.9142
  167DOPC  H18S20298   7.095   3.450  16.351  0.2130  0.5059  0.6146
  167DOPC  H18T20299   7.033   3.292  16.299  2.1381  0.3511 -0.6516
  167DOPC   C3320300   5.663   3.830  16.452 -0.2863 -0.0573 -0.7307
  167DOPC   H3X20301   5.680   3.938  16.430  0.5790 -0.1416 -0.5351
  167DOPC   H3Y20302   5.590   3.820  16.534  1.6863  2.1601  1.4276
  167DOPC   C3420303   5.613   3.769  16.319 -0.8049 -0.8323  0.0089
  167DOPC   H4X20304   5.520   3.828  16.304  0.7452  1.6994 -0.1827
  167DOPC   H4Y20305   5.572   3.666  16.325  0.4258 -1.5716 -2.6083
  167DOPC   C3520306   5.708   3.779  16.203  0.2477 -0.6076 -0.3214
  167DOPC   H5X20307   5.807   3.730  16.215  0.9322  0.7485 -0.3209
  167DOPC   H5Y20308   5.719   3.887  16.181 -2.5509 -0.0343  0.6610
  167DOPC   C3620309   5.647   3.721  16.079  0.6779 -0.3146 -0.8704
  167DOPC   H6X20310   5.640   3.610  16.090  0.8439 -0.1648  1.1277
  167DOPC   H6Y20311   5.545   3.762  16.064  0.7421 -0.5337 -1.9717
  167DOPC   C3720312   5.720   3.757  15.948  0.4793 -0.1307  0.2186
  167DOPC   H7X20313   5.699   3.859  15.908 -0.3645 -0.3083  0.1850
  167DOPC   H7Y20314   5.830   3.771  15.957  0.9544 -1.8853 -1.9237
  167DOPC   C3820315   5.683   3.653  15.840  0.8136 -0.4096 -0.2044
  167DOPC   H8X20316   5.714   3.553  15.877  0.3957 -0.3564  0.2965
  167DOPC   H8Y20317   5.741   3.674  15.747 -0.9648  1.8599 -0.8993
  167DOPC   C3920318   5.534   3.661  15.817  0.4054  0.9148  0.2253
  167DOPC   H9X20319   5.470   3.669  15.906 -0.3822  1.5374 -0.3795
  167DOPC  C31020320   5.472   3.654  15.692 -0.6684  0.0210  0.0596
  167DOPC  H10X20321   5.364   3.661  15.676 -0.3474  2.5099 -1.7459
  167DOPC  C31120322   5.552   3.640  15.561  0.2386 -0.3888 -0.8327
  167DOPC  H11X20323   5.610   3.546  15.554  0.4095 -0.6318  2.3474
  167DOPC  H11Y20324   5.628   3.720  15.573 -0.7476  0.6699 -1.5147
  167DOPC  C31220325   5.477   3.667  15.433  0.3180  0.0004 -0.1912
  167DOPC  H12X20326   5.562   3.673  15.361 -0.9932 -1.1637 -1.8971
  167DOPC  H12Y20327   5.430   3.767  15.443  1.5417  0.4811  1.2551
  167DOPC  C31320328   5.376   3.556  15.403 -0.1618  0.0663  0.1181
  167DOPC  H13X20329   5.421   3.456  15.420  0.6745  0.4053 -0.0359
  167DOPC  H13Y20330   5.296   3.565  15.479  1.0458 -1.3064  1.6227
  167DOPC  C31420331   5.313   3.559  15.265 -0.4169  0.5395 -0.3332
  167DOPC  H14X20332   5.240   3.480  15.236 -2.1523  2.2413 -0.8296
  167DOPC  H14Y20333   5.258   3.654  15.245  0.0810  0.7738 -0.6166
  167DOPC  C31520334   5.427   3.556  15.161 -0.6481  0.3955 -0.1318
  167DOPC  H15X20335   5.496   3.470  15.179  0.7642  1.5024 -0.1006
  167DOPC  H15Y20336   5.487   3.648  15.179  0.4738 -0.6863  2.2395
  167DOPC  C31620337   5.377   3.563  15.015 -0.7307  0.7910  0.1014
  167DOPC  H16X20338   5.309   3.478  14.993 -0.0956  0.6486 -1.3967
  167DOPC  H16Y20339   5.313   3.651  14.991 -0.4468  0.5846 -1.5382
  167DOPC  C31720340   5.492   3.576  14.913 -0.5455  0.4668 -0.4720
  167DOPC  H17X20341   5.574   3.512  14.952 -1.8552 -1.0252 -0.0536
  167DOPC  H17Y20342   5.448   3.535  14.820 -0.6923  1.9907 -1.1036
  167DOPC  C31820343   5.528   3.725  14.902  0.1359 -0.4385  0.5747
  167DOPC  H18X20344   5.443   3.789  14.869  1.6768  1.0399 -0.7357
  167DOPC  H18Y20345   5.566   3.775  14.994 -2.6077  1.2524  0.9266
  167DOPC  H18Z20346   5.598   3.730  14.816  0.9235  1.9666  1.2701
  168DOPC     N20347   0.360   1.670  16.529 -0.0986 -0.5419  0.3391
  168DOPC   C1220348   0.512   1.683  16.504  0.1074 -0.1088 -0.0091
  168DOPC  H12A20349   0.529   1.655  16.401 -0.2385 -1.0927  0.1884
  168DOPC  H12B20350   0.555   1.610  16.572  0.5525  1.4586  1.4569
  168DOPC   C1320351   0.281   1.774  16.448 -0.5379 -0.6197  0.0749
  168DOPC  H13A20352   0.177   1.777  16.478 -0.4813  1.1884  0.1999
  168DOPC  H13B20353   0.325   1.872  16.459  0.0875 -0.3438 -3.5266
  168DOPC  H13C20354   0.281   1.754  16.342 -2.3858 -1.4323  0.1896
  168DOPC   C1420355   0.330   1.705  16.669  0.2293 -0.9084  0.5759
  168DOPC  H14A20356   0.359   1.622  16.732  0.3899 -0.4945  1.0499
  168DOPC  H14B20357   0.389   1.789  16.704 -0.8378  0.2315 -0.2873
  168DOPC  H14C20358   0.227   1.731  16.687  0.3495 -0.1474  0.2128
  168DOPC   C1520359   0.319   1.524  16.500  0.2361  0.7111 -0.2542
  168DOPC  H15A20360   0.321   1.511  16.393  0.2681 -1.1854 -0.0461
  168DOPC  H15B20361   0.225   1.499  16.548  0.1994  0.0015 -0.6862
  168DOPC  H15C20362   0.391   1.456  16.544  3.2812  2.5207 -2.0847
  168DOPC   C1120363   0.598   1.818  16.516  0.1528  0.4762  0.1902
  168DOPC  H11A20364   0.664   1.803  16.604 -1.6448  0.6351  1.6319
  168DOPC  H11B20365   0.661   1.830  16.425  1.0344 -0.7605  0.6138
  168DOPC     P20366   0.513   2.037  16.612 -0.1315 -0.2388 -0.5665
  168DOPC   O1320367   0.499   1.986  16.750  0.2185  0.1611 -0.3384
  168DOPC   O1420368   0.422   2.146  16.574  0.4347  0.1330  0.5395
  168DOPC   O1220369   0.500   1.920  16.515 -0.2032 -0.7844 -0.2885
  168DOPC   O1120370   0.665   2.072  16.601  0.0018 -0.3102  0.4742
  168DOPC    C120371   0.707   2.195  16.542  0.5210 -0.7283 -0.0181
  168DOPC    HA20372   0.803   2.227  16.587 -0.2324 -0.6508  1.5934
  168DOPC    HB20373   0.637   2.281  16.551  0.2201 -0.9525 -0.1873
  168DOPC    C220374   0.719   2.186  16.380 -0.3696  0.2377  0.3695
  168DOPC    HS20375   0.627   2.133  16.349 -0.7071  0.3972  1.0865
  168DOPC   O2120376   0.839   2.111  16.352  0.7009 -0.1743  0.3401
  168DOPC   C2120377   0.836   2.027  16.257  0.1349 -0.0560  0.5468
  168DOPC   O2220378   0.743   2.012  16.183  0.1682  0.5963  0.0709
  168DOPC   C2220379   0.970   1.943  16.255  0.5210 -0.1172 -0.4599
  168DOPC   H2R20380   0.990   1.893  16.352 -2.6355 -2.3492 -0.7766
  168DOPC   H2S20381   1.043   2.024  16.236 -0.6498  1.2318  0.5371
  168DOPC    C320382   0.721   2.321  16.320  0.1394  0.2102  0.1612
  168DOPC    HX20383   0.813   2.369  16.359  0.1405  0.6060 -0.3175
  168DOPC    HY20384   0.629   2.375  16.353 -1.3268 -0.9348 -1.8232
  168DOPC   O3120385   0.730   2.322  16.177  0.1495 -0.4840 -0.6207
  168DOPC   C3120386   0.630   2.277  16.105  0.0941 -0.2368 -0.4607
  168DOPC   O3220387   0.520   2.256  16.148 -0.1288 -0.2049  0.1958
  168DOPC   C3220388   0.687   2.236  15.968  0.5764  0.0109  0.8457
  168DOPC   H2X20389   0.735   2.322  15.916 -1.4331  0.9487  0.4476
  168DOPC   H2Y20390   0.765   2.160  15.988  1.0803 -0.0515 -1.1018
  168DOPC   C2320391   0.971   1.844  16.149 -0.0356  0.0386  0.4511
  168DOPC   H3R20392   0.874   1.791  16.132  0.4181 -0.1180 -2.1672
  168DOPC   H3S20393   1.047   1.765  16.169  0.4292  0.1799 -0.6518
  168DOPC   C2420394   1.014   1.910  16.013 -0.3482 -0.4118 -0.2909
  168DOPC   H4R20395   1.122   1.933  16.022 -0.0398 -2.5977  4.2977
  168DOPC   H4S20396   0.957   2.004  15.998  0.7931  0.2509 -0.6232
  168DOPC   C2520397   0.970   1.829  15.890  0.6796 -0.9031  0.1460
  168DOPC   H5R20398   0.863   1.802  15.879  0.7843 -1.5719  0.7047
  168DOPC   H5S20399   1.027   1.735  15.906  1.9312  0.0724  1.6995
  168DOPC   C2620400   1.030   1.890  15.758 -0.1782  0.0845 -0.2706
  168DOPC   H6R20401   1.136   1.914  15.784 -0.2507  0.3544 -0.2148
  168DOPC   H6S20402   0.977   1.985  15.734 -2.6372 -0.4994  2.3583
  168DOPC   C2720403   1.024   1.797  15.635 -0.3597 -0.3840 -0.6389
  168DOPC   H7R20404   0.920   1.782  15.599 -1.7539  0.4102  2.6937
  168DOPC   H7S20405   1.048   1.700  15.682 -0.3458  0.7459  1.8582
  168DOPC   C2820406   1.123   1.833  15.530 -0.5994  0.0972 -0.5986
  168DOPC   H8R20407   1.119   1.746  15.462 -0.1997 -0.5610  0.2027
  168DOPC   H8S20408   1.229   1.853  15.556 -1.4027  2.6342  1.2275
  168DOPC   C2920409   1.063   1.952  15.451  0.1217  0.2865 -0.0595
  168DOPC   H9R20410   0.993   2.016  15.506  0.5098  1.6777 -1.1332
  168DOPC  C21020411   1.070   1.972  15.321 -0.1239 -0.2661  1.0510
  168DOPC  H10R20412   1.016   2.056  15.275  1.7546  1.0092  1.0623
  168DOPC  C21120413   1.141   1.882  15.220  0.5721  0.1539  0.1089
  168DOPC  H11R20414   1.090   1.784  15.231  0.6378  0.1701  0.5985
  168DOPC  H11S20415   1.247   1.874  15.250 -0.3636  0.3578  4.1954
  168DOPC  C21220416   1.114   1.924  15.074 -0.0052 -0.1776 -0.6442
  168DOPC  H12R20417   1.169   2.018  15.050  0.4278 -0.1560  0.3552
  168DOPC  H12S20418   1.005   1.939  15.063 -0.2474 -2.2933 -1.4226
  168DOPC  C21320419   1.157   1.821  14.968 -0.0201 -0.5660  0.5210
  168DOPC  H13R20420   1.088   1.735  14.980  1.3013 -1.6571  0.4977
  168DOPC  H13S20421   1.263   1.794  14.985  0.1116 -0.1678  0.3460
  168DOPC  C21420422   1.145   1.873  14.817  0.5009 -0.3916  0.1929
  168DOPC  H14R20423   1.228   1.822  14.764  1.7121 -0.1921  1.8374
  168DOPC  H14S20424   1.168   1.981  14.821  0.6169 -0.3432 -1.3041
  168DOPC  C21520425   0.998   1.840  14.773  0.1871 -0.2965  0.3430
  168DOPC  H15R20426   0.925   1.883  14.845 -0.4245  0.2574 -0.5898
  168DOPC  H15S20427   0.983   1.731  14.758  3.3763 -0.8774  0.6915
  168DOPC  C21620428   0.958   1.912  14.642 -0.3275  0.0005  0.0131
  168DOPC  H16R20429   0.987   2.019  14.648 -1.0540  0.2415 -0.7286
  168DOPC  H16S20430   0.848   1.912  14.630 -0.4665  0.6183  1.1910
  168DOPC  C21720431   1.027   1.839  14.527  0.2256  0.1214  0.0446
  168DOPC  H17R20432   1.019   1.730  14.546  1.2166 -0.1798 -1.1580
  168DOPC  H17S20433   1.137   1.852  14.536  0.0379  0.1379  3.9740
  168DOPC  C21820434   0.968   1.874  14.394 -0.2370 -0.8210  0.0578
  168DOPC  H18R20435   0.869   1.829  14.373 -0.0277  0.3811 -4.7668
  168DOPC  H18S20436   1.037   1.838  14.315  1.1514 -1.0193  1.3275
  168DOPC  H18T20437   0.958   1.985  14.387  1.4268 -0.7127 -1.1333
  168DOPC   C3320438   0.590   2.159  15.882 -0.1216  0.1171  0.2414
  168DOPC   H3X20439   0.534   2.098  15.955 -0.6408 -1.6540 -1.5458
  168DOPC   H3Y20440   0.637   2.082  15.817 -1.0495  1.0485 -1.6307
  168DOPC   C3420441   0.503   2.247  15.793  0.5100  0.2401  0.5081
  168DOPC   H4X20442   0.446   2.308  15.865  0.7309 -0.9985  1.7813
  168DOPC   H4Y20443   0.434   2.178  15.740 -0.1812  0.1859  1.4716
  168DOPC   C3520444   0.571   2.332  15.684  0.2261  0.0860 -0.6642
  168DOPC   H5X20445   0.660   2.384  15.725 -1.3517  0.6578  2.3152
  168DOPC   H5Y20446   0.492   2.400  15.645  0.1252  0.6298  0.4464
  168DOPC   C3620447   0.625   2.245  15.572  0.3536 -0.1964  0.3198
  168DOPC   H6X20448   0.680   2.163  15.623  3.6406  0.8657 -1.1755
  168DOPC   H6Y20449   0.541   2.202  15.514  0.6568  0.2358 -0.4616
  168DOPC   C3720450   0.707   2.317  15.473 -0.2612 -0.5165  0.4580
  168DOPC   H7X20451   0.655   2.412  15.447 -0.8278 -1.5745 -2.6064
  168DOPC   H7Y20452   0.806   2.333  15.520 -1.4583  3.2071  2.1625
  168DOPC   C3820453   0.727   2.237  15.342  0.7793 -0.4579 -0.9811
  168DOPC   H8X20454   0.631   2.220  15.289 -0.1718  0.8645  0.2532
  168DOPC   H8Y20455   0.762   2.135  15.368 -0.2127 -0.1763  1.8088
  168DOPC   C3920456   0.831   2.305  15.257 -0.4415  0.1265 -0.6798
  168DOPC   H9X20457   0.909   2.357  15.315 -1.1925  0.5914 -0.0686
  168DOPC  C31020458   0.854   2.290  15.126  0.2705  0.6180  0.1991
  168DOPC  H10X20459   0.941   2.342  15.082  0.2849 -0.1809 -0.7458
  168DOPC  C31120460   0.774   2.209  15.024 -0.0775  0.1569 -1.0241
  168DOPC  H11X20461   0.672   2.175  15.055 -0.4604  1.0764 -1.2192
  168DOPC  H11Y20462   0.825   2.114  14.998 -1.7729 -1.3914  0.9431
  168DOPC  C31220463   0.745   2.280  14.895  0.2827  0.4864 -0.5052
  168DOPC  H12X20464   0.694   2.376  14.921 -0.7479 -0.5518  1.5388
  168DOPC  H12Y20465   0.683   2.225  14.822  1.6490 -0.2035 -1.1781
  168DOPC  C31320466   0.878   2.300  14.821 -0.3984  0.3273 -0.2496
  168DOPC  H13X20467   0.941   2.376  14.873 -0.4420 -0.1851  0.5710
  168DOPC  H13Y20468   0.936   2.205  14.822 -1.9160 -0.6932  2.3000
  168DOPC  C31420469   0.851   2.330  14.664  0.1662 -0.5524  0.3021
  168DOPC  H14X20470   0.793   2.243  14.628  1.7914 -1.6049  0.1343
  168DOPC  H14Y20471   0.790   2.423  14.662 -1.0042 -1.1985  2.3574
  168DOPC  C31520472   0.975   2.345  14.572 -0.1865 -0.4093  0.0517
  168DOPC  H15X20473   1.038   2.257  14.599 -0.5889 -0.1635  2.0067
  168DOPC  H15Y20474   1.022   2.437  14.610 -0.4110  0.3470 -1.4346
  168DOPC  C31620475   0.952   2.342  14.422 -0.0610 -0.4112 -0.2937
  168DOPC  H16X20476   0.944   2.237  14.386  2.0674 -0.6089 -0.3432
  168DOPC  H16Y20477   0.858   2.391  14.390  0.1994 -2.6685 -5.5898
  168DOPC  C31720478   1.067   2.391  14.334 -0.2809  0.1585 -0.1808
  168DOPC  H17X20479   1.075   2.502  14.343 -1.7164  0.4190 -1.6824
  168DOPC  H17Y20480   1.154   2.328  14.363 -1.7970 -2.5889 -1.2483
  168DOPC  C31820481   1.038   2.359  14.185  0.1533 -0.7570 -0.4579
  168DOPC  H18X20482   0.947   2.412  14.149  0.6508  2.1881  2.1449
  168DOPC  H18Y20483   1.133   2.394  14.139  1.0953  0.7184  2.3510
  168DOPC  H18Z20484   1.032   2.249  14.181  1.2000 -0.8587  0.3996
  169DOPC     N20485   0.186   3.100  17.145  0.5071 -0.0150  0.1630
  169DOPC   C1220486   0.118   3.003  17.056 -0.0527 -0.5661 -0.4488
  169DOPC  H12A20487   0.054   2.945  17.121 -0.3889 -1.1054 -1.2358
  169DOPC  H12B20488   0.179   2.924  17.016  0.8192 -0.1703  0.0801
  169DOPC   C1320489   0.093   3.182  17.231  0.4825  0.7182  0.3426
  169DOPC  H13A20490   0.021   3.124  17.288  0.2283  1.1987  0.5178
  169DOPC  H13B20491   0.140   3.244  17.306 -0.9272  0.1272  1.7730
  169DOPC  H13C20492   0.027   3.239  17.166 -1.9949 -2.7510 -0.4893
  169DOPC   C1420493   0.267   3.188  17.056 -0.0864 -0.3765 -1.1435
  169DOPC  H14A20494   0.203   3.232  16.982 -0.3014  1.6115  0.1459
  169DOPC  H14B20495   0.320   3.262  17.115 -1.3063 -0.8323  0.6179
  169DOPC  H14C20496   0.339   3.126  17.004  0.2114 -1.4487  0.4760
  169DOPC   C1520497   0.272   3.031  17.246  0.0314 -0.2742 -0.4127
  169DOPC  H15A20498   0.322   3.106  17.304  1.6739 -0.9046 -0.9614
  169DOPC  H15B20499   0.350   2.971  17.202 -0.0381  0.4345 -1.5527
  169DOPC  H15C20500   0.213   2.970  17.312  2.7202 -2.0477  0.4840
  169DOPC   C1120501   0.020   3.062  16.954  1.2125 -0.2422  0.3018
  169DOPC  H11A20502  -0.054   3.119  17.014  0.0418 -1.4733  0.0851
  169DOPC  H11B20503   0.060   3.125  16.872 -1.7502  2.2842  0.6138
  169DOPC     P20504  -0.183   2.896  16.929  0.1967 -0.0210  0.0404
  169DOPC   O1320505  -0.190   2.873  17.072 -0.4080 -0.7220  0.1492
  169DOPC   O1420506  -0.218   2.775  16.851  0.0273  0.8435 -0.5109
  169DOPC   O1220507  -0.048   2.957  16.886 -0.2349  0.1348 -0.0229
  169DOPC   O1120508  -0.278   3.014  16.897  0.3395 -0.2916  0.0691
  169DOPC    C120509  -0.413   2.995  16.858 -0.2121  0.2383 -0.2916
  169DOPC    HA20510  -0.471   3.087  16.880 -1.2411 -0.3606 -0.4330
  169DOPC    HB20511  -0.457   2.912  16.917 -0.5981  2.6100  2.9933
  169DOPC    C220512  -0.435   2.985  16.703  1.1447 -0.2799  0.1330
  169DOPC    HS20513  -0.359   2.909  16.673 -1.0513 -1.6041 -2.5582
  169DOPC   O2120514  -0.397   3.113  16.644  0.0052 -0.0931 -0.2201
  169DOPC   C2120515  -0.357   3.101  16.522  0.4831  0.2117  0.0446
  169DOPC   O2220516  -0.333   2.994  16.461  0.0272  0.1998  0.0411
  169DOPC   C2220517  -0.340   3.249  16.464 -0.0457 -0.2380 -0.1924
  169DOPC   H2R20518  -0.302   3.308  16.550  0.9326  0.1871 -0.8889
  169DOPC   H2S20519  -0.439   3.290  16.436  0.7382  1.9086  0.0200
  169DOPC    C320520  -0.580   2.948  16.670 -0.5162 -0.5122  0.3329
  169DOPC    HX20521  -0.631   3.006  16.750 -2.0835 -1.6236  0.1830
  169DOPC    HY20522  -0.602   2.846  16.707  1.8558 -0.4787  2.0087
  169DOPC   O3120523  -0.614   2.972  16.536 -0.3415  0.1589  0.2591
  169DOPC   C3120524  -0.601   2.864  16.453 -0.5575 -0.0591  0.0853
  169DOPC   O3220525  -0.561   2.754  16.493 -1.1082 -0.0562 -0.5488
  169DOPC   C3220526  -0.623   2.898  16.301  0.1156 -0.2482  0.3799
  169DOPC   H2X20527  -0.713   2.962  16.297  0.0854 -0.3695 -1.7395
  169DOPC   H2Y20528  -0.539   2.961  16.266 -0.9858  0.8428 -0.3579
  169DOPC   C2320529  -0.249   3.273  16.344  0.6269  0.0693  0.1564
  169DOPC   H3R20530  -0.159   3.208  16.348  1.0560  0.7127  1.1041
  169DOPC   H3S20531  -0.223   3.380  16.333 -0.3841  0.1560 -2.2234
  169DOPC   C2420532  -0.334   3.243  16.216 -0.0287 -0.2837 -0.6243
  169DOPC   H4R20533  -0.392   3.334  16.190  1.2428  1.0268  0.9454
  169DOPC   H4S20534  -0.401   3.161  16.249  2.1163 -1.5584  0.8076
  169DOPC   C2520535  -0.241   3.199  16.103  0.7166  0.4142 -0.8915
  169DOPC   H5R20536  -0.160   3.124  16.117  0.0980 -0.5203 -2.0983
  169DOPC   H5S20537  -0.194   3.293  16.068  0.3277  0.0983 -2.3524
  169DOPC   C2620538  -0.330   3.137  15.997 -0.0225  0.5110  0.2255
  169DOPC   H6R20539  -0.410   3.212  15.982  0.8356  1.0078 -2.3039
  169DOPC   H6S20540  -0.369   3.036  16.022 -3.0777  1.9363  1.7850
  169DOPC   C2720541  -0.269   3.128  15.858 -0.9493  0.1613  0.1669
  169DOPC   H7R20542  -0.173   3.074  15.864 -0.3285  1.3823  1.9080
  169DOPC   H7S20543  -0.230   3.227  15.823  0.4134 -0.0898  0.9256
  169DOPC   C2820544  -0.356   3.067  15.748  0.2992 -0.9261  0.1552
  169DOPC   H8R20545  -0.398   2.973  15.789  0.9941 -1.3401 -0.0527
  169DOPC   H8S20546  -0.295   3.025  15.664  2.5531 -0.0486  1.2800
  169DOPC   C2920547  -0.482   3.146  15.714 -1.0719  0.2460 -0.3808
  169DOPC   H9R20548  -0.556   3.159  15.794 -0.3878 -2.3319  0.7856
  169DOPC  C21020549  -0.506   3.206  15.597 -0.1473  0.6701 -0.0783
  169DOPC  H10R20550  -0.613   3.227  15.582 -0.6437 -1.1987  0.5707
  169DOPC  C21120551  -0.421   3.226  15.478  0.2646  0.0698  0.7822
  169DOPC  H11R20552  -0.339   3.151  15.468 -1.4581 -1.8516  0.3201
  169DOPC  H11S20553  -0.383   3.330  15.483 -0.2505  0.6426 -3.3730
  169DOPC  C21220554  -0.488   3.214  15.338  0.2848  0.5356 -0.9016
  169DOPC  H12R20555  -0.582   3.272  15.329  1.7823  3.1825 -0.6392
  169DOPC  H12S20556  -0.513   3.107  15.324 -0.4048  0.8082 -1.9146
  169DOPC  C21320557  -0.392   3.242  15.229 -0.7093 -0.4001  0.5902
  169DOPC  H13R20558  -0.291   3.196  15.233 -0.9009 -0.9346 -0.2937
  169DOPC  H13S20559  -0.381   3.352  15.227  0.3478 -0.4963 -2.1017
  169DOPC  C21420560  -0.460   3.218  15.084 -0.4594 -0.2763  0.6344
  169DOPC  H14R20561  -0.544   3.290  15.087 -0.8825 -0.6034 -1.7301
  169DOPC  H14S20562  -0.489   3.110  15.088  1.7271 -0.9263  0.3605
  169DOPC  C21520563  -0.370   3.239  14.959  0.0528  0.0818 -0.4232
  169DOPC  H15R20564  -0.284   3.169  14.964 -0.4916 -0.5046  1.9258
  169DOPC  H15S20565  -0.324   3.340  14.964  0.8430 -0.2759 -0.3476
  169DOPC  C21620566  -0.453   3.221  14.837  0.4524  0.3221  0.2474
  169DOPC  H16R20567  -0.534   3.148  14.855 -0.4499  0.6699 -2.0271
  169DOPC  H16S20568  -0.378   3.201  14.758 -0.1346  1.8855 -0.7581
  169DOPC  C21720569  -0.518   3.348  14.782 -0.0327  0.1704 -0.3210
  169DOPC  H17R20570  -0.593   3.385  14.855 -0.9163  1.0071 -1.6101
  169DOPC  H17S20571  -0.578   3.312  14.695 -1.9225  1.6059  0.3048
  169DOPC  C21820572  -0.422   3.455  14.723 -0.1850 -0.5802  0.3272
  169DOPC  H18R20573  -0.473   3.532  14.661  0.1526  0.6236  1.4888
  169DOPC  H18S20574  -0.342   3.405  14.664  2.0719  0.5512  2.2666
  169DOPC  H18T20575  -0.369   3.501  14.809  0.2478 -0.8411  0.2047
  169DOPC   C3320576  -0.641   2.782  16.204  0.1201  0.3641 -0.7105
  169DOPC   H3X20577  -0.738   2.727  16.204  0.0294  0.5253 -0.6834
  169DOPC   H3Y20578  -0.555   2.711  16.213 -0.7382 -0.5732  0.3193
  169DOPC   C3420579  -0.625   2.842  16.065 -0.2993  0.5209 -0.4617
  169DOPC   H4X20580  -0.536   2.904  16.042 -0.5872  0.9247 -0.5090
  169DOPC   H4Y20581  -0.705   2.918  16.051  1.5159  2.1222 -2.9899
  169DOPC   C3520582  -0.639   2.749  15.941 -0.1498  0.2001  0.3696
  169DOPC   H5X20583  -0.704   2.663  15.967  1.1180 -1.4412 -1.4611
  169DOPC   H5Y20584  -0.539   2.701  15.925 -1.2245 -1.9770 -0.2255
  169DOPC   C3620585  -0.690   2.824  15.817 -0.2733  0.2689  0.2917
  169DOPC   H6X20586  -0.801   2.830  15.811 -0.3501 -1.7102 -1.7825
  169DOPC   H6Y20587  -0.654   2.929  15.809 -0.5407  0.4841  1.5802
  169DOPC   C3720588  -0.653   2.760  15.678  0.0060 -0.1299 -0.3499
  169DOPC   H7X20589  -0.542   2.755  15.679  0.0953  1.5274  0.4465
  169DOPC   H7Y20590  -0.697   2.657  15.678 -0.2250 -0.0780  1.8683
  169DOPC   C3820591  -0.709   2.836  15.558 -0.5025 -0.1585  0.3895
  169DOPC   H8X20592  -0.685   2.944  15.560  0.6440 -0.3943  0.0855
  169DOPC   H8Y20593  -0.819   2.830  15.575 -1.0233 -1.3723 -2.7545
  169DOPC   C3920594  -0.656   2.770  15.427  0.0814  0.0786 -0.4767
  169DOPC   H9X20595  -0.554   2.729  15.422  0.4180  1.0225 -2.4909
  169DOPC  C31020596  -0.727   2.743  15.316  0.0191  0.5425 -0.0863
  169DOPC  H10X20597  -0.666   2.685  15.245 -0.8423 -0.5258  0.0284
  169DOPC  C31120598  -0.867   2.783  15.279 -0.2883 -0.2394 -0.1676
  169DOPC  H11X20599  -0.910   2.869  15.335 -0.8654 -0.7567  0.1954
  169DOPC  H11Y20600  -0.936   2.697  15.291  0.5144 -0.9314 -0.3882
  169DOPC  C31220601  -0.880   2.831  15.133  0.3124 -0.2197  0.1372
  169DOPC  H12X20602  -0.827   2.929  15.120 -3.2610  1.5181 -2.9429
  169DOPC  H12Y20603  -0.987   2.851  15.113  0.0790 -0.4524  1.0707
  169DOPC  C31320604  -0.838   2.731  15.023 -0.3680  0.6502 -0.0277
  169DOPC  H13X20605  -0.733   2.698  15.039 -0.3642 -1.5149 -3.5383
  169DOPC  H13Y20606  -0.895   2.638  15.044 -0.8632  1.1165  0.7544
  169DOPC  C31420607  -0.872   2.777  14.880  0.1705 -1.4692  0.6311
  169DOPC  H14X20608  -0.833   2.698  14.811 -0.9179 -0.6382 -1.0172
  169DOPC  H14Y20609  -0.983   2.779  14.876  0.1614  0.1768  0.9342
  169DOPC  C31520610  -0.803   2.906  14.827  0.1460  0.3067 -0.1523
  169DOPC  H15X20611  -0.695   2.892  14.850 -0.4364 -0.5678  2.3661
  169DOPC  H15Y20612  -0.851   2.978  14.896 -3.1952 -1.6765 -0.1557
  169DOPC  C31620613  -0.822   2.934  14.678 -0.3110  0.3143 -0.8317
  169DOPC  H16X20614  -0.786   2.846  14.621 -0.2662 -2.4413  3.0937
  169DOPC  H16Y20615  -0.929   2.949  14.653 -0.7881  0.0646  0.9460
  169DOPC  C31720616  -0.735   3.058  14.647  0.1902 -0.7864 -0.7736
  169DOPC  H17X20617  -0.791   3.142  14.693 -1.0154 -1.9945  0.0392
  169DOPC  H17Y20618  -0.629   3.047  14.680  0.2786 -0.6770 -1.0185
  169DOPC  C31820619  -0.726   3.094  14.495  0.1206 -0.0981 -0.8042
  169DOPC  H18X20620  -0.698   3.007  14.431  0.0419 -0.7032 -0.0299
  169DOPC  H18Y20621  -0.819   3.145  14.463  0.5387  0.8924 -0.5024
  169DOPC  H18Z20622  -0.653   3.178  14.483  1.1500 -0.8262  0.1108
  170DOPC     N20623   4.949   6.233  16.798  0.3149 -0.6626 -0.2809
  170DOPC   C1220624   5.039   6.252  16.679 -0.9004  0.2628  0.4360
  170DOPC  H12A20625   4.995   6.190  16.602  0.7478  0.9835 -1.1272
  170DOPC  H12B20626   5.133   6.208  16.709 -0.7593 -1.0611 -1.7537
  170DOPC   C1320627   4.811   6.289  16.769 -0.0966  0.2333 -0.1688
  170DOPC  H13A20628   4.811   6.397  16.761 -1.8697  0.4559  1.9478
  170DOPC  H13B20629   4.781   6.251  16.672  1.2336 -0.0062 -0.5057
  170DOPC  H13C20630   4.743   6.253  16.844  0.9326 -0.4802  0.4453
  170DOPC   C1420631   5.013   6.306  16.911 -0.0298  0.9611 -0.7927
  170DOPC  H14A20632   5.006   6.413  16.911  0.1164  1.0350  1.9201
  170DOPC  H14B20633   4.977   6.274  17.008  0.4870  2.2581 -0.1570
  170DOPC  H14C20634   5.112   6.265  16.928 -0.9464 -1.2860 -0.4420
  170DOPC   C1520635   4.924   6.088  16.827  0.2762 -0.5272  0.1338
  170DOPC  H15A20636   4.869   6.040  16.748  0.6390  0.9066 -1.0548
  170DOPC  H15B20637   4.872   6.073  16.920 -1.4284  1.7070 -0.3690
  170DOPC  H15C20638   5.017   6.033  16.831  0.9699  0.4442 -1.5019
  170DOPC   C1120639   5.075   6.395  16.633  0.4107  0.2553  0.6589
  170DOPC  H11A20640   5.095   6.401  16.524  0.2954 -1.4282  0.5087
  170DOPC  H11B20641   4.989   6.465  16.641  0.4739  0.3807  0.2846
  170DOPC     P20642   5.331   6.413  16.672 -0.1662 -0.2481 -0.0410
  170DOPC   O1320643   5.334   6.268  16.649  0.3166  0.0737  0.3452
  170DOPC   O1420644   5.398   6.460  16.792  0.4240 -0.5193 -0.3780
  170DOPC   O1220645   5.179   6.447  16.708  0.3417 -0.1214 -0.2311
  170DOPC   O1120646   5.368   6.501  16.553  0.8718  0.2995  0.4449
  170DOPC    C120647   5.355   6.647  16.556  0.3285  0.3896  0.2277
  170DOPC    HA20648   5.455   6.692  16.572  0.6228 -0.4920  0.9717
  170DOPC    HB20649   5.283   6.688  16.630 -0.7785 -0.8242 -0.1393
  170DOPC    C220650   5.301   6.693  16.417 -0.6271 -0.3166  0.0626
  170DOPC    HS20651   5.312   6.804  16.411 -0.0861 -0.4060 -0.7222
  170DOPC   O2120652   5.164   6.655  16.405  0.0348  0.6031  0.1386
  170DOPC   C2120653   5.076   6.733  16.352 -0.4918 -0.3552  0.3868
  170DOPC   O2220654   5.097   6.855  16.332  0.4258  0.6230  0.3744
  170DOPC   C2220655   4.948   6.658  16.321 -0.0709 -0.8656  0.4421
  170DOPC   H2R20656   4.896   6.624  16.413  2.0096 -1.9575  1.3008
  170DOPC   H2S20657   4.981   6.569  16.264  0.4916 -0.1135 -0.4245
  170DOPC    C320658   5.376   6.623  16.306 -0.3943 -0.3780 -0.6533
  170DOPC    HX20659   5.372   6.514  16.328 -0.1381 -0.5477 -1.4057
  170DOPC    HY20660   5.483   6.650  16.317  0.0605 -2.5520  0.9822
  170DOPC   O3120661   5.314   6.654  16.177  0.4256 -0.2796 -0.8592
  170DOPC   C3120662   5.367   6.764  16.115  0.3972 -0.4646  0.7176
  170DOPC   O3220663   5.463   6.832  16.155  0.3695 -0.3383  0.4139
  170DOPC   C3220664   5.303   6.775  15.985 -0.1575 -0.0196 -0.2377
  170DOPC   H2X20665   5.325   6.683  15.927 -0.7959 -0.7732  0.6975
  170DOPC   H2Y20666   5.194   6.765  16.003  0.2152 -1.6450  1.3433
  170DOPC   C2320667   4.849   6.740  16.233  0.2376 -0.7292  0.2168
  170DOPC   H3R20668   4.810   6.834  16.277  0.4762 -0.3250 -0.4162
  170DOPC   H3S20669   4.761   6.672  16.231 -0.0783 -0.3952  1.7229
  170DOPC   C2420670   4.897   6.787  16.088  0.3292 -0.4654  0.4590
  170DOPC   H4R20671   4.950   6.710  16.029 -0.7275 -1.2788  0.5456
  170DOPC   H4S20672   4.963   6.873  16.113 -1.6147  0.9450  1.0667
  170DOPC   C2520673   4.781   6.851  16.006  0.1785 -1.0234  0.4961
  170DOPC   H5R20674   4.730   6.930  16.064 -0.5995 -1.7283  0.7995
  170DOPC   H5S20675   4.704   6.771  15.998 -2.0276  0.7934  2.1956
  170DOPC   C2620676   4.827   6.912  15.872 -0.3430  0.0154 -0.5205
  170DOPC   H6R20677   4.922   6.969  15.880 -1.9239  2.8492 -0.6588
  170DOPC   H6S20678   4.766   6.998  15.837  1.9371  0.6889 -3.1589
  170DOPC   C2720679   4.854   6.808  15.766 -0.1556 -0.0439 -0.6205
  170DOPC   H7R20680   4.786   6.721  15.764  0.1716 -0.3081 -3.7037
  170DOPC   H7S20681   4.954   6.764  15.790 -0.2262  0.5835  0.9344
  170DOPC   C2820682   4.852   6.857  15.619  0.0927  0.1703 -0.7146
  170DOPC   H8R20683   4.923   6.935  15.585 -1.5009  1.1472 -1.8711
  170DOPC   H8S20684   4.752   6.903  15.607  0.1111  0.7161  0.8889
  170DOPC   C2920685   4.874   6.742  15.520  0.8722  1.0457 -0.1656
  170DOPC   H9R20686   4.943   6.659  15.545  1.8964  2.4581  2.0584
  170DOPC  C21020687   4.796   6.728  15.406  0.3073  0.5805 -0.6339
  170DOPC  H10R20688   4.830   6.642  15.347  1.6843 -0.0104  0.9412
  170DOPC  C21120689   4.680   6.812  15.348 -0.0433  0.1650  0.0314
  170DOPC  H11R20690   4.633   6.877  15.425  0.4561  0.2561  0.2601
  170DOPC  H11S20691   4.601   6.751  15.300  0.7594  0.0928 -1.2484
  170DOPC  C21220692   4.739   6.904  15.241 -0.0114  0.3758 -0.8072
  170DOPC  H12R20693   4.839   6.942  15.271 -1.0619  0.1720  3.6011
  170DOPC  H12S20694   4.668   6.988  15.225 -1.1862  0.0288  2.0740
  170DOPC  C21320695   4.730   6.840  15.105  0.4509  0.1226 -0.1950
  170DOPC  H13R20696   4.637   6.779  15.101  0.8128 -0.6124  1.4094
  170DOPC  H13S20697   4.820   6.775  15.101 -0.0401 -0.5044 -1.7388
  170DOPC  C21420698   4.739   6.948  14.998 -0.5062 -0.1618  0.4354
  170DOPC  H14R20699   4.845   6.980  15.002 -0.3410 -0.4962 -0.8329
  170DOPC  H14S20700   4.663   7.021  15.032 -0.7082 -0.2973  0.2726
  170DOPC  C21520701   4.702   6.892  14.860  0.3172 -0.5058 -0.1028
  170DOPC  H15R20702   4.598   6.852  14.866 -1.0635  2.2026 -2.9726
  170DOPC  H15S20703   4.776   6.814  14.834  0.6835 -0.6391  1.2457
  170DOPC  C21620704   4.692   6.998  14.756 -0.8505 -0.3216  0.7310
  170DOPC  H16R20705   4.790   7.050  14.764 -0.4590 -1.0038  0.4312
  170DOPC  H16S20706   4.612   7.072  14.776 -1.2615 -0.9163  1.3408
  170DOPC  C21720707   4.689   6.946  14.613  0.6463 -0.2352  0.3586
  170DOPC  H17R20708   4.598   6.883  14.599  0.3846  0.5320 -1.9496
  170DOPC  H17S20709   4.783   6.890  14.598  2.5329  3.0298 -0.9674
  170DOPC  C21820710   4.690   7.056  14.511 -0.4928  0.5845 -0.2622
  170DOPC  H18R20711   4.595   7.113  14.516 -0.2073  1.6853 -4.0471
  170DOPC  H18S20712   4.695   7.020  14.406 -2.7544  0.1493 -0.2789
  170DOPC  H18T20713   4.776   7.124  14.528 -0.4975  0.2554  1.1622
  170DOPC   C3320714   5.349   6.904  15.911  0.5732  0.2559 -0.5469
  170DOPC   H3X20715   5.459   6.906  15.892  0.3591  0.4426 -1.8175
  170DOPC   H3Y20716   5.318   6.988  15.978 -2.0936  1.1462 -2.7299
  170DOPC   C3420717   5.274   6.923  15.773 -0.7438  0.3564 -1.1006
  170DOPC   H4X20718   5.238   7.027  15.776  0.8674  0.9362 -0.6569
  170DOPC   H4Y20719   5.184   6.858  15.766 -0.5043  0.0769 -1.6459
  170DOPC   C3520720   5.361   6.889  15.646  0.1123  0.0876  0.6085
  170DOPC   H5X20721   5.381   6.780  15.655 -0.0744  0.1376  1.7053
  170DOPC   H5Y20722   5.444   6.964  15.644 -0.6844  0.9930 -1.0063
  170DOPC   C3620723   5.288   6.911  15.511  0.0101 -0.8182  0.5205
  170DOPC   H6X20724   5.193   6.854  15.521  0.7600 -2.2528 -0.2951
  170DOPC   H6Y20725   5.261   7.018  15.504 -1.3760 -1.1675  0.2832
  170DOPC   C3720726   5.363   6.866  15.383  0.0650  0.6888 -0.2063
  170DOPC   H7X20727   5.467   6.903  15.373  0.2084  0.6318  1.0101
  170DOPC   H7Y20728   5.376   6.756  15.390 -0.5193  0.6806  0.8910
  170DOPC   C3820729   5.293   6.901  15.253  0.4146 -0.2107 -0.2958
  170DOPC   H8X20730   5.252   7.004  15.245 -2.1487 -0.9015  2.4223
  170DOPC   H8Y20731   5.201   6.840  15.264  0.4202 -0.2295 -0.3505
  170DOPC   C3920732   5.372   6.855  15.133 -0.6737 -0.1194 -0.2050
  170DOPC   H9X20733   5.461   6.916  15.113 -0.3579 -0.3148  0.5989
  170DOPC  C31020734   5.344   6.753  15.048 -0.9786 -0.0841 -0.1487
  170DOPC  H10X20735   5.406   6.732  14.959  1.1757  0.5664  1.1473
  170DOPC  C31120736   5.219   6.660  15.046  0.3714  0.3948  0.1568
  170DOPC  H11X20737   5.176   6.660  15.148 -1.2133 -1.9488 -0.4392
  170DOPC  H11Y20738   5.261   6.558  15.032  1.5850  1.1356 -2.1785
  170DOPC  C31220739   5.106   6.695  14.949 -0.1482 -0.2675  0.8207
  170DOPC  H12X20740   5.068   6.797  14.970 -0.4437 -0.3925  0.8993
  170DOPC  H12Y20741   5.020   6.632  14.981 -0.2182 -0.0588  1.0485
  170DOPC  C31320742   5.154   6.669  14.806 -0.3093  0.2197 -0.5050
  170DOPC  H13X20743   5.227   6.748  14.779 -0.8229  1.4331  1.4335
  170DOPC  H13Y20744   5.215   6.576  14.801  0.7522  0.8334  0.6825
  170DOPC  C31420745   5.033   6.653  14.704 -0.0130 -0.5702  0.1017
  170DOPC  H14X20746   4.947   6.608  14.759  0.8095 -2.4478 -0.0612
  170DOPC  H14Y20747   5.002   6.757  14.680 -0.8837 -1.3087 -2.2827
  170DOPC  C31520748   5.070   6.575  14.578 -0.4686 -0.9410 -0.3516
  170DOPC  H15X20749   5.114   6.479  14.613 -2.0333 -1.9104 -0.8977
  170DOPC  H15Y20750   5.155   6.618  14.522  0.5216 -1.4835  0.6926
  170DOPC  C31620751   4.959   6.545  14.480  0.6904 -0.0499 -0.4856
  170DOPC  H16X20752   5.006   6.487  14.398  0.8800  1.5788 -1.5836
  170DOPC  H16Y20753   4.881   6.478  14.522  1.6350  0.8146  2.8975
  170DOPC  C31720754   4.900   6.665  14.412  0.2831 -0.6211  0.0617
  170DOPC  H17X20755   4.906   6.752  14.481 -1.0930 -1.5060  1.3823
  170DOPC  H17Y20756   4.962   6.703  14.328 -0.5394  2.3863  0.6927
  170DOPC  C31820757   4.755   6.656  14.352 -0.0365 -0.1541 -0.0348
  170DOPC  H18X20758   4.720   6.750  14.304  0.8203  0.2758  0.1607
  170DOPC  H18Y20759   4.738   6.582  14.271 -0.6592 -0.9022  0.7637
  170DOPC  H18Z20760   4.693   6.618  14.437  0.1668  0.3591  0.3455
  171DOPC     N20761   4.357   3.832  12.262 -0.6286 -0.4988 -0.2460
  171DOPC   C1220762   4.350   3.928  12.381 -0.2386 -0.7726  0.1595
  171DOPC  H12A20763   4.253   3.974  12.382  0.4064  0.6330  0.1770
  171DOPC  H12B20764   4.425   4.005  12.370  0.7755 -0.9183  4.3161
  171DOPC   C1320765   4.319   3.899  12.133 -0.4195  0.3800 -0.9652
  171DOPC  H13A20766   4.228   3.957  12.145  0.0628  1.6557 -2.9743
  171DOPC  H13B20767   4.393   3.970  12.100 -1.7210  2.8147  0.9572
  171DOPC  H13C20768   4.296   3.829  12.055  1.3866 -0.9726 -0.3512
  171DOPC   C1420769   4.270   3.710  12.282 -0.1876  0.2782 -0.2614
  171DOPC  H14A20770   4.165   3.736  12.278 -1.0809 -2.8105  0.5653
  171DOPC  H14B20771   4.292   3.638  12.205 -0.4322  1.6389 -1.6713
  171DOPC  H14C20772   4.282   3.664  12.379  4.0077  2.5572  0.5602
  171DOPC   C1520773   4.504   3.783  12.250 -0.1665 -0.2482  0.0556
  171DOPC  H15A20774   4.517   3.703  12.178 -1.6641  0.0315 -0.5675
  171DOPC  H15B20775   4.536   3.754  12.348 -1.8639  1.9447  1.3637
  171DOPC  H15C20776   4.563   3.869  12.220  0.0179 -0.6731 -0.8282
  171DOPC   C1120777   4.369   3.876  12.523 -0.3310  0.3145 -0.1877
  171DOPC  H11A20778   4.355   3.967  12.585  1.0817 -0.1912  0.9233
  171DOPC  H11B20779   4.281   3.810  12.544 -0.8762  1.0338 -0.1869
  171DOPC     P20780   4.514   3.699  12.660 -0.2846 -0.2396 -0.0323
  171DOPC   O1320781   4.626   3.619  12.611 -0.2616 -0.2840  0.1086
  171DOPC   O1420782   4.391   3.626  12.670 -0.2559 -0.0391 -0.1158
  171DOPC   O1220783   4.496   3.820  12.548  0.0777 -0.2733  0.4208
  171DOPC   O1120784   4.552   3.770  12.795 -0.0412 -0.1980  0.3523
  171DOPC    C120785   4.637   3.882  12.809  0.2967 -0.1760 -0.3036
  171DOPC    HA20786   4.569   3.968  12.828  1.3781  0.7231 -0.4255
  171DOPC    HB20787   4.699   3.906  12.720  0.0860 -2.1102 -1.0114
  171DOPC    C220788   4.743   3.869  12.925 -0.8562  0.2221 -0.3489
  171DOPC    HS20789   4.795   3.967  12.932 -1.0076  0.2657  0.2950
  171DOPC   O2120790   4.837   3.766  12.913 -0.1318  0.3200  0.2225
  171DOPC   C2120791   4.912   3.745  12.808  0.4570  0.2006 -0.7637
  171DOPC   O2220792   4.919   3.807  12.708  0.0979 -0.9008  0.1970
  171DOPC   C2220793   5.018   3.639  12.832 -0.3995  0.4482 -0.3531
  171DOPC   H2R20794   5.090   3.645  12.748  0.7927  2.1244  0.7436
  171DOPC   H2S20795   4.967   3.540  12.843  0.9539 -0.1148  1.1080
  171DOPC    C320796   4.665   3.849  13.054  0.8427  0.5145 -0.1507
  171DOPC    HX20797   4.609   3.753  13.059  2.1911 -0.2414  1.4372
  171DOPC    HY20798   4.574   3.913  13.062 -0.3078 -1.0080 -0.4488
  171DOPC   O3120799   4.750   3.855  13.167 -0.2383 -0.1623 -0.0588
  171DOPC   C3120800   4.744   3.964  13.238 -0.5264 -0.0178 -0.1544
  171DOPC   O3220801   4.678   4.063  13.216  0.0934 -0.3490 -0.1536
  171DOPC   C3220802   4.809   3.942  13.375 -0.6422  0.0148  0.7973
  171DOPC   H2X20803   4.770   3.845  13.415  4.2335 -2.8747 -0.6524
  171DOPC   H2Y20804   4.916   3.931  13.350 -1.2634 -2.9169 -1.0797
  171DOPC   C2320805   5.096   3.663  12.964 -0.1108  0.5242  0.5600
  171DOPC   H3R20806   5.145   3.762  12.966  3.1530 -0.9740  1.2605
  171DOPC   H3S20807   5.188   3.601  12.961 -1.1206 -1.0231 -1.8669
  171DOPC   C2420808   5.033   3.645  13.105  0.5325 -0.2033  0.9446
  171DOPC   H4R20809   4.998   3.540  13.114 -1.8561  0.4680  0.2959
  171DOPC   H4S20810   4.942   3.708  13.110  0.4041 -0.1596 -1.2162
  171DOPC   C2520811   5.118   3.687  13.218  0.3398 -0.0709 -0.6926
  171DOPC   H5R20812   5.136   3.797  13.215  0.0760 -0.0418 -1.3145
  171DOPC   H5S20813   5.214   3.631  13.225 -0.4987 -1.5668 -0.8850
  171DOPC   C2620814   5.044   3.654  13.353  0.0463 -0.5708  0.1794
  171DOPC   H6R20815   5.028   3.544  13.362 -2.8362 -0.7154 -3.9927
  171DOPC   H6S20816   4.942   3.699  13.357  0.7124  1.0601 -0.3529
  171DOPC   C2720817   5.114   3.712  13.471 -0.1597  0.4977 -0.4505
  171DOPC   H7R20818   5.103   3.822  13.463  0.2536  0.6232  0.5891
  171DOPC   H7S20819   5.219   3.677  13.482 -1.0471 -2.1888  0.2217
  171DOPC   C2820820   5.046   3.666  13.604 -0.1407 -0.3301  0.2732
  171DOPC   H8R20821   5.057   3.556  13.590  0.0722 -0.0647 -2.0252
  171DOPC   H8S20822   4.940   3.699  13.591  0.3551  0.8917 -0.8913
  171DOPC   C2920823   5.104   3.712  13.736  0.5325 -0.1286  0.0432
  171DOPC   H9R20824   5.111   3.821  13.752 -0.7316 -0.2745  1.7607
  171DOPC  C21020825   5.150   3.637  13.836 -0.0537  0.2307 -0.0344
  171DOPC  H10R20826   5.173   3.682  13.934  1.6409 -0.4975 -0.0631
  171DOPC  C21120827   5.138   3.488  13.843  0.2264  0.5223  0.8285
  171DOPC  H11R20828   5.226   3.440  13.794 -0.9854 -0.7011 -0.2137
  171DOPC  H11S20829   5.049   3.455  13.787 -0.0786 -2.3641  2.7836
  171DOPC  C21220830   5.109   3.428  13.985 -0.0026 -0.0269  0.7953
  171DOPC  H12R20831   5.095   3.321  13.960 -0.2791  0.6884 -2.5834
  171DOPC  H12S20832   5.018   3.472  14.033  0.2761 -0.4120  1.6988
  171DOPC  C21320833   5.226   3.438  14.080 -0.4100  0.3537 -0.0618
  171DOPC  H13R20834   5.319   3.464  14.024  0.1023  0.3727  0.7858
  171DOPC  H13S20835   5.239   3.342  14.134 -0.7497  0.0320 -0.5399
  171DOPC  C21420836   5.219   3.543  14.196 -0.3998 -0.1831  0.0515
  171DOPC  H14R20837   5.123   3.543  14.253 -0.8854 -0.9203 -0.7315
  171DOPC  H14S20838   5.231   3.645  14.155  0.1727  0.1054  0.9062
  171DOPC  C21520839   5.353   3.531  14.276  0.4704 -0.2572  1.4178
  171DOPC  H15R20840   5.431   3.544  14.197 -1.0650  0.4873 -0.0318
  171DOPC  H15S20841   5.362   3.429  14.319 -0.0383 -0.7810  0.3113
  171DOPC  C21620842   5.370   3.635  14.383  0.6931  0.5415 -0.8725
  171DOPC  H16R20843   5.296   3.618  14.464 -1.7229 -2.9697 -3.4992
  171DOPC  H16S20844   5.348   3.734  14.338  1.1249  0.4267 -1.3438
  171DOPC  C21720845   5.496   3.626  14.453 -0.2771 -0.7721  0.3829
  171DOPC  H17R20846   5.577   3.628  14.378 -0.7758 -2.1285 -0.2419
  171DOPC  H17S20847   5.503   3.536  14.518  0.4371 -3.1198 -2.6704
  171DOPC  C21820848   5.520   3.751  14.532  0.2891  0.0219 -0.0075
  171DOPC  H18R20849   5.525   3.838  14.463 -0.6427  1.1851  1.3355
  171DOPC  H18S20850   5.621   3.743  14.579  1.1480 -0.0801 -1.7996
  171DOPC  H18T20851   5.439   3.782  14.602 -0.0573  0.1852 -0.4740
  171DOPC   C3320852   4.780   4.051  13.481  0.6222 -0.1375 -0.2520
  171DOPC   H3X20853   4.673   4.078  13.470  0.1351 -2.5810 -2.5309
  171DOPC   H3Y20854   4.845   4.139  13.462 -0.0689  0.0766 -1.7745
  171DOPC   C3420855   4.808   4.011  13.628 -0.0081 -0.1853  0.1198
  171DOPC   H4X20856   4.917   3.992  13.629 -0.2349 -1.6079  1.6693
  171DOPC   H4Y20857   4.739   3.925  13.645 -1.9672  1.1987 -0.4672
  171DOPC   C3520858   4.773   4.117  13.740 -0.1700  0.2400  0.8964
  171DOPC   H5X20859   4.663   4.126  13.744 -0.7773 -4.9999  1.6244
  171DOPC   H5Y20860   4.817   4.212  13.702 -1.0311  0.6388  0.8772
  171DOPC   C3620861   4.831   4.078  13.878  0.2307 -0.4594 -0.2260
  171DOPC   H6X20862   4.941   4.062  13.873  0.1720 -1.1737  0.5822
  171DOPC   H6Y20863   4.817   4.156  13.956 -1.7394 -1.7966  0.8274
  171DOPC   C3720864   4.737   3.966  13.937  0.0606  0.4513 -0.9273
  171DOPC   H7X20865   4.632   4.001  13.926 -0.3307 -1.0347 -2.4808
  171DOPC   H7Y20866   4.741   3.884  13.861 -3.2322  0.7261 -1.5359
  171DOPC   C3820867   4.772   3.901  14.076  0.6251  0.4465  0.5091
  171DOPC   H8X20868   4.790   3.986  14.145  0.7172  2.0420 -1.4030
  171DOPC   H8Y20869   4.863   3.838  14.066  0.9875  0.9858  0.3835
  171DOPC   C3920870   4.660   3.811  14.108  0.0018 -0.1651  0.3388
  171DOPC   H9X20871   4.646   3.732  14.032 -1.1266  1.1706 -0.8979
  171DOPC  C31020872   4.601   3.803  14.228  0.1039  0.1194  0.5583
  171DOPC  H10X20873   4.514   3.735  14.225  0.5454 -0.4105 -1.4968
  171DOPC  C31120874   4.618   3.875  14.354 -0.3993 -0.1781  0.2390
  171DOPC  H11X20875   4.724   3.902  14.372 -0.4505 -0.4689  0.9739
  171DOPC  H11Y20876   4.587   3.809  14.437 -0.6100  0.5827  0.7824
  171DOPC  C31220877   4.541   3.997  14.361  0.2722  0.4843  0.6815
  171DOPC  H12X20878   4.433   3.980  14.339  0.2462  2.3292 -0.8558
  171DOPC  H12Y20879   4.558   4.077  14.285 -2.6432  0.5671  0.0029
  171DOPC  C31320880   4.546   4.069  14.502 -0.2065  0.1187  0.3505
  171DOPC  H13X20881   4.506   3.999  14.579 -0.0535  0.6898  0.9577
  171DOPC  H13Y20882   4.655   4.079  14.522  0.3437 -0.5942 -2.0282
  171DOPC  C31420883   4.479   4.209  14.494 -0.4138 -0.2402  0.5128
  171DOPC  H14X20884   4.522   4.272  14.412 -1.2529  1.6567  1.4747
  171DOPC  H14Y20885   4.369   4.200  14.482 -0.6533 -0.0481  2.3001
  171DOPC  C31520886   4.508   4.285  14.627  0.6119 -0.0100 -0.0982
  171DOPC  H15X20887   4.433   4.366  14.642 -1.9657 -2.4490  1.2584
  171DOPC  H15Y20888   4.612   4.315  14.648 -0.0560  1.3172  1.4793
  171DOPC  C31620889   4.484   4.196  14.751 -0.6094  0.1090  0.3461
  171DOPC  H16X20890   4.558   4.113  14.746 -0.4662  0.3026 -1.6175
  171DOPC  H16Y20891   4.505   4.267  14.834  0.9812  2.1362 -1.6620
  171DOPC  C31720892   4.345   4.144  14.769 -0.6260  0.2485  0.3102
  171DOPC  H17X20893   4.324   4.050  14.712 -1.4450  1.1043 -0.8404
  171DOPC  H17Y20894   4.335   4.113  14.876 -0.7375  1.0703  0.5422
  171DOPC  C31820895   4.230   4.241  14.745  0.1224 -0.1682 -0.5454
  171DOPC  H18X20896   4.229   4.279  14.641  0.8448 -1.7659 -1.1625
  171DOPC  H18Y20897   4.132   4.196  14.771  0.5589  0.0018  1.5641
  171DOPC  H18Z20898   4.247   4.330  14.809  1.4109 -0.0789 -0.9716
  172DOPC     N20899   4.485   5.309  12.029 -0.1426  0.0018  0.5045
  172DOPC   C1220900   4.370   5.296  12.128  0.2000  0.4483  0.4066
  172DOPC  H12A20901   4.335   5.194  12.130 -1.5286  1.0059  2.2708
  172DOPC  H12B20902   4.294   5.367  12.100  0.8603  2.3265  2.9563
  172DOPC   C1320903   4.563   5.181  12.040  0.7325 -0.0813 -0.1043
  172DOPC  H13A20904   4.509   5.094  12.007 -1.4676  0.7267  1.1470
  172DOPC  H13B20905   4.659   5.188  11.991  0.6563  1.7959 -0.0446
  172DOPC  H13C20906   4.596   5.177  12.143  1.4374 -1.0540 -0.3504
  172DOPC   C1420907   4.568   5.419  12.072  0.1243 -0.8504  0.3917
  172DOPC  H14A20908   4.586   5.402  12.177 -1.7358 -0.4727  0.8032
  172DOPC  H14B20909   4.661   5.425  12.017  0.6529 -1.0151  1.2482
  172DOPC  H14C20910   4.525   5.517  12.058  3.0113  0.4812  0.0291
  172DOPC   C1520911   4.446   5.325  11.883  0.0181 -0.0793  0.1076
  172DOPC  H15A20912   4.532   5.338  11.818  0.0646  0.9535  0.3645
  172DOPC  H15B20913   4.384   5.413  11.880  0.0632  0.0314  1.6232
  172DOPC  H15C20914   4.390   5.235  11.860  2.1260 -1.6838  0.8433
  172DOPC   C1120915   4.413   5.330  12.275 -0.4612 -0.5404  0.1242
  172DOPC  H11A20916   4.430   5.439  12.290 -1.5196 -0.3936  0.3168
  172DOPC  H11B20917   4.326   5.315  12.342 -1.1159  0.5498 -0.4349
  172DOPC     P20918   4.510   5.116  12.398  0.2235 -0.1699 -0.1509
  172DOPC   O1320919   4.508   5.006  12.299  0.1873  0.1415  0.4652
  172DOPC   O1420920   4.405   5.125  12.501  0.5110 -0.4660 -0.1440
  172DOPC   O1220921   4.523   5.250  12.323 -0.3770 -0.3568  0.2093
  172DOPC   O1120922   4.657   5.122  12.460  0.1567 -0.2600 -0.3470
  172DOPC    C120923   4.771   5.154  12.376  0.0521 -0.6223 -0.0057
  172DOPC    HA20924   4.850   5.185  12.448  0.7449 -0.9262 -0.6152
  172DOPC    HB20925   4.753   5.226  12.294 -1.8636 -2.0656 -0.9373
  172DOPC    C220926   4.844   5.030  12.313  0.2966  0.1965  0.0011
  172DOPC    HS20927   4.779   5.003  12.227 -2.7623  2.6451  1.3231
  172DOPC   O2120928   4.852   4.929  12.418 -0.5477  0.1492  0.1324
  172DOPC   C2120929   4.864   4.805  12.369 -0.1930 -0.7130  0.0014
  172DOPC   O2220930   4.871   4.783  12.248 -0.2096  0.5394 -0.9092
  172DOPC   C2220931   4.847   4.711  12.483 -0.1980  0.7584  0.5682
  172DOPC   H2R20932   4.737   4.702  12.493 -0.1246 -0.5788  0.3416
  172DOPC   H2S20933   4.891   4.751  12.578  0.9593 -2.7528  1.6590
  172DOPC    C320934   4.981   5.065  12.260 -0.0172  0.3637 -0.0351
  172DOPC    HX20935   4.961   5.154  12.196  0.5765  1.9636  1.9127
  172DOPC    HY20936   5.026   4.980  12.205 -0.8465 -0.8036  1.0437
  172DOPC   O3120937   5.065   5.112  12.369  0.1854 -0.2259 -0.3017
  172DOPC   C3120938   5.140   5.017  12.431  0.1799  0.0435  0.3986
  172DOPC   O3220939   5.164   4.905  12.391  0.1455  0.1804  0.0605
  172DOPC   C3220940   5.200   5.069  12.558  0.2293  0.3182 -0.2293
  172DOPC   H2X20941   5.188   4.988  12.634 -0.3285  0.5263 -0.0867
  172DOPC   H2Y20942   5.304   5.099  12.535  0.2291  0.2882 -0.2691
  172DOPC   C2320943   4.929   4.579  12.458  0.5413  0.1378  0.4396
  172DOPC   H3R20944   4.887   4.526  12.369  0.6733  0.7136  0.0274
  172DOPC   H3S20945   4.911   4.523  12.552 -0.6864  1.2462  0.8983
  172DOPC   C2420946   5.077   4.590  12.440 -0.0464 -0.4891 -0.4891
  172DOPC   H4R20947   5.090   4.669  12.364  0.5936  0.1985  0.3193
  172DOPC   H4S20948   5.120   4.496  12.398 -0.5079 -0.7534 -0.3797
  172DOPC   C2520949   5.149   4.637  12.570 -0.1088 -0.6136  1.1929
  172DOPC   H5R20950   5.136   4.560  12.649  1.9701 -0.1018  2.0917
  172DOPC   H5S20951   5.119   4.741  12.594  3.0555  0.2747  1.6807
  172DOPC   C2620952   5.301   4.656  12.557 -0.3371 -0.8825  0.0596
  172DOPC   H6R20953   5.328   4.742  12.493 -2.3074  0.0121  0.3508
  172DOPC   H6S20954   5.351   4.572  12.504 -2.2483 -2.9612  1.3342
  172DOPC   C2720955   5.367   4.669  12.703  0.4907 -0.1817  0.2837
  172DOPC   H7R20956   5.325   4.581  12.757 -2.7168  0.3326 -1.1475
  172DOPC   H7S20957   5.321   4.760  12.745 -2.1323 -0.8572 -0.8984
  172DOPC   C2820958   5.514   4.687  12.704  0.3668 -0.2760 -0.2815
  172DOPC   H8R20959   5.543   4.715  12.807  0.7824 -0.0728 -0.4534
  172DOPC   H8S20960   5.530   4.776  12.640 -1.7293  0.2072 -0.1860
  172DOPC   C2920961   5.598   4.577  12.641  0.5238 -0.1463 -0.3012
  172DOPC   H9R20962   5.614   4.597  12.534  0.8794 -2.7497 -0.8006
  172DOPC  C21020963   5.635   4.463  12.698 -0.2684  0.0938  0.4381
  172DOPC  H10R20964   5.700   4.400  12.636 -1.3925 -1.5241  0.8359
  172DOPC  C21120965   5.601   4.423  12.841 -0.8266  0.3610 -0.3229
  172DOPC  H11R20966   5.531   4.338  12.834 -0.6139  0.2047 -0.5797
  172DOPC  H11S20967   5.543   4.497  12.901  0.3325  0.1025  1.2026
  172DOPC  C21220968   5.709   4.356  12.924  0.6996  0.2044 -0.4251
  172DOPC  H12R20969   5.782   4.434  12.954  0.9958 -0.0369 -0.5010
  172DOPC  H12S20970   5.770   4.278  12.873 -0.0475 -2.2513  2.1759
  172DOPC  C21320971   5.649   4.292  13.049 -0.3657  0.0815 -0.4243
  172DOPC  H13R20972   5.587   4.207  13.014  2.2922 -1.8691 -0.6357
  172DOPC  H13S20973   5.607   4.373  13.114  1.1462  1.6988 -1.3883
  172DOPC  C21420974   5.765   4.228  13.131  0.0531  0.2546 -0.7934
  172DOPC  H14R20975   5.829   4.308  13.173 -0.4434  0.0640  0.3525
  172DOPC  H14S20976   5.838   4.162  13.079  0.4315 -0.3847  0.5024
  172DOPC  C21520977   5.707   4.153  13.258 -0.3577  0.0837  0.2930
  172DOPC  H15R20978   5.664   4.058  13.218 -1.9198  0.8613  0.0845
  172DOPC  H15S20979   5.618   4.209  13.294 -2.0744 -1.6141 -1.0948
  172DOPC  C21620980   5.804   4.127  13.371  0.2505 -0.2579  0.4743
  172DOPC  H16R20981   5.867   4.214  13.399  0.9243  0.0120 -1.6958
  172DOPC  H16S20982   5.878   4.054  13.332 -0.2506  0.0683 -1.1535
  172DOPC  C21720983   5.728   4.065  13.488 -0.0135  0.3556 -0.2883
  172DOPC  H17R20984   5.684   3.964  13.472 -0.9610  0.9330 -1.5813
  172DOPC  H17S20985   5.646   4.133  13.519  1.6833  1.6231  1.6504
  172DOPC  C21820986   5.821   4.067  13.611 -0.0817  0.3727  0.2902
  172DOPC  H18R20987   5.872   4.166  13.615  0.2602  0.1588  2.5624
  172DOPC  H18S20988   5.893   3.983  13.611 -0.2981  0.0981 -2.5339
  172DOPC  H18T20989   5.775   4.069  13.712  0.8594 -0.9545  0.7744
  172DOPC   C3320990   5.117   5.190  12.606  0.0848  0.8198  0.6073
  172DOPC   H3X20991   5.011   5.162  12.622  0.2833 -1.4932 -1.4613
  172DOPC   H3Y20992   5.110   5.269  12.529 -1.1768  1.2774  1.1671
  172DOPC   C3420993   5.174   5.253  12.734  0.4085 -0.7651  0.5711
  172DOPC   H4X20994   5.101   5.331  12.764  0.4424 -0.7083  0.5051
  172DOPC   H4Y20995   5.271   5.299  12.706  0.6844 -0.6530  1.6704
  172DOPC   C3520996   5.189   5.157  12.850 -0.1250  0.4088 -0.9429
  172DOPC   H5X20997   5.277   5.089  12.840 -1.8069 -1.8417 -1.0454
  172DOPC   H5Y20998   5.101   5.090  12.851  1.1424 -1.3172 -0.4684
  172DOPC   C3620999   5.193   5.234  12.986  0.1090  0.2657 -0.4580
  172DOPC   H6X21000   5.288   5.293  12.989  0.7156 -0.6107 -1.7050
  172DOPC   H6Y21001   5.108   5.305  12.986  0.5293  0.8093 -2.2468
  172DOPC   C3721002   5.193   5.132  13.100 -0.1858 -0.3192  0.2780
  172DOPC   H7X21003   5.092   5.086  13.103  0.8914 -2.8507 -0.2977
  172DOPC   H7Y21004   5.268   5.056  13.072  0.0505  0.7308 -2.2046
  172DOPC   C3821005   5.235   5.172  13.240  0.2863  0.1503  0.4746
  172DOPC   H8X21006   5.157   5.244  13.270  0.2489  0.1641  0.3462
  172DOPC   H8Y21007   5.336   5.220  13.237  1.5062 -2.2097  0.9902
  172DOPC   C3921008   5.237   5.065  13.350 -0.0170  0.5606 -0.1138
  172DOPC   H9X21009   5.163   4.991  13.317  0.0161  1.4426 -2.3217
  172DOPC  C31021010   5.300   5.075  13.468 -0.7194  0.5088  1.0532
  172DOPC  H10X21011   5.272   5.006  13.549 -0.5125 -0.0265  0.6723
  172DOPC  C31121012   5.388   5.187  13.514  0.6409  0.2583 -0.4905
  172DOPC  H11X21013   5.350   5.283  13.473 -0.6466 -0.0715 -0.1072
  172DOPC  H11Y21014   5.488   5.183  13.466 -0.1357  0.3453 -2.2151
  172DOPC  C31221015   5.425   5.190  13.664  1.0784 -0.0298  0.1919
  172DOPC  H12X21016   5.514   5.252  13.689  1.2278 -0.3672  0.4984
  172DOPC  H12Y21017   5.445   5.088  13.703  1.3955 -0.3966 -0.8768
  172DOPC  C31321018   5.319   5.261  13.744  0.4542 -0.5199  0.7374
  172DOPC  H13X21019   5.320   5.359  13.692 -0.3722 -1.3608 -0.9231
  172DOPC  H13Y21020   5.216   5.223  13.725  0.4389 -0.1332  0.0001
  172DOPC  C31421021   5.358   5.255  13.890  0.4164 -0.3927  0.8700
  172DOPC  H14X21022   5.362   5.150  13.924  1.2690 -0.6432  0.0487
  172DOPC  H14Y21023   5.464   5.287  13.904 -0.0310  0.8206  1.6784
  172DOPC  C31521024   5.252   5.339  13.967  0.0978  0.2852  0.2018
  172DOPC  H15X21025   5.149   5.307  13.941  0.6031 -1.1251 -0.1917
  172DOPC  H15Y21026   5.264   5.443  13.932  1.2315 -0.9847 -3.7526
  172DOPC  C31621027   5.277   5.330  14.120  0.0276 -0.5449  0.0203
  172DOPC  H16X21028   5.384   5.331  14.149  0.3177 -0.1127 -1.0100
  172DOPC  H16Y21029   5.242   5.427  14.160 -0.0057  0.1996 -1.7425
  172DOPC  C31721030   5.191   5.221  14.187 -0.3014 -0.3044  0.4044
  172DOPC  H17X21031   5.085   5.251  14.173 -1.3926 -1.6777  4.2715
  172DOPC  H17Y21032   5.211   5.132  14.123 -0.9896  1.1440 -1.9093
  172DOPC  C31821033   5.214   5.194  14.332 -1.0476  0.1392 -0.0368
  172DOPC  H18X21034   5.212   5.284  14.398  0.9522 -0.7926  1.4038
  172DOPC  H18Y21035   5.145   5.117  14.370  0.8886 -2.0918 -0.8178
  172DOPC  H18Z21036   5.317   5.153  14.345 -1.0839  0.1527  0.3057
  173DOPC     N21037   2.831   3.673  12.473 -0.1089 -0.0675 -0.3483
  173DOPC   C1221038   2.893   3.737  12.596  0.1733 -0.1880 -0.3239
  173DOPC  H12A21039   2.861   3.696  12.691  1.1911 -1.0799 -0.3541
  173DOPC  H12B21040   2.842   3.830  12.617  1.2688  0.1655  0.9505
  173DOPC   C1321041   2.684   3.663  12.500  0.3395 -0.0400 -0.1079
  173DOPC  H13A21042   2.649   3.581  12.439 -0.5136  0.3912 -0.2196
  173DOPC  H13B21043   2.651   3.625  12.595 -2.8707  1.0962 -0.6594
  173DOPC  H13C21044   2.621   3.745  12.469 -0.7401 -0.0156  1.9870
  173DOPC   C1421045   2.884   3.535  12.464 -0.1428  0.1931  0.0818
  173DOPC  H14A21046   2.992   3.533  12.463 -0.0945 -1.5565  1.9267
  173DOPC  H14B21047   2.857   3.482  12.554 -1.0826 -0.9808 -0.8586
  173DOPC  H14C21048   2.851   3.477  12.379  1.3510 -1.5249  0.6129
  173DOPC   C1521049   2.853   3.744  12.354  0.0165  0.0006 -0.2627
  173DOPC  H15A21050   2.959   3.760  12.341 -0.1602  1.4354 -0.1515
  173DOPC  H15B21051   2.810   3.843  12.363 -0.2803 -0.3267  3.5423
  173DOPC  H15C21052   2.815   3.685  12.271 -0.3308 -1.2052  0.7282
  173DOPC   C1121053   3.038   3.769  12.596  0.1391  0.2569  0.6568
  173DOPC  H11A21054   3.066   3.809  12.497  0.7471 -0.7126  0.4249
  173DOPC  H11B21055   3.062   3.840  12.679 -1.4937 -1.0422  2.3355
  173DOPC     P21056   3.266   3.667  12.621  0.1293  0.0929 -0.1595
  173DOPC   O1321057   3.304   3.747  12.739 -0.2507  1.1190  0.1317
  173DOPC   O1421058   3.305   3.729  12.495  0.1201  0.3930 -0.4977
  173DOPC   O1221059   3.107   3.647  12.614  0.0764 -0.0028 -0.0317
  173DOPC   O1121060   3.333   3.527  12.637  0.2346 -0.0749  0.2193
  173DOPC    C121061   3.270   3.402  12.625  0.6688 -1.0505 -0.0847
  173DOPC    HA21062   3.350   3.325  12.622  0.4092 -1.3023 -0.9333
  173DOPC    HB21063   3.210   3.389  12.532  1.5268  0.3800 -0.8723
  173DOPC    C221064   3.190   3.372  12.750  0.5851  0.6835 -0.6465
  173DOPC    HS21065   3.126   3.460  12.771  0.1400  0.2137 -0.0063
  173DOPC   O2121066   3.288   3.344  12.855  0.1755  0.1164  0.5956
  173DOPC   C2121067   3.232   3.355  12.970 -0.3986  0.3833  0.5788
  173DOPC   O2221068   3.128   3.404  13.000  0.6902  0.0919  0.3250
  173DOPC   C2221069   3.340   3.294  13.070  0.6092  0.1002  0.3069
  173DOPC   H2R21070   3.434   3.351  13.060 -0.0483  0.9451 -1.6729
  173DOPC   H2S21071   3.370   3.196  13.028 -2.2524 -0.4982 -0.6058
  173DOPC    C321072   3.093   3.252  12.728  0.2780 -0.4017 -0.2289
  173DOPC    HX21073   3.148   3.177  12.667  1.0341 -0.6362  0.7163
  173DOPC    HY21074   3.018   3.285  12.653  0.6138 -0.9068 -0.7945
  173DOPC   O3121075   3.019   3.205  12.844 -0.0117  0.8224 -0.1658
  173DOPC   C3121076   3.051   3.085  12.885  0.2979 -0.6389  0.1131
  173DOPC   O3221077   3.133   3.009  12.832 -0.2680 -0.6894 -0.2534
  173DOPC   C3221078   2.983   3.063  13.017 -0.8752 -0.2690  0.9659
  173DOPC   H2X21079   3.007   3.156  13.072  0.1154  0.4547 -0.6242
  173DOPC   H2Y21080   2.874   3.065  12.997 -0.7876  0.6714  0.5276
  173DOPC   C2321081   3.280   3.270  13.211  0.7323  0.0805  0.4624
  173DOPC   H3R21082   3.177   3.233  13.190  1.4519 -1.4717 -0.4770
  173DOPC   H3S21083   3.264   3.363  13.270  1.1727  1.6608 -1.7737
  173DOPC   C2421084   3.366   3.180  13.301  0.0647 -0.0094  0.7940
  173DOPC   H4R21085   3.456   3.233  13.338  2.1085 -1.2459 -2.0111
  173DOPC   H4S21086   3.399   3.097  13.234 -0.7139 -0.2137  0.6465
  173DOPC   C2521087   3.287   3.121  13.417  0.2060 -0.1464  0.0928
  173DOPC   H5R21088   3.363   3.078  13.486 -0.3227  1.6244  1.8799
  173DOPC   H5S21089   3.223   3.035  13.388  0.8673 -0.4822 -0.3944
  173DOPC   C2621090   3.192   3.223  13.498 -0.2628  0.4036 -0.4537
  173DOPC   H6R21091   3.108   3.252  13.431  0.8875 -0.4648 -2.3615
  173DOPC   H6S21092   3.247   3.317  13.521 -0.6992  1.2327 -2.5073
  173DOPC   C2721093   3.131   3.158  13.622  0.0688 -0.6390 -0.8867
  173DOPC   H7R21094   3.210   3.129  13.695  0.0050 -0.5995 -0.8017
  173DOPC   H7S21095   3.084   3.066  13.579 -2.4088  0.8993 -1.7093
  173DOPC   C2821096   3.015   3.248  13.693  0.0654  0.8634 -0.5893
  173DOPC   H8R21097   2.952   3.186  13.761 -4.2933 -0.8681 -5.5536
  173DOPC   H8S21098   2.942   3.267  13.612 -2.6612  0.6178  1.6452
  173DOPC   C2921099   3.073   3.368  13.755 -0.1994  0.2824  0.2526
  173DOPC   H9R21100   3.043   3.463  13.707  0.7853  0.4057 -0.1421
  173DOPC  C21021101   3.137   3.370  13.875 -0.3921 -0.3390  0.3471
  173DOPC  H10R21102   3.174   3.470  13.901 -2.3259  0.6476 -0.4372
  173DOPC  C21121103   3.163   3.248  13.958 -0.4786 -0.0234 -0.1345
  173DOPC  H11R21104   3.273   3.236  13.951 -0.4407  0.5705 -0.6118
  173DOPC  H11S21105   3.127   3.153  13.913  0.8350  0.1627 -1.6788
  173DOPC  C21221106   3.132   3.267  14.110 -0.1829  0.3992 -0.1312
  173DOPC  H12R21107   3.202   3.341  14.156  0.0848 -0.4426  0.8477
  173DOPC  H12S21108   3.163   3.171  14.156  0.3884  0.4126 -0.4778
  173DOPC  C21321109   2.986   3.295  14.143 -0.0826 -0.0044 -0.7400
  173DOPC  H13R21110   2.950   3.384  14.088  0.3039 -0.3304 -1.5545
  173DOPC  H13S21111   2.976   3.315  14.252 -0.7778 -0.8811 -0.6282
  173DOPC  C21421112   2.898   3.167  14.129  0.1940 -0.3604  0.0564
  173DOPC  H14R21113   2.924   3.084  14.197  1.1477 -0.1208 -0.0116
  173DOPC  H14S21114   2.909   3.122  14.028  0.9473 -0.9867  0.4133
  173DOPC  C21521115   2.748   3.204  14.130 -0.3319 -0.5590  0.2808
  173DOPC  H15R21116   2.738   3.271  14.042  1.9293 -0.2169  0.2297
  173DOPC  H15S21117   2.720   3.272  14.214 -1.2053  1.5814 -1.6191
  173DOPC  C21621118   2.655   3.081  14.144 -0.4542 -0.3699 -0.1055
  173DOPC  H16R21119   2.680   3.028  14.238 -0.4272  3.0698  2.0227
  173DOPC  H16S21120   2.670   3.015  14.056  0.9830 -1.3485  0.8396
  173DOPC  C21721121   2.506   3.118  14.172  0.5267 -0.7771 -0.1551
  173DOPC  H17R21122   2.460   3.180  14.092  0.0150 -2.5653 -1.2816
  173DOPC  H17S21123   2.502   3.182  14.263  0.7444 -2.0927  0.8100
  173DOPC  C21821124   2.405   3.004  14.202 -0.5557  0.2017  0.3454
  173DOPC  H18R21125   2.374   2.953  14.108  1.4516  1.1699 -0.9006
  173DOPC  H18S21126   2.310   3.041  14.248 -1.4008 -0.6013 -0.6833
  173DOPC  H18T21127   2.452   2.931  14.271  1.4726 -0.2280 -1.4024
  173DOPC   C3321128   3.035   2.940  13.084 -0.9067 -0.0989 -0.2238
  173DOPC   H3X21129   3.145   2.950  13.079 -1.1334  2.2580 -3.3287
  173DOPC   H3Y21130   2.999   2.847  13.034  1.7590 -0.7429 -1.1037
  173DOPC   C3421131   2.992   2.932  13.236  0.4596 -0.1087  0.3681
  173DOPC   H4X21132   3.023   3.030  13.279  4.1662 -0.3293 -1.4482
  173DOPC   H4Y21133   3.051   2.851  13.282 -1.2524 -1.0080  1.0904
  173DOPC   C3521134   2.840   2.912  13.264 -0.4995  0.5959 -0.2537
  173DOPC   H5X21135   2.807   2.819  13.212 -1.1420  2.2152 -2.9204
  173DOPC   H5Y21136   2.778   3.000  13.239 -2.5963 -0.7948 -0.1759
  173DOPC   C3621137   2.843   2.898  13.421  1.0062 -0.6172  0.1268
  173DOPC   H6X21138   2.899   2.806  13.447  0.7726 -1.3553 -1.8513
  173DOPC   H6Y21139   2.885   2.991  13.466 -0.2636  0.5005 -0.9084
  173DOPC   C3721140   2.699   2.891  13.469 -0.5252  0.5093 -0.0015
  173DOPC   H7X21141   2.644   2.980  13.430 -0.9834 -0.3868 -1.5141
  173DOPC   H7Y21142   2.641   2.819  13.408  0.9508  0.9779 -2.0796
  173DOPC   C3821143   2.687   2.839  13.618  0.2159 -0.0123 -0.0054
  173DOPC   H8X21144   2.737   2.913  13.684 -3.6984  1.3084  1.8003
  173DOPC   H8Y21145   2.749   2.749  13.635  0.4865 -0.7220 -3.7871
  173DOPC   C3921146   2.544   2.811  13.666 -0.0211  0.4744  0.1656
  173DOPC   H9X21147   2.463   2.850  13.603  0.3084  0.0987 -0.4984
  173DOPC  C31021148   2.504   2.756  13.783 -0.2886 -0.4972 -0.4029
  173DOPC  H10X21149   2.396   2.759  13.806 -0.0825 -1.5988  0.8386
  173DOPC  C31121150   2.587   2.697  13.894 -0.3049  0.0709  0.7325
  173DOPC  H11X21151   2.691   2.734  13.887 -0.7239  1.4336  1.2436
  173DOPC  H11Y21152   2.595   2.587  13.881 -0.0531  0.2953 -1.3425
  173DOPC  C31221153   2.544   2.730  14.032  0.1583 -0.4812  0.1310
  173DOPC  H12X21154   2.441   2.692  14.048 -0.3789  0.1637 -1.6106
  173DOPC  H12Y21155   2.546   2.840  14.052 -1.3653 -0.2172 -0.9996
  173DOPC  C31321156   2.642   2.672  14.145  0.6642  0.0770 -0.7046
  173DOPC  H13X21157   2.740   2.723  14.152 -0.1855  1.6118  0.7735
  173DOPC  H13Y21158   2.597   2.700  14.243  0.8589 -1.4772 -0.1312
  173DOPC  C31421159   2.656   2.521  14.138 -0.4699 -0.0103 -0.4073
  173DOPC  H14X21160   2.560   2.466  14.150 -0.6800  0.3151 -0.5793
  173DOPC  H14Y21161   2.709   2.497  14.043 -0.0953  2.6020 -0.9479
  173DOPC  C31521162   2.744   2.467  14.253 -0.1873 -0.0005  0.5986
  173DOPC  H15X21163   2.691   2.499  14.345 -0.4663 -1.8032  1.1001
  173DOPC  H15Y21164   2.850   2.499  14.253 -0.2844  0.3276  1.0987
  173DOPC  C31621165   2.747   2.314  14.254  0.2615  1.2565 -0.5617
  173DOPC  H16X21166   2.805   2.293  14.346 -0.9970 -0.0347 -0.0268
  173DOPC  H16Y21167   2.644   2.273  14.256  0.1675  1.3118 -2.4308
  173DOPC  C31721168   2.829   2.250  14.140 -0.0559 -0.2106 -0.4046
  173DOPC  H17X21169   2.777   2.261  14.043 -1.2802  0.4514  0.2926
  173DOPC  H17Y21170   2.923   2.307  14.122 -0.4238  0.1361 -1.2721
  173DOPC  C31821171   2.864   2.101  14.167 -0.1771 -0.0717 -0.4784
  173DOPC  H18X21172   2.905   2.056  14.074  1.8077 -0.1706  0.3791
  173DOPC  H18Y21173   2.935   2.076  14.249  1.1602 -1.5340 -1.9920
  173DOPC  H18Z21174   2.765   2.057  14.192  0.0346  1.5192  4.0592
  174DOPC     N21175   4.928   1.655  11.548  0.1800 -0.1831 -0.1112
  174DOPC   C1221176   4.787   1.692  11.519 -0.4001  0.0474  0.8014
  174DOPC  H12A21177   4.758   1.627  11.438  1.8514 -1.0212  0.7836
  174DOPC  H12B21178   4.779   1.793  11.482 -0.6000 -0.3411 -0.2584
  174DOPC   C1321179   4.981   1.739  11.658  0.2278  0.2398  0.4210
  174DOPC  H13A21180   5.080   1.711  11.690 -0.2763 -2.4789 -0.1437
  174DOPC  H13B21181   4.984   1.843  11.629 -0.2562  0.5120  1.2803
  174DOPC  H13C21182   4.917   1.728  11.745 -2.6143  0.5119 -1.4740
  174DOPC   C1421183   5.010   1.660  11.425  0.1446  0.3692 -0.7161
  174DOPC  H14A21184   5.019   1.766  11.406 -1.1416  1.8354  5.0617
  174DOPC  H14B21185   5.105   1.610  11.424  0.3174  0.6757  0.2439
  174DOPC  H14C21186   4.953   1.614  11.345 -0.2809  1.2453 -0.9321
  174DOPC   C1521187   4.927   1.514  11.602  0.3501  0.3540  0.4155
  174DOPC  H15A21188   4.894   1.438  11.533  0.9711 -0.0571  0.5623
  174DOPC  H15B21189   4.860   1.505  11.686  0.5509 -0.4704  0.4957
  174DOPC  H15C21190   5.028   1.493  11.633  1.1490  1.3167 -1.3952
  174DOPC   C1121191   4.683   1.681  11.632 -0.2495  0.0064  0.0214
  174DOPC  H11A21192   4.687   1.766  11.703  1.3778 -0.2019  0.2022
  174DOPC  H11B21193   4.585   1.704  11.583  1.1747  0.6110 -2.7607
  174DOPC     P21194   4.552   1.508  11.782 -0.7699  0.2708 -0.6757
  174DOPC   O1321195   4.580   1.368  11.837  0.3519 -0.1064  0.3899
  174DOPC   O1421196   4.444   1.532  11.687 -0.8935 -0.6861 -0.4776
  174DOPC   O1221197   4.682   1.561  11.714 -0.3942 -0.1496  0.2325
  174DOPC   O1121198   4.522   1.609  11.904  0.3323 -0.6397 -0.1044
  174DOPC    C121199   4.619   1.690  11.977 -0.1942  0.4226 -0.1102
  174DOPC    HA21200   4.596   1.797  11.962  1.0124  0.6581 -0.4230
  174DOPC    HB21201   4.719   1.686  11.928 -0.2668  0.4307 -0.2602
  174DOPC    C221202   4.635   1.646  12.126 -0.0902  0.1592  0.4100
  174DOPC    HS21203   4.654   1.537  12.137  1.3741  0.3034 -0.4822
  174DOPC   O2121204   4.512   1.694  12.186  0.4291 -0.1560  0.6187
  174DOPC   C2121205   4.464   1.617  12.275 -0.3987  0.8682 -0.0055
  174DOPC   O2221206   4.516   1.512  12.316 -0.0318 -0.8223 -0.0167
  174DOPC   C2221207   4.327   1.677  12.327  0.2995 -0.0978  0.0269
  174DOPC   H2R21208   4.291   1.733  12.238 -1.3886 -0.6759  0.3155
  174DOPC   H2S21209   4.346   1.747  12.411  1.9498  1.9352 -1.8938
  174DOPC    C321210   4.758   1.720  12.195  0.0880  0.4054 -0.1165
  174DOPC    HX21211   4.751   1.826  12.162  1.2713  0.3117 -0.7035
  174DOPC    HY21212   4.854   1.676  12.160 -1.2045 -1.2042 -1.8557
  174DOPC   O3121213   4.744   1.714  12.332  0.0373 -0.0177  0.1423
  174DOPC   C3121214   4.789   1.605  12.391 -0.8153 -0.8304  0.0804
  174DOPC   O3221215   4.868   1.527  12.341  0.1200 -0.1517  0.0254
  174DOPC   C3221216   4.750   1.605  12.541 -0.6245  0.1374  0.1383
  174DOPC   H2X21217   4.806   1.687  12.591 -0.3566  0.7092 -1.0722
  174DOPC   H2Y21218   4.646   1.641  12.551 -0.9101 -0.4655 -0.6044
  174DOPC   C2321219   4.209   1.579  12.369 -0.5582  0.0289 -0.1515
  174DOPC   H3R21220   4.195   1.517  12.278  0.9004  2.6604 -2.3077
  174DOPC   H3S21221   4.119   1.634  12.406  0.3931 -0.5583  3.3343
  174DOPC   C2421222   4.248   1.498  12.490  0.6297  0.0102  0.5960
  174DOPC   H4R21223   4.354   1.467  12.480  1.2589  1.2400  2.9451
  174DOPC   H4S21224   4.190   1.403  12.487  0.5613  0.0722 -1.1636
  174DOPC   C2521225   4.228   1.572  12.616 -0.5222  0.7723  0.3244
  174DOPC   H5R21226   4.121   1.563  12.642 -0.6072  0.6036 -0.0790
  174DOPC   H5S21227   4.267   1.676  12.605 -0.2421  0.7849  1.3042
  174DOPC   C2621228   4.306   1.490  12.727  0.0682  0.5575 -0.1281
  174DOPC   H6R21229   4.411   1.471  12.697 -0.9225  0.6648 -4.2651
  174DOPC   H6S21230   4.255   1.392  12.726  0.2992  0.4428 -0.8923
  174DOPC   C2721231   4.290   1.543  12.867  0.5709  0.0421 -0.4691
  174DOPC   H7R21232   4.182   1.530  12.892  0.4443 -0.1588 -1.1133
  174DOPC   H7S21233   4.322   1.649  12.862 -0.7674  0.4134 -2.4477
  174DOPC   C2821234   4.377   1.453  12.969 -0.8667 -0.5325  0.1568
  174DOPC   H8R21235   4.474   1.423  12.923 -0.9000 -0.8615  0.3007
  174DOPC   H8S21236   4.339   1.351  12.990 -0.2551 -0.8058 -0.0416
  174DOPC   C2921237   4.418   1.524  13.094 -0.2449 -0.1769  0.5314
  174DOPC   H9R21238   4.487   1.609  13.087  0.6169 -0.9067 -0.0729
  174DOPC  C21021239   4.388   1.486  13.222  0.6144  0.4776  1.0710
  174DOPC  H10R21240   4.436   1.539  13.305  0.4196  0.3161  1.2852
  174DOPC  C21121241   4.292   1.379  13.278  1.0712  0.9958 -0.0131
  174DOPC  H11R21242   4.240   1.331  13.193  1.0123 -2.4951  1.8112
  174DOPC  H11S21243   4.212   1.416  13.345  1.7778  0.7654  0.9841
  174DOPC  C21221244   4.363   1.269  13.364  0.3972 -0.0070  0.7158
  174DOPC  H12R21245   4.433   1.210  13.301  0.0030  0.1985  0.0726
  174DOPC  H12S21246   4.283   1.196  13.389 -0.3051 -0.2986 -2.0280
  174DOPC  C21321247   4.410   1.322  13.492 -0.6509  1.1629 -0.3844
  174DOPC  H13R21248   4.318   1.353  13.545 -1.0065 -0.4915  0.0416
  174DOPC  H13S21249   4.477   1.411  13.494 -1.1096  1.4924  0.5525
  174DOPC  C21421250   4.471   1.214  13.582  0.1922  0.1310 -0.4782
  174DOPC  H14R21251   4.573   1.184  13.549 -0.4991 -2.6788 -0.3648
  174DOPC  H14S21252   4.410   1.122  13.566  0.3101  0.0529 -0.4777
  174DOPC  C21521253   4.469   1.246  13.729 -0.5978 -0.3827  0.3833
  174DOPC  H15R21254   4.368   1.240  13.774 -0.7363  0.2467  0.1733
  174DOPC  H15S21255   4.509   1.348  13.749 -2.6099  0.4602  0.3466
  174DOPC  C21621256   4.553   1.147  13.817  0.0540 -0.7249  0.3309
  174DOPC  H16R21257   4.662   1.155  13.798 -0.0165  4.1135  0.8354
  174DOPC  H16S21258   4.541   1.041  13.786 -0.8082 -0.0754 -1.7146
  174DOPC  C21721259   4.545   1.166  13.966 -0.2765  0.5500 -0.4978
  174DOPC  H17R21260   4.445   1.132  13.998  0.0116 -0.1493 -0.3281
  174DOPC  H17S21261   4.566   1.274  13.982  2.3978  0.1133 -0.5408
  174DOPC  C21821262   4.649   1.079  14.034  0.6852  0.5127  0.1880
  174DOPC  H18R21263   4.611   0.975  14.024  0.3640  0.7714 -1.4563
  174DOPC  H18S21264   4.657   1.100  14.143  0.7843 -1.8708  0.6924
  174DOPC  H18T21265   4.752   1.097  13.997  0.7913 -0.0786  0.1856
  174DOPC   C3321266   4.760   1.469  12.612 -0.3527  0.1231 -0.4549
  174DOPC   H3X21267   4.865   1.434  12.601 -0.0457  1.0748 -0.6513
  174DOPC   H3Y21268   4.697   1.398  12.554 -0.4891  0.8700 -1.2505
  174DOPC   C3421269   4.727   1.462  12.761 -0.5086 -0.1342  0.3587
  174DOPC   H4X21270   4.730   1.353  12.782  2.3204 -0.0083  1.0498
  174DOPC   H4Y21271   4.630   1.513  12.779  0.3523  1.6582  0.1555
  174DOPC   C3521272   4.829   1.524  12.858 -0.9031  0.5372  0.3975
  174DOPC   H5X21273   4.858   1.624  12.818 -2.9821  0.4370 -1.6096
  174DOPC   H5Y21274   4.926   1.473  12.840  0.5787  2.3031  2.8624
  174DOPC   C3621275   4.790   1.530  12.999  0.4489  0.3178 -0.7531
  174DOPC   H6X21276   4.822   1.619  13.058 -0.0016  0.4483 -0.7088
  174DOPC   H6Y21277   4.682   1.544  12.981  0.0386  0.5144  1.6167
  174DOPC   C3721278   4.814   1.405  13.074  0.0646  0.1177 -0.3395
  174DOPC   H7X21279   4.783   1.320  13.009  0.7211  0.1695 -0.7304
  174DOPC   H7Y21280   4.922   1.382  13.092  0.2866  1.4620  0.1696
  174DOPC   C3821281   4.746   1.403  13.211  0.2057  0.0768 -0.7256
  174DOPC   H8X21282   4.766   1.304  13.256 -0.1933  1.6563  3.3231
  174DOPC   H8Y21283   4.638   1.409  13.186 -0.2899 -0.8730  1.0352
  174DOPC   C3921284   4.786   1.514  13.297 -0.0429 -0.4897 -0.6114
  174DOPC   H9X21285   4.725   1.604  13.282  4.0629  2.6704 -0.3042
  174DOPC  C31021286   4.872   1.510  13.397  0.3578  0.0855 -0.4426
  174DOPC  H10X21287   4.899   1.601  13.452  1.7333  0.5099 -1.7588
  174DOPC  C31121288   4.941   1.382  13.445  0.7137 -0.0614  0.3184
  174DOPC  H11X21289   5.024   1.361  13.375 -1.0615  2.4806 -2.8229
  174DOPC  H11Y21290   4.876   1.292  13.439 -0.2162  0.4450  1.9651
  174DOPC  C31221291   4.982   1.384  13.594  0.4455  0.0005  0.2776
  174DOPC  H12X21292   4.894   1.426  13.647  0.0808  0.3830 -0.6138
  174DOPC  H12Y21293   5.065   1.456  13.607  0.9889 -0.2832 -1.4188
  174DOPC  C31321294   4.993   1.251  13.665 -0.4047 -0.2487 -0.5641
  174DOPC  H13X21295   4.904   1.186  13.651 -0.2567 -0.5563 -0.0911
  174DOPC  H13Y21296   5.071   1.189  13.616  1.7690  0.1958  2.0571
  174DOPC  C31421297   5.030   1.267  13.815  0.5711 -0.2873 -0.0967
  174DOPC  H14X21298   5.122   1.329  13.813  1.7472 -1.8874 -3.0451
  174DOPC  H14Y21299   4.945   1.325  13.855  0.0115  0.6846 -2.5166
  174DOPC  C31521300   5.075   1.133  13.876  0.2645 -0.2732 -0.0362
  174DOPC  H15X21301   5.153   1.085  13.813  0.7262 -0.1577  0.4512
  174DOPC  H15Y21302   4.988   1.065  13.889  0.4703 -0.9162 -1.7308
  174DOPC  C31621303   5.134   1.150  14.011 -0.2143  0.4645 -0.1175
  174DOPC  H16X21304   5.187   1.059  14.046 -1.4622  0.5119  2.0582
  174DOPC  H16Y21305   5.218   1.223  14.000  2.4545 -2.3006  0.3931
  174DOPC  C31721306   5.035   1.198  14.122 -0.6770 -0.1370  0.1552
  174DOPC  H17X21307   4.993   1.294  14.086 -0.9866  0.2200  1.4343
  174DOPC  H17Y21308   4.955   1.124  14.145 -1.1651  0.4682  0.4466
  174DOPC  C31821309   5.103   1.234  14.255  1.5137 -0.6164 -0.5277
  174DOPC  H18X21310   5.173   1.319  14.240 -1.3894  1.5908 -2.9009
  174DOPC  H18Y21311   5.020   1.263  14.323  2.1940 -0.2779  0.1755
  174DOPC  H18Z21312   5.147   1.140  14.296 -0.2057 -0.8812  0.8289
  175DOPC     N21313   3.245   5.221  12.200  0.3542 -0.3970 -0.3551
  175DOPC   C1221314   3.145   5.311  12.277  0.4253 -0.2630  0.1950
  175DOPC  H12A21315   3.176   5.298  12.379 -1.3320  1.4285  1.0001
  175DOPC  H12B21316   3.043   5.274  12.271  0.0884  0.6501  0.2144
  175DOPC   C1321317   3.202   5.227  12.050 -0.3471 -0.4148 -0.1075
  175DOPC  H13A21318   3.243   5.154  11.981 -2.1858 -0.8613 -0.7797
  175DOPC  H13B21319   3.096   5.210  12.046 -0.1765 -1.3951 -0.7826
  175DOPC  H13C21320   3.213   5.325  12.006 -0.2980 -1.0810 -1.6430
  175DOPC   C1421321   3.235   5.075  12.245  0.7033  0.4713  0.2002
  175DOPC  H14A21322   3.290   5.009  12.180 -1.7580 -1.1772 -0.3256
  175DOPC  H14B21323   3.262   5.058  12.348  1.1883  0.0726  0.0105
  175DOPC  H14C21324   3.131   5.051  12.232 -0.1237  1.3451  3.9191
  175DOPC   C1521325   3.380   5.280  12.217 -0.2429  0.3692  0.1065
  175DOPC  H15A21326   3.421   5.315  12.123 -0.8058  0.6406 -0.0462
  175DOPC  H15B21327   3.444   5.207  12.262  1.1990  1.9778  0.7700
  175DOPC  H15C21328   3.373   5.366  12.282  0.5321  0.9309 -0.5417
  175DOPC   C1121329   3.128   5.466  12.270  0.0068  0.2104  0.4432
  175DOPC  H11A21330   3.077   5.501  12.178 -0.6117  1.1569  1.1201
  175DOPC  H11B21331   3.049   5.494  12.344  1.5887  1.6537  1.6624
  175DOPC     P21332   3.291   5.567  12.443  0.5999 -0.2947  0.2528
  175DOPC   O1321333   3.184   5.652  12.503 -0.1481 -0.4254  0.1733
  175DOPC   O1421334   3.431   5.612  12.457  0.0336  0.0310  0.1443
  175DOPC   O1221335   3.252   5.537  12.292 -0.2509 -0.6378  0.2075
  175DOPC   O1121336   3.272   5.425  12.505  0.4876 -0.2143 -0.1248
  175DOPC    C121337   3.377   5.358  12.581 -0.3939  0.7600 -0.2275
  175DOPC    HA21338   3.477   5.387  12.542 -0.5824  0.3157 -1.0483
  175DOPC    HB21339   3.372   5.249  12.562  1.4971  0.1073  2.3670
  175DOPC    C221340   3.361   5.376  12.738 -0.4393 -0.0768 -0.0746
  175DOPC    HS21341   3.257   5.356  12.771 -1.9955  2.6974 -2.7274
  175DOPC   O2121342   3.392   5.509  12.762 -0.0801 -0.1224 -0.2847
  175DOPC   C2121343   3.296   5.595  12.809 -0.4594  0.5269  0.1107
  175DOPC   O2221344   3.178   5.564  12.816  0.0071 -0.3770 -0.5414
  175DOPC   C2221345   3.352   5.732  12.831 -0.1286 -0.2676 -0.8742
  175DOPC   H2R21346   3.333   5.795  12.741 -1.3544  0.5384 -0.0849
  175DOPC   H2S21347   3.458   5.711  12.855 -0.8525 -0.4460  2.7265
  175DOPC    C321348   3.470   5.288  12.804  0.5437 -0.1224  0.5821
  175DOPC    HX21349   3.572   5.278  12.761  0.6435 -0.3476  0.8633
  175DOPC    HY21350   3.425   5.187  12.794 -1.8312  1.0360 -1.5173
  175DOPC   O3121351   3.488   5.319  12.948 -0.1519  0.2681  0.6536
  175DOPC   C3121352   3.571   5.414  12.978  0.5195 -0.9943 -0.2046
  175DOPC   O3221353   3.633   5.489  12.900  0.0932  0.0758 -0.3523
  175DOPC   C3221354   3.575   5.413  13.132 -0.0888 -0.1505 -0.4120
  175DOPC   H2X21355   3.476   5.387  13.176 -0.9177  0.9393 -1.5675
  175DOPC   H2Y21356   3.638   5.325  13.159  1.1184 -0.2176 -3.1846
  175DOPC   C2321357   3.282   5.804  12.954  0.1255  0.1262 -1.3385
  175DOPC   H3R21358   3.175   5.819  12.926  0.1815  1.4193 -0.9220
  175DOPC   H3S21359   3.319   5.907  12.975  1.6532 -1.0931  2.7251
  175DOPC   C2421360   3.311   5.737  13.097 -0.8365 -0.1160  0.7430
  175DOPC   H4R21361   3.404   5.677  13.098 -1.4377 -1.1137 -0.4451
  175DOPC   H4S21362   3.230   5.660  13.105 -0.3563 -1.0134 -1.8312
  175DOPC   C2521363   3.314   5.838  13.214  0.1145  1.0743 -0.3397
  175DOPC   H5R21364   3.210   5.867  13.240 -0.1070 -1.0250  1.5082
  175DOPC   H5S21365   3.372   5.926  13.181  0.8147 -0.4060 -3.4350
  175DOPC   C2621366   3.357   5.774  13.349  0.1352  0.0912  0.4264
  175DOPC   H6R21367   3.459   5.733  13.332  0.8456  1.7811  0.3738
  175DOPC   H6S21368   3.288   5.692  13.376 -1.6561  1.6514  0.7645
  175DOPC   C2721369   3.356   5.880  13.461  0.2235  0.2193 -0.3687
  175DOPC   H7R21370   3.249   5.906  13.475 -0.3410 -1.8028 -0.6727
  175DOPC   H7S21371   3.416   5.968  13.428  1.6300  0.3322  2.2095
  175DOPC   C2821372   3.424   5.849  13.595 -0.5224  0.4585  0.2247
  175DOPC   H8R21373   3.470   5.941  13.637  1.0689 -0.1492 -0.1503
  175DOPC   H8S21374   3.514   5.795  13.561  0.2483  1.0900  1.1998
  175DOPC   C2921375   3.338   5.775  13.693  0.1855  0.3599  0.2757
  175DOPC   H9R21376   3.340   5.665  13.689  0.6944  0.3398  0.9232
  175DOPC  C21021377   3.245   5.827  13.774 -0.4661  0.0084 -0.4066
  175DOPC  H10R21378   3.190   5.767  13.847  2.3847 -0.1396  1.8275
  175DOPC  C21121379   3.214   5.970  13.789  0.0916 -0.9625  0.6900
  175DOPC  H11R21380   3.146   5.996  13.706 -1.9118 -3.4556  1.4012
  175DOPC  H11S21381   3.304   6.033  13.776 -0.0490 -1.0175 -0.7702
  175DOPC  C21221382   3.134   5.999  13.921 -0.0061 -0.0346  0.1376
  175DOPC  H12R21383   3.188   5.969  14.014 -0.5946 -1.0621  0.1485
  175DOPC  H12S21384   3.035   5.949  13.927 -1.4194  2.6379  0.9337
  175DOPC  C21321385   3.108   6.151  13.937 -0.1576  0.1070 -0.1777
  175DOPC  H13R21386   3.032   6.178  13.861  0.4842  2.7850  0.0177
  175DOPC  H13S21387   3.199   6.212  13.924 -0.3517  0.2457 -0.9153
  175DOPC  C21421388   3.048   6.170  14.077  0.5157 -0.7829 -0.0647
  175DOPC  H14R21389   3.133   6.154  14.146  1.6894  3.3616 -0.2521
  175DOPC  H14S21390   2.965   6.097  14.080 -0.3984  0.1073 -1.8165
  175DOPC  C21521391   2.991   6.316  14.092 -0.3341 -0.3678  0.5152
  175DOPC  H15R21392   2.896   6.311  14.035  0.3604  1.1544 -0.8871
  175DOPC  H15S21393   3.059   6.387  14.039 -0.3545  0.1815  1.2239
  175DOPC  C21621394   2.974   6.361  14.235  1.3024 -0.3365 -0.2829
  175DOPC  H16R21395   2.901   6.444  14.224  1.8258  0.3397  1.1225
  175DOPC  H16S21396   3.069   6.409  14.267 -0.3226  1.6499  1.9106
  175DOPC  C21721397   2.904   6.264  14.337  0.4669  0.2612 -0.3917
  175DOPC  H17R21398   2.813   6.227  14.284  1.2557 -3.2679  0.4586
  175DOPC  H17S21399   2.873   6.324  14.426  1.8809  3.7018 -2.0476
  175DOPC  C21821400   2.982   6.150  14.396 -0.0228 -0.2874 -0.6604
  175DOPC  H18R21401   3.007   6.074  14.319  2.1855 -1.9274  1.5036
  175DOPC  H18S21402   2.931   6.093  14.477  0.1709  0.9457  0.3789
  175DOPC  H18T21403   3.076   6.186  14.444 -1.0212 -0.5213  1.6004
  175DOPC   C3321404   3.642   5.537  13.195 -0.2998  0.8237 -0.4794
  175DOPC   H3X21405   3.610   5.633  13.149  1.1680  1.3586 -0.4531
  175DOPC   H3Y21406   3.749   5.530  13.164 -0.0555 -1.1491  0.6123
  175DOPC   C3421407   3.643   5.529  13.354 -0.7009  0.9862  0.2273
  175DOPC   H4X21408   3.690   5.431  13.379 -0.0397  0.8105 -1.5593
  175DOPC   H4Y21409   3.541   5.528  13.397 -0.9818 -0.9453 -0.4044
  175DOPC   C3521410   3.720   5.642  13.416  0.1080  0.4216  0.9146
  175DOPC   H5X21411   3.665   5.738  13.415 -0.4534  0.1229  1.9594
  175DOPC   H5Y21412   3.820   5.655  13.368 -0.5930 -1.1705 -1.1439
  175DOPC   C3621413   3.746   5.621  13.565  0.3212  0.1910  0.0146
  175DOPC   H6X21414   3.651   5.591  13.615  0.1186  0.8809  0.0447
  175DOPC   H6Y21415   3.831   5.553  13.588  0.0814  0.4470  1.7888
  175DOPC   C3721416   3.794   5.751  13.633  0.2845  0.2171 -0.0411
  175DOPC   H7X21417   3.881   5.797  13.581  0.1121 -0.5878 -1.0787
  175DOPC   H7Y21418   3.714   5.826  13.614  1.3599  1.8451  1.4941
  175DOPC   C3821419   3.815   5.738  13.786 -0.0974  0.9781  0.3340
  175DOPC   H8X21420   3.855   5.837  13.816  0.2976  1.0555 -0.4271
  175DOPC   H8Y21421   3.890   5.656  13.790 -0.7636  0.3136 -0.3156
  175DOPC   C3921422   3.692   5.713  13.868 -0.0269  0.1002  0.1799
  175DOPC   H9X21423   3.607   5.775  13.837 -0.3567 -1.2183 -1.6676
  175DOPC  C31021424   3.693   5.635  13.978 -0.2034 -0.3170 -0.5241
  175DOPC  H10X21425   3.601   5.618  14.035 -0.3292  1.7446 -0.0333
  175DOPC  C31121426   3.798   5.539  14.023 -0.3500 -0.4198 -0.0089
  175DOPC  H11X21427   3.842   5.510  13.925 -0.1723  0.9347 -0.3436
  175DOPC  H11Y21428   3.755   5.447  14.070  2.0005 -0.3852  2.4385
  175DOPC  C31221429   3.909   5.603  14.115  0.4394 -0.9475 -0.4910
  175DOPC  H12X21430   3.868   5.638  14.212  1.4685  0.7206 -0.6042
  175DOPC  H12Y21431   3.949   5.695  14.068 -0.4484 -1.7238 -2.9224
  175DOPC  C31321432   4.015   5.502  14.150 -0.3457  0.1000  0.7757
  175DOPC  H13X21433   3.963   5.413  14.189 -0.8493 -1.6163 -3.3553
  175DOPC  H13Y21434   4.064   5.468  14.056 -2.5079 -1.2350  0.0559
  175DOPC  C31421435   4.118   5.548  14.252  0.3992 -0.0267  0.3506
  175DOPC  H14X21436   4.204   5.588  14.193 -0.2254  1.8271  0.6400
  175DOPC  H14Y21437   4.069   5.631  14.307 -2.5653 -1.3423 -0.1038
  175DOPC  C31521438   4.172   5.448  14.347 -0.0193 -0.0536  0.8296
  175DOPC  H15X21439   4.201   5.351  14.302  0.0429 -0.2931  1.3832
  175DOPC  H15Y21440   4.085   5.429  14.414 -1.2559  0.9197 -0.4500
  175DOPC  C31621441   4.282   5.503  14.443  0.0332 -0.1418 -0.4450
  175DOPC  H16X21442   4.242   5.586  14.504 -0.6610  0.3023 -1.4861
  175DOPC  H16Y21443   4.323   5.426  14.512 -0.5076  0.0048  0.0473
  175DOPC  C31721444   4.412   5.558  14.377 -0.1500 -0.4189 -0.7060
  175DOPC  H17X21445   4.479   5.473  14.352 -1.1765 -1.8828  1.2368
  175DOPC  H17Y21446   4.381   5.606  14.281 -0.2494 -2.1033 -1.5638
  175DOPC  C31821447   4.490   5.661  14.465 -0.8456 -0.4184  0.3060
  175DOPC  H18X21448   4.533   5.612  14.555 -4.1706  0.7044  2.7144
  175DOPC  H18Y21449   4.569   5.708  14.404  0.6036 -0.2098  2.2610
  175DOPC  H18Z21450   4.417   5.739  14.496 -1.4696 -0.8873  0.0582
  176DOPC     N21451   3.430   1.582  11.804 -0.2809  0.3165  0.1556
  176DOPC   C1221452   3.473   1.656  11.932  0.3031  0.2145 -0.1558
  176DOPC  H12A21453   3.531   1.743  11.908  0.8110  0.3379  1.4107
  176DOPC  H12B21454   3.541   1.602  11.998  0.2967  1.3440  0.7974
  176DOPC   C1321455   3.306   1.639  11.734 -0.8672  0.8155 -0.1574
  176DOPC  H13A21456   3.278   1.576  11.651 -0.3867  0.6571 -0.2025
  176DOPC  H13B21457   3.225   1.656  11.803  0.1298 -0.6901  1.4686
  176DOPC  H13C21458   3.327   1.736  11.692  0.1098  1.4350  1.6524
  176DOPC   C1421459   3.401   1.439  11.844  0.1948  0.6801  0.1341
  176DOPC  H14A21460   3.486   1.383  11.881  0.3660  0.4470 -0.5930
  176DOPC  H14B21461   3.325   1.447  11.920  0.3754  1.4580  0.2433
  176DOPC  H14C21462   3.362   1.374  11.767  3.9398  0.2855 -1.6719
  176DOPC   C1521463   3.542   1.583  11.704 -0.7961 -0.0571  0.0287
  176DOPC  H15A21464   3.518   1.536  11.610  2.8694  0.7364 -1.4758
  176DOPC  H15B21465   3.626   1.527  11.741 -0.3197  0.7767  0.2447
  176DOPC  H15C21466   3.564   1.679  11.660  0.2001 -0.6247 -0.7515
  176DOPC   C1121467   3.362   1.708  12.022 -0.2386  0.0931 -0.2117
  176DOPC  H11A21468   3.296   1.771  11.957  1.8543  1.8541 -0.7441
  176DOPC  H11B21469   3.300   1.626  12.063 -0.0546 -1.0106 -2.0039
  176DOPC     P21470   3.467   1.939  12.084 -0.1606  0.2777  0.2162
  176DOPC   O1321471   3.355   2.030  12.057 -0.1890  0.0067  0.0729
  176DOPC   O1421472   3.569   1.927  11.980 -0.3369 -0.2160 -0.0628
  176DOPC   O1221473   3.425   1.791  12.118 -0.0431 -0.1728 -0.3260
  176DOPC   O1121474   3.535   1.992  12.217 -0.1283 -0.0271 -0.1562
  176DOPC    C121475   3.506   1.953  12.348  0.8485 -0.3036  0.2937
  176DOPC    HA21476   3.568   1.865  12.373 -1.0580 -1.9048 -0.3138
  176DOPC    HB21477   3.401   1.915  12.355  1.7119 -2.7991  0.5969
  176DOPC    C221478   3.523   2.071  12.449  0.0596  0.4313 -0.3153
  176DOPC    HS21479   3.455   2.154  12.420  0.8480  1.1641 -0.0794
  176DOPC   O2121480   3.657   2.124  12.443  0.2135 -0.1318  0.7908
  176DOPC   C2121481   3.675   2.249  12.474 -0.1267  0.9552  0.1682
  176DOPC   O2221482   3.587   2.326  12.507 -0.0949  0.5321  0.0934
  176DOPC   C2221483   3.823   2.295  12.460 -0.5975 -0.2433 -0.5876
  176DOPC   H2R21484   3.825   2.373  12.380 -1.9257  0.7875  0.3229
  176DOPC   H2S21485   3.890   2.211  12.432 -0.4528  0.2795 -1.8837
  176DOPC    C321486   3.483   2.028  12.598 -0.3424 -1.2832 -0.1072
  176DOPC    HX21487   3.547   1.941  12.625 -0.4351 -0.5026  2.9280
  176DOPC    HY21488   3.375   2.007  12.589 -0.7638  0.3956  0.7098
  176DOPC   O3121489   3.513   2.134  12.701  0.7866 -0.5246  0.0497
  176DOPC   C3121490   3.422   2.228  12.723  0.0193  0.0207 -0.2247
  176DOPC   O3221491   3.308   2.232  12.675 -0.2631  0.2463 -0.0085
  176DOPC   C3221492   3.477   2.333  12.819 -0.1368 -0.1527  0.1492
  176DOPC   H2X21493   3.540   2.398  12.754 -0.3081 -3.0408 -3.2013
  176DOPC   H2Y21494   3.394   2.403  12.842  0.2644  0.5306 -0.4419
  176DOPC   C2321495   3.861   2.360  12.596  0.0075 -0.1855 -0.0154
  176DOPC   H3R21496   3.793   2.438  12.636 -0.4987 -0.8014  0.3525
  176DOPC   H3S21497   3.955   2.418  12.585 -0.4513  0.5819  0.0565
  176DOPC   C2421498   3.882   2.257  12.707  0.0617 -0.0611  0.1067
  176DOPC   H4R21499   3.957   2.177  12.686  1.5668  1.5641 -0.9648
  176DOPC   H4S21500   3.788   2.200  12.726  0.9498 -1.7593 -0.3708
  176DOPC   C2521501   3.916   2.333  12.844 -0.2503  0.2439 -0.2567
  176DOPC   H5R21502   3.815   2.372  12.871 -1.9029 -3.8073  0.1046
  176DOPC   H5S21503   3.998   2.407  12.830  0.5059  0.0714  2.5756
  176DOPC   C2621504   3.966   2.230  12.950  0.7462 -0.4058  0.1082
  176DOPC   H6R21505   4.065   2.193  12.916  0.6766 -0.6988  0.2212
  176DOPC   H6S21506   3.891   2.151  12.967 -1.1660  1.2491 -0.2022
  176DOPC   C2721507   3.993   2.300  13.084 -0.3838  0.4246  0.7003
  176DOPC   H7R21508   3.926   2.385  13.110  0.7288  1.0329  1.7272
  176DOPC   H7S21509   4.094   2.346  13.083  0.2774 -0.8319  2.9206
  176DOPC   C2821510   3.991   2.200  13.204  0.2502 -0.1936  0.1483
  176DOPC   H8R21511   4.035   2.238  13.299 -0.0512 -2.2710  1.1816
  176DOPC   H8S21512   4.053   2.115  13.170  0.2372 -0.6581  1.2458
  176DOPC   C2921513   3.856   2.147  13.240  0.0979  0.1025  0.2201
  176DOPC   H9R21514   3.827   2.056  13.187 -1.8225  0.5531  0.4214
  176DOPC  C21021515   3.768   2.213  13.314 -0.0540 -1.1847 -0.5468
  176DOPC  H10R21516   3.665   2.175  13.319  0.4852 -3.0094 -2.3719
  176DOPC  C21121517   3.793   2.346  13.382  0.5494  0.1915 -0.4560
  176DOPC  H11R21518   3.744   2.432  13.332  0.4758  0.8695  0.7464
  176DOPC  H11S21519   3.902   2.368  13.392  0.5692 -0.3099  0.5728
  176DOPC  C21221520   3.725   2.325  13.518 -0.9665  0.1753  0.0750
  176DOPC  H12R21521   3.615   2.314  13.517 -0.8642 -1.3356  1.3678
  176DOPC  H12S21522   3.734   2.417  13.579 -1.2131  0.7761 -0.7866
  176DOPC  C21321523   3.785   2.209  13.598 -0.1472  0.1455 -0.4855
  176DOPC  H13R21524   3.896   2.213  13.600 -0.1892  1.2524  1.3761
  176DOPC  H13S21525   3.763   2.107  13.561  0.8931 -1.1458  2.2116
  176DOPC  C21421526   3.724   2.204  13.739  0.1381  0.3382 -0.5087
  176DOPC  H14R21527   3.614   2.200  13.752  0.1357 -0.0762 -0.6186
  176DOPC  H14S21528   3.762   2.289  13.800 -1.1162  1.3656 -1.1235
  176DOPC  C21521529   3.769   2.070  13.803 -1.1071  0.1210 -0.1772
  176DOPC  H15R21530   3.880   2.072  13.803 -1.1042  0.2754 -1.1475
  176DOPC  H15S21531   3.729   1.981  13.750  1.3347 -1.2702  0.1728
  176DOPC  C21621532   3.723   2.068  13.952  0.1597  0.3226 -0.2000
  176DOPC  H16R21533   3.638   2.138  13.963  0.1061  0.4238 -1.1934
  176DOPC  H16S21534   3.808   2.120  14.001 -0.2409  1.0580 -0.2783
  176DOPC  C21721535   3.703   1.931  14.018  0.0772  0.1278 -0.1526
  176DOPC  H17R21536   3.791   1.869  13.991 -1.2738 -0.8869 -2.6226
  176DOPC  H17S21537   3.613   1.872  13.989  0.2645 -0.2252 -0.0192
  176DOPC  C21821538   3.713   1.948  14.173  0.5878 -0.1880 -0.1822
  176DOPC  H18R21539   3.648   2.033  14.203  0.9131 -0.0626  0.1741
  176DOPC  H18S21540   3.816   1.979  14.200  0.7606  0.6401 -1.6521
  176DOPC  H18T21541   3.673   1.862  14.232 -0.7519  0.4866 -0.0556
  176DOPC   C3321542   3.562   2.275  12.937 -0.6143  0.1220 -0.2434
  176DOPC   H3X21543   3.605   2.359  12.997 -0.5714  0.7484 -1.1210
  176DOPC   H3Y21544   3.639   2.202  12.905 -0.7739 -0.2350  0.1790
  176DOPC   C3421545   3.470   2.203  13.042 -0.5804  0.8783  0.3469
  176DOPC   H4X21546   3.528   2.164  13.129 -3.9221 -0.8003  1.9885
  176DOPC   H4Y21547   3.445   2.109  12.989  1.1999  0.5823 -0.0223
  176DOPC   C3521548   3.348   2.271  13.095 -0.1059  0.4991  0.2125
  176DOPC   H5X21549   3.278   2.281  13.010 -0.1385 -0.9928  0.0393
  176DOPC   H5Y21550   3.383   2.371  13.127 -0.3936  0.1864  1.6018
  176DOPC   C3621551   3.282   2.213  13.217  0.4690  0.9217  0.2382
  176DOPC   H6X21552   3.183   2.260  13.236  0.5699  0.2698  2.7429
  176DOPC   H6Y21553   3.256   2.107  13.197 -0.6451  0.6160  2.8393
  176DOPC   C3721554   3.364   2.217  13.347 -1.2460 -0.0898  0.7555
  176DOPC   H7X21555   3.453   2.152  13.333 -0.8266  0.8386 -1.1313
  176DOPC   H7Y21556   3.406   2.318  13.366  2.2195 -1.5063  1.2801
  176DOPC   C3821557   3.281   2.165  13.468  0.8599  0.2989 -0.0196
  176DOPC   H8X21558   3.218   2.082  13.430  2.6168 -2.0312  1.8418
  176DOPC   H8Y21559   3.224   2.260  13.478 -2.0832 -1.1748 -1.4847
  176DOPC   C3921560   3.361   2.123  13.592  0.3851 -0.4005 -0.2693
  176DOPC   H9X21561   3.370   2.203  13.667  0.7257  0.8808 -1.6106
  176DOPC  C31021562   3.443   2.020  13.602  0.1286  0.3569 -1.0134
  176DOPC  H10X21563   3.511   2.018  13.689  1.0717  0.6502 -1.7223
  176DOPC  C31121564   3.468   1.911  13.499  0.7044 -0.3009 -0.0864
  176DOPC  H11X21565   3.428   1.957  13.406  1.5777 -1.1543 -0.9127
  176DOPC  H11Y21566   3.400   1.829  13.529 -3.6299  2.3817 -1.6344
  176DOPC  C31221567   3.613   1.883  13.468 -0.0079 -0.5325  0.6822
  176DOPC  H12X21568   3.667   1.850  13.559  0.0571 -0.3148  0.7222
  176DOPC  H12Y21569   3.654   1.977  13.424 -1.2710  0.2952  1.1861
  176DOPC  C31321570   3.644   1.775  13.361  0.2926 -0.4571 -0.5030
  176DOPC  H13X21571   3.754   1.757  13.367  0.5017  0.2281 -1.9653
  176DOPC  H13Y21572   3.589   1.682  13.389 -2.2335  0.1302 -3.0767
  176DOPC  C31421573   3.605   1.832  13.220  0.7167  0.1177  0.4290
  176DOPC  H14X21574   3.502   1.873  13.215 -0.1765 -2.1194 -0.4019
  176DOPC  H14Y21575   3.668   1.920  13.194 -0.2999  0.7022 -0.1231
  176DOPC  C31521576   3.622   1.716  13.116 -0.2197  0.4858  0.2968
  176DOPC  H15X21577   3.542   1.640  13.134  0.6338 -0.1489  1.5665
  176DOPC  H15Y21578   3.726   1.679  13.128  0.1246  1.8028  1.4418
  176DOPC  C31621579   3.613   1.762  12.974  0.1350 -0.2901  0.4699
  176DOPC  H16X21580   3.520   1.820  12.954  1.1180  0.9900 -0.6209
  176DOPC  H16Y21581   3.691   1.836  12.949 -1.4448  1.3686  0.2588
  176DOPC  C31721582   3.620   1.647  12.872  0.6729  0.0893  0.2238
  176DOPC  H17X21583   3.717   1.593  12.884  0.8529  0.0788 -1.1709
  176DOPC  H17Y21584   3.546   1.578  12.919 -0.2773  0.5949 -0.5066
  176DOPC  C31821585   3.591   1.674  12.726  0.0832 -0.1165  0.2673
  176DOPC  H18X21586   3.492   1.724  12.719  0.7174  1.2357  0.6152
  176DOPC  H18Y21587   3.666   1.747  12.688 -0.7349  0.8531  0.4711
  176DOPC  H18Z21588   3.592   1.577  12.674  2.2638  0.1139 -0.1909
  177DOPC     N21589   5.576   4.933  11.890 -0.0142  0.0034  0.3399
  177DOPC   C1221590   5.436   4.969  11.838  0.2867 -0.4517  0.0053
  177DOPC  H12A21591   5.368   4.924  11.908 -0.3670  1.1300  0.4264
  177DOPC  H12B21592   5.409   4.916  11.747 -0.6191 -0.0019  0.0000
  177DOPC   C1321593   5.673   4.989  11.796  0.2179  0.2184 -0.8915
  177DOPC  H13A21594   5.774   4.985  11.835  0.6770  0.1731 -2.0451
  177DOPC  H13B21595   5.662   4.951  11.695 -1.5542 -0.6593 -0.4171
  177DOPC  H13C21596   5.644   5.092  11.788 -2.4536 -0.3544  0.3053
  177DOPC   C1421597   5.581   4.780  11.883  0.2860 -0.8099  1.0945
  177DOPC  H14A21598   5.519   4.732  11.957  0.4766 -2.0333  0.4746
  177DOPC  H14B21599   5.555   4.733  11.790  0.2249 -1.3654  1.3887
  177DOPC  H14C21600   5.679   4.746  11.913  0.1030 -1.1705  1.2850
  177DOPC   C1521601   5.589   4.978  12.033 -0.0389 -0.3656 -0.1595
  177DOPC  H15A21602   5.540   5.073  12.047 -1.0923 -0.9079 -0.0400
  177DOPC  H15B21603   5.692   4.986  12.063  0.0466 -2.2579  0.2111
  177DOPC  H15C21604   5.532   4.909  12.095  0.8367  1.1558  2.4994
  177DOPC   C1121605   5.400   5.124  11.820 -0.0719  0.1673  0.7440
  177DOPC  H11A21606   5.465   5.169  11.742 -0.5581  1.0104  0.8091
  177DOPC  H11B21607   5.297   5.140  11.782 -0.1366 -0.2313  0.7457
  177DOPC     P21608   5.289   5.166  12.053 -0.4427  0.0539  0.0894
  177DOPC   O1321609   5.233   5.027  12.034  0.1448 -0.0703 -0.0675
  177DOPC   O1421610   5.204   5.288  12.058 -0.4256 -0.4039  0.5036
  177DOPC   O1221611   5.410   5.196  11.943  0.1324  0.7973 -0.0128
  177DOPC   O1121612   5.372   5.169  12.193  1.2412  0.1283  0.0871
  177DOPC    C121613   5.394   5.294  12.258 -0.1943  0.7358  0.6018
  177DOPC    HA21614   5.303   5.318  12.316 -1.1545  1.3013 -1.0770
  177DOPC    HB21615   5.397   5.374  12.181 -2.4164 -0.2607 -0.6245
  177DOPC    C221616   5.534   5.277  12.327  0.6380  0.2760 -0.2495
  177DOPC    HS21617   5.590   5.203  12.266  1.3115 -3.4563  4.3574
  177DOPC   O2121618   5.503   5.216  12.459 -0.3628 -0.3255  0.7449
  177DOPC   C2121619   5.609   5.163  12.518 -0.0707 -0.3179  0.5538
  177DOPC   O2221620   5.717   5.137  12.462  0.1796 -0.1550 -0.4168
  177DOPC   C2221621   5.583   5.145  12.667 -0.4181  0.4987  0.3259
  177DOPC   H2R21622   5.567   5.035  12.675 -0.6305  0.6365  2.2257
  177DOPC   H2S21623   5.492   5.197  12.704 -0.1063  0.5556  1.0175
  177DOPC    C321624   5.622   5.405  12.337 -0.4190 -0.2049  0.4030
  177DOPC    HX21625   5.614   5.465  12.244 -0.4301  0.6160  0.9285
  177DOPC    HY21626   5.726   5.368  12.352 -0.0624  0.6106  0.0295
  177DOPC   O3121627   5.587   5.485  12.448 -0.3269  0.0176  0.0941
  177DOPC   C3121628   5.503   5.589  12.426  0.0695  0.1665 -0.1222
  177DOPC   O3221629   5.463   5.628  12.320  0.5751 -0.9579 -0.4907
  177DOPC   C3221630   5.478   5.651  12.560 -0.1658  0.2619 -0.2997
  177DOPC   H2X21631   5.569   5.715  12.565  0.9776 -1.1335 -2.1182
  177DOPC   H2Y21632   5.388   5.716  12.553 -0.9399 -0.7660 -0.1930
  177DOPC   C2321633   5.710   5.193  12.743 -0.1672  0.3370  0.7474
  177DOPC   H3R21634   5.699   5.303  12.749 -1.0520  0.2286  1.3602
  177DOPC   H3S21635   5.807   5.155  12.704 -0.0800  0.8679  0.4466
  177DOPC   C2421636   5.701   5.156  12.890 -0.0149 -0.9601 -0.5180
  177DOPC   H4R21637   5.637   5.066  12.884 -1.9586  0.4166 -4.7577
  177DOPC   H4S21638   5.645   5.228  12.954  1.2520  0.0497 -0.5069
  177DOPC   C2521639   5.843   5.127  12.959 -0.0515  0.2088  0.7141
  177DOPC   H5R21640   5.910   5.215  12.951 -1.8816  1.5397 -1.0907
  177DOPC   H5S21641   5.894   5.050  12.898 -1.7748 -1.6168  1.4816
  177DOPC   C2621642   5.821   5.079  13.103  0.2887 -0.2933  0.0855
  177DOPC   H6R21643   5.918   5.050  13.150  0.6980 -0.2885 -0.7419
  177DOPC   H6S21644   5.749   4.995  13.097  0.2616 -0.2898  0.3445
  177DOPC   C2721645   5.760   5.189  13.191 -0.0899 -0.0954  0.2782
  177DOPC   H7R21646   5.655   5.195  13.156 -0.5711  0.6339  1.7661
  177DOPC   H7S21647   5.800   5.292  13.175  0.2121  0.1293  2.2021
  177DOPC   C2821648   5.773   5.166  13.340 -0.0475  0.1809 -0.0886
  177DOPC   H8R21649   5.706   5.244  13.382 -0.2992  1.1723 -2.2496
  177DOPC   H8S21650   5.877   5.173  13.377  0.5699 -3.5959 -0.6606
  177DOPC   C2921651   5.714   5.035  13.375  0.4385 -0.5436 -0.5394
  177DOPC   H9R21652   5.609   5.024  13.345  0.0932 -0.3463  0.5534
  177DOPC  C21021653   5.773   4.930  13.442  0.4769 -0.1287 -0.0796
  177DOPC  H10R21654   5.701   4.850  13.464 -0.4227  0.3175 -1.3047
  177DOPC  C21121655   5.909   4.929  13.508 -0.1500 -0.1890 -0.0339
  177DOPC  H11R21656   5.954   5.031  13.498 -0.3524 -0.0976 -0.0217
  177DOPC  H11S21657   5.975   4.853  13.461  1.1539  0.5768  0.4939
  177DOPC  C21221658   5.868   4.917  13.660  0.1844  0.3591  0.8916
  177DOPC  H12R21659   5.805   4.828  13.679  0.4378  0.7979  4.4061
  177DOPC  H12S21660   5.810   5.006  13.694  1.4393  0.8705  1.7535
  177DOPC  C21321661   5.983   4.911  13.758 -0.8264 -0.5780  0.6893
  177DOPC  H13R21662   6.054   4.995  13.743 -0.9406 -0.0269  2.9328
  177DOPC  H13S21663   6.043   4.817  13.756  0.2318  0.0924  0.3082
  177DOPC  C21421664   5.937   4.923  13.906  0.4547 -0.1512  0.2828
  177DOPC  H14R21665   5.858   4.848  13.926 -0.7601  1.0485  0.1520
  177DOPC  H14S21666   5.883   5.020  13.915  1.2246  0.2252  0.9236
  177DOPC  C21521667   6.042   4.917  14.008  0.0012 -0.3362 -0.2083
  177DOPC  H15R21668   6.128   4.987  13.999  0.9388 -1.6589 -2.7269
  177DOPC  H15S21669   6.087   4.819  13.981 -0.1694 -0.2413 -0.8409
  177DOPC  C21621670   5.985   4.902  14.152 -0.3372 -0.5669  0.3487
  177DOPC  H16R21671   6.061   4.852  14.216  1.6631  0.7164 -0.9085
  177DOPC  H16S21672   5.890   4.844  14.154 -1.2210  0.8213  0.1100
  177DOPC  C21721673   5.941   5.039  14.209  0.0885 -0.3432 -0.1653
  177DOPC  H17R21674   5.866   5.092  14.146  1.3188  2.9160  0.9311
  177DOPC  H17S21675   6.021   5.116  14.208 -0.1355 -0.0902  0.7616
  177DOPC  C21821676   5.896   5.030  14.352 -0.4504  0.6244  0.1610
  177DOPC  H18R21677   5.818   4.952  14.365  2.3854 -2.8502 -1.8458
  177DOPC  H18S21678   5.852   5.119  14.402  0.3277 -0.2743  2.6152
  177DOPC  H18T21679   5.977   4.987  14.415 -1.8516  0.1194  1.6910
  177DOPC   C3321680   5.463   5.559  12.685  0.0410 -0.3041 -0.3488
  177DOPC   H3X21681   5.518   5.466  12.659  2.3415  0.3049  1.8964
  177DOPC   H3Y21682   5.357   5.549  12.719  0.7529 -1.7580  1.6206
  177DOPC   C3421683   5.542   5.619  12.805  0.0948  0.2339 -0.2486
  177DOPC   H4X21684   5.490   5.714  12.830  1.2426  0.8922 -0.3160
  177DOPC   H4Y21685   5.646   5.644  12.775  1.2082 -1.6219  1.7988
  177DOPC   C3521686   5.544   5.527  12.930  0.0414 -0.7123 -0.0125
  177DOPC   H5X21687   5.610   5.441  12.905 -1.2156 -2.1317  1.3568
  177DOPC   H5Y21688   5.445   5.477  12.936  1.5978 -4.4165 -2.0101
  177DOPC   C3621689   5.578   5.597  13.068  0.4287 -0.3073 -0.0706
  177DOPC   H6X21690   5.683   5.630  13.083 -0.8474  3.7892  1.3584
  177DOPC   H6Y21691   5.519   5.690  13.078  1.5229  0.7556 -2.6509
  177DOPC   C3721692   5.550   5.519  13.194  0.2095 -0.0700  0.0244
  177DOPC   H7X21693   5.446   5.486  13.172  0.2873  0.1808 -0.7336
  177DOPC   H7Y21694   5.622   5.435  13.189 -1.6401 -1.9332  2.2913
  177DOPC   C3821695   5.559   5.594  13.319  0.1097  0.3049  0.5028
  177DOPC   H8X21696   5.467   5.655  13.332  0.2153  0.8117 -0.9707
  177DOPC   H8Y21697   5.643   5.667  13.310  2.3880 -2.2433 -0.2651
  177DOPC   C3921698   5.583   5.513  13.443 -0.1092  0.2633 -0.5598
  177DOPC   H9X21699   5.560   5.407  13.430  2.6067 -0.4844  0.1518
  177DOPC  C31021700   5.630   5.545  13.565 -0.2527  0.4095 -0.8280
  177DOPC  H10X21701   5.626   5.466  13.642 -1.6317 -0.3964 -1.6993
  177DOPC  C31121702   5.679   5.683  13.606 -0.4155 -0.1587  0.1380
  177DOPC  H11X21703   5.708   5.734  13.512  0.0952 -1.0417 -0.2017
  177DOPC  H11Y21704   5.773   5.685  13.666  1.6059 -1.4721 -2.7255
  177DOPC  C31221705   5.567   5.761  13.675  0.1257 -0.1733 -0.0655
  177DOPC  H12X21706   5.470   5.764  13.621 -1.1440 -1.1242  2.0692
  177DOPC  H12Y21707   5.600   5.867  13.681 -1.0014  0.1842 -0.0255
  177DOPC  C31321708   5.537   5.719  13.820  0.4574  0.8124  0.4580
  177DOPC  H13X21709   5.497   5.615  13.828  0.9121  0.7611  2.7945
  177DOPC  H13Y21710   5.628   5.717  13.884  1.0717 -0.9295 -0.3983
  177DOPC  C31421711   5.434   5.809  13.895  1.4818  0.6417 -0.5223
  177DOPC  H14X21712   5.479   5.909  13.913  2.1267  0.1267  0.8757
  177DOPC  H14Y21713   5.337   5.819  13.841  0.2594 -3.9097  0.4444
  177DOPC  C31521714   5.390   5.746  14.032  0.0572  0.7817 -0.1546
  177DOPC  H15X21715   5.475   5.773  14.099  1.0003  2.8270 -2.0370
  177DOPC  H15Y21716   5.378   5.636  14.028 -2.6274  1.0512 -1.3476
  177DOPC  C31621717   5.259   5.807  14.079 -0.3303  0.4943 -0.4472
  177DOPC  H16X21718   5.182   5.795  14.000 -0.9775 -0.8913  0.3549
  177DOPC  H16Y21719   5.214   5.744  14.159  0.8769  0.0710 -0.0860
  177DOPC  C31721720   5.285   5.953  14.117 -0.5064 -0.5755  0.2736
  177DOPC  H17X21721   5.352   6.000  14.042 -0.5341  0.1644  0.7055
  177DOPC  H17Y21722   5.187   6.005  14.113 -0.3335 -0.2269  0.5439
  177DOPC  C31821723   5.335   5.983  14.253  0.2638  1.0189 -0.0958
  177DOPC  H18X21724   5.253   5.937  14.312 -0.5276 -0.9121 -2.5741
  177DOPC  H18Y21725   5.425   5.929  14.290 -1.0696 -0.0144  1.8516
  177DOPC  H18Z21726   5.350   6.092  14.266 -0.6025  1.1364  0.0008
  178DOPC     N21727   2.406   4.294  12.554  0.4041 -0.3387  0.6460
  178DOPC   C1221728   2.488   4.379  12.647 -1.1067 -1.0451  0.0822
  178DOPC  H12A21729   2.566   4.421  12.585  0.3810 -1.0542  1.8959
  178DOPC  H12B21730   2.541   4.314  12.714 -1.9163 -1.4716  0.3210
  178DOPC   C1321731   2.323   4.206  12.640  0.5048  0.6644  0.6594
  178DOPC  H13A21732   2.245   4.267  12.682 -0.7758 -0.6284  0.2625
  178DOPC  H13B21733   2.272   4.132  12.580 -0.4867  1.3702  0.5988
  178DOPC  H13C21734   2.374   4.154  12.720 -0.5562  0.1495  1.0307
  178DOPC   C1421735   2.506   4.221  12.468 -0.0051 -0.4602 -0.9083
  178DOPC  H14A21736   2.463   4.156  12.393 -1.7149 -1.6159  0.9692
  178DOPC  H14B21737   2.568   4.289  12.412 -0.2982  1.4308  0.9554
  178DOPC  H14C21738   2.565   4.154  12.529 -2.4315 -0.2371  1.8970
  178DOPC   C1521739   2.326   4.387  12.456  0.2746  0.9570 -0.1708
  178DOPC  H15A21740   2.276   4.321  12.387  3.0427 -0.1434 -1.2675
  178DOPC  H15B21741   2.393   4.443  12.392  0.9506  0.1238 -0.2030
  178DOPC  H15C21742   2.259   4.455  12.507 -0.2110 -1.0323  2.0101
  178DOPC   C1121743   2.436   4.492  12.732 -0.2186 -0.1552  0.3783
  178DOPC  H11A21744   2.359   4.456  12.803 -0.7346  2.0755  1.0295
  178DOPC  H11B21745   2.515   4.537  12.796 -0.2233 -0.6151  0.7134
  178DOPC     P21746   2.424   4.727  12.598  0.0685 -0.0138 -0.4833
  178DOPC   O1321747   2.315   4.824  12.578 -0.3407 -0.3434 -0.2507
  178DOPC   O1421748   2.505   4.693  12.481  0.1216 -0.8923 -0.6367
  178DOPC   O1221749   2.363   4.593  12.658 -0.3997 -0.2379  0.3690
  178DOPC   O1121750   2.523   4.788  12.707 -0.3788  0.2114  0.3418
  178DOPC    C121751   2.471   4.809  12.839 -0.3546  0.0197 -0.6486
  178DOPC    HA21752   2.475   4.719  12.904 -0.1294  0.0428 -0.6309
  178DOPC    HB21753   2.365   4.840  12.834 -0.4932 -0.6103 -3.2323
  178DOPC    C221754   2.543   4.928  12.900 -0.8108 -0.2211  0.1614
  178DOPC    HS21755   2.653   4.916  12.888 -0.5831  0.6204  1.1845
  178DOPC   O2121756   2.500   4.937  13.037 -0.3768 -0.0592  0.4678
  178DOPC   C2121757   2.597   4.964  13.127 -0.4356  0.4822  0.0420
  178DOPC   O2221758   2.716   4.951  13.111  0.6220  0.2503  0.2890
  178DOPC   C2221759   2.526   5.013  13.246  0.0126 -0.3760 -0.4574
  178DOPC   H2R21760   2.471   4.932  13.299 -0.2178  1.1972  1.8563
  178DOPC   H2S21761   2.441   5.083  13.228  0.2901 -0.1795 -1.0145
  178DOPC    C321762   2.514   5.062  12.825 -0.6756  0.5545 -0.2529
  178DOPC    HX21763   2.404   5.071  12.813 -0.5585  1.4014 -0.8079
  178DOPC    HY21764   2.555   5.043  12.723 -1.5821  2.2578 -0.9874
  178DOPC   O3121765   2.564   5.185  12.892  0.4265 -0.0122  0.2313
  178DOPC   C3121766   2.489   5.255  12.969 -0.0334 -0.3613 -1.2893
  178DOPC   O3221767   2.378   5.223  13.002 -0.0394  0.3148  0.7297
  178DOPC   C3221768   2.570   5.379  13.018  0.4261  0.1861 -0.9341
  178DOPC   H2X21769   2.668   5.343  13.057 -0.1884 -2.5132 -1.6759
  178DOPC   H2Y21770   2.591   5.449  12.934  0.3092  0.0453 -1.0793
  178DOPC   C2321771   2.618   5.089  13.352  0.0132  0.0339 -0.3617
  178DOPC   H3R21772   2.676   5.173  13.308 -0.2428  0.4723  0.1282
  178DOPC   H3S21773   2.695   5.017  13.389 -1.5152 -1.0009  0.9652
  178DOPC   C2421774   2.548   5.143  13.477  0.4222 -0.7112  0.0062
  178DOPC   H4R21775   2.501   5.054  13.524 -2.1712  0.2918 -0.4814
  178DOPC   H4S21776   2.460   5.209  13.462  0.6765 -0.5955 -1.1144
  178DOPC   C2521777   2.650   5.206  13.571  0.6020  0.3676 -0.3818
  178DOPC   H5R21778   2.668   5.309  13.536  0.3230  0.3942 -0.4518
  178DOPC   H5S21779   2.744   5.147  13.570  0.3506 -0.1354  1.2540
  178DOPC   C2621780   2.589   5.206  13.713 -0.5969 -0.5095 -0.0800
  178DOPC   H6R21781   2.579   5.100  13.747 -1.2242 -0.3018  0.3964
  178DOPC   H6S21782   2.490   5.256  13.718  0.2704  1.6052 -2.3054
  178DOPC   C2721783   2.689   5.279  13.811  0.2031 -0.8695 -0.1629
  178DOPC   H7R21784   2.712   5.383  13.780  1.7466 -1.1450 -0.0422
  178DOPC   H7S21785   2.781   5.217  13.823  1.6237  1.3873  1.2807
  178DOPC   C2821786   2.617   5.302  13.948  0.3067 -0.3440 -0.0289
  178DOPC   H8R21787   2.613   5.196  13.980  3.2374 -0.4065  0.4313
  178DOPC   H8S21788   2.525   5.348  13.906  1.4271  0.9062 -1.2306
  178DOPC   C2921789   2.671   5.397  14.053  0.2406  0.0741 -0.2346
  178DOPC   H9R21790   2.682   5.496  14.006  0.2848  0.4413  0.5345
  178DOPC  C21021791   2.694   5.382  14.186  0.2711  0.3758  0.2810
  178DOPC  H10R21792   2.729   5.471  14.240  0.5110 -0.6887  1.9471
  178DOPC  C21121793   2.694   5.248  14.260 -0.1360 -0.0221 -0.5582
  178DOPC  H11R21794   2.785   5.241  14.323  0.8932  1.5345 -1.7706
  178DOPC  H11S21795   2.699   5.160  14.193  1.6017 -0.5728  0.2259
  178DOPC  C21221796   2.572   5.224  14.348  0.5153 -0.0670  0.1841
  178DOPC  H12R21797   2.483   5.270  14.299  0.3503 -1.2099 -0.6287
  178DOPC  H12S21798   2.587   5.293  14.433 -1.6902  1.0704 -0.2703
  178DOPC  C21321799   2.550   5.082  14.401 -0.1103  0.2976  0.1347
  178DOPC  H13R21800   2.649   5.049  14.438 -0.5630 -0.4893  0.6680
  178DOPC  H13S21801   2.526   5.016  14.316 -1.3852 -1.1159  1.5148
  178DOPC  C21421802   2.438   5.067  14.510  0.0458 -0.4522 -0.8169
  178DOPC  H14R21803   2.393   5.166  14.528  0.1688 -0.5931  0.3107
  178DOPC  H14S21804   2.485   5.030  14.604  1.0392  0.8805 -0.7620
  178DOPC  C21521805   2.328   4.973  14.462 -0.7251  0.0580  0.3363
  178DOPC  H15R21806   2.386   4.887  14.423  0.8957  1.9720 -1.8193
  178DOPC  H15S21807   2.278   5.026  14.378  0.9793  2.0547  0.4785
  178DOPC  C21621808   2.221   4.940  14.568 -0.7369  0.3521 -0.8168
  178DOPC  H16R21809   2.168   5.035  14.592  0.8932  0.6506  2.0433
  178DOPC  H16S21810   2.280   4.912  14.658  1.1346 -1.2856 -2.4590
  178DOPC  C21721811   2.121   4.828  14.543 -0.2373 -0.6343 -0.0168
  178DOPC  H17R21812   2.177   4.740  14.505  1.5156 -0.1678  1.3298
  178DOPC  H17S21813   2.052   4.859  14.462 -0.5879 -0.8037  0.2141
  178DOPC  C21821814   2.036   4.799  14.661  0.4975 -0.7601  0.3414
  178DOPC  H18R21815   2.000   4.694  14.658 -2.7044  0.1863  1.5122
  178DOPC  H18S21816   1.944   4.861  14.658  0.7860 -0.3364  0.2406
  178DOPC  H18T21817   2.093   4.817  14.754 -0.2329  0.2991  0.6003
  178DOPC   C3321818   2.486   5.461  13.119 -0.3026 -0.4789  0.3451
  178DOPC   H3X21819   2.383   5.479  13.084 -0.1904 -0.8950 -0.2106
  178DOPC   H3Y21820   2.533   5.562  13.123  0.5267 -0.7893 -0.9039
  178DOPC   C3421821   2.500   5.425  13.265  0.1562  0.1975 -0.3223
  178DOPC   H4X21822   2.607   5.425  13.292 -0.1317  2.3848  1.1306
  178DOPC   H4Y21823   2.456   5.324  13.279  0.7248  0.2228  2.0878
  178DOPC   C3521824   2.424   5.530  13.350 -0.8809  0.3764 -0.6357
  178DOPC   H5X21825   2.314   5.526  13.331 -0.7879 -0.2264 -1.0893
  178DOPC   H5Y21826   2.462   5.628  13.314 -1.4638  0.6101 -0.6284
  178DOPC   C3621827   2.455   5.507  13.493 -0.1834 -0.1622 -0.3574
  178DOPC   H6X21828   2.396   5.421  13.531  1.1436 -0.8264  0.2655
  178DOPC   H6Y21829   2.559   5.486  13.526  0.0430  1.1198 -0.2168
  178DOPC   C3721830   2.394   5.623  13.578 -0.3088  0.1183  0.5376
  178DOPC   H7X21831   2.446   5.712  13.536  2.0666 -0.4268  2.0694
  178DOPC   H7Y21832   2.286   5.628  13.554 -0.2100 -2.5012 -0.8510
  178DOPC   C3821833   2.415   5.587  13.725  0.9393  0.2701  0.3393
  178DOPC   H8X21834   2.506   5.527  13.743  0.1869 -1.0387 -0.0637
  178DOPC   H8Y21835   2.337   5.507  13.724  1.7465 -0.5437 -0.8777
  178DOPC   C3921836   2.384   5.701  13.819  0.0834  0.2577 -0.1368
  178DOPC   H9X21837   2.285   5.749  13.813  0.4063  0.8725 -0.6828
  178DOPC  C31021838   2.473   5.776  13.878  0.2012  0.0052 -0.7405
  178DOPC  H10X21839   2.437   5.869  13.924 -1.6542 -0.6358 -0.7984
  178DOPC  C31121840   2.619   5.756  13.871  0.2002  0.6248  0.0389
  178DOPC  H11X21841   2.658   5.836  13.805 -0.5625 -0.6976 -2.1127
  178DOPC  H11Y21842   2.645   5.660  13.822  0.9058  0.9453 -0.2273
  178DOPC  C31221843   2.702   5.770  14.004  0.4423 -0.6364 -0.0433
  178DOPC  H12X21844   2.807   5.748  13.972  0.6247  2.1226 -1.7129
  178DOPC  H12Y21845   2.680   5.699  14.086  0.3679  0.4266  0.8776
  178DOPC  C31321846   2.706   5.913  14.059 -0.2010 -0.0177 -0.0008
  178DOPC  H13X21847   2.782   5.979  14.012 -0.4201  0.9668  0.9816
  178DOPC  H13Y21848   2.606   5.956  14.038 -0.3089 -1.1408 -2.0087
  178DOPC  C31421849   2.747   5.912  14.207 -0.3534  0.2075 -0.3807
  178DOPC  H14X21850   2.831   5.843  14.228 -1.1297 -0.1603  1.8324
  178DOPC  H14Y21851   2.774   6.018  14.227 -1.7361  0.5818 -0.3327
  178DOPC  C31521852   2.643   5.867  14.305  0.0707 -0.4718  0.1025
  178DOPC  H15X21853   2.596   5.773  14.269 -0.5079 -0.7341  1.4697
  178DOPC  H15Y21854   2.558   5.939  14.308  2.2442  2.2233 -0.2109
  178DOPC  C31621855   2.700   5.855  14.447  0.4682 -0.4056  0.5311
  178DOPC  H16X21856   2.712   5.747  14.473  1.2443 -0.2517  0.8285
  178DOPC  H16Y21857   2.794   5.913  14.448  0.7473 -0.8471  0.2387
  178DOPC  C31721858   2.603   5.903  14.553  0.1304 -0.0101  0.4084
  178DOPC  H17X21859   2.540   5.989  14.522  0.2182 -0.2995 -0.5893
  178DOPC  H17Y21860   2.532   5.822  14.579 -0.4837 -0.1371 -1.4964
  178DOPC  C31821861   2.680   5.928  14.685 -0.1449 -0.2711 -0.1474
  178DOPC  H18X21862   2.752   6.012  14.672 -1.8588  1.2242 -0.4384
  178DOPC  H18Y21863   2.613   5.963  14.767 -0.6795 -2.4185  0.3771
  178DOPC  H18Z21864   2.727   5.837  14.726 -0.6036 -0.3239  0.2802
  179DOPC     N21865   0.227   4.364  11.374 -0.2550  0.2134  0.6681
  179DOPC   C1221866   0.193   4.408  11.518 -0.1578 -0.5254  0.7937
  179DOPC  H12A21867   0.163   4.512  11.521  1.1094  0.0238 -2.3370
  179DOPC  H12B21868   0.283   4.407  11.578  0.0522 -0.2195  0.4832
  179DOPC   C1321869   0.255   4.212  11.371  0.0356 -0.0408 -0.0108
  179DOPC  H13A21870   0.327   4.183  11.446  0.7657  1.9431  0.0992
  179DOPC  H13B21871   0.165   4.162  11.404 -1.0740  2.4319  0.9196
  179DOPC  H13C21872   0.288   4.183  11.272  1.5566  0.8986  0.1908
  179DOPC   C1421873   0.355   4.425  11.325 -0.6056  0.3013 -0.2995
  179DOPC  H14A21874   0.343   4.530  11.348 -1.0170  0.6848 -2.1129
  179DOPC  H14B21875   0.438   4.385  11.382 -2.7228 -1.5098  1.6685
  179DOPC  H14C21876   0.369   4.413  11.218 -1.3819  1.5555 -0.5663
  179DOPC   C1521877   0.115   4.392  11.280  0.0415 -0.7353 -1.0455
  179DOPC  H15A21878   0.136   4.376  11.175  0.9968  1.1643 -1.1859
  179DOPC  H15B21879   0.102   4.500  11.276  1.3530 -0.3994  1.6475
  179DOPC  H15C21880   0.019   4.354  11.311  1.4010 -2.1583  1.6835
  179DOPC   C1121881   0.078   4.338  11.600  0.7887  0.6061 -0.1095
  179DOPC  H11A21882   0.056   4.400  11.689  1.3078  0.9093 -0.1870
  179DOPC  H11B21883  -0.012   4.326  11.536  1.7092 -2.1344 -1.0298
  179DOPC     P21884   0.214   4.170  11.736  0.4416 -0.3401 -0.0271
  179DOPC   O1321885   0.305   4.284  11.758  0.1215  0.0227  0.0628
  179DOPC   O1421886   0.278   4.039  11.711 -0.3524 -0.1806 -0.3775
  179DOPC   O1221887   0.103   4.200  11.630  0.0029 -0.3306 -0.5378
  179DOPC   O1121888   0.125   4.157  11.868  0.3528  0.2236 -0.3401
  179DOPC    C121889   0.006   4.082  11.871  0.3228 -0.1100  0.3128
  179DOPC    HA21890   0.017   3.992  11.807 -0.7063  0.6003 -0.8952
  179DOPC    HB21891  -0.070   4.139  11.814 -0.1959 -1.3732 -0.3060
  179DOPC    C221892  -0.030   4.052  12.019 -0.5963  0.0187  0.4343
  179DOPC    HS21893  -0.134   4.012  12.021 -0.6335 -0.1756 -2.1649
  179DOPC   O2121894  -0.011   4.175  12.099 -0.1809  0.0590 -0.3253
  179DOPC   C2121895  -0.084   4.275  12.071 -0.0312  0.3965  0.0399
  179DOPC   O2221896  -0.195   4.268  12.021 -0.0102 -0.2998  0.4568
  179DOPC   C2221897  -0.023   4.406  12.119 -0.3836 -0.4210 -0.2376
  179DOPC   H2R21898  -0.022   4.473  12.030  2.8572  0.3977  0.2796
  179DOPC   H2S21899   0.081   4.392  12.155  0.5723  3.4238 -1.0876
  179DOPC    C321900   0.064   3.943  12.075 -0.2379 -0.6887  0.0044
  179DOPC    HX21901   0.168   3.968  12.045 -0.8571  0.4400 -1.3696
  179DOPC    HY21902   0.033   3.849  12.025 -0.7556 -0.8260  0.5735
  179DOPC   O3121903   0.058   3.929  12.216  0.3234  0.0022  0.2103
  179DOPC   C3121904   0.158   3.863  12.269 -1.1270  0.6548  0.6961
  179DOPC   O3221905   0.255   3.815  12.207  0.0825 -0.8341  0.0838
  179DOPC   C3221906   0.143   3.834  12.418  0.0428 -0.1875  0.2152
  179DOPC   H2X21907   0.034   3.819  12.432 -0.4677  0.2671 -2.5397
  179DOPC   H2Y21908   0.206   3.745  12.438 -0.9331 -0.8308  0.5286
  179DOPC   C2321909  -0.114   4.459  12.237  0.3114 -0.6359  0.7716
  179DOPC   H3R21910  -0.217   4.479  12.200  0.7191  1.5371  0.6664
  179DOPC   H3S21911  -0.065   4.556  12.259  0.9508 -0.8532  0.3589
  179DOPC   C2421912  -0.111   4.372  12.363 -0.4868  0.9914 -0.4555
  179DOPC   H4R21913  -0.004   4.346  12.374 -0.8580 -1.1906 -1.2807
  179DOPC   H4S21914  -0.169   4.279  12.341  0.7455 -0.4354  1.8687
  179DOPC   C2521915  -0.156   4.443  12.493  0.1305 -0.2522 -0.8125
  179DOPC   H5R21916  -0.206   4.531  12.446 -2.0701 -0.6830  0.5515
  179DOPC   H5S21917  -0.070   4.481  12.553 -1.1490  0.7510  0.4847
  179DOPC   C2621918  -0.259   4.365  12.575 -0.1784 -0.2602  0.2690
  179DOPC   H6R21919  -0.284   4.421  12.668  3.6921  0.8430  0.8439
  179DOPC   H6S21920  -0.222   4.268  12.615 -0.9122  0.1023  1.9306
  179DOPC   C2721921  -0.382   4.329  12.495  0.4469 -0.5141  0.5858
  179DOPC   H7R21922  -0.359   4.251  12.419 -1.1481  0.4598 -0.9875
  179DOPC   H7S21923  -0.419   4.424  12.450  0.5969 -0.0483  1.4295
  179DOPC   C2821924  -0.494   4.276  12.578  0.7002 -0.4758 -0.7745
  179DOPC   H8R21925  -0.454   4.210  12.658 -0.1524 -0.5639 -0.4058
  179DOPC   H8S21926  -0.567   4.218  12.518 -0.4528  0.1937 -0.0614
  179DOPC   C2921927  -0.581   4.377  12.647  0.1266  0.5137 -0.1249
  179DOPC   H9R21928  -0.655   4.427  12.583 -0.0958  1.2364  0.6763
  179DOPC  C21021929  -0.597   4.394  12.775  0.0968 -0.7368 -0.5686
  179DOPC  H10R21930  -0.656   4.480  12.810 -0.5182 -1.4535  0.1798
  179DOPC  C21121931  -0.519   4.329  12.882 -0.2860 -0.1948  0.3885
  179DOPC  H11R21932  -0.455   4.415  12.910  1.3875 -2.0027  2.6181
  179DOPC  H11S21933  -0.447   4.250  12.851  0.8873  1.1638 -0.4368
  179DOPC  C21221934  -0.595   4.287  13.011  0.6168 -0.0194 -0.6541
  179DOPC  H12R21935  -0.663   4.202  12.988  0.5559 -0.6712  1.7479
  179DOPC  H12S21936  -0.664   4.369  13.042 -0.1935 -0.9906  0.1718
  179DOPC  C21321937  -0.499   4.259  13.129  0.4261  0.3078  0.8085
  179DOPC  H13R21938  -0.434   4.349  13.141  0.0367  0.5544  1.0721
  179DOPC  H13S21939  -0.436   4.178  13.086  0.7581  0.8666  0.2182
  179DOPC  C21421940  -0.553   4.223  13.268  0.0280 -0.7550  0.6321
  179DOPC  H14R21941  -0.605   4.125  13.258  1.1241 -1.4062  1.2239
  179DOPC  H14S21942  -0.626   4.302  13.295  0.0734 -0.4235 -0.2016
  179DOPC  C21521943  -0.450   4.230  13.371 -0.3250 -0.5312 -0.3181
  179DOPC  H15R21944  -0.411   4.334  13.368  0.1573 -0.6701  0.7823
  179DOPC  H15S21945  -0.364   4.164  13.345 -0.7243 -0.4184 -2.0399
  179DOPC  C21621946  -0.502   4.191  13.518 -0.3829  0.2651  0.6829
  179DOPC  H16R21947  -0.518   4.081  13.512  2.4048 -0.2321  1.1254
  179DOPC  H16S21948  -0.601   4.240  13.535 -0.6746  0.1397 -0.5790
  179DOPC  C21721949  -0.407   4.220  13.638  1.0126  0.0688 -0.5073
  179DOPC  H17R21950  -0.419   4.329  13.627 -1.8061 -0.3623 -3.1767
  179DOPC  H17S21951  -0.304   4.186  13.615  0.8522 -0.9482  0.1759
  179DOPC  C21821952  -0.447   4.176  13.773 -0.1110 -0.1364 -0.4801
  179DOPC  H18R21953  -0.443   4.065  13.766  0.7432 -0.0385 -1.9251
  179DOPC  H18S21954  -0.546   4.214  13.806  0.5946  0.5240  0.9177
  179DOPC  H18T21955  -0.371   4.216  13.843  2.1734 -2.4681 -1.4682
  179DOPC   C3321956   0.193   3.950  12.507 -0.0960 -0.2327  0.1733
  179DOPC   H3X21957   0.302   3.971  12.498 -0.5346  2.5528  0.5046
  179DOPC   H3Y21958   0.168   3.914  12.609  1.2701 -0.2571  0.5236
  179DOPC   C3421959   0.132   4.089  12.485 -0.3567  0.6056  0.0721
  179DOPC   H4X21960   0.025   4.079  12.456  0.3484  1.2599 -3.2234
  179DOPC   H4Y21961   0.175   4.128  12.390  1.8173 -3.1216 -0.6867
  179DOPC   C3521962   0.165   4.194  12.597 -0.0589  0.5445  0.4729
  179DOPC   H5X21963   0.115   4.287  12.564  0.5216  0.2747 -1.2411
  179DOPC   H5Y21964   0.275   4.208  12.596  0.3801 -2.3507 -0.6739
  179DOPC   C3621965   0.114   4.142  12.735 -0.2772 -0.2760  0.2466
  179DOPC   H6X21966   0.003   4.147  12.734 -0.3246 -1.0635  0.8083
  179DOPC   H6Y21967   0.153   4.039  12.746 -2.4894 -1.1959 -0.0995
  179DOPC   C3721968   0.176   4.225  12.854 -0.3948 -0.2379 -0.7380
  179DOPC   H7X21969   0.275   4.190  12.890  1.0538  2.5992 -1.5972
  179DOPC   H7Y21970   0.188   4.330  12.819 -0.2379  0.0928  0.2824
  179DOPC   C3821971   0.087   4.234  12.978 -0.0756  0.2171  0.1661
  179DOPC   H8X21972   0.143   4.274  13.066  0.3302 -0.5828  0.2830
  179DOPC   H8Y21973   0.054   4.133  13.009  0.0109 -0.2824 -1.3335
  179DOPC   C3921974  -0.039   4.305  12.969  0.3472 -0.1744  0.9599
  179DOPC   H9X21975  -0.058   4.339  12.866  0.0569  0.2268  1.1423
  179DOPC  C31021976  -0.137   4.322  13.053  0.4603 -0.5336  0.2138
  179DOPC  H10X21977  -0.228   4.371  13.014 -0.6440  0.0276  3.2703
  179DOPC  C31121978  -0.151   4.294  13.201 -0.3695 -0.6231  0.6128
  179DOPC  H11X21979  -0.213   4.204  13.222  0.1200 -0.8609  1.0695
  179DOPC  H11Y21980  -0.214   4.373  13.247 -0.4764 -0.0851 -0.4430
  179DOPC  C31221981  -0.021   4.281  13.280 -0.3939  0.1012 -0.9097
  179DOPC  H12X21982   0.044   4.365  13.248 -1.6896  1.0892 -1.0437
  179DOPC  H12Y21983   0.036   4.187  13.273  0.3694  0.5528 -0.8711
  179DOPC  C31321984  -0.055   4.302  13.433 -0.4011  0.2005  0.6378
  179DOPC  H13X21985  -0.104   4.402  13.444 -2.2240 -0.7111  1.1018
  179DOPC  H13Y21986  -0.131   4.226  13.460  0.8399 -0.9238  1.0670
  179DOPC  C31421987   0.058   4.285  13.537 -0.7324 -0.2135  0.2896
  179DOPC  H14X21988   0.117   4.196  13.507  0.7243  0.6680  0.4327
  179DOPC  H14Y21989   0.123   4.371  13.508 -1.3716  0.1223 -0.1778
  179DOPC  C31521990   0.016   4.279  13.685 -0.1759 -0.2660  0.0941
  179DOPC  H15X21991  -0.033   4.182  13.708  1.6793 -0.9567  1.3365
  179DOPC  H15Y21992  -0.063   4.356  13.702  0.8060  0.6749  0.4633
  179DOPC  C31621993   0.136   4.306  13.780 -0.0172 -0.5836  0.1889
  179DOPC  H16X21994   0.217   4.238  13.745 -0.4544 -0.7167 -0.5866
  179DOPC  H16Y21995   0.165   4.413  13.777 -2.1121  0.0311  0.3772
  179DOPC  C31721996   0.105   4.263  13.923 -0.1678  0.0176 -1.0702
  179DOPC  H17X21997   0.012   4.313  13.959  0.6283  0.5027  0.4070
  179DOPC  H17Y21998   0.098   4.153  13.932  2.4577 -0.1440  0.0012
  179DOPC  C31821999   0.218   4.307  14.025  0.0907 -0.1204  0.2549
  179DOPC  H18X22000   0.238   4.416  14.030  0.1245 -0.0572 -0.9916
  179DOPC  H18Y22001   0.191   4.273  14.127 -0.1541 -3.5897 -0.8336
  179DOPC  H18Z22002   0.312   4.257  13.996  0.5479  0.3482  0.9246
  180DOPC     N22003   6.083   3.250  11.512  0.1708 -0.4765  0.1662
  180DOPC   C1222004   6.034   3.148  11.613 -0.0907 -1.1476  0.4102
  180DOPC  H12A22005   5.926   3.154  11.614 -0.0576 -0.3665 -0.0082
  180DOPC  H12B22006   6.073   3.185  11.707  1.4907  0.3470 -0.7731
  180DOPC   C1322007   6.065   3.204  11.371  0.3728  0.2524  0.3548
  180DOPC  H13A22008   6.117   3.266  11.300 -2.1466  0.6288 -1.2999
  180DOPC  H13B22009   6.111   3.106  11.365 -1.2685 -0.4855 -3.9208
  180DOPC  H13C22010   5.961   3.191  11.344  1.0376 -0.7139 -2.0110
  180DOPC   C1422011   6.226   3.277  11.529  0.2674 -0.3778 -0.8482
  180DOPC  H14A22012   6.253   3.361  11.467  0.9163 -0.7893 -1.1297
  180DOPC  H14B22013   6.256   3.303  11.630 -0.7052 -1.7257 -0.1793
  180DOPC  H14C22014   6.288   3.195  11.496  1.3188  0.1422 -0.2124
  180DOPC   C1522015   5.999   3.376  11.527 -0.9125  0.2572 -0.7299
  180DOPC  H15A22016   6.033   3.460  11.467 -0.7446  0.7192  0.0034
  180DOPC  H15B22017   6.009   3.411  11.628  0.7853 -1.1261 -0.3671
  180DOPC  H15C22018   5.897   3.350  11.503 -1.3799 -1.7151  2.7790
  180DOPC   C1122019   6.083   3.004  11.602 -0.0901  0.2823  0.2797
  180DOPC  H11A22020   6.191   3.023  11.584 -0.2759 -0.1514 -1.4435
  180DOPC  H11B22021   6.067   2.946  11.696 -0.6186  0.8688  0.5588
  180DOPC     P22022   6.089   2.825  11.410  0.0369 -0.2044  0.4027
  180DOPC   O1322023   6.216   2.877  11.351 -0.0103 -0.0022 -0.9434
  180DOPC   O1422024   5.990   2.781  11.313  0.7789 -0.0408 -0.1896
  180DOPC   O1222025   6.028   2.941  11.492 -0.1462  0.1094  0.6093
  180DOPC   O1122026   6.122   2.706  11.510  0.3660 -0.0606 -0.3194
  180DOPC    C122027   6.015   2.660  11.602  0.5107 -0.0090  0.3981
  180DOPC    HA22028   5.950   2.586  11.549  1.3328 -0.7164  0.3496
  180DOPC    HB22029   5.948   2.743  11.634 -0.2367 -0.8907  1.1782
  180DOPC    C222030   6.058   2.604  11.739 -0.3434 -0.3892 -0.8085
  180DOPC    HS22031   6.105   2.690  11.792 -0.3543 -0.4581 -0.6876
  180DOPC   O2122032   6.152   2.495  11.709 -0.3294 -0.3047  0.5487
  180DOPC   C2122033   6.260   2.483  11.784  0.2575  0.3902 -0.1820
  180DOPC   O2222034   6.281   2.557  11.876  0.4993 -0.4492 -0.0829
  180DOPC   C2222035   6.333   2.351  11.754  0.3812 -0.0496 -1.2065
  180DOPC   H2R22036   6.407   2.359  11.672  1.2187 -0.2032 -0.4856
  180DOPC   H2S22037   6.261   2.279  11.711  2.1512 -1.2111 -2.3839
  180DOPC    C322038   5.943   2.546  11.819 -0.2703 -0.7210  0.2695
  180DOPC    HX22039   5.907   2.451  11.774 -0.3204 -1.0763  1.0496
  180DOPC    HY22040   5.858   2.615  11.802  1.5932  1.5378 -0.4856
  180DOPC   O3122041   5.978   2.532  11.954 -0.2516  0.3352  0.3838
  180DOPC   C3122042   5.938   2.628  12.032  0.7540 -0.7090 -0.2944
  180DOPC   O3222043   5.865   2.721  12.002  0.7667  0.0843  0.0050
  180DOPC   C3222044   5.988   2.615  12.176 -0.3914 -0.1946  0.3878
  180DOPC   H2X22045   6.064   2.534  12.173 -1.1032 -0.8703  0.5951
  180DOPC   H2Y22046   6.039   2.709  12.207  0.1626 -0.8429  1.5109
  180DOPC   C2322047   6.387   2.269  11.874 -0.5667  0.2675  0.3767
  180DOPC   H3R22048   6.316   2.255  11.958 -0.8279 -1.6674 -0.1068
  180DOPC   H3S22049   6.481   2.318  11.905  2.7927 -2.8499 -3.6802
  180DOPC   C2422050   6.435   2.126  11.824 -0.0962 -0.8669  0.4609
  180DOPC   H4R22051   6.545   2.137  11.813 -0.2550  0.2833 -0.1071
  180DOPC   H4S22052   6.384   2.095  11.730  0.0825 -1.4379  0.5495
  180DOPC   C2522053   6.401   2.023  11.934  0.1478 -0.0942  0.8666
  180DOPC   H5R22054   6.412   1.924  11.885  0.5500  1.2690 -2.0217
  180DOPC   H5S22055   6.296   2.039  11.965 -0.6623 -0.8955 -1.2706
  180DOPC   C2622056   6.475   2.023  12.068 -0.0768  0.4299 -0.0892
  180DOPC   H6R22057   6.453   2.110  12.134 -0.1576  1.5557 -1.5568
  180DOPC   H6S22058   6.585   2.012  12.056 -0.0499 -1.3366  1.3131
  180DOPC   C2722059   6.436   1.898  12.148 -0.0637  0.4684 -0.6433
  180DOPC   H7R22060   6.459   1.812  12.082  2.6496  0.3572  0.2930
  180DOPC   H7S22061   6.330   1.879  12.177  0.6777 -2.0140  0.7485
  180DOPC   C2822062   6.512   1.881  12.283  0.4588 -0.2686 -0.1610
  180DOPC   H8R22063   6.622   1.880  12.266  0.5883  2.4133 -0.0551
  180DOPC   H8S22064   6.486   1.789  12.339  0.2298  0.2527  0.6013
  180DOPC   C2922065   6.495   1.981  12.390  0.9644 -0.3671 -0.2902
  180DOPC   H9R22066   6.511   2.087  12.366  0.4244  0.2645  1.8982
  180DOPC  C21022067   6.486   1.955  12.519 -0.3596 -0.3743  0.3007
  180DOPC  H10R22068   6.486   2.037  12.593  0.1352 -0.8331  0.8237
  180DOPC  C21122069   6.479   1.821  12.588  0.4842 -0.8581 -0.2083
  180DOPC  H11R22070   6.529   1.741  12.529  0.8446 -2.1298  1.7414
  180DOPC  H11S22071   6.372   1.795  12.604 -0.4935  2.3081 -0.9264
  180DOPC  C21222072   6.537   1.825  12.732 -0.8241 -0.7815 -0.0021
  180DOPC  H12R22073   6.492   1.914  12.781  2.1447  0.4360  0.7488
  180DOPC  H12S22074   6.647   1.837  12.724 -1.1189  3.4587  0.3610
  180DOPC  C21322075   6.501   1.703  12.811  0.2191  0.2532 -0.4551
  180DOPC  H13R22076   6.531   1.611  12.757 -0.8734 -0.6820  0.4772
  180DOPC  H13S22077   6.391   1.694  12.816  0.2189 -2.1669 -2.9718
  180DOPC  C21422078   6.562   1.692  12.945  0.2227 -0.1592  0.3830
  180DOPC  H14R22079   6.671   1.712  12.932  0.8895 -3.1291  0.6975
  180DOPC  H14S22080   6.547   1.592  12.992 -2.7861 -0.4423 -0.9451
  180DOPC  C21522081   6.518   1.795  13.054 -0.1104 -0.6422 -0.2879
  180DOPC  H15R22082   6.411   1.790  13.082  0.3306  0.6535  1.8317
  180DOPC  H15S22083   6.554   1.892  13.014  4.2433 -1.7109  0.5589
  180DOPC  C21622084   6.607   1.774  13.179  0.0002 -0.0154  0.2331
  180DOPC  H16R22085   6.715   1.775  13.150  0.2795  0.2179  1.2356
  180DOPC  H16S22086   6.597   1.675  13.229  1.7404  0.3361  1.3815
  180DOPC  C21722087   6.572   1.888  13.279  0.4165  0.1239  0.1496
  180DOPC  H17R22088   6.470   1.876  13.323  0.2778 -1.0748 -0.4392
  180DOPC  H17S22089   6.564   1.983  13.223 -0.3986 -0.1041 -0.1472
  180DOPC  C21822090   6.664   1.915  13.401 -0.4423  0.2268  0.0219
  180DOPC  H18R22091   6.635   2.009  13.452 -1.1705  0.6622 -1.1458
  180DOPC  H18S22092   6.762   1.929  13.351 -2.0102  4.2072 -2.3657
  180DOPC  H18T22093   6.667   1.829  13.472 -0.8276  0.2460  0.0669
  180DOPC   C3322094   5.884   2.576  12.277  0.2439 -0.1717  0.1406
  180DOPC   H3X22095   5.846   2.473  12.259 -2.1271  0.5400  0.7078
  180DOPC   H3Y22096   5.796   2.644  12.268 -0.4513 -1.1027 -0.3698
  180DOPC   C3422097   5.935   2.582  12.421  0.3591  0.2722 -0.6591
  180DOPC   H4X22098   5.967   2.685  12.449 -0.9122  0.2374  1.0772
  180DOPC   H4Y22099   6.034   2.532  12.419 -0.4006 -1.3098 -0.0212
  180DOPC   C3522100   5.844   2.510  12.518 -0.2939  0.2791  0.1692
  180DOPC   H5X22101   5.836   2.407  12.479 -0.4748  0.4648 -0.2912
  180DOPC   H5Y22102   5.739   2.548  12.517 -0.1495  0.7359  0.8654
  180DOPC   C3622103   5.899   2.498  12.663 -0.1177  0.2956 -0.3683
  180DOPC   H6X22104   5.989   2.433  12.666 -0.6502 -0.5287 -1.5162
  180DOPC   H6Y22105   5.924   2.600  12.699 -0.7469  0.6287 -0.8577
  180DOPC   C3722106   5.801   2.438  12.758  0.3610  0.0504 -0.3941
  180DOPC   H7X22107   5.744   2.526  12.794  0.5120  1.7475 -3.9691
  180DOPC   H7Y22108   5.717   2.382  12.711 -1.5575  1.2847  1.3737
  180DOPC   C3822109   5.871   2.361  12.866 -0.1711  0.1110 -0.9763
  180DOPC   H8X22110   5.957   2.425  12.894 -1.0504  0.4669  1.0574
  180DOPC   H8Y22111   5.914   2.264  12.831 -0.3058 -0.4087  0.2340
  180DOPC   C3922112   5.767   2.332  12.973 -0.2044 -0.7293 -0.1678
  180DOPC   H9X22113   5.668   2.302  12.936  0.3660 -0.0053 -2.4574
  180DOPC  C31022114   5.795   2.325  13.102 -0.2832  0.2182 -0.1244
  180DOPC  H10X22115   5.729   2.277  13.176  0.0712 -0.4535 -0.2383
  180DOPC  C31122116   5.932   2.359  13.159  0.5017  0.9044 -0.7589
  180DOPC  H11X22117   5.937   2.470  13.149  1.3465  1.1449  1.7064
  180DOPC  H11Y22118   6.019   2.316  13.106 -0.1098 -1.9399  0.3824
  180DOPC  C31222119   5.956   2.325  13.304  0.4783  0.6903 -0.4985
  180DOPC  H12X22120   6.058   2.359  13.331  0.7985  1.0334 -2.0803
  180DOPC  H12Y22121   5.950   2.215  13.321 -1.0071  0.5400 -1.8522
  180DOPC  C31322122   5.859   2.385  13.406  0.2372 -0.5356  0.2694
  180DOPC  H13X22123   5.865   2.496  13.395 -2.1121 -0.3697  0.1989
  180DOPC  H13Y22124   5.757   2.354  13.377  0.3021 -3.2309  2.4779
  180DOPC  C31422125   5.880   2.337  13.550  0.6094  0.0470 -0.0245
  180DOPC  H14X22126   5.988   2.355  13.574  1.3718 -1.6873 -1.8577
  180DOPC  H14Y22127   5.830   2.407  13.620  3.1596  1.6548  0.3492
  180DOPC  C31522128   5.851   2.189  13.580  0.1895 -0.1406  0.0954
  180DOPC  H15X22129   5.931   2.123  13.542 -1.0442 -1.7643  0.2205
  180DOPC  H15Y22130   5.756   2.159  13.530 -1.3524  1.2921  1.9853
  180DOPC  C31622131   5.812   2.171  13.724  0.2136  0.2860  0.3709
  180DOPC  H16X22132   5.889   2.220  13.789 -1.2133  0.8629  1.6960
  180DOPC  H16Y22133   5.712   2.217  13.743 -0.8425 -0.4586 -2.7980
  180DOPC  C31722134   5.799   2.032  13.770  0.0488  0.2250  0.5515
  180DOPC  H17X22135   5.725   1.985  13.702 -0.7271  0.6165  1.0976
  180DOPC  H17Y22136   5.897   1.981  13.762  1.1129  2.0519  1.3624
  180DOPC  C31822137   5.740   2.001  13.917 -0.6033  0.1129  0.9695
  180DOPC  H18X22138   5.746   1.890  13.916  0.1107  0.0951 -1.9117
  180DOPC  H18Y22139   5.791   2.054  14.000 -1.9869  1.7700  0.8345
  180DOPC  H18Z22140   5.634   2.031  13.898 -0.7015 -2.4404 -3.9546
  181DOPC     N22141   3.125   4.186  12.463  0.3626  0.1750  0.5147
  181DOPC   C1222142   3.163   4.176  12.611  1.0964  0.0920 -0.4406
  181DOPC  H12A22143   3.070   4.164  12.665  0.5810  2.1959 -0.7435
  181DOPC  H12B22144   3.192   4.275  12.643 -1.4616  0.9256 -0.4442
  181DOPC   C1322145   3.029   4.291  12.433 -0.1090 -0.4500  0.7593
  181DOPC  H13A22146   2.948   4.267  12.500 -0.3969 -1.3696  0.0996
  181DOPC  H13B22147   3.073   4.387  12.458  2.6011 -1.0786 -1.2047
  181DOPC  H13C22148   2.996   4.295  12.330  0.4311 -1.2674  0.5443
  181DOPC   C1422149   3.071   4.049  12.406 -0.6740 -0.0771 -0.3633
  181DOPC  H14A22150   2.983   4.014  12.458 -0.6460 -0.7399 -0.7564
  181DOPC  H14B22151   3.037   4.064  12.305  0.2443 -1.7271 -0.9571
  181DOPC  H14C22152   3.145   3.972  12.393 -0.1412  0.5104 -0.8425
  181DOPC   C1522153   3.250   4.211  12.378  0.2251  0.4521 -0.3541
  181DOPC  H15A22154   3.327   4.141  12.411  1.3730  0.7551 -2.2304
  181DOPC  H15B22155   3.297   4.307  12.390 -1.0374  1.3045 -1.9248
  181DOPC  H15C22156   3.235   4.200  12.272  0.2487  0.9517 -0.4107
  181DOPC   C1122157   3.266   4.077  12.654 -0.2111 -0.0970  0.2189
  181DOPC  H11A22158   3.233   3.974  12.628  0.1343 -0.1082 -0.1810
  181DOPC  H11B22159   3.361   4.093  12.599  0.4507 -1.8731  0.7691
  181DOPC     P22160   3.392   4.200  12.838 -0.1683  0.4998  0.1845
  181DOPC   O1322161   3.366   4.318  12.756 -0.4259 -0.1379  0.4550
  181DOPC   O1422162   3.526   4.140  12.841 -0.1650  0.0319 -0.0026
  181DOPC   O1222163   3.292   4.084  12.794  0.3809  0.6339 -0.7746
  181DOPC   O1122164   3.350   4.237  12.986  0.3259 -0.7969 -0.2409
  181DOPC    C122165   3.208   4.233  13.015  0.0934 -0.0978  0.0141
  181DOPC    HA22166   3.170   4.129  13.008  1.2595 -0.6246  1.0656
  181DOPC    HB22167   3.149   4.287  12.938  0.5196 -0.0715 -0.2917
  181DOPC    C222168   3.158   4.266  13.167 -0.4195 -0.2179  0.7193
  181DOPC    HS22169   3.171   4.377  13.168 -1.4793 -0.0453 -0.7663
  181DOPC   O2122170   3.249   4.204  13.263  0.2876  0.4042  0.2031
  181DOPC   C2122171   3.314   4.287  13.347 -0.2468  0.0856  1.1009
  181DOPC   O2222172   3.321   4.408  13.334  0.2901 -0.2802  0.5108
  181DOPC   C2222173   3.382   4.212  13.460  0.7770  0.1131  0.3587
  181DOPC   H2R22174   3.490   4.238  13.455  1.0344 -0.7698  1.0924
  181DOPC   H2S22175   3.380   4.103  13.441 -0.7617  0.1923 -0.0546
  181DOPC    C322176   3.014   4.227  13.188  0.3187 -0.0030  1.1432
  181DOPC    HX22177   3.009   4.127  13.139  0.3779  1.8455 -3.0219
  181DOPC    HY22178   2.952   4.300  13.132  0.8886  0.1457  0.7113
  181DOPC   O3122179   2.985   4.239  13.328  0.0466 -0.4751  0.0796
  181DOPC   C3122180   2.859   4.203  13.353 -0.6915  0.3548 -0.4741
  181DOPC   O3222181   2.774   4.166  13.273  0.2041 -0.7808 -0.3463
  181DOPC   C3222182   2.826   4.207  13.503  0.2119 -0.0269  0.2191
  181DOPC   H2X22183   2.860   4.113  13.552 -0.2057 -1.8561 -2.7242
  181DOPC   H2Y22184   2.872   4.297  13.549  0.0055  0.2264 -0.0688
  181DOPC   C2322185   3.329   4.248  13.598  0.4149 -0.2936  0.1558
  181DOPC   H3R22186   3.343   4.354  13.627  1.1705 -0.8993  2.1704
  181DOPC   H3S22187   3.383   4.188  13.674  2.2823  1.6754  0.4824
  181DOPC   C2422188   3.181   4.216  13.620  0.4313  0.2312  0.6363
  181DOPC   H4R22189   3.172   4.124  13.558  0.0673  0.0147  1.0015
  181DOPC   H4S22190   3.115   4.299  13.585 -1.0488 -1.3330 -0.4537
  181DOPC   C2522191   3.154   4.178  13.766  0.4347 -0.3026 -0.1386
  181DOPC   H5R22192   3.230   4.109  13.807  0.1155 -0.1482  0.7227
  181DOPC   H5S22193   3.054   4.129  13.770  1.4334 -2.4016  3.9650
  181DOPC   C2622194   3.156   4.304  13.854  0.1462  0.0434  0.3159
  181DOPC   H6R22195   3.079   4.368  13.807 -0.9444 -0.8528  0.8183
  181DOPC   H6S22196   3.249   4.363  13.839 -0.4956  0.8374 -0.6643
  181DOPC   C2722197   3.130   4.281  14.001  0.2059  0.4373 -0.3305
  181DOPC   H7R22198   3.137   4.379  14.053  1.5275  0.6392 -0.8553
  181DOPC   H7S22199   3.205   4.211  14.044  0.0689 -1.0421 -2.3744
  181DOPC   C2822200   2.984   4.235  14.035 -0.0578 -0.0399  0.5869
  181DOPC   H8R22201   2.985   4.220  14.145 -1.1381  1.0571  0.7634
  181DOPC   H8S22202   2.973   4.131  13.996  0.2597 -1.0534  2.9722
  181DOPC   C2922203   2.887   4.345  13.999 -0.2539 -0.2026  0.5235
  181DOPC   H9R22204   2.889   4.372  13.893 -1.4039  0.7900  0.7254
  181DOPC  C21022205   2.823   4.426  14.080 -0.0314 -0.0241  0.1541
  181DOPC  H10R22206   2.770   4.508  14.030 -0.7464 -0.5783 -0.0244
  181DOPC  C21122207   2.820   4.424  14.233  0.0168 -0.0793 -0.5855
  181DOPC  H11R22208   2.886   4.345  14.274 -2.7231 -2.3442 -0.2455
  181DOPC  H11S22209   2.721   4.409  14.281 -0.6313  1.3316 -1.4079
  181DOPC  C21222210   2.864   4.556  14.297 -0.7073  0.2885  0.2111
  181DOPC  H12R22211   2.830   4.643  14.237 -1.5376  0.4973  0.9553
  181DOPC  H12S22212   2.974   4.557  14.279 -0.5403 -2.4197  0.6551
  181DOPC  C21322213   2.829   4.576  14.443 -0.1715 -0.3235  0.3472
  181DOPC  H13R22214   2.875   4.489  14.495 -1.8642 -1.9259 -0.7300
  181DOPC  H13S22215   2.721   4.569  14.470 -0.6587  1.2898 -0.9654
  181DOPC  C21422216   2.887   4.704  14.499 -0.1604 -0.4221 -0.1974
  181DOPC  H14R22217   2.835   4.792  14.454 -0.2409  0.4512  1.5034
  181DOPC  H14S22218   2.990   4.702  14.457 -0.4273 -0.7236 -0.8595
  181DOPC  C21522219   2.855   4.722  14.649  0.2026  0.3840 -0.1419
  181DOPC  H15R22220   2.912   4.806  14.693 -1.0989  1.1442  0.1604
  181DOPC  H15S22221   2.887   4.631  14.705 -1.6363 -0.6391 -0.6504
  181DOPC  C21622222   2.702   4.738  14.687 -0.7391 -0.7641 -0.0467
  181DOPC  H16R22223   2.654   4.638  14.675 -0.0775 -1.0532 -0.3270
  181DOPC  H16S22224   2.673   4.803  14.602 -1.7091 -0.0017  0.8460
  181DOPC  C21722225   2.671   4.803  14.823 -0.2155  0.0716 -0.2506
  181DOPC  H17R22226   2.702   4.910  14.826 -2.1098  0.6357  2.1578
  181DOPC  H17S22227   2.732   4.750  14.898  1.5901 -0.5159 -2.0416
  181DOPC  C21822228   2.520   4.793  14.860 -0.4706 -0.2874  0.3682
  181DOPC  H18R22229   2.470   4.694  14.860 -2.6990  0.7745  0.7567
  181DOPC  H18S22230   2.462   4.853  14.787 -0.6661 -0.6022  0.2637
  181DOPC  H18T22231   2.511   4.849  14.956 -0.8340  0.3653 -0.0334
  181DOPC   C3322232   2.674   4.220  13.540  0.3031  0.0096 -0.3964
  181DOPC   H3X22233   2.629   4.122  13.513  1.6364 -0.4200 -1.1363
  181DOPC   H3Y22234   2.608   4.298  13.497  1.4393  0.9081 -0.5513
  181DOPC   C3422235   2.663   4.237  13.692 -0.1338 -0.2480  0.3925
  181DOPC   H4X22236   2.708   4.335  13.717  0.1781 -0.0074 -1.0171
  181DOPC   H4Y22237   2.729   4.164  13.745 -1.6813 -0.9804  1.3568
  181DOPC   C3522238   2.521   4.240  13.743  0.1355  0.1324  0.0350
  181DOPC   H5X22239   2.467   4.151  13.703  0.2178  0.1606 -0.1427
  181DOPC   H5Y22240   2.480   4.328  13.689 -0.9134  0.2241  0.9489
  181DOPC   C3622241   2.511   4.278  13.887  0.0097  0.0868 -0.3079
  181DOPC   H6X22242   2.577   4.364  13.913  2.6492 -1.7637 -0.4468
  181DOPC   H6Y22243   2.413   4.325  13.910  1.0757  1.4481  1.7829
  181DOPC   C3722244   2.525   4.151  13.977  0.0503  0.9840  0.4162
  181DOPC   H7X22245   2.453   4.073  13.944 -0.6914  2.0115 -0.4742
  181DOPC   H7Y22246   2.623   4.105  13.955 -0.7831 -0.6684 -0.0102
  181DOPC   C3822247   2.505   4.176  14.126  0.1440  0.1958  0.6334
  181DOPC   H8X22248   2.411   4.232  14.145 -0.0851 -0.2031  0.7055
  181DOPC   H8Y22249   2.591   4.238  14.159  1.4748 -0.9026 -0.6262
  181DOPC   C3922250   2.484   4.053  14.214  0.2659  0.5058  0.4641
  181DOPC   H9X22251   2.380   4.017  14.209  0.3494  0.4941 -2.4472
  181DOPC  C31022252   2.576   3.990  14.283  0.0019 -0.4456 -0.3653
  181DOPC  H10X22253   2.543   3.912  14.353 -1.0366  0.5687  0.3075
  181DOPC  C31122254   2.717   4.036  14.268 -0.7604  0.6046 -0.8547
  181DOPC  H11X22255   2.739   4.141  14.294  1.6490  0.3048 -1.4771
  181DOPC  H11Y22256   2.738   4.021  14.160 -0.1957 -0.6809 -0.5841
  181DOPC  C31222257   2.811   3.950  14.357  0.0888 -0.8123 -0.4204
  181DOPC  H12X22258   2.914   3.958  14.316 -0.4587  1.0141 -1.5573
  181DOPC  H12Y22259   2.790   3.841  14.358  2.6546 -1.3786  0.4973
  181DOPC  C31322260   2.823   4.006  14.497 -0.1574 -0.0179 -0.3664
  181DOPC  H13X22261   2.850   4.113  14.490  2.2221 -0.5113  0.1289
  181DOPC  H13Y22262   2.728   4.001  14.553  1.2987 -1.8179  2.1795
  181DOPC  C31422263   2.926   3.931  14.582 -0.2837  0.6420  0.3536
  181DOPC  H14X22264   2.891   3.826  14.590  2.0196 -0.3534 -1.3972
  181DOPC  H14Y22265   3.025   3.925  14.532 -0.9539 -0.2681 -0.9186
  181DOPC  C31522266   2.949   3.995  14.722  0.3292  0.1820 -0.4895
  181DOPC  H15X22267   2.865   4.055  14.761 -0.5055 -1.9348  1.1988
  181DOPC  H15Y22268   3.045   4.051  14.714  0.1321  0.7472  0.8188
  181DOPC  C31622269   2.973   3.881  14.821 -0.4088 -0.0584  0.1491
  181DOPC  H16X22270   2.893   3.804  14.819  0.1886 -0.6783 -1.1312
  181DOPC  H16Y22271   3.059   3.824  14.780  0.3484 -0.6720  2.4786
  181DOPC  C31722272   3.002   3.934  14.960 -0.9497  0.5359  0.3769
  181DOPC  H17X22273   2.922   3.997  15.005 -1.6625  0.4733 -0.7578
  181DOPC  H17Y22274   3.021   3.849  15.028 -0.6582 -1.7533 -2.3814
  181DOPC  C31822275   3.133   4.015  14.953 -0.1761  0.5498  0.1986
  181DOPC  H18X22276   3.167   4.044  15.055 -0.9309  4.5367 -0.5143
  181DOPC  H18Y22277   3.210   3.959  14.896  0.2446  0.1595  1.1400
  181DOPC  H18Z22278   3.117   4.119  14.916  0.3569  0.6258  0.1726
  182DOPC     N22279   1.398   0.636  11.293 -0.1515  0.6768  0.8044
  182DOPC   C1222280   1.381   0.526  11.398 -0.4182 -0.4403 -1.1024
  182DOPC  H12A22281   1.409   0.437  11.344 -1.4275  1.0092 -4.2336
  182DOPC  H12B22282   1.276   0.512  11.418 -0.4931 -2.1289 -2.4956
  182DOPC   C1322283   1.346   0.769  11.340  0.3134 -0.4585  0.2432
  182DOPC  H13A22284   1.244   0.760  11.372 -0.9075 -0.3238 -3.1558
  182DOPC  H13B22285   1.414   0.808  11.415  1.4580  1.6583 -1.7616
  182DOPC  H13C22286   1.348   0.841  11.259  0.3964 -1.7741 -0.9680
  182DOPC   C1422287   1.321   0.588  11.166  0.4930 -0.3173 -0.5397
  182DOPC  H14A22288   1.295   0.665  11.095  1.9126  1.5628  0.8864
  182DOPC  H14B22289   1.374   0.504  11.123  0.2236 -0.9521  0.3400
  182DOPC  H14C22290   1.224   0.547  11.187  0.1618 -0.4429 -2.1551
  182DOPC   C1522291   1.541   0.640  11.247 -0.2701  0.4134 -0.0392
  182DOPC  H15A22292   1.584   0.541  11.237 -0.4419  0.3634 -0.2799
  182DOPC  H15B22293   1.604   0.686  11.323 -0.9995  0.7439  0.3714
  182DOPC  H15C22294   1.564   0.687  11.153  1.2644  0.1911  0.1908
  182DOPC   C1122295   1.469   0.532  11.527  0.3090  0.1582 -0.8622
  182DOPC  H11A22296   1.487   0.634  11.568 -0.3613 -0.3651  0.8309
  182DOPC  H11B22297   1.415   0.462  11.595  1.7267 -0.7988 -0.6820
  182DOPC     P22298   1.646   0.343  11.557 -0.2814 -0.4137 -0.0732
  182DOPC   O1322299   1.772   0.301  11.491  0.1666  0.4415  0.5733
  182DOPC   O1422300   1.540   0.246  11.564  0.0376  0.6364 -0.1923
  182DOPC   O1222301   1.599   0.473  11.492 -0.8099 -0.5626  0.3300
  182DOPC   O1122302   1.686   0.395  11.703 -0.2749 -0.1346  0.3423
  182DOPC    C122303   1.763   0.511  11.710 -0.0159  0.0759  0.8929
  182DOPC    HA22304   1.694   0.593  11.684 -0.0632  0.0493  0.9340
  182DOPC    HB22305   1.847   0.507  11.638 -0.2601 -1.4600  0.6529
  182DOPC    C222306   1.816   0.537  11.853  0.1519 -0.0201 -0.2364
  182DOPC    HS22307   1.903   0.469  11.862  0.1789 -0.1646 -1.4724
  182DOPC   O2122308   1.712   0.506  11.947 -1.0112 -0.0079  0.0522
  182DOPC   C2122309   1.758   0.478  12.066 -0.1485 -0.8649  0.4379
  182DOPC   O2222310   1.876   0.452  12.094 -0.2110 -0.3118 -0.4376
  182DOPC   C2222311   1.649   0.473  12.163  0.0199  0.1607 -0.3428
  182DOPC   H2R22312   1.624   0.366  12.183  2.8028 -0.5004  0.0675
  182DOPC   H2S22313   1.556   0.513  12.119 -0.9692  0.0471  1.5160
  182DOPC    C322314   1.874   0.676  11.865  0.2340 -0.9010 -0.1121
  182DOPC    HX22315   1.791   0.747  11.845 -0.8126 -2.3655 -1.1220
  182DOPC    HY22316   1.957   0.681  11.792  0.0981  1.9939 -0.1646
  182DOPC   O3122317   1.911   0.717  12.001 -0.5913  0.8962 -0.2417
  182DOPC   C3122318   2.047   0.734  12.018  0.3079 -1.0133 -0.1489
  182DOPC   O3222319   2.132   0.715  11.933 -0.3627 -0.6112  0.6462
  182DOPC   C3222320   2.064   0.789  12.160 -0.1939  0.2585 -0.0918
  182DOPC   H2X22321   2.049   0.899  12.160 -0.1257  0.2891  1.4897
  182DOPC   H2Y22322   1.993   0.743  12.232  2.7703 -1.7347  1.7507
  182DOPC   C2322323   1.676   0.554  12.290 -0.5265 -0.6120  0.0896
  182DOPC   H3R22324   1.728   0.648  12.263  0.3988 -0.9205  0.7220
  182DOPC   H3S22325   1.737   0.494  12.362 -1.8372 -0.8147  1.0646
  182DOPC   C2422326   1.553   0.599  12.372 -0.6012 -0.2474  0.1758
  182DOPC   H4R22327   1.508   0.515  12.429  1.4862 -1.4334  0.1603
  182DOPC   H4S22328   1.480   0.636  12.296 -1.5115 -0.7195  0.8098
  182DOPC   C2522329   1.570   0.711  12.479  0.3528  0.0806  0.3133
  182DOPC   H5R22330   1.609   0.804  12.432  2.9026 -1.5074 -0.9802
  182DOPC   H5S22331   1.649   0.689  12.555  0.2331 -0.8818  0.1793
  182DOPC   C2622332   1.433   0.741  12.545 -0.1744 -0.1452 -0.0122
  182DOPC   H6R22333   1.430   0.670  12.630  0.0110  0.0849  0.1908
  182DOPC   H6S22334   1.360   0.720  12.465  0.4743  0.2254 -0.7155
  182DOPC   C2722335   1.404   0.886  12.601  0.3757  0.0814 -0.4872
  182DOPC   H7R22336   1.309   0.873  12.657  0.4980 -4.7853 -0.9621
  182DOPC   H7S22337   1.394   0.957  12.516  0.4831  0.2284 -0.3775
  182DOPC   C2822338   1.513   0.923  12.700 -0.3977  0.3256 -0.4329
  182DOPC   H8R22339   1.603   0.943  12.639  0.8639  0.4289  1.3676
  182DOPC   H8S22340   1.543   0.847  12.775 -1.9812 -1.3259 -1.4004
  182DOPC   C2922341   1.486   1.053  12.764  0.5195 -0.2025  0.0843
  182DOPC   H9R22342   1.423   1.122  12.706 -2.1807  0.3524  3.3737
  182DOPC  C21022343   1.507   1.083  12.894 -0.0502  0.0421  0.1991
  182DOPC  H10R22344   1.491   1.184  12.934  2.0729  0.5838 -0.1765
  182DOPC  C21122345   1.571   0.995  12.997  0.2242 -0.1635 -0.5190
  182DOPC  H11R22346   1.651   1.060  13.040 -1.0173 -0.2592  2.1992
  182DOPC  H11S22347   1.627   0.907  12.960 -0.9360 -0.1651 -2.3883
  182DOPC  C21222348   1.470   0.966  13.111  0.2035  0.2598  0.1528
  182DOPC  H12R22349   1.516   0.897  13.184  1.2240  1.3549  0.5823
  182DOPC  H12S22350   1.379   0.916  13.070  0.2950  0.4314 -0.2693
  182DOPC  C21322351   1.443   1.094  13.190  0.2008 -0.0710 -0.2809
  182DOPC  H13R22352   1.359   1.152  13.146  0.5626  0.3118 -0.4699
  182DOPC  H13S22353   1.532   1.159  13.188 -0.2370  0.5521  0.0998
  182DOPC  C21422354   1.416   1.071  13.342  0.3929 -0.1878 -0.4438
  182DOPC  H14R22355   1.500   1.005  13.370 -2.0604 -3.6814 -0.6814
  182DOPC  H14S22356   1.317   1.023  13.359  0.2358  0.1947 -0.2509
  182DOPC  C21522357   1.417   1.201  13.422 -0.6117 -0.5946 -0.5413
  182DOPC  H15R22358   1.328   1.259  13.389 -0.4645  0.1318  0.2890
  182DOPC  H15S22359   1.504   1.257  13.382 -0.0085  1.1884  2.8579
  182DOPC  C21622360   1.430   1.173  13.570 -0.1187  0.2730 -0.4299
  182DOPC  H16R22361   1.517   1.116  13.608 -0.9651 -0.0280  1.1435
  182DOPC  H16S22362   1.336   1.121  13.597  0.2257 -0.7053 -1.0609
  182DOPC  C21722363   1.448   1.297  13.662 -0.2869  0.4146  0.1202
  182DOPC  H17R22364   1.382   1.379  13.626  0.1162  1.5500  1.8375
  182DOPC  H17S22365   1.547   1.346  13.656 -0.4857  1.2696  2.7051
  182DOPC  C21822366   1.411   1.271  13.806  0.6702 -0.0459 -0.1302
  182DOPC  H18R22367   1.401   1.370  13.857 -0.4949  0.3830 -1.1460
  182DOPC  H18S22368   1.478   1.203  13.863 -0.0007  0.7292  1.6646
  182DOPC  H18T22369   1.312   1.223  13.815  0.0569  1.2113  0.0523
  182DOPC   C3322370   2.211   0.768  12.199 -0.0128 -0.5363  0.2552
  182DOPC   H3X22371   2.227   0.817  12.297  2.6756  1.6556 -1.1067
  182DOPC   H3Y22372   2.282   0.814  12.126 -0.1467 -1.9446 -0.8089
  182DOPC   C3422373   2.246   0.618  12.220 -0.5233  0.1681 -0.0519
  182DOPC   H4X22374   2.351   0.593  12.244 -0.7853  0.2537  1.2181
  182DOPC   H4Y22375   2.227   0.565  12.124 -0.9229  0.3778 -0.0919
  182DOPC   C3522376   2.149   0.547  12.316 -0.0047  0.4814 -0.3609
  182DOPC   H5X22377   2.153   0.436  12.304  0.2155  0.3589  0.7573
  182DOPC   H5Y22378   2.042   0.571  12.299 -0.1753  1.2662  1.5697
  182DOPC   C3622379   2.177   0.584  12.461  0.2260 -0.3040 -0.9812
  182DOPC   H6X22380   2.275   0.543  12.497  0.7027  0.7190 -1.0868
  182DOPC   H6Y22381   2.178   0.694  12.472 -1.7566 -0.4740  2.7198
  182DOPC   C3722382   2.061   0.523  12.557  0.4152  0.0596 -0.0346
  182DOPC   H7X22383   2.050   0.416  12.531 -1.5000  0.5336 -1.3534
  182DOPC   H7Y22384   2.100   0.526  12.662 -0.0529  0.6473  0.1279
  182DOPC   C3822385   1.923   0.583  12.542 -0.6280  0.0206  0.1147
  182DOPC   H8X22386   1.839   0.511  12.554 -0.3409 -0.0060  2.2987
  182DOPC   H8Y22387   1.916   0.608  12.434  1.8365 -0.5165 -0.2293
  182DOPC   C3922388   1.900   0.701  12.628 -0.1966  0.1200 -0.4359
  182DOPC   H9X22389   1.957   0.790  12.595  2.6327 -1.4022  0.0176
  182DOPC  C31022390   1.848   0.701  12.756 -0.1240  0.4954  0.0772
  182DOPC  H10X22391   1.846   0.797  12.811  0.8914 -1.1624  3.2316
  182DOPC  C31122392   1.790   0.579  12.828 -0.0417 -0.6033  0.5521
  182DOPC  H11X22393   1.795   0.489  12.763  0.7083  1.0299 -1.8004
  182DOPC  H11Y22394   1.685   0.589  12.864 -0.9510 -1.1555 -1.7668
  182DOPC  C31222395   1.878   0.544  12.944 -0.5396 -0.1362 -0.6471
  182DOPC  H12X22396   1.982   0.531  12.908 -0.6786 -0.8868 -0.7867
  182DOPC  H12Y22397   1.848   0.448  12.990 -0.6381  0.3638  0.3772
  182DOPC  C31322398   1.878   0.653  13.061 -0.1348 -0.1929 -0.3614
  182DOPC  H13X22399   1.907   0.758  13.037 -1.1944  0.4397  0.9770
  182DOPC  H13Y22400   1.775   0.660  13.103  0.9022  1.8795  2.1012
  182DOPC  C31422401   1.972   0.617  13.186  0.2451  0.9627  0.2437
  182DOPC  H14X22402   1.934   0.521  13.228  1.1244 -0.0479 -1.1914
  182DOPC  H14Y22403   2.077   0.590  13.162  0.4076  0.6802  1.2109
  182DOPC  C31522404   1.978   0.730  13.289  0.7019 -0.1009 -0.1182
  182DOPC  H15X22405   1.877   0.766  13.320 -1.1409 -2.6931 -2.5654
  182DOPC  H15Y22406   2.032   0.815  13.243 -0.3469  0.6144 -0.0502
  182DOPC  C31622407   2.034   0.686  13.428  0.2121  0.5384 -0.2893
  182DOPC  H16X22408   1.972   0.723  13.512 -0.2659 -3.7171  1.4857
  182DOPC  H16Y22409   2.033   0.575  13.428 -1.9899  0.4835  1.3281
  182DOPC  C31722410   2.168   0.743  13.459 -0.4545  0.3616  0.0628
  182DOPC  H17X22411   2.233   0.691  13.385  1.4094  1.5961  0.7578
  182DOPC  H17Y22412   2.186   0.850  13.434  1.5561 -0.4172 -2.1948
  182DOPC  C31822413   2.209   0.725  13.600  0.7407 -0.1045 -0.3854
  182DOPC  H18X22414   2.193   0.621  13.636 -1.0385  0.6510  1.2437
  182DOPC  H18Y22415   2.317   0.751  13.607  0.7989 -0.2084 -0.9199
  182DOPC  H18Z22416   2.159   0.795  13.671  0.4516  0.4724 -1.1436
  183DOPC     N22417   0.581   2.239  11.182 -0.6430 -0.0282 -0.3746
  183DOPC   C1222418   0.590   2.228  11.332 -0.6533  0.1412 -0.7110
  183DOPC  H12A22419   0.651   2.150  11.374 -1.3593 -0.7990 -1.3885
  183DOPC  H12B22420   0.492   2.195  11.365 -0.9698  0.1851 -1.5803
  183DOPC   C1322421   0.695   2.322  11.133  0.0763  0.4151  0.8429
  183DOPC  H13A22422   0.681   2.418  11.182 -0.9105  1.0490 -0.5942
  183DOPC  H13B22423   0.792   2.293  11.169  0.2033  1.1334  1.1075
  183DOPC  H13C22424   0.689   2.333  11.026 -2.6172 -1.3355  0.7248
  183DOPC   C1422425   0.447   2.307  11.143 -0.1659  0.0396 -0.1657
  183DOPC  H14A22426   0.370   2.233  11.155  0.0864 -0.1887  0.0518
  183DOPC  H14B22427   0.426   2.388  11.211 -0.2682 -1.0611  1.1613
  183DOPC  H14C22428   0.462   2.336  11.040  2.0736  0.6393  0.2829
  183DOPC   C1522429   0.585   2.109  11.107  0.1786 -0.0863  0.1120
  183DOPC  H15A22430   0.674   2.050  11.117  0.2634 -0.2027 -1.1417
  183DOPC  H15B22431   0.580   2.121  11.000  0.9506  0.9073  0.1774
  183DOPC  H15C22432   0.499   2.046  11.125 -0.4418  0.8649  0.5193
  183DOPC   C1122433   0.631   2.354  11.419 -0.1807 -0.1276  0.4786
  183DOPC  H11A22434   0.627   2.327  11.527 -0.7205  5.7638  2.2588
  183DOPC  H11B22435   0.732   2.394  11.397 -0.0260  0.0634  1.5139
  183DOPC     P22436   0.412   2.499  11.477  0.0600  0.0949  0.3636
  183DOPC   O1322437   0.332   2.595  11.399  0.0576  0.0982  0.0643
  183DOPC   O1422438   0.457   2.523  11.614  0.1452 -0.0958 -0.3041
  183DOPC   O1222439   0.551   2.465  11.396  0.3169 -0.8012  0.0054
  183DOPC   O1122440   0.344   2.357  11.464 -0.1589 -0.2299  0.2635
  183DOPC    C122441   0.215   2.337  11.528 -0.8336 -0.2307 -0.0327
  183DOPC    HA22442   0.159   2.257  11.476 -1.5228  0.3959 -0.2685
  183DOPC    HB22443   0.151   2.427  11.525  0.5663  0.7995 -0.1622
  183DOPC    C222444   0.242   2.296  11.675 -0.0310  0.3847  0.2331
  183DOPC    HS22445   0.262   2.390  11.731  2.7648  0.0246 -0.0223
  183DOPC   O2122446   0.354   2.202  11.683 -0.5680 -0.1947  0.4800
  183DOPC   C2122447   0.430   2.225  11.789 -0.3130 -0.1955  0.4863
  183DOPC   O2222448   0.411   2.313  11.873  0.3997 -0.3678  0.1959
  183DOPC   C2222449   0.553   2.126  11.795  0.9861 -0.0294 -0.0384
  183DOPC   H2R22450   0.615   2.176  11.717 -1.0738  2.0413 -0.4559
  183DOPC   H2S22451   0.518   2.032  11.748 -4.1991  0.9424  1.2279
  183DOPC    C322452   0.109   2.223  11.724  0.2284 -0.0392  0.7262
  183DOPC    HX22453   0.099   2.139  11.652 -2.0171  1.5780 -1.0175
  183DOPC    HY22454   0.030   2.301  11.714  1.0238  0.7443  0.4397
  183DOPC   O3122455   0.119   2.170  11.859  0.0756 -0.5276 -0.4046
  183DOPC   C3122456   0.105   2.261  11.963  0.7135  0.6729 -0.1642
  183DOPC   O3222457   0.046   2.370  11.952  0.1248  0.4838  0.3314
  183DOPC   C3222458   0.173   2.203  12.092 -0.6835 -0.0672 -0.4735
  183DOPC   H2X22459   0.218   2.109  12.055  2.1530  2.3591 -3.7752
  183DOPC   H2Y22460   0.265   2.263  12.108 -1.1698  0.3321  1.0418
  183DOPC   C2322461   0.622   2.130  11.934  0.5327 -0.3005  0.2108
  183DOPC   H3R22462   0.618   2.228  11.985  1.1769 -0.4544  0.5702
  183DOPC   H3S22463   0.729   2.102  11.921  0.0827 -1.8428 -0.4310
  183DOPC   C2422464   0.560   2.027  12.038  0.1399 -0.7285  0.1873
  183DOPC   H4R22465   0.566   1.923  12.001 -0.1138 -0.4048 -0.7975
  183DOPC   H4S22466   0.456   2.065  12.053  0.6082  2.3762 -2.9914
  183DOPC   C2522467   0.631   2.040  12.172 -0.0437 -0.5261  0.0614
  183DOPC   H5R22468   0.617   2.137  12.224 -0.4651 -0.3886 -0.2984
  183DOPC   H5S22469   0.741   2.040  12.156  0.0432  0.0020  0.6387
  183DOPC   C2622470   0.594   1.926  12.275  0.5551  0.0988 -0.1261
  183DOPC   H6R22471   0.622   1.827  12.234 -1.7987 -0.8417  0.3532
  183DOPC   H6S22472   0.483   1.928  12.281  0.4631 -0.5105 -1.4330
  183DOPC   C2722473   0.649   1.944  12.418  0.1099  0.4968 -0.0290
  183DOPC   H7R22474   0.665   2.053  12.437  2.7358  0.0706  0.6710
  183DOPC   H7S22475   0.751   1.904  12.436  0.2565  1.2194  0.8511
  183DOPC   C2822476   0.568   1.876  12.528  0.1619 -0.2525  0.1671
  183DOPC   H8R22477   0.465   1.868  12.489 -0.1813 -0.1410  1.0215
  183DOPC   H8S22478   0.581   1.931  12.624  0.5484  1.9301 -1.0925
  183DOPC   C2922479   0.605   1.730  12.540 -0.6536 -0.5548  0.3383
  183DOPC   H9R22480   0.568   1.659  12.465  0.1160  0.0139 -0.6024
  183DOPC  C21022481   0.678   1.675  12.640 -0.0184  0.3818 -0.0512
  183DOPC  H10R22482   0.712   1.572  12.626 -1.8746 -0.0967 -1.3296
  183DOPC  C21122483   0.752   1.753  12.747  0.4252 -0.9523  0.8478
  183DOPC  H11R22484   0.705   1.853  12.765 -1.0691 -1.3934 -0.3875
  183DOPC  H11S22485   0.861   1.752  12.731  0.2921 -2.4801 -0.1141
  183DOPC  C21222486   0.715   1.677  12.875 -0.2768  0.1176  0.4442
  183DOPC  H12R22487   0.709   1.570  12.847 -0.1157  1.1880 -4.4754
  183DOPC  H12S22488   0.607   1.692  12.896 -0.0221 -0.0667  2.0560
  183DOPC  C21322489   0.803   1.699  13.000  0.4675  0.7654  0.2924
  183DOPC  H13R22490   0.785   1.806  13.025  0.6035  1.1028 -0.9846
  183DOPC  H13S22491   0.911   1.695  12.974 -0.0378 -1.1702 -1.8208
  183DOPC  C21422492   0.761   1.607  13.124 -0.2759 -0.6230 -0.5749
  183DOPC  H14R22493   0.803   1.505  13.109 -0.6044 -0.8785  0.1995
  183DOPC  H14S22494   0.650   1.599  13.120 -0.3663  0.7403 -1.3734
  183DOPC  C21522495   0.810   1.673  13.255 -0.5978  0.2543  0.4612
  183DOPC  H15R22496   0.757   1.770  13.264 -1.4905 -0.1203 -0.5678
  183DOPC  H15S22497   0.919   1.689  13.239 -0.3690 -1.9930 -0.6436
  183DOPC  C21622498   0.807   1.585  13.381  0.3883 -1.0952 -0.7990
  183DOPC  H16R22499   0.875   1.622  13.461 -1.1416 -0.5249  0.2759
  183DOPC  H16S22500   0.825   1.476  13.365 -1.0592 -1.8264  1.9338
  183DOPC  C21722501   0.660   1.580  13.440 -1.0631  0.0603 -0.1793
  183DOPC  H17R22502   0.587   1.542  13.367 -0.3698 -3.5413  0.8263
  183DOPC  H17S22503   0.632   1.687  13.454 -0.2756  0.4051 -1.0989
  183DOPC  C21822504   0.648   1.486  13.560  0.0485 -0.0885 -0.1580
  183DOPC  H18R22505   0.546   1.485  13.605  0.1364  0.5950  0.0658
  183DOPC  H18S22506   0.712   1.535  13.637 -0.0302 -0.1460 -0.0553
  183DOPC  H18T22507   0.685   1.384  13.538 -0.4087 -0.9043  2.5360
  183DOPC   C3322508   0.091   2.196  12.222  0.0980  0.4994 -0.0352
  183DOPC   H3X22509   0.042   2.098  12.208 -1.1979  1.1510 -0.1468
  183DOPC   H3Y22510   0.017   2.279  12.223 -2.2075 -1.4352 -1.8584
  183DOPC   C3422511   0.180   2.191  12.347 -0.1514  0.5206  0.2441
  183DOPC   H4X22512   0.231   2.290  12.353  0.5621  0.1676  0.1566
  183DOPC   H4Y22513   0.256   2.113  12.326 -0.7844  0.0007 -0.1563
  183DOPC   C3522514   0.110   2.154  12.479  0.0277  0.4577 -0.1072
  183DOPC   H5X22515   0.045   2.064  12.474  0.4985 -0.0477  2.0104
  183DOPC   H5Y22516   0.036   2.234  12.503 -0.3062  0.3481 -0.7517
  183DOPC   C3622517   0.209   2.139  12.604  0.2017 -0.1672  0.1262
  183DOPC   H6X22518   0.310   2.100  12.577 -0.0645 -1.5703  1.0636
  183DOPC   H6Y22519   0.223   2.233  12.661  2.7511  0.2946 -1.1020
  183DOPC   C3722520   0.155   2.039  12.709 -0.2266  0.0098  0.2352
  183DOPC   H7X22521   0.051   2.061  12.739 -0.0345 -0.8294  1.6302
  183DOPC   H7Y22522   0.162   1.939  12.661 -1.7714  1.3218 -2.9885
  183DOPC   C3822523   0.228   2.020  12.841  0.5075  0.1316  0.5767
  183DOPC   H8X22524   0.334   1.998  12.816  0.6766  0.2684  1.1485
  183DOPC   H8Y22525   0.193   1.926  12.887  0.3332 -0.4258 -0.6652
  183DOPC   C3922526   0.212   2.129  12.936  0.6300 -0.1223 -0.5967
  183DOPC   H9X22527   0.114   2.115  12.985  1.8278 -1.5711  1.5385
  183DOPC  C31022528   0.305   2.230  12.957  0.6245 -0.0435 -0.0028
  183DOPC  H10X22529   0.283   2.307  13.032 -1.6652  2.2476 -2.8045
  183DOPC  C31122530   0.430   2.231  12.878  0.1196  0.3794 -0.8341
  183DOPC  H11X22531   0.455   2.335  12.849 -3.1101  0.9811 -1.8620
  183DOPC  H11Y22532   0.417   2.182  12.779  2.2778  0.0218 -0.9777
  183DOPC  C31222533   0.554   2.179  12.949 -0.2147 -0.2132  0.3585
  183DOPC  H12X22534   0.535   2.078  12.992  2.6996 -0.8120  0.4461
  183DOPC  H12Y22535   0.574   2.246  13.036  0.7930 -0.2155  0.1476
  183DOPC  C31322536   0.673   2.164  12.837  0.4309 -0.2322  0.3501
  183DOPC  H13X22537   0.754   2.098  12.876 -1.7540 -2.0737  2.1136
  183DOPC  H13Y22538   0.654   2.107  12.744  0.2172  0.5409 -0.0778
  183DOPC  C31422539   0.738   2.298  12.801 -0.3179 -0.4594  0.5072
  183DOPC  H14X22540   0.660   2.351  12.742 -0.0049  0.5910  1.0274
  183DOPC  H14Y22541   0.750   2.360  12.893  0.1477 -0.2297  0.2880
  183DOPC  C31522542   0.874   2.284  12.723 -0.2566  0.5286 -0.0002
  183DOPC  H15X22543   0.943   2.232  12.793  1.0535  1.8233 -0.2883
  183DOPC  H15Y22544   0.902   2.390  12.704  1.2765  0.0440 -0.5476
  183DOPC  C31622545   0.868   2.199  12.593  0.0162 -0.0478  0.3781
  183DOPC  H16X22546   0.873   2.091  12.619 -1.9931 -0.6333 -1.4692
  183DOPC  H16Y22547   0.773   2.214  12.538  1.0884  1.3867 -1.1764
  183DOPC  C31722548   0.990   2.225  12.499  0.4066  0.0715 -0.3482
  183DOPC  H17X22549   0.997   2.335  12.484  3.3770 -0.2541 -2.2906
  183DOPC  H17Y22550   1.086   2.187  12.540  1.7764 -0.3721 -3.6489
  183DOPC  C31822551   0.973   2.178  12.354  0.3255  0.1035  0.5472
  183DOPC  H18X22552   0.901   2.247  12.306  0.5415  0.6396  0.9695
  183DOPC  H18Y22553   1.069   2.178  12.297  0.6899 -2.1683  1.0553
  183DOPC  H18Z22554   0.932   2.076  12.341 -1.5164  0.9464 -0.5597
  184DOPC     N22555   4.410   0.177  11.463  0.2733 -0.2121 -0.1036
  184DOPC   C1222556   4.509   0.264  11.541  0.6989  0.4906 -0.4328
  184DOPC  H12A22557   4.532   0.352  11.482  0.3329  2.0092  1.5771
  184DOPC  H12B22558   4.599   0.206  11.557 -0.0227 -0.1346  1.7769
  184DOPC   C1322559   4.404   0.040  11.527 -0.2629 -0.1889 -0.0635
  184DOPC  H13A22560   4.384   0.038  11.633  0.9419 -2.5123  0.1823
  184DOPC  H13B22561   4.330  -0.020  11.475 -0.4087  0.4709 -0.6373
  184DOPC  H13C22562   4.497  -0.014  11.523 -2.1108 -3.5933 -2.2540
  184DOPC   C1422563   4.456   0.162  11.322  0.8529 -0.2728  0.0567
  184DOPC  H14A22564   4.514   0.247  11.289  1.9682 -1.2396 -0.5235
  184DOPC  H14B22565   4.521   0.076  11.312  2.5702  1.2504 -3.4385
  184DOPC  H14C22566   4.375   0.149  11.252  1.5853 -0.0303 -0.8590
  184DOPC   C1522567   4.275   0.240  11.459  0.4255 -0.1787  0.8442
  184DOPC  H15A22568   4.200   0.170  11.426  1.8498 -1.5927  0.5080
  184DOPC  H15B22569   4.265   0.327  11.395 -1.1579 -0.9117  0.0288
  184DOPC  H15C22570   4.237   0.263  11.558 -0.7252 -1.6380  0.7805
  184DOPC   C1122571   4.468   0.318  11.683  0.0046 -0.2237  0.0964
  184DOPC  H11A22572   4.558   0.370  11.722 -0.5118 -0.5591  1.8113
  184DOPC  H11B22573   4.390   0.397  11.677  0.3851  0.1343 -0.1882
  184DOPC     P22574   4.288   0.204  11.843 -0.1386  0.2618 -0.5442
  184DOPC   O1322575   4.255   0.060  11.836 -0.4444 -0.1145  0.2182
  184DOPC   O1422576   4.188   0.295  11.791  0.0443 -0.3169  0.4853
  184DOPC   O1222577   4.435   0.218  11.776 -0.0237  0.7543 -0.3970
  184DOPC   O1122578   4.327   0.241  11.990  0.0774  0.1497 -0.0638
  184DOPC    C122579   4.373   0.160  12.088  0.1254  0.2904 -0.3279
  184DOPC    HA22580   4.455   0.200  12.152  0.2724 -0.9815  0.3147
  184DOPC    HB22581   4.394   0.056  12.053 -4.5908 -1.6124  1.6578
  184DOPC    C222582   4.261   0.144  12.191 -0.0590 -0.6402  0.1012
  184DOPC    HS22583   4.166   0.140  12.134 -0.3863  0.5407  0.5499
  184DOPC   O2122584   4.267   0.257  12.273 -0.2365 -0.3978 -0.5517
  184DOPC   C2122585   4.158   0.285  12.345 -0.5517  0.5387 -0.3304
  184DOPC   O2222586   4.054   0.226  12.336 -0.0081 -0.0214 -0.0493
  184DOPC   C2222587   4.188   0.399  12.449 -0.0027  0.1618  0.6316
  184DOPC   H2R22588   4.221   0.488  12.392  0.8292 -0.8325 -0.4975
  184DOPC   H2S22589   4.270   0.362  12.513  0.8753  1.5221  0.3241
  184DOPC    C322590   4.271   0.008  12.269 -0.4813 -0.2239 -0.0657
  184DOPC    HX22591   4.276  -0.070  12.190  1.5929 -0.0239 -0.2011
  184DOPC    HY22592   4.173  -0.006  12.318  0.2196 -1.3473  1.0729
  184DOPC   O3122593   4.378   0.005  12.365  0.0899 -0.2026  0.4051
  184DOPC   C3122594   4.488  -0.066  12.337  0.1575  0.1832  0.0866
  184DOPC   O3222595   4.510  -0.128  12.240 -0.0481  0.5176 -0.8295
  184DOPC   C3222596   4.593  -0.045  12.443 -0.3718  0.6199 -0.3369
  184DOPC   H2X22597   4.688  -0.082  12.399 -0.4960  0.2707 -0.3107
  184DOPC   H2Y22598   4.605   0.065  12.456 -1.8626  0.7538  0.1029
  184DOPC   C2322599   4.066   0.444  12.532 -0.3968  0.2088 -0.2639
  184DOPC   H3R22600   3.997   0.365  12.567  1.8731 -1.2581  1.1241
  184DOPC   H3S22601   4.002   0.515  12.474 -0.3628  2.6723  2.4504
  184DOPC   C2422602   4.096   0.525  12.655 -0.4657  0.2064 -0.3766
  184DOPC   H4R22603   4.004   0.579  12.686  0.8158  3.2740 -1.5614
  184DOPC   H4S22604   4.170   0.604  12.633 -2.7422  2.7054  0.4336
  184DOPC   C2522605   4.155   0.429  12.761 -0.0102  0.1704  0.4325
  184DOPC   H5R22606   4.244   0.379  12.717 -0.0026 -1.5940  2.3201
  184DOPC   H5S22607   4.084   0.344  12.764  1.8263 -1.5073 -0.9012
  184DOPC   C2622608   4.170   0.486  12.904 -0.1052 -0.9983  0.1629
  184DOPC   H6R22609   4.070   0.527  12.934 -0.1442 -1.5941  0.8724
  184DOPC   H6S22610   4.237   0.575  12.898 -0.2607 -0.8239  0.8134
  184DOPC   C2722611   4.231   0.395  13.009 -0.5383  0.9124  0.1220
  184DOPC   H7R22612   4.336   0.383  12.975 -0.8121 -1.1749 -0.1123
  184DOPC   H7S22613   4.187   0.294  13.022  1.4105  0.2387  1.9297
  184DOPC   C2822614   4.224   0.454  13.158  0.4652  0.0441  0.4599
  184DOPC   H8R22615   4.250   0.562  13.164 -0.5361  0.2833  0.7109
  184DOPC   H8S22616   4.304   0.403  13.215  1.1367  1.4426  0.8192
  184DOPC   C2922617   4.082   0.436  13.208  0.6133 -0.1557 -0.3943
  184DOPC   H9R22618   4.008   0.458  13.129 -0.2800 -0.1254  0.4397
  184DOPC  C21022619   4.044   0.388  13.328 -0.5717  0.1403  0.1923
  184DOPC  H10R22620   3.940   0.384  13.366  0.1255 -2.0506  2.1551
  184DOPC  C21122621   4.140   0.374  13.444 -0.0463 -0.2796  0.1613
  184DOPC  H11R22622   4.237   0.411  13.406 -0.4697 -1.0311 -1.7823
  184DOPC  H11S22623   4.144   0.264  13.458  0.4497 -0.2393  0.3480
  184DOPC  C21222624   4.103   0.453  13.569 -0.3434 -0.3843 -0.4999
  184DOPC  H12R22625   4.000   0.427  13.602 -0.4310  1.1232  0.5503
  184DOPC  H12S22626   4.096   0.562  13.547  0.0002 -0.3025 -0.2114
  184DOPC  C21322627   4.206   0.429  13.680 -0.4813  0.0479 -0.1962
  184DOPC  H13R22628   4.307   0.461  13.646  0.5553 -1.9583  0.8773
  184DOPC  H13S22629   4.221   0.321  13.701  0.8851 -0.3556 -2.8036
  184DOPC  C21422630   4.165   0.496  13.815 -0.2095  0.1584 -0.5904
  184DOPC  H14R22631   4.158   0.607  13.819 -0.2792  0.1250  1.8427
  184DOPC  H14S22632   4.248   0.468  13.883 -0.3481  0.4906 -0.2811
  184DOPC  C21522633   4.028   0.470  13.885 -0.0742  0.1915 -0.1693
  184DOPC  H15R22634   4.002   0.363  13.903  0.6739  0.4629  3.1871
  184DOPC  H15S22635   3.955   0.508  13.811  1.3347 -0.6763 -2.0740
  184DOPC  C21622636   4.008   0.544  14.019 -0.4676  0.5205  0.0199
  184DOPC  H16R22637   3.909   0.506  14.050  0.2788 -3.7883 -2.0457
  184DOPC  H16S22638   3.993   0.653  14.003  0.2328  0.3312 -2.3402
  184DOPC  C21722639   4.110   0.507  14.124  0.0433  0.0604  0.0282
  184DOPC  H17R22640   4.210   0.535  14.086  0.1431  0.1553  0.3626
  184DOPC  H17S22641   4.112   0.398  14.145  0.9734  0.0185 -0.2556
  184DOPC  C21822642   4.073   0.570  14.257  0.2090  0.3583 -0.5986
  184DOPC  H18R22643   4.089   0.680  14.252 -0.3145  0.5228  1.0511
  184DOPC  H18S22644   4.143   0.536  14.337  0.2164 -0.0507 -0.7734
  184DOPC  H18T22645   3.977   0.530  14.295  0.7909 -2.1929 -1.5467
  184DOPC   C3322646   4.566  -0.110  12.583 -0.1210  0.0241  0.0418
  184DOPC   H3X22647   4.659  -0.112  12.644 -0.7172 -1.2527  0.9465
  184DOPC   H3Y22648   4.546  -0.217  12.559  1.7257 -0.3431  0.0269
  184DOPC   C3422649   4.458  -0.045  12.678 -0.2819  0.1360 -0.0524
  184DOPC   H4X22650   4.439  -0.125  12.753  1.4408 -1.8436 -1.5739
  184DOPC   H4Y22651   4.363  -0.025  12.623 -1.0638 -1.0051  0.8441
  184DOPC   C3522652   4.510   0.082  12.750  0.2488  0.9143 -0.1198
  184DOPC   H5X22653   4.533   0.160  12.674  0.5667 -1.0222 -2.1293
  184DOPC   H5Y22654   4.608   0.056  12.796  1.8115  1.9712 -2.5929
  184DOPC   C3622655   4.415   0.134  12.856 -0.4593 -0.0412  0.8693
  184DOPC   H6X22656   4.459   0.232  12.886 -0.1211  0.5436 -1.3898
  184DOPC   H6Y22657   4.317   0.148  12.806  0.1543  0.9928 -0.0776
  184DOPC   C3722658   4.392   0.037  12.975 -0.4460  0.5791  0.7810
  184DOPC   H7X22659   4.313   0.084  13.037  0.7418  0.9197  2.1103
  184DOPC   H7Y22660   4.366  -0.066  12.943  1.2977  0.2773  0.2279
  184DOPC   C3822661   4.516   0.019  13.064  0.7317  0.1282 -0.2907
  184DOPC   H8X22662   4.606  -0.008  13.004 -0.6680 -1.5750 -1.7353
  184DOPC   H8Y22663   4.510  -0.072  13.127 -1.6313  1.4058  1.4844
  184DOPC   C3922664   4.532   0.131  13.161  0.1768 -0.0808  0.0506
  184DOPC   H9X22665   4.621   0.195  13.156  0.6115 -0.5630  1.2290
  184DOPC  C31022666   4.458   0.148  13.273  0.8982 -0.1640  0.5821
  184DOPC  H10X22667   4.472   0.231  13.344 -3.1141  1.5308 -0.3408
  184DOPC  C31122668   4.348   0.063  13.319 -0.3841 -0.2922 -0.3792
  184DOPC  H11X22669   4.324  -0.011  13.240  1.1934 -0.8450 -0.3810
  184DOPC  H11Y22670   4.262   0.133  13.330  0.2360  0.3901  0.2319
  184DOPC  C31222671   4.371  -0.007  13.453  0.4306 -0.4275  0.2368
  184DOPC  H12X22672   4.466  -0.063  13.447 -0.7314 -2.7440  1.8189
  184DOPC  H12Y22673   4.285  -0.077  13.444  1.9460 -2.0117 -3.8565
  184DOPC  C31322674   4.384   0.086  13.571 -0.5175  0.8478  0.2043
  184DOPC  H13X22675   4.477   0.142  13.548 -1.2351  1.5346 -1.1646
  184DOPC  H13Y22676   4.293   0.150  13.576 -0.7098  0.4875  2.0069
  184DOPC  C31422677   4.401   0.004  13.700 -0.0462 -0.4141 -0.4720
  184DOPC  H14X22678   4.331  -0.083  13.704 -2.7078  1.6069  3.4123
  184DOPC  H14Y22679   4.500  -0.047  13.700 -1.4603 -3.3534 -0.3821
  184DOPC  C31522680   4.380   0.089  13.828 -0.5487 -0.8057  0.5661
  184DOPC  H15X22681   4.279   0.135  13.820 -1.2611 -2.3369  0.5447
  184DOPC  H15Y22682   4.455   0.171  13.823  0.7279 -2.0250 -1.9590
  184DOPC  C31622683   4.394   0.018  13.961 -0.3766 -0.7063 -0.1907
  184DOPC  H16X22684   4.324  -0.067  13.969  0.9824 -1.8504 -0.1533
  184DOPC  H16Y22685   4.499  -0.019  13.964 -0.0706 -0.0634 -1.7816
  184DOPC  C31722686   4.389   0.111  14.081  0.3365 -0.5638 -0.5727
  184DOPC  H17X22687   4.441   0.053  14.162  1.5811 -0.9024 -1.5775
  184DOPC  H17Y22688   4.448   0.201  14.054  1.0030 -0.3360  1.4053
  184DOPC  C31822689   4.242   0.140  14.112  0.0808  0.5780  0.0080
  184DOPC  H18X22690   4.186   0.189  14.029 -0.4765  1.9682  1.1702
  184DOPC  H18Y22691   4.184   0.049  14.138 -1.5406  0.9351 -2.0640
  184DOPC  H18Z22692   4.222   0.207  14.198  0.2630  1.4628 -0.6193
  185DOPC     N22693   1.231   3.816  11.659 -0.3325 -0.0652 -0.0807
  185DOPC   C1222694   1.107   3.837  11.748  0.1690  0.2071  0.3215
  185DOPC  H12A22695   1.130   3.796  11.846 -1.0295  1.7767  1.3181
  185DOPC  H12B22696   1.030   3.771  11.711  1.0172 -0.4050 -0.3838
  185DOPC   C1322697   1.354   3.858  11.729  0.2481 -0.1603 -0.5218
  185DOPC  H13A22698   1.374   3.803  11.820  2.5413  1.4969  0.0444
  185DOPC  H13B22699   1.438   3.849  11.662  0.1717  1.5998 -0.8825
  185DOPC  H13C22700   1.350   3.957  11.770  0.6421 -0.5119  0.4055
  185DOPC   C1422701   1.219   3.899  11.534  0.1782 -0.1093  0.1938
  185DOPC  H14A22702   1.127   3.883  11.479  1.1758  1.0770 -1.8995
  185DOPC  H14B22703   1.202   4.001  11.566 -1.7498 -0.5416  0.7200
  185DOPC  H14C22704   1.309   3.897  11.476 -0.5503  2.3258 -1.1742
  185DOPC   C1522705   1.246   3.674  11.614  0.2543  0.1230  0.0151
  185DOPC  H15A22706   1.242   3.619  11.706 -0.6660  0.3897  0.1464
  185DOPC  H15B22707   1.340   3.671  11.561  2.3269 -0.8909  3.4336
  185DOPC  H15C22708   1.163   3.649  11.549  0.5937 -1.6083  0.2011
  185DOPC   C1122709   1.060   3.982  11.771 -0.7035 -0.2821  0.5125
  185DOPC  H11A22710   1.018   4.023  11.677 -2.7436 -2.1508  0.5325
  185DOPC  H11B22711   0.970   3.988  11.836 -2.0633  0.0218 -1.3168
  185DOPC     P22712   1.187   4.213  11.791 -0.2583 -0.3805 -0.5103
  185DOPC   O1322713   1.163   4.232  11.650 -0.3369  0.5232 -0.1330
  185DOPC   O1422714   1.313   4.268  11.843 -0.0331 -0.1021 -0.2478
  185DOPC   O1222715   1.171   4.058  11.829 -0.8949 -0.3628  0.7668
  185DOPC   O1122716   1.065   4.273  11.870  0.2007 -0.3390  0.2882
  185DOPC    C122717   1.057   4.271  12.018  0.5503  0.3727  0.4711
  185DOPC    HA22718   1.018   4.372  12.043 -1.3131 -0.8361  2.8474
  185DOPC    HB22719   1.151   4.249  12.073 -0.4678 -1.3308  1.6063
  185DOPC    C222720   0.944   4.181  12.071  0.1360  0.1276 -0.5204
  185DOPC    HS22721   0.975   4.080  12.037 -1.5590 -0.6372  0.1086
  185DOPC   O2122722   0.815   4.206  12.009 -0.0457  0.3072 -0.5081
  185DOPC   C2122723   0.725   4.112  12.028  0.0079 -0.7169  0.6625
  185DOPC   O2222724   0.751   4.001  12.066  0.4460 -0.1904 -0.1321
  185DOPC   C2222725   0.584   4.170  12.005  0.7675 -0.1644  0.4383
  185DOPC   H2R22726   0.569   4.176  11.895 -4.0501 -0.3432  0.8764
  185DOPC   H2S22727   0.571   4.277  12.032  2.4012  0.0324  0.5609
  185DOPC    C322728   0.941   4.195  12.226 -0.3656  0.3555  0.3763
  185DOPC    HX22729   1.039   4.172  12.273  1.4457  0.2774 -3.1513
  185DOPC    HY22730   0.862   4.123  12.256 -0.7855  0.8537  0.4801
  185DOPC   O3122731   0.892   4.315  12.268  0.7216 -0.3035  0.2173
  185DOPC   C3122732   0.974   4.415  12.301 -0.1371  0.1158 -0.3345
  185DOPC   O3222733   1.096   4.406  12.288  0.6010 -0.0232  0.1412
  185DOPC   C3222734   0.900   4.532  12.359  0.2110 -0.3783 -0.1997
  185DOPC   H2X22735   0.904   4.603  12.274  1.3807  0.0969  0.2395
  185DOPC   H2Y22736   0.793   4.505  12.375  0.2905 -0.4876  0.1568
  185DOPC   C2322737   0.473   4.084  12.072 -0.7230  0.6392  0.4047
  185DOPC   H3R22738   0.496   3.977  12.052  0.0008  0.7462  0.6472
  185DOPC   H3S22739   0.373   4.114  12.034 -0.7687  1.0923  0.8593
  185DOPC   C2422740   0.452   4.100  12.220  0.3502  0.5250  0.8786
  185DOPC   H4R22741   0.402   4.018  12.276  0.5685  0.5187  1.0695
  185DOPC   H4S22742   0.378   4.182  12.228  0.2093  0.6653 -1.3641
  185DOPC   C2522743   0.572   4.152  12.307  1.1223  0.1546 -0.4394
  185DOPC   H5R22744   0.607   4.253  12.274  3.1594 -0.0959  0.7358
  185DOPC   H5S22745   0.656   4.081  12.290  1.6600  0.2166  1.6173
  185DOPC   C2622746   0.529   4.163  12.449  0.0160  0.1658 -0.0148
  185DOPC   H6R22747   0.537   4.060  12.491  0.3388  0.0082 -0.4528
  185DOPC   H6S22748   0.427   4.203  12.464 -0.1351 -1.0366  2.7481
  185DOPC   C2722749   0.619   4.251  12.537  0.1565  1.0564 -0.5263
  185DOPC   H7R22750   0.644   4.348  12.488  0.9167  1.0145 -0.2339
  185DOPC   H7S22751   0.720   4.206  12.540 -0.4990 -0.4706 -0.0389
  185DOPC   C2822752   0.581   4.251  12.685  0.0709  0.5987  0.0694
  185DOPC   H8R22753   0.561   4.150  12.726  0.7236  1.2087  1.9789
  185DOPC   H8S22754   0.484   4.304  12.684  1.0231  2.4639 -1.4290
  185DOPC   C2922755   0.682   4.315  12.782 -0.5210 -0.5771 -0.1685
  185DOPC   H9R22756   0.786   4.296  12.752 -0.3006  0.6952 -0.2544
  185DOPC  C21022757   0.657   4.378  12.896  0.2778  0.4948 -0.1898
  185DOPC  H10R22758   0.726   4.451  12.940 -0.5291  0.2000  1.6572
  185DOPC  C21122759   0.526   4.366  12.966  0.6990 -0.1542  0.7984
  185DOPC  H11R22760   0.466   4.277  12.938  0.6230  0.3841 -0.8288
  185DOPC  H11S22761   0.458   4.447  12.933 -2.4052 -2.5370  0.8547
  185DOPC  C21222762   0.538   4.364  13.118  0.2859 -0.3826 -0.6201
  185DOPC  H12R22763   0.567   4.464  13.157 -2.2253 -0.1454  0.8860
  185DOPC  H12S22764   0.608   4.285  13.151  1.1872  0.4096 -0.6189
  185DOPC  C21322765   0.400   4.341  13.180 -0.2743  0.2356  0.4307
  185DOPC  H13R22766   0.366   4.237  13.165 -0.0992 -0.2268  2.9284
  185DOPC  H13S22767   0.329   4.397  13.116  0.6590 -1.0275 -1.8361
  185DOPC  C21422768   0.381   4.397  13.324  0.0837  0.2546  0.4656
  185DOPC  H14R22769   0.277   4.382  13.360  0.0110  0.6074  0.4063
  185DOPC  H14S22770   0.376   4.508  13.317 -0.9380  0.6082  4.4319
  185DOPC  C21522771   0.469   4.337  13.432 -0.0685 -0.3655 -0.0058
  185DOPC  H15R22772   0.575   4.357  13.408  0.5958  0.6589  3.2838
  185DOPC  H15S22773   0.441   4.229  13.432 -0.8628 -0.2076  2.2163
  185DOPC  C21622774   0.452   4.401  13.576  0.7487  0.7792  0.0516
  185DOPC  H16R22775   0.343   4.399  13.595  1.0282 -0.3895  1.7346
  185DOPC  H16S22776   0.483   4.507  13.561  0.8657  0.6714 -0.4715
  185DOPC  C21722777   0.516   4.331  13.691 -0.1255  1.0559 -0.1775
  185DOPC  H17R22778   0.487   4.224  13.681  0.8250  0.9010 -1.5266
  185DOPC  H17S22779   0.466   4.374  13.780  1.4204  4.2461 -0.7188
  185DOPC  C21822780   0.662   4.353  13.711 -0.5271  0.0572 -0.6455
  185DOPC  H18R22781   0.698   4.307  13.806  0.5162  0.6122 -0.7494
  185DOPC  H18S22782   0.693   4.460  13.707  1.8564 -0.3583  2.4940
  185DOPC  H18T22783   0.716   4.303  13.628 -0.8803 -1.7348  0.1563
  185DOPC   C3322784   0.963   4.590  12.487  0.4336  0.1623 -0.5312
  185DOPC   H3X22785   1.074   4.588  12.484  0.4325 -0.3555 -0.3535
  185DOPC   H3Y22786   0.932   4.521  12.569  1.5381  1.0041  0.6458
  185DOPC   C3422787   0.910   4.724  12.529  0.2659  0.1931  0.6660
  185DOPC   H4X22788   0.917   4.791  12.441  0.6739 -1.4466 -0.5983
  185DOPC   H4Y22789   0.973   4.775  12.605  1.1497 -1.8911  1.4068
  185DOPC   C3522790   0.765   4.716  12.589  0.1539  0.3911 -0.2512
  185DOPC   H5X22791   0.713   4.624  12.556  1.1672  0.0009 -0.7978
  185DOPC   H5Y22792   0.703   4.803  12.557  0.1447  0.2956 -0.4950
  185DOPC   C3622793   0.771   4.707  12.748  0.2784  0.3643 -0.0204
  185DOPC   H6X22794   0.677   4.663  12.790  0.4153 -1.4808 -1.5200
  185DOPC   H6Y22795   0.836   4.620  12.770  0.0557 -0.4603 -2.3041
  185DOPC   C3722796   0.812   4.838  12.808  0.1145 -0.0640 -0.0981
  185DOPC   H7X22797   0.922   4.853  12.799  0.0330 -0.1883 -1.5873
  185DOPC   H7Y22798   0.755   4.918  12.755 -1.4816 -0.7728  0.5023
  185DOPC   C3822799   0.781   4.868  12.957  0.3959  0.1125 -0.5260
  185DOPC   H8X22800   0.808   4.967  12.998  0.6180 -0.6726  1.3154
  185DOPC   H8Y22801   0.849   4.798  13.011 -1.0786 -0.2579  0.9203
  185DOPC   C3922802   0.634   4.864  12.995 -0.1276  0.4174 -0.2554
  185DOPC   H9X22803   0.566   4.924  12.933  0.2871  0.4120 -0.7201
  185DOPC  C31022804   0.585   4.820  13.112 -0.1039 -0.1400 -0.4650
  185DOPC  H10X22805   0.478   4.826  13.137  0.4534  1.3579  1.8446
  185DOPC  C31122806   0.663   4.766  13.223  0.0248 -0.2862  1.0128
  185DOPC  H11X22807   0.773   4.764  13.206 -0.0287  0.4715  0.5385
  185DOPC  H11Y22808   0.624   4.663  13.241  0.5231 -0.1679  2.9822
  185DOPC  C31222809   0.646   4.842  13.354  0.4560 -0.3799 -0.4664
  185DOPC  H12X22810   0.664   4.952  13.356  1.3661 -0.5157  1.2105
  185DOPC  H12Y22811   0.722   4.801  13.424  0.9861  1.4196  0.0567
  185DOPC  C31322812   0.509   4.812  13.425 -0.9526 -0.2305 -1.0085
  185DOPC  H13X22813   0.427   4.815  13.349 -1.7876 -3.6602 -0.3760
  185DOPC  H13Y22814   0.517   4.705  13.450  1.3424  0.2679  0.6790
  185DOPC  C31422815   0.484   4.895  13.557 -0.4410  0.0681  0.3549
  185DOPC  H14X22816   0.483   5.004  13.537  2.1380 -0.0744 -0.8959
  185DOPC  H14Y22817   0.382   4.860  13.585 -0.9741 -0.5297 -2.0887
  185DOPC  C31522818   0.578   4.858  13.672  0.5713 -0.4378  0.7091
  185DOPC  H15X22819   0.679   4.898  13.652  0.7632  0.0733  2.5135
  185DOPC  H15Y22820   0.577   4.748  13.681  1.8320 -0.5261  0.0229
  185DOPC  C31622821   0.529   4.926  13.800  0.0770  0.1474  0.2919
  185DOPC  H16X22822   0.517   5.036  13.786 -3.2553 -0.1185  0.4001
  185DOPC  H16Y22823   0.423   4.900  13.818 -1.0582  2.5046 -2.3136
  185DOPC  C31722824   0.614   4.899  13.926  0.3483  0.1367 -0.7651
  185DOPC  H17X22825   0.650   4.795  13.910 -0.4737  0.0657 -2.3878
  185DOPC  H17Y22826   0.704   4.964  13.933  2.2761 -2.5220  1.3090
  185DOPC  C31822827   0.538   4.919  14.061 -0.2667 -0.2755  0.1344
  185DOPC  H18X22828   0.586   4.862  14.143  0.2227 -4.3730 -2.6979
  185DOPC  H18Y22829   0.536   5.026  14.089 -2.5076 -0.5919  1.5268
  185DOPC  H18Z22830   0.433   4.884  14.044 -0.4923 -0.3932  1.6322
  186DOPC     N22831   1.244   1.496  10.833 -0.1358 -0.3923  0.1535
  186DOPC   C1222832   1.317   1.620  10.885  0.2360  0.3708 -0.0072
  186DOPC  H12A22833   1.273   1.712  10.849 -1.0582  0.8330  2.5590
  186DOPC  H12B22834   1.419   1.619  10.850 -0.1606  1.7746 -1.3299
  186DOPC   C1322835   1.276   1.368  10.912  0.5190 -0.8221 -0.5583
  186DOPC  H13A22836   1.382   1.353  10.898  1.2019  2.7111 -0.2475
  186DOPC  H13B22837   1.244   1.374  11.015 -0.9457  2.2681 -1.0604
  186DOPC  H13C22838   1.214   1.289  10.874 -0.8797 -0.2110  0.3557
  186DOPC   C1422839   1.284   1.476  10.692 -0.2385  0.1193  0.4538
  186DOPC  H14A22840   1.247   1.380  10.659  0.5227  0.0120 -0.0883
  186DOPC  H14B22841   1.226   1.548  10.636  0.0985  1.0320  1.2470
  186DOPC  H14C22842   1.391   1.483  10.683  0.2734 -0.5846  4.1910
  186DOPC   C1522843   1.096   1.516  10.837  0.0350 -0.5446  0.0457
  186DOPC  H15A22844   1.033   1.428  10.838  0.7268 -1.0449  0.2402
  186DOPC  H15B22845   1.055   1.595  10.775 -2.7422 -0.1223  2.1785
  186DOPC  H15C22846   1.076   1.557  10.935  2.8461 -0.8229  0.8054
  186DOPC   C1122847   1.319   1.638  11.036  0.6914  0.4479 -0.1900
  186DOPC  H11A22848   1.361   1.546  11.083  1.4882  1.3795  0.9625
  186DOPC  H11B22849   1.388   1.720  11.063  2.3594 -0.6316 -1.0087
  186DOPC     P22850   1.117   1.791  11.130  0.2746  0.0119 -0.3957
  186DOPC   O1322851   0.975   1.771  11.087 -0.0719  0.0990 -0.6769
  186DOPC   O1422852   1.196   1.894  11.066  0.0615 -0.0095 -0.5087
  186DOPC   O1222853   1.186   1.656  11.091 -0.5201  0.1539 -0.0317
  186DOPC   O1122854   1.127   1.798  11.289 -0.6280 -0.1741  0.2779
  186DOPC    C122855   1.247   1.777  11.369 -0.4908 -0.6966 -0.2443
  186DOPC    HA22856   1.276   1.878  11.406  1.2913 -1.8288  1.5862
  186DOPC    HB22857   1.332   1.724  11.322 -0.5150 -0.3021 -0.7472
  186DOPC    C222858   1.224   1.692  11.500 -0.3976  0.9308 -0.0568
  186DOPC    HS22859   1.245   1.585  11.478 -1.0656  1.1577 -1.9791
  186DOPC   O2122860   1.088   1.712  11.552  0.6779 -0.4053  0.2436
  186DOPC   C2122861   1.021   1.619  11.609  0.0817  0.4771 -0.6123
  186DOPC   O2222862   1.061   1.507  11.628  1.2525  0.3511  0.1507
  186DOPC   C2222863   0.882   1.675  11.663  0.3567  0.4016  0.8378
  186DOPC   H2R22864   0.834   1.726  11.577  2.0469  1.2965  0.3728
  186DOPC   H2S22865   0.910   1.751  11.739 -1.2410  0.0712  1.7944
  186DOPC    C322866   1.323   1.716  11.612  0.5065 -0.3542 -0.4515
  186DOPC    HX22867   1.291   1.653  11.698 -0.3727 -2.3930 -2.1769
  186DOPC    HY22868   1.316   1.821  11.648  1.2372 -0.8867  1.3893
  186DOPC   O3122869   1.448   1.666  11.570 -0.0537 -0.3717  0.6917
  186DOPC   C3122870   1.543   1.762  11.536  0.3987 -0.0130 -0.4057
  186DOPC   O3222871   1.523   1.885  11.548  0.0288  0.2865  0.7976
  186DOPC   C3222872   1.679   1.698  11.504 -0.1393  0.2842  0.4357
  186DOPC   H2X22873   1.672   1.589  11.525 -2.3633  0.2858 -0.0290
  186DOPC   H2Y22874   1.688   1.702  11.394  0.7327  0.2029  0.4995
  186DOPC   C2322875   0.796   1.564  11.719  0.3538 -0.4866 -0.6176
  186DOPC   H3R22876   0.849   1.527  11.809  0.6092 -1.8679 -1.3135
  186DOPC   H3S22877   0.802   1.476  11.651 -1.1257 -0.5480 -0.6987
  186DOPC   C2422878   0.650   1.598  11.754 -0.2076  0.3691  0.0296
  186DOPC   H4R22879   0.592   1.504  11.764 -0.7670  0.6555 -0.4515
  186DOPC   H4S22880   0.610   1.656  11.668 -0.3889 -0.7825 -0.6807
  186DOPC   C2522881   0.628   1.685  11.884 -0.1811  0.0152 -0.9240
  186DOPC   H5R22882   0.590   1.787  11.864  1.9387  1.3451  1.2880
  186DOPC   H5S22883   0.730   1.711  11.918 -0.4113  1.3861 -1.2505
  186DOPC   C2622884   0.549   1.625  12.001  0.2396  0.3976 -0.1190
  186DOPC   H6R22885   0.449   1.597  11.962  0.6297 -0.2430 -0.6770
  186DOPC   H6S22886   0.544   1.706  12.078 -0.9014  0.3363 -0.1064
  186DOPC   C2722887   0.620   1.499  12.052 -0.8122 -0.1422  0.9606
  186DOPC   H7R22888   0.717   1.529  12.096  0.1963  1.1549 -1.8766
  186DOPC   H7S22889   0.644   1.442  11.960  0.3311  1.7394  0.0325
  186DOPC   C2822890   0.540   1.408  12.151 -0.3807  0.1249  0.5519
  186DOPC   H8R22891   0.615   1.329  12.167 -0.3250 -0.6638 -2.8725
  186DOPC   H8S22892   0.458   1.356  12.097 -0.2539  0.6136 -0.1273
  186DOPC   C2922893   0.497   1.465  12.283  0.1887  0.0017 -0.8809
  186DOPC   H9R22894   0.442   1.560  12.278  0.1054  0.0708  0.7258
  186DOPC  C21022895   0.516   1.418  12.408  0.5138  0.2011 -0.0412
  186DOPC  H10R22896   0.474   1.461  12.500  0.1145 -0.8693  0.2960
  186DOPC  C21122897   0.603   1.298  12.439  0.0717 -0.1658 -0.3220
  186DOPC  H11R22898   0.709   1.322  12.413  0.7890 -1.8890  0.8514
  186DOPC  H11S22899   0.581   1.217  12.367  1.7481 -1.0760  0.1313
  186DOPC  C21222900   0.558   1.242  12.573  0.1089  1.0312  0.1172
  186DOPC  H12R22901   0.614   1.146  12.582  0.7832  1.2925 -1.0185
  186DOPC  H12S22902   0.451   1.212  12.565 -0.0428  1.0873  1.7265
  186DOPC  C21322903   0.584   1.320  12.705 -0.3038  0.0285  0.0399
  186DOPC  H13R22904   0.531   1.417  12.694  1.4116  1.0068  0.1272
  186DOPC  H13S22905   0.691   1.346  12.708 -0.4790  1.0208 -1.3821
  186DOPC  C21422906   0.558   1.245  12.832 -1.1579  0.6643  0.3391
  186DOPC  H14R22907   0.591   1.139  12.823 -0.8648  0.9161 -2.5804
  186DOPC  H14S22908   0.448   1.236  12.847 -0.9622  0.0735  1.5235
  186DOPC  C21522909   0.612   1.308  12.965  0.4486  0.4421 -0.9268
  186DOPC  H15R22910   0.561   1.406  12.969 -0.8151 -0.2312  0.2843
  186DOPC  H15S22911   0.723   1.317  12.959  1.0031 -1.9104  2.7537
  186DOPC  C21622912   0.574   1.214  13.075 -0.0648 -0.9519  0.0918
  186DOPC  H16R22913   0.625   1.116  13.064  0.3289 -0.9003  1.3481
  186DOPC  H16S22914   0.466   1.189  13.068  0.0237 -0.8604 -2.2045
  186DOPC  C21722915   0.587   1.279  13.219  0.5088 -0.1367  0.1618
  186DOPC  H17R22916   0.524   1.369  13.231 -1.6566 -1.2584 -1.8811
  186DOPC  H17S22917   0.687   1.326  13.233 -0.2390  1.2339  1.1223
  186DOPC  C21822918   0.579   1.176  13.331 -0.2636  0.0419  0.1226
  186DOPC  H18R22919   0.655   1.097  13.315  0.0721  0.0885  1.4297
  186DOPC  H18S22920   0.486   1.117  13.346  0.3152 -1.0061 -0.2864
  186DOPC  H18T22921   0.598   1.234  13.423  1.0474 -0.7186  0.3534
  186DOPC   C3322922   1.791   1.771  11.584 -0.1952  0.4854 -0.3617
  186DOPC   H3X22923   1.804   1.875  11.546 -2.2254  0.3992 -1.4420
  186DOPC   H3Y22924   1.879   1.713  11.549 -1.3598 -1.4542 -0.1997
  186DOPC   C3422925   1.777   1.773  11.739  0.6872  0.2554 -0.4192
  186DOPC   H4X22926   1.683   1.820  11.774 -0.1763  0.4116 -2.7561
  186DOPC   H4Y22927   1.871   1.820  11.775  0.3993  1.1199 -0.7839
  186DOPC   C3522928   1.769   1.634  11.801  0.6753 -0.2471  0.4089
  186DOPC   H5X22929   1.861   1.581  11.769  0.5552  1.2129 -2.6141
  186DOPC   H5Y22930   1.680   1.577  11.766  0.6753 -0.2940  0.4821
  186DOPC   C3622931   1.746   1.635  11.958 -0.8259  0.1199 -0.1458
  186DOPC   H6X22932   1.757   1.529  11.990 -1.0995 -0.5465 -2.1027
  186DOPC   H6Y22933   1.829   1.692  12.004 -1.1695  0.4744  0.0353
  186DOPC   C3722934   1.615   1.701  11.997  0.3293 -0.0290  0.9927
  186DOPC   H7X22935   1.608   1.805  11.958 -2.8901 -0.9836 -1.4675
  186DOPC   H7Y22936   1.524   1.657  11.951  0.3437  0.8721  0.0413
  186DOPC   C3822937   1.612   1.703  12.149  0.6361  0.5206  0.4856
  186DOPC   H8X22938   1.629   1.598  12.182 -1.1679 -1.2487 -3.5758
  186DOPC   H8Y22939   1.507   1.702  12.184  0.3902  2.5090 -0.1003
  186DOPC   C3922940   1.685   1.814  12.208 -0.1655  0.1864 -0.7965
  186DOPC   H9X22941   1.794   1.811  12.191  0.7532  0.5156  3.7138
  186DOPC  C31022942   1.638   1.905  12.299  0.2075  0.0073  1.2770
  186DOPC  H10X22943   1.705   1.978  12.346  0.8535  0.8578 -0.8824
  186DOPC  C31122944   1.491   1.915  12.344 -0.4261  0.2285  0.3308
  186DOPC  H11X22945   1.431   1.842  12.286 -0.1275  2.8926 -3.6880
  186DOPC  H11Y22946   1.466   2.020  12.320  3.2128  0.8112 -1.5302
  186DOPC  C31222947   1.469   1.893  12.497 -0.2738  0.2069  0.4260
  186DOPC  H12X22948   1.551   1.944  12.553  2.1921 -0.8244 -2.0136
  186DOPC  H12Y22949   1.473   1.784  12.514  0.6596  0.4733  2.0425
  186DOPC  C31322950   1.322   1.923  12.548 -0.7342  0.1683  0.1170
  186DOPC  H13X22951   1.323   2.034  12.540 -1.5638  0.1129 -0.9164
  186DOPC  H13Y22952   1.260   1.874  12.471 -0.6321  0.6223 -0.2580
  186DOPC  C31422953   1.301   1.868  12.686 -0.2104 -0.2699  0.1965
  186DOPC  H14X22954   1.314   1.758  12.677  2.1822  0.0384 -1.0938
  186DOPC  H14Y22955   1.380   1.903  12.755  0.4234 -0.9303 -0.1692
  186DOPC  C31522956   1.169   1.914  12.742  0.0622  0.1133 -0.2578
  186DOPC  H15X22957   1.090   1.876  12.673 -1.6156  0.6377  1.3257
  186DOPC  H15Y22958   1.172   2.024  12.731 -0.1939 -0.0022 -1.6964
  186DOPC  C31622959   1.140   1.872  12.882 -0.3435 -0.1337  0.8825
  186DOPC  H16X22960   1.033   1.894  12.903 -0.0062  0.0430  2.5952
  186DOPC  H16Y22961   1.152   1.763  12.901  1.0950 -0.9207 -3.4846
  186DOPC  C31722962   1.220   1.952  12.994 -0.1614  0.0514  0.0208
  186DOPC  H17X22963   1.330   1.940  12.990  0.3243  1.3845  4.4080
  186DOPC  H17Y22964   1.203   2.060  12.972 -3.1435 -0.1646  0.8404
  186DOPC  C31822965   1.176   1.923  13.137 -0.6711  0.1813 -0.0361
  186DOPC  H18X22966   1.212   1.824  13.171 -2.5812 -1.0656 -1.4560
  186DOPC  H18Y22967   1.236   1.992  13.200  1.0884 -2.0633  0.8978
  186DOPC  H18Z22968   1.065   1.919  13.147 -0.5199 -0.2753  1.7652
  187DOPC     N22969   5.170   0.758  11.680 -0.8156 -0.1786  0.3112
  187DOPC   C1222970   5.289   0.829  11.737 -0.1905 -1.0798  0.3305
  187DOPC  H12A22971   5.360   0.856  11.660  1.4597 -0.6145  1.9342
  187DOPC  H12B22972   5.339   0.764  11.806  0.1049 -0.1143  1.0488
  187DOPC   C1322973   5.107   0.841  11.570  1.0933  0.1590 -0.0010
  187DOPC  H13A22974   5.173   0.866  11.489 -1.5254  2.1762 -1.6999
  187DOPC  H13B22975   5.028   0.788  11.518  1.5270  1.7518 -2.4478
  187DOPC  H13C22976   5.073   0.935  11.611 -0.2629  0.0621 -0.8146
  187DOPC   C1422977   5.068   0.726  11.785  0.4448  0.0155  0.0298
  187DOPC  H14A22978   5.108   0.677  11.873  0.9744 -0.6771 -0.5846
  187DOPC  H14B22979   5.009   0.813  11.812  1.2009  0.1211  1.4725
  187DOPC  H14C22980   4.994   0.658  11.747 -1.1837  0.0078  2.9123
  187DOPC   C1522981   5.205   0.633  11.606  0.7781 -0.4351 -0.5595
  187DOPC  H15A22982   5.276   0.667  11.533 -0.5470 -0.1094 -1.7440
  187DOPC  H15B22983   5.120   0.585  11.559 -0.3754  0.5933  0.4100
  187DOPC  H15C22984   5.252   0.557  11.666 -0.5814 -0.7170  0.2018
  187DOPC   C1122985   5.264   0.967  11.814  0.5033  0.0963 -0.0949
  187DOPC  H11A22986   5.181   0.956  11.887  1.0968 -1.2026  0.4218
  187DOPC  H11B22987   5.361   0.980  11.866  1.2870 -1.3997 -1.0975
  187DOPC     P22988   5.362   1.146  11.669 -0.3145  0.2684 -0.1034
  187DOPC   O1322989   5.324   1.264  11.598  0.7259 -0.1459 -0.5082
  187DOPC   O1422990   5.428   1.042  11.588 -0.0382  0.0240  0.0835
  187DOPC   O1222991   5.228   1.072  11.727 -0.2287 -0.0522 -0.6716
  187DOPC   O1122992   5.456   1.189  11.793  0.2023  0.2543  0.1807
  187DOPC    C122993   5.428   1.310  11.866 -0.1618  0.0796 -0.1516
  187DOPC    HA22994   5.329   1.353  11.842 -0.9028 -0.2677  2.0039
  187DOPC    HB22995   5.496   1.395  11.843  0.4149 -0.4796 -0.5528
  187DOPC    C222996   5.433   1.287  12.016 -0.3209  0.0306 -0.2573
  187DOPC    HS22997   5.374   1.199  12.049  0.2775 -0.1714  0.2869
  187DOPC   O2122998   5.392   1.395  12.098  0.3700 -0.4614 -0.3623
  187DOPC   C2122999   5.261   1.428  12.088 -0.9607  0.3050 -0.8720
  187DOPC   O2223000   5.181   1.388  12.014 -0.2392  0.0377 -0.1493
  187DOPC   C2223001   5.220   1.520  12.197 -0.5467  0.5868 -0.1033
  187DOPC   H2R23002   5.112   1.503  12.220  0.3170 -2.2079  2.6472
  187DOPC   H2S23003   5.242   1.623  12.162  0.8583  0.9816  1.7435
  187DOPC    C323004   5.579   1.244  12.058 -0.3648 -0.0951  0.6423
  187DOPC    HX23005   5.647   1.308  11.997  2.1497 -1.9997  1.2737
  187DOPC    HY23006   5.596   1.144  12.013  1.3142 -0.5683  2.1928
  187DOPC   O3123007   5.607   1.247  12.202  0.2284 -0.0469 -0.2622
  187DOPC   C3123008   5.667   1.353  12.248  0.4636 -0.3141 -0.2848
  187DOPC   O3223009   5.713   1.440  12.179  0.1360 -0.0693 -0.1652
  187DOPC   C3223010   5.667   1.355  12.398 -0.4693  0.9389 -0.5798
  187DOPC   H2X23011   5.571   1.324  12.444  0.6657  1.9380  2.8075
  187DOPC   H2Y23012   5.738   1.272  12.419 -1.6717  0.4874  2.1958
  187DOPC   C2323013   5.295   1.491  12.329  0.7164  0.1126 -0.1566
  187DOPC   H3R23014   5.399   1.522  12.307  0.1576  1.8743 -0.5150
  187DOPC   H3S23015   5.295   1.380  12.337 -0.6454 -0.0615 -1.9908
  187DOPC   C2423016   5.228   1.553  12.445 -0.3586 -0.1332 -1.0037
  187DOPC   H4R23017   5.119   1.533  12.435 -0.4871  0.4084 -0.6975
  187DOPC   H4S23018   5.244   1.663  12.453  2.0070 -0.4349 -0.7434
  187DOPC   C2523019   5.265   1.490  12.578 -0.5429  0.0750  0.4043
  187DOPC   H5R23020   5.374   1.504  12.593 -0.4680 -0.8915  0.8314
  187DOPC   H5S23021   5.254   1.380  12.581  1.3514 -0.1836 -0.4350
  187DOPC   C2623022   5.189   1.539  12.703  0.5217 -0.2102  0.2291
  187DOPC   H6R23023   5.080   1.543  12.682  0.8766  0.8110 -1.6500
  187DOPC   H6S23024   5.224   1.643  12.722  1.1401 -0.6515  1.5832
  187DOPC   C2723025   5.214   1.457  12.828  0.2629 -0.0718  0.0001
  187DOPC   H7R23026   5.316   1.413  12.821  0.2792  0.0520 -0.5650
  187DOPC   H7S23027   5.139   1.375  12.833  2.5566 -2.3545 -0.9408
  187DOPC   C2823028   5.194   1.546  12.953  0.1251 -1.0214  0.1672
  187DOPC   H8R23029   5.159   1.482  13.036 -1.0409 -0.3211  0.2312
  187DOPC   H8S23030   5.109   1.616  12.940 -0.9643 -2.2897  0.2462
  187DOPC   C2923031   5.309   1.630  12.994  0.4584  0.7612 -0.2083
  187DOPC   H9R23032   5.356   1.680  12.908  2.2174 -1.8165 -0.8550
  187DOPC  C21023033   5.366   1.646  13.114 -0.3287  0.0600 -1.0171
  187DOPC  H10R23034   5.460   1.702  13.125  0.1845 -0.8008 -0.8778
  187DOPC  C21123035   5.323   1.585  13.243  0.3172 -0.7180  0.3482
  187DOPC  H11R23036   5.225   1.534  13.234  0.5047 -0.8448 -1.1172
  187DOPC  H11S23037   5.294   1.672  13.307  0.3251 -0.8700  0.5590
  187DOPC  C21223038   5.416   1.489  13.321 -0.0654  0.3909 -0.1650
  187DOPC  H12R23039   5.509   1.547  13.341 -0.1473  0.0422  1.3404
  187DOPC  H12S23040   5.438   1.395  13.265  0.9682  1.6333 -1.9647
  187DOPC  C21323041   5.357   1.451  13.458 -0.0098 -0.7494 -0.8428
  187DOPC  H13R23042   5.384   1.348  13.492  2.7188 -0.0056 -0.4976
  187DOPC  H13S23043   5.247   1.461  13.444 -0.0323  1.2405  0.4218
  187DOPC  C21423044   5.392   1.555  13.574 -0.7490 -0.2612  0.2234
  187DOPC  H14R23045   5.360   1.659  13.552 -0.4834 -0.3237 -0.4801
  187DOPC  H14S23046   5.503   1.560  13.574 -0.7468  0.8907  2.2058
  187DOPC  C21523047   5.362   1.512  13.715  0.6212  0.0787 -1.1384
  187DOPC  H15R23048   5.418   1.417  13.729 -0.0004 -0.1821 -0.3680
  187DOPC  H15S23049   5.255   1.493  13.736  0.8204  1.3702  1.4919
  187DOPC  C21623050   5.421   1.614  13.818 -0.1086  0.6065  0.5930
  187DOPC  H16R23051   5.395   1.713  13.775 -1.0567 -0.8251 -2.4307
  187DOPC  H16S23052   5.529   1.610  13.791 -0.4625  0.3708 -0.8878
  187DOPC  C21723053   5.384   1.599  13.961 -0.1264 -0.2536 -0.3747
  187DOPC  H17R23054   5.437   1.508  13.998 -1.1940 -0.4083  0.8762
  187DOPC  H17S23055   5.273   1.596  13.970 -0.0642 -2.7152  0.5909
  187DOPC  C21823056   5.430   1.720  14.044  0.6464  0.0218 -0.4505
  187DOPC  H18R23057   5.414   1.700  14.152  1.8627  1.2530 -0.0115
  187DOPC  H18S23058   5.371   1.813  14.026  1.4329  0.8346  1.0091
  187DOPC  H18T23059   5.537   1.748  14.041  1.1314 -1.5073  0.9884
  187DOPC   C3323060   5.725   1.486  12.456  0.1098  0.4709  0.0272
  187DOPC   H3X23061   5.641   1.557  12.456 -0.8530 -0.5660  2.2067
  187DOPC   H3Y23062   5.806   1.524  12.390  0.8151 -0.8046  0.1085
  187DOPC   C3423063   5.778   1.447  12.596  0.8105 -0.9041  0.3925
  187DOPC   H4X23064   5.820   1.545  12.628  1.0712 -0.6669 -0.6293
  187DOPC   H4Y23065   5.859   1.371  12.597  0.5754 -1.1546  1.5378
  187DOPC   C3523066   5.679   1.424  12.701 -0.1497  0.2110 -0.8806
  187DOPC   H5X23067   5.645   1.319  12.712  1.8711 -0.5911 -1.6928
  187DOPC   H5Y23068   5.587   1.483  12.684 -1.9517 -1.8491  0.9486
  187DOPC   C3623069   5.717   1.466  12.844  0.2503 -0.1792  0.2295
  187DOPC   H6X23070   5.759   1.568  12.831  0.5781 -0.3352  0.0484
  187DOPC   H6Y23071   5.624   1.476  12.903 -1.2404  1.9803 -2.2510
  187DOPC   C3723072   5.810   1.365  12.914 -0.0667 -0.1911 -0.5678
  187DOPC   H7X23073   5.772   1.261  12.907  0.0387 -0.3224  0.7262
  187DOPC   H7Y23074   5.900   1.365  12.849 -0.2183 -0.1723 -0.7809
  187DOPC   C3823075   5.839   1.397  13.058 -0.0662 -0.8105  0.1243
  187DOPC   H8X23076   5.847   1.508  13.058 -0.9770 -0.7401  0.4201
  187DOPC   H8Y23077   5.939   1.357  13.088  1.0629  1.2456 -0.6648
  187DOPC   C3923078   5.734   1.365  13.165  0.3545 -0.2895 -0.3981
  187DOPC   H9X23079   5.641   1.423  13.153 -0.4446 -1.4264  0.1575
  187DOPC  C31023080   5.736   1.273  13.258  0.0978 -0.3720 -0.2029
  187DOPC  H10X23081   5.656   1.267  13.333  1.2518  0.0005  1.0897
  187DOPC  C31123082   5.845   1.178  13.275  0.0146 -0.4389 -0.0163
  187DOPC  H11X23083   5.899   1.158  13.180  1.1290 -0.5966  0.6354
  187DOPC  H11Y23084   5.808   1.074  13.290  1.7047 -0.9331  0.9460
  187DOPC  C31223085   5.943   1.209  13.397  0.6277 -1.0645 -0.0088
  187DOPC  H12X23086   6.010   1.292  13.366 -1.0985  0.5825  0.4923
  187DOPC  H12Y23087   6.017   1.126  13.404  1.1264 -0.6040  0.3324
  187DOPC  C31323088   5.893   1.239  13.542 -1.0905 -0.2584 -0.0227
  187DOPC  H13X23089   5.875   1.349  13.546  2.4537  0.5364 -1.5880
  187DOPC  H13Y23090   5.800   1.185  13.571 -0.5261 -0.4847  1.4385
  187DOPC  C31423091   6.007   1.197  13.641 -0.3187 -0.1180 -0.2123
  187DOPC  H14X23092   6.036   1.091  13.626 -1.1034 -0.1699 -1.5287
  187DOPC  H14Y23093   6.090   1.270  13.623 -0.4322 -0.0712 -0.5532
  187DOPC  C31523094   5.962   1.222  13.784 -0.6873  1.0015 -0.3868
  187DOPC  H15X23095   5.878   1.154  13.809 -0.4239 -0.1170 -2.2999
  187DOPC  H15Y23096   5.928   1.328  13.782  1.1188  1.6682  1.3535
  187DOPC  C31623097   6.077   1.217  13.889 -0.2643 -0.4542  0.8827
  187DOPC  H16X23098   6.113   1.113  13.900  1.5894  0.2595  1.8975
  187DOPC  H16Y23099   6.154   1.281  13.843 -2.8494  2.0058 -0.3623
  187DOPC  C31723100   6.051   1.272  14.024 -0.1739  0.2247 -0.1753
  187DOPC  H17X23101   5.946   1.261  14.058 -0.2448  0.3144 -0.3641
  187DOPC  H17Y23102   6.126   1.228  14.093  0.9947  1.1145 -0.8343
  187DOPC  C31823103   6.087   1.420  14.028  0.6849 -0.8024 -0.0017
  187DOPC  H18X23104   6.191   1.448  13.999  0.5097  1.2243  1.0850
  187DOPC  H18Y23105   6.015   1.461  13.954 -0.1435 -2.1561  0.0272
  187DOPC  H18Z23106   6.063   1.467  14.126 -1.0417  1.3101 -1.3462
  188DOPC     N23107   2.006   6.064  12.322  0.0213 -0.1410 -0.2000
  188DOPC   C1223108   2.114   6.045  12.425  0.2101 -0.4585 -0.4610
  188DOPC  H12A23109   2.205   6.008  12.379  1.0015 -0.1359  0.7862
  188DOPC  H12B23110   2.089   5.960  12.486 -1.4087  0.8693  0.8201
  188DOPC   C1323111   1.874   6.096  12.370 -0.4480 -0.1768 -0.8730
  188DOPC  H13A23112   1.837   6.027  12.444  1.0993 -1.9257 -1.6663
  188DOPC  H13B23113   1.880   6.184  12.432  0.4542 -0.4467 -0.5668
  188DOPC  H13C23114   1.797   6.117  12.297  2.4701  1.6647 -3.6850
  188DOPC   C1423115   1.996   5.936  12.248  0.5681 -0.3586  0.1628
  188DOPC  H14A23116   1.956   5.943  12.148  2.2250  1.3528 -0.4223
  188DOPC  H14B23117   2.093   5.894  12.227  0.2923 -1.1207  0.3743
  188DOPC  H14C23118   1.938   5.863  12.302  0.0061 -1.6716 -2.0928
  188DOPC   C1523119   2.047   6.186  12.242 -0.1572 -0.1839  0.0566
  188DOPC  H15A23120   2.048   6.267  12.313 -1.8849 -2.3126  2.6960
  188DOPC  H15B23121   1.970   6.191  12.166  0.6082 -1.4997 -0.8420
  188DOPC  H15C23122   2.147   6.185  12.200  0.4167  0.0581  1.3842
  188DOPC   C1123123   2.141   6.162  12.522 -0.1363  0.3064  0.1663
  188DOPC  H11A23124   2.051   6.191  12.580  0.2174  0.7511  0.4992
  188DOPC  H11B23125   2.203   6.115  12.602 -1.3007  1.9227  2.1128
  188DOPC     P23126   2.360   6.285  12.439 -0.1736 -0.0721 -0.3600
  188DOPC   O1323127   2.397   6.375  12.326 -0.3715 -0.6029  0.2791
  188DOPC   O1423128   2.415   6.149  12.432  0.7545  0.5808  0.3015
  188DOPC   O1223129   2.203   6.271  12.455 -0.6199 -0.4824  0.2998
  188DOPC   O1123130   2.400   6.346  12.577  0.3913  0.0714 -0.2374
  188DOPC    C123131   2.366   6.482  12.602  0.1626 -0.1690 -0.0842
  188DOPC    HA23132   2.351   6.504  12.710 -0.6995 -1.1507  0.0117
  188DOPC    HB23133   2.289   6.527  12.537 -0.8677  1.2756  2.0165
  188DOPC    C223134   2.497   6.569  12.573  0.4203 -0.2899 -0.7220
  188DOPC    HS23135   2.515   6.573  12.464 -0.7466  0.9683 -0.8914
  188DOPC   O2123136   2.614   6.514  12.643  0.6277  0.3200 -0.1004
  188DOPC   C2123137   2.725   6.571  12.616  0.1478  0.3358  0.7416
  188DOPC   O2223138   2.749   6.655  12.530  0.1987 -0.3413 -0.0234
  188DOPC   C2223139   2.829   6.503  12.694  0.3153  0.2591 -0.1309
  188DOPC   H2R23140   2.884   6.439  12.621  1.8453 -0.1467  1.3236
  188DOPC   H2S23141   2.794   6.428  12.768  2.8707 -1.0101 -0.0994
  188DOPC    C323142   2.466   6.716  12.612 -0.3901  0.5752 -0.6904
  188DOPC    HX23143   2.361   6.738  12.581 -0.9764  1.0970  1.4842
  188DOPC    HY23144   2.538   6.790  12.573 -1.8879  1.5505 -1.6919
  188DOPC   O3123145   2.472   6.723  12.759  0.3468  0.0520  0.7543
  188DOPC   C3123146   2.416   6.837  12.803  0.4557 -0.5151 -0.3198
  188DOPC   O3223147   2.392   6.928  12.730  0.6938 -0.5463  0.5327
  188DOPC   C3223148   2.405   6.847  12.957 -0.0631 -0.3780 -0.0115
  188DOPC   H2X23149   2.349   6.757  12.993 -1.7301  0.9280  0.7950
  188DOPC   H2Y23150   2.509   6.845  12.995 -0.3530  2.6479  1.2261
  188DOPC   C2323151   2.927   6.602  12.753 -0.1783 -0.3305  0.3848
  188DOPC   H3R23152   2.967   6.673  12.677  1.7795 -1.4953  0.2384
  188DOPC   H3S23153   3.018   6.549  12.787  0.3597  1.4011  1.8074
  188DOPC   C2423154   2.880   6.686  12.877 -0.4809  0.4834  0.1649
  188DOPC   H4R23155   2.783   6.733  12.852  0.8214  3.6936  0.5864
  188DOPC   H4S23156   2.951   6.771  12.887 -0.6930  0.6230  0.4987
  188DOPC   C2523157   2.875   6.607  13.004 -0.4416 -0.0369 -0.4124
  188DOPC   H5R23158   2.967   6.546  13.014  0.8358  2.1555  2.7028
  188DOPC   H5S23159   2.788   6.539  13.007 -1.8950  1.7746  0.7836
  188DOPC   C2623160   2.870   6.704  13.129  0.1260  1.0328  0.1447
  188DOPC   H6R23161   2.774   6.759  13.138 -0.3812  0.0746  0.7429
  188DOPC   H6S23162   2.945   6.786  13.124  1.6169 -0.3172 -0.8657
  188DOPC   C2723163   2.890   6.641  13.269  0.2874  0.6662  0.3532
  188DOPC   H7R23164   2.993   6.601  13.268 -0.1826 -0.5628 -0.6273
  188DOPC   H7S23165   2.826   6.551  13.277 -1.8207  2.0539  0.2027
  188DOPC   C2823166   2.863   6.729  13.395 -0.0879  0.1838  0.6006
  188DOPC   H8R23167   2.918   6.825  13.386 -0.6316  0.7100  2.4903
  188DOPC   H8S23168   2.902   6.670  13.481 -1.7051  1.2309  2.1146
  188DOPC   C2923169   2.713   6.761  13.411  0.7191 -0.0181 -0.2164
  188DOPC   H9R23170   2.650   6.794  13.326 -0.1776 -0.2919  0.3290
  188DOPC  C21023171   2.642   6.726  13.520 -0.1306 -0.1187  0.5869
  188DOPC  H10R23172   2.541   6.770  13.528 -0.6853 -0.6634 -2.3110
  188DOPC  C21123173   2.699   6.657  13.641  0.1398 -0.4356 -0.3522
  188DOPC  H11R23174   2.768   6.575  13.611  1.2427 -0.1589  1.2867
  188DOPC  H11S23175   2.620   6.602  13.696  0.6348  0.4322  1.2978
  188DOPC  C21223176   2.770   6.765  13.725 -0.1024  0.3097 -0.5514
  188DOPC  H12R23177   2.700   6.846  13.757 -0.0927  1.4968 -3.2373
  188DOPC  H12S23178   2.842   6.818  13.659 -0.1553  0.3575 -0.5720
  188DOPC  C21323179   2.831   6.703  13.855 -0.7751 -0.2967  0.5737
  188DOPC  H13R23180   2.932   6.665  13.830  0.6888  3.4549  0.1086
  188DOPC  H13S23181   2.772   6.616  13.891 -0.9784 -0.4123 -0.0330
  188DOPC  C21423182   2.839   6.798  13.981  0.5269 -0.0980 -0.4726
  188DOPC  H14R23183   2.733   6.830  13.994 -0.4054 -2.1353 -2.4045
  188DOPC  H14S23184   2.889   6.892  13.949 -1.7302  1.7172  1.0079
  188DOPC  C21523185   2.898   6.723  14.101  0.2530 -0.2547  0.4235
  188DOPC  H15R23186   2.995   6.681  14.068  0.0445 -2.4101  2.2771
  188DOPC  H15S23187   2.834   6.633  14.112  1.0624 -0.8905  0.0136
  188DOPC  C21623188   2.903   6.799  14.231 -0.6546 -0.0128 -0.2015
  188DOPC  H16R23189   2.812   6.770  14.288  1.4731 -3.8786  1.7041
  188DOPC  H16S23190   2.914   6.908  14.217  1.5616  0.2826  2.8216
  188DOPC  C21723191   3.001   6.725  14.323 -0.1510 -0.8104  0.2023
  188DOPC  H17R23192   3.088   6.726  14.254 -1.0410  0.4771 -0.9674
  188DOPC  H17S23193   2.976   6.617  14.328  0.7368 -1.0880 -0.8287
  188DOPC  C21823194   3.032   6.779  14.465 -0.4934 -0.3066  0.4825
  188DOPC  H18R23195   2.994   6.714  14.547  1.7068  0.0907  1.8918
  188DOPC  H18S23196   2.992   6.881  14.481 -1.7034 -0.4798 -1.1387
  188DOPC  H18T23197   3.143   6.777  14.476 -0.1444  3.6353 -0.6365
  188DOPC   C3323198   2.357   6.980  13.022 -0.1513  0.6104 -0.7430
  188DOPC   H3X23199   2.249   6.985  12.997 -0.2808  1.7123 -0.0222
  188DOPC   H3Y23200   2.400   7.068  12.969  0.7974  0.1469 -0.7622
  188DOPC   C3423201   2.402   7.010  13.173  0.1760  0.0830 -0.6772
  188DOPC   H4X23202   2.513   7.006  13.179  0.2743  2.4860  0.1990
  188DOPC   H4Y23203   2.369   6.938  13.250  1.6609  1.8736  1.7574
  188DOPC   C3523204   2.371   7.141  13.226  0.6824 -0.1514 -0.0497
  188DOPC   H5X23205   2.262   7.157  13.234  0.1807 -2.0562 -2.0072
  188DOPC   H5Y23206   2.410   7.224  13.163 -0.2659  1.3567  1.2747
  188DOPC   C3623207   2.433   7.155  13.375  0.0083 -0.5262  0.0328
  188DOPC   H6X23208   2.539   7.126  13.386  0.8460  2.0771 -0.4048
  188DOPC   H6Y23209   2.431   7.260  13.410 -0.0064 -1.4200  2.9753
  188DOPC   C3723210   2.338   7.085  13.473  0.0498  0.0256 -0.8281
  188DOPC   H7X23211   2.243   7.144  13.473  1.0566  1.7121 -0.8907
  188DOPC   H7Y23212   2.315   6.980  13.448  0.4650 -0.4750  0.7543
  188DOPC   C3823213   2.394   7.085  13.613 -0.0953 -0.3164  0.4347
  188DOPC   H8X23214   2.408   7.195  13.622  0.4447 -0.4066  0.7455
  188DOPC   H8Y23215   2.495   7.039  13.611  0.1142  0.1512  0.0941
  188DOPC   C3923216   2.309   7.033  13.722  0.3703  0.2521  0.4213
  188DOPC   H9X23217   2.227   6.968  13.688  1.6806 -0.9390 -0.5641
  188DOPC  C31023218   2.320   7.059  13.854  0.2342  0.2598 -0.3753
  188DOPC  H10X23219   2.243   7.023  13.924  1.1708  1.9328  1.6024
  188DOPC  C31123220   2.421   7.148  13.917  1.1004 -0.7466  0.0975
  188DOPC  H11X23221   2.501   7.173  13.843  1.1710  2.0066  0.9910
  188DOPC  H11Y23222   2.470   7.106  14.008  0.7039 -1.2658  0.0734
  188DOPC  C31223223   2.364   7.286  13.956  0.2226 -0.3703 -0.3599
  188DOPC  H12X23224   2.326   7.327  13.860  2.4818 -0.1869 -1.2414
  188DOPC  H12Y23225   2.446   7.357  13.983 -1.7105  1.4144  1.1320
  188DOPC  C31323226   2.261   7.287  14.073  0.2630  0.0570  0.7409
  188DOPC  H13X23227   2.179   7.220  14.039  1.4114 -0.1671 -1.7911
  188DOPC  H13Y23228   2.307   7.250  14.167  1.5581  1.0824  0.5277
  188DOPC  C31423229   2.193   7.422  14.077  0.2114 -0.5446 -0.3060
  188DOPC  H14X23230   2.258   7.487  14.140  0.7293 -1.8137  0.4919
  188DOPC  H14Y23231   2.183   7.472  13.978  3.0294 -1.3361 -1.0942
  188DOPC  C31523232   2.049   7.408  14.145 -0.4988  0.1090  0.2882
  188DOPC  H15X23233   2.025   7.513  14.169  3.2728  0.7938  1.7753
  188DOPC  H15Y23234   2.061   7.347  14.237  0.4116  0.3114  0.3107
  188DOPC  C31623235   1.944   7.353  14.050 -0.2773 -0.7606 -0.6372
  188DOPC  H16X23236   1.961   7.400  13.950  2.5089 -1.9749 -0.8156
  188DOPC  H16Y23237   1.977   7.248  14.037 -0.9922 -0.8578 -1.8257
  188DOPC  C31723238   1.804   7.372  14.100  0.0117 -0.5171  0.3024
  188DOPC  H17X23239   1.811   7.332  14.203 -0.0544 -1.7136 -0.1368
  188DOPC  H17Y23240   1.772   7.479  14.098 -0.1358 -0.5540  0.6888
  188DOPC  C31823241   1.695   7.293  14.034 -0.6339 -0.2003  0.4995
  188DOPC  H18X23242   1.692   7.311  13.925 -0.4402  0.4820  0.5998
  188DOPC  H18Y23243   1.703   7.184  14.052 -0.2095 -0.3442 -0.5253
  188DOPC  H18Z23244   1.592   7.324  14.059 -0.3861 -0.3103  1.7508
  189DOPC     N23245   3.742   0.323  11.802 -0.0563 -0.7277  0.2031
  189DOPC   C1223246   3.613   0.239  11.813  0.1381  0.3736 -0.6075
  189DOPC  H12A23247   3.612   0.182  11.905  2.5578  1.5036  0.2055
  189DOPC  H12B23248   3.623   0.152  11.750  0.6177  0.0329 -0.0696
  189DOPC   C1323249   3.860   0.233  11.821  0.4479 -0.2370  0.2506
  189DOPC  H13A23250   3.945   0.291  11.855  0.1779  1.0241 -1.1237
  189DOPC  H13B23251   3.848   0.149  11.888  2.3162  0.4970  1.5874
  189DOPC  H13C23252   3.885   0.191  11.724  0.3039  1.6835 -0.6681
  189DOPC   C1423253   3.754   0.439  11.897 -0.6405  0.6329  0.2978
  189DOPC  H14A23254   3.762   0.402  11.999  2.7778 -1.6375 -0.6200
  189DOPC  H14B23255   3.849   0.488  11.880  0.7109 -1.7943  0.4371
  189DOPC  H14C23256   3.672   0.508  11.887 -1.1046 -0.1358 -1.7419
  189DOPC   C1523257   3.749   0.383  11.668 -0.7160 -0.2181 -0.1609
  189DOPC  H15A23258   3.844   0.430  11.648 -1.1598  0.9961  0.5062
  189DOPC  H15B23259   3.669   0.455  11.668  0.9516  1.7891 -2.2039
  189DOPC  H15C23260   3.725   0.318  11.585 -0.9928 -0.8238  0.3831
  189DOPC   C1123261   3.471   0.305  11.809 -0.1285 -0.2175 -0.5392
  189DOPC  H11A23262   3.459   0.354  11.710  1.0100 -0.7754 -0.9688
  189DOPC  H11B23263   3.388   0.232  11.804 -2.4382  2.2973 -1.1808
  189DOPC     P23264   3.446   0.351  12.067  0.1405  0.0926  0.1107
  189DOPC   O1323265   3.314   0.283  12.083 -0.0616  0.0806 -0.3714
  189DOPC   O1423266   3.471   0.476  12.139 -0.7586  0.1953 -0.2813
  189DOPC   O1223267   3.463   0.398  11.913  0.1182  0.3174 -0.9693
  189DOPC   O1123268   3.565   0.248  12.099 -0.1334 -0.1230  0.3900
  189DOPC    C123269   3.555   0.116  12.142 -0.2603  0.0458  0.1236
  189DOPC    HA23270   3.653   0.065  12.132  0.8576  1.7702  1.7910
  189DOPC    HB23271   3.480   0.062  12.079  1.9283 -2.1758 -0.7274
  189DOPC    C223272   3.507   0.094  12.289 -0.3186 -0.2532 -0.3826
  189DOPC    HS23273   3.401   0.124  12.303 -0.4624 -1.4315  1.3623
  189DOPC   O2123274   3.606   0.160  12.377 -0.3356  0.1668  0.0616
  189DOPC   C2123275   3.558   0.252  12.457  0.2405 -0.4910 -0.6317
  189DOPC   O2223276   3.438   0.284  12.461  0.7009  0.0363  0.6785
  189DOPC   C2223277   3.674   0.313  12.536 -0.3254  0.6927  0.5362
  189DOPC   H2R23278   3.750   0.330  12.457  0.7041 -3.1088  0.5056
  189DOPC   H2S23279   3.724   0.240  12.604  2.1838  2.5177  0.7998
  189DOPC    C323280   3.507  -0.059  12.318 -0.1662 -0.0473  0.9653
  189DOPC    HX23281   3.609  -0.099  12.300  0.5266  2.1728 -0.5924
  189DOPC    HY23282   3.435  -0.103  12.246  0.2875  0.6460  0.0669
  189DOPC   O3123283   3.478  -0.082  12.460  0.0232  0.2431  0.5373
  189DOPC   C3123284   3.358  -0.077  12.508  1.1187  0.1215  0.3216
  189DOPC   O3223285   3.255  -0.040  12.453  0.3496  0.3574 -0.2839
  189DOPC   C3223286   3.358  -0.096  12.658  0.5775  0.5949 -0.1153
  189DOPC   H2X23287   3.254  -0.117  12.690  0.3531 -1.0124 -1.7311
  189DOPC   H2Y23288   3.429  -0.172  12.697 -0.0859  0.7667  1.4978
  189DOPC   C2323289   3.657   0.436  12.627 -0.2958  0.6699 -0.4203
  189DOPC   H3R23290   3.586   0.511  12.584 -1.3003  1.1755  1.9631
  189DOPC   H3S23291   3.764   0.465  12.636  0.3720 -1.8346  0.2642
  189DOPC   C2423292   3.619   0.380  12.765 -0.6120  0.2199 -0.6327
  189DOPC   H4R23293   3.703   0.320  12.805 -2.1832 -0.5217  1.7657
  189DOPC   H4S23294   3.534   0.310  12.750 -1.4606  1.2547 -0.7832
  189DOPC   C2523295   3.575   0.490  12.867  0.3485  0.2975 -0.3286
  189DOPC   H5R23296   3.487   0.541  12.822 -0.4856 -0.6933  0.1418
  189DOPC   H5S23297   3.664   0.555  12.883  0.7071 -0.6247  1.6966
  189DOPC   C2623298   3.535   0.446  13.007 -0.1920 -0.1193 -0.4001
  189DOPC   H6R23299   3.472   0.355  13.001 -1.8431  0.7166  2.4984
  189DOPC   H6S23300   3.487   0.536  13.050  1.8777  0.8998 -0.0924
  189DOPC   C2723301   3.654   0.426  13.102 -0.0724  0.2614  0.2047
  189DOPC   H7R23302   3.728   0.509  13.097  1.2830 -0.9163 -0.0515
  189DOPC   H7S23303   3.717   0.339  13.071  0.8511  0.8008  0.5193
  189DOPC   C2823304   3.624   0.401  13.251  0.3906  0.0383 -0.3818
  189DOPC   H8R23305   3.718   0.355  13.287  1.2982  0.6701 -1.8511
  189DOPC   H8S23306   3.550   0.319  13.255  0.6756 -0.2117 -0.1743
  189DOPC   C2923307   3.588   0.524  13.334  0.7113  0.8301 -0.4948
  189DOPC   H9R23308   3.521   0.590  13.277  0.1458  0.1045 -0.6920
  189DOPC  C21023309   3.626   0.560  13.460  1.0741  0.8420  0.1495
  189DOPC  H10R23310   3.578   0.654  13.491 -0.2937  0.6944 -1.4055
  189DOPC  C21123311   3.710   0.481  13.562  0.1106 -0.1229 -0.6927
  189DOPC  H11R23312   3.803   0.534  13.591 -0.3972  0.5392 -0.2573
  189DOPC  H11S23313   3.751   0.387  13.519  2.4617  0.0782  0.9105
  189DOPC  C21223314   3.648   0.434  13.697  0.5948  0.3003  0.2657
  189DOPC  H12R23315   3.723   0.372  13.752 -1.2692  1.1489  4.0567
  189DOPC  H12S23316   3.565   0.362  13.681  0.2276  0.6985  0.3597
  189DOPC  C21323317   3.602   0.551  13.785 -0.2416 -0.7274 -0.0762
  189DOPC  H13R23318   3.508   0.602  13.755 -2.3369 -3.2606  1.7849
  189DOPC  H13S23319   3.687   0.623  13.787 -0.2330 -0.7428  0.1634
  189DOPC  C21423320   3.593   0.507  13.935  0.6178 -0.2569 -0.1550
  189DOPC  H14R23321   3.688   0.472  13.982 -0.5197 -0.6315  2.0271
  189DOPC  H14S23322   3.518   0.426  13.924 -0.4616  1.0372 -3.7587
  189DOPC  C21523323   3.536   0.607  14.036 -0.9253  0.4399 -0.2392
  189DOPC  H15R23324   3.540   0.550  14.132 -1.5533  1.5070  0.4495
  189DOPC  H15S23325   3.430   0.632  14.016 -1.5331 -1.9447 -0.2256
  189DOPC  C21623326   3.603   0.745  14.056  0.0757  0.0193  0.5033
  189DOPC  H16R23327   3.593   0.796  13.958 -3.4846  0.4410  0.9463
  189DOPC  H16S23328   3.711   0.734  14.076  0.4588 -1.7872 -2.1161
  189DOPC  C21723329   3.523   0.823  14.165  0.3397  0.1674 -0.4409
  189DOPC  H17R23330   3.415   0.795  14.158  0.5881 -0.4949 -2.1066
  189DOPC  H17S23331   3.529   0.932  14.150 -0.1647 -0.0605 -2.5269
  189DOPC  C21823332   3.571   0.804  14.309 -0.3323 -0.0156 -0.6675
  189DOPC  H18R23333   3.674   0.846  14.319 -1.1298  1.3722  2.9823
  189DOPC  H18S23334   3.560   0.697  14.338 -2.3568  0.3543  0.0347
  189DOPC  H18T23335   3.515   0.859  14.387 -1.1753 -0.4488 -0.9643
  189DOPC   C3323336   3.385   0.041  12.728 -0.4380  0.0195  0.2217
  189DOPC   H3X23337   3.336   0.121  12.669 -2.4302 -0.9177  0.4927
  189DOPC   H3Y23338   3.493   0.065  12.721  0.9532 -5.0358  0.3751
  189DOPC   C3423339   3.342   0.052  12.877 -0.6034  0.1558 -0.1166
  189DOPC   H4X23340   3.232   0.040  12.865 -0.9225  1.9101  0.7263
  189DOPC   H4Y23341   3.381   0.150  12.912  2.0293 -1.9574  3.6843
  189DOPC   C3523342   3.393  -0.065  12.966 -0.0551  0.3916  0.1628
  189DOPC   H5X23343   3.501  -0.077  12.985 -0.1057 -0.2968  0.0644
  189DOPC   H5Y23344   3.359  -0.161  12.920  1.0301 -0.2606  0.6724
  189DOPC   C3623345   3.323  -0.052  13.102  0.3702  0.2703  0.5633
  189DOPC   H6X23346   3.219  -0.015  13.086  0.0149 -0.7236  0.4987
  189DOPC   H6Y23347   3.317  -0.139  13.171  2.9915 -0.8402 -0.4706
  189DOPC   C3723348   3.398   0.052  13.190 -0.0172  0.3908 -0.5964
  189DOPC   H7X23349   3.500   0.008  13.203 -0.3005 -0.6136 -1.5490
  189DOPC   H7Y23350   3.416   0.144  13.130 -1.6896  0.9360 -0.2975
  189DOPC   C3823351   3.330   0.084  13.327  0.1453 -0.3712  0.0046
  189DOPC   H8X23352   3.400   0.145  13.387  0.3103  1.0763 -1.5993
  189DOPC   H8Y23353   3.307  -0.010  13.383  0.8962 -0.0463  0.8858
  189DOPC   C3923354   3.202   0.161  13.314 -0.3476  0.5205 -1.1736
  189DOPC   H9X23355   3.126   0.113  13.251 -1.1363 -0.5801  0.5193
  189DOPC  C31023356   3.175   0.287  13.354  0.6125  0.0150  0.5662
  189DOPC  H10X23357   3.073   0.321  13.331  0.0953 -1.9213 -0.1411
  189DOPC  C31123358   3.259   0.383  13.436 -0.0595  0.6889 -0.5581
  189DOPC  H11X23359   3.240   0.481  13.388 -1.9361  0.2457 -0.8114
  189DOPC  H11Y23360   3.369   0.366  13.441 -0.0964  0.6647  0.5375
  189DOPC  C31223361   3.214   0.391  13.584  0.2147 -0.4839  0.2181
  189DOPC  H12X23362   3.109   0.426  13.571  0.6848 -0.1193 -4.1789
  189DOPC  H12Y23363   3.253   0.489  13.620 -0.7146  1.5274 -3.5947
  189DOPC  C31323364   3.242   0.272  13.664 -0.2858  0.4168  0.0877
  189DOPC  H13X23365   3.206   0.189  13.600  0.8675  1.3570 -1.8918
  189DOPC  H13Y23366   3.353   0.263  13.660 -0.4371 -1.5067 -1.8394
  189DOPC  C31423367   3.175   0.270  13.807  0.1702  0.0849 -0.3683
  189DOPC  H14X23368   3.067   0.297  13.811  0.3038  0.5245  1.7149
  189DOPC  H14Y23369   3.170   0.161  13.829 -2.6801 -0.0142 -1.0384
  189DOPC  C31523370   3.259   0.331  13.924  0.3923  0.3010  0.1046
  189DOPC  H15X23371   3.274   0.441  13.909  0.2047  0.2717 -0.2918
  189DOPC  H15Y23372   3.355   0.276  13.917 -0.3341 -0.8211 -1.7949
  189DOPC  C31623373   3.192   0.318  14.066 -0.0609 -0.3757 -0.2962
  189DOPC  H16X23374   3.089   0.359  14.068 -0.0459 -0.3038  2.0194
  189DOPC  H16Y23375   3.164   0.214  14.093 -3.0895 -0.0838 -1.8921
  189DOPC  C31723376   3.279   0.380  14.178  0.2885 -0.2496 -0.1067
  189DOPC  H17X23377   3.311   0.484  14.159 -2.8501  0.7246 -0.6358
  189DOPC  H17Y23378   3.224   0.375  14.274  1.1278 -1.3413  0.3431
  189DOPC  C31823379   3.410   0.291  14.200  0.4070  0.8143 -0.5623
  189DOPC  H18X23380   3.384   0.184  14.191 -1.9085  1.2938 -0.3616
  189DOPC  H18Y23381   3.479   0.304  14.114  1.0036 -1.3614 -0.4782
  189DOPC  H18Z23382   3.459   0.324  14.294  0.0323 -0.2585  0.0160
  190DOPC     N23383   1.173   6.444  11.648  0.3957 -0.2046  0.3731
  190DOPC   C1223384   1.075   6.512  11.746 -0.0005  0.1731  0.5319
  190DOPC  H12A23385   1.047   6.445  11.825  0.6162  1.1970  1.6506
  190DOPC  H12B23386   0.987   6.524  11.684  2.5282  0.3384 -3.3298
  190DOPC   C1323387   1.303   6.425  11.721  0.1872  0.3767 -0.3810
  190DOPC  H13A23388   1.373   6.367  11.663 -0.3204 -0.6824  0.0515
  190DOPC  H13B23389   1.350   6.514  11.762  0.3848  0.7231 -1.3162
  190DOPC  H13C23390   1.269   6.357  11.797 -1.9545  0.1947 -1.4164
  190DOPC   C1423391   1.181   6.518  11.523 -0.1342 -0.1618 -0.0716
  190DOPC  H14A23392   1.081   6.537  11.487  0.0756 -0.0818 -0.6197
  190DOPC  H14B23393   1.233   6.612  11.537  0.4157 -0.3712 -0.6541
  190DOPC  H14C23394   1.237   6.464  11.448  2.2522  0.1703  1.3319
  190DOPC   C1523395   1.118   6.297  11.615  0.3441 -0.2833  0.1466
  190DOPC  H15A23396   1.031   6.294  11.551 -1.2683  0.1292  2.2234
  190DOPC  H15B23397   1.090   6.240  11.702 -1.5295  0.6928  0.2363
  190DOPC  H15C23398   1.197   6.253  11.556 -0.9611  0.9408 -2.7292
  190DOPC   C1123399   1.119   6.644  11.811 -0.6016  0.0678 -0.7578
  190DOPC  H11A23400   1.038   6.676  11.880  0.6905  0.1043  0.8146
  190DOPC  H11B23401   1.202   6.625  11.883 -1.1991  1.8620  0.4867
  190DOPC     P23402   1.043   6.855  11.672  0.0996 -0.2090 -0.1999
  190DOPC   O1323403   0.940   6.789  11.587  0.2808  0.0570 -0.1492
  190DOPC   O1423404   1.122   6.968  11.628 -0.1380  0.4733 -0.0275
  190DOPC   O1223405   1.145   6.745  11.721 -0.0211  0.2993  0.6899
  190DOPC   O1123406   0.977   6.885  11.816 -0.0427  0.0583 -0.1939
  190DOPC    C123407   0.998   7.009  11.881 -0.1364 -0.0698 -0.2544
  190DOPC    HA23408   0.929   7.016  11.968  0.7881  2.2469  0.3607
  190DOPC    HB23409   0.978   7.093  11.811  0.6681 -0.9654 -1.5968
  190DOPC    C223410   1.142   7.029  11.933  0.6283  0.1842 -0.8249
  190DOPC    HS23411   1.208   7.009  11.845  0.6451 -0.8214 -0.5920
  190DOPC   O2123412   1.178   6.931  12.033  0.3013  0.2773  0.3590
  190DOPC   C2123413   1.308   6.902  12.046  0.1774  0.0429  0.3254
  190DOPC   O2223414   1.395   6.948  11.974 -0.1888 -0.1841 -0.6868
  190DOPC   C2223415   1.323   6.799  12.157 -0.5408 -0.1903  0.5126
  190DOPC   H2R23416   1.387   6.718  12.118 -1.5818 -1.1968  0.8539
  190DOPC   H2S23417   1.230   6.746  12.187 -0.2045 -2.2576 -1.8034
  190DOPC    C323418   1.161   7.171  11.995 -0.1320 -0.3650 -0.5439
  190DOPC    HX23419   1.160   7.248  11.915 -0.2864  0.2234  0.0095
  190DOPC    HY23420   1.269   7.164  12.022  0.2685 -0.5729 -2.1385
  190DOPC   O3123421   1.066   7.206  12.100 -0.1359  0.2883  0.0539
  190DOPC   C3123422   1.112   7.189  12.222  0.6698 -0.1342  0.0207
  190DOPC   O3223423   1.226   7.167  12.250 -0.2220  0.0659  0.4413
  190DOPC   C3223424   0.991   7.207  12.313 -0.3789 -0.5799 -0.2997
  190DOPC   H2X23425   0.931   7.295  12.281  2.0140  0.8533 -1.1037
  190DOPC   H2Y23426   0.932   7.113  12.308 -0.6397 -0.5777  1.7670
  190DOPC   C2323427   1.395   6.858  12.278 -0.0978  0.1383  0.1610
  190DOPC   H3R23428   1.330   6.906  12.354  1.0772  1.8727  0.1325
  190DOPC   H3S23429   1.476   6.930  12.252  1.2166 -0.8867  1.2278
  190DOPC   C2423430   1.463   6.744  12.354 -0.2889  0.6463  0.2143
  190DOPC   H4R23431   1.513   6.675  12.282  0.0437 -0.0774  1.1224
  190DOPC   H4S23432   1.380   6.682  12.393 -0.8328  1.5672  0.5566
  190DOPC   C2523433   1.554   6.777  12.470  0.1681  0.1261  0.5634
  190DOPC   H5R23434   1.654   6.806  12.431 -1.0074  1.6049 -1.5057
  190DOPC   H5S23435   1.577   6.694  12.541  2.9629  1.9788  2.0023
  190DOPC   C2623436   1.486   6.882  12.563 -0.7128  0.1425  0.0167
  190DOPC   H6R23437   1.387   6.849  12.602 -0.3601  0.5170  1.2508
  190DOPC   H6S23438   1.466   6.973  12.503  2.7878  0.2621 -1.1893
  190DOPC   C2723439   1.577   6.910  12.680  0.1027 -0.1444  0.2618
  190DOPC   H7R23440   1.668   6.956  12.636  0.2400 -0.9972 -0.3745
  190DOPC   H7S23441   1.607   6.813  12.726 -1.5336 -1.2912 -0.9214
  190DOPC   C2823442   1.526   7.011  12.787  0.3758 -0.4674 -0.7049
  190DOPC   H8R23443   1.471   7.091  12.732 -2.4269  0.2450  2.7777
  190DOPC   H8S23444   1.614   7.059  12.836 -1.1352  0.8075  0.8888
  190DOPC   C2923445   1.449   6.935  12.892  0.4805  0.0283 -0.2681
  190DOPC   H9R23446   1.398   6.842  12.863 -0.3268  0.0503  1.0318
  190DOPC  C21023447   1.419   6.968  13.015  0.8931 -0.4230 -0.0221
  190DOPC  H10R23448   1.369   6.898  13.083  0.1732  0.3856  0.2992
  190DOPC  C21123449   1.462   7.088  13.084  0.7064  0.2723 -0.0569
  190DOPC  H11R23450   1.372   7.145  13.117 -0.8929 -1.4298 -1.2717
  190DOPC  H11S23451   1.520   7.154  13.017 -1.4385  0.3041 -2.0180
  190DOPC  C21223452   1.536   7.056  13.217 -0.0294  0.4468  0.7840
  190DOPC  H12R23453   1.634   7.013  13.188  0.5079  2.3466 -0.3927
  190DOPC  H12S23454   1.478   6.976  13.268 -1.0453  0.0645 -0.8610
  190DOPC  C21323455   1.565   7.179  13.304 -0.0083  0.0387  0.3510
  190DOPC  H13R23456   1.663   7.223  13.276  0.2430 -0.1812  0.8733
  190DOPC  H13S23457   1.591   7.134  13.402  0.3296 -0.6944 -0.0697
  190DOPC  C21423458   1.453   7.284  13.305 -0.2824 -0.0382  1.1088
  190DOPC  H14R23459   1.356   7.230  13.306 -0.4647  0.1747 -1.0183
  190DOPC  H14S23460   1.447   7.336  13.207 -2.2182 -1.8675  0.1694
  190DOPC  C21523461   1.463   7.386  13.419  0.0462  1.0120  0.0876
  190DOPC  H15R23462   1.374   7.450  13.403 -2.9679 -2.6481  0.8279
  190DOPC  H15S23463   1.558   7.444  13.417 -0.2381  1.4725 -0.2349
  190DOPC  C21623464   1.451   7.309  13.561  0.3379 -0.1913  0.0526
  190DOPC  H16R23465   1.536   7.240  13.576 -0.7654 -1.8028 -0.8375
  190DOPC  H16S23466   1.360   7.246  13.566  0.7975 -0.8004  1.0312
  190DOPC  C21723467   1.459   7.403  13.681  0.8284 -0.0106 -0.7400
  190DOPC  H17R23468   1.546   7.472  13.682  0.1888  0.8942 -2.6872
  190DOPC  H17S23469   1.471   7.346  13.776 -0.5073  1.2941  0.2696
  190DOPC  C21823470   1.332   7.488  13.692 -0.4640  0.1370  0.1172
  190DOPC  H18R23471   1.324   7.562  13.609 -0.6063  1.1070  0.9759
  190DOPC  H18S23472   1.343   7.557  13.778  3.6228  1.8489 -1.5157
  190DOPC  H18T23473   1.244   7.420  13.691  0.6470 -1.3815  1.1172
  190DOPC   C3323474   1.029   7.246  12.461  0.0220 -0.6327  0.3552
  190DOPC   H3X23475   0.937   7.292  12.503 -0.5741  0.2814 -1.7858
  190DOPC   H3Y23476   1.110   7.322  12.469  2.0878 -2.8806  2.9555
  190DOPC   C3423477   1.074   7.126  12.548 -0.8175 -0.0563  0.3389
  190DOPC   H4X23478   1.156   7.079  12.489 -0.5904  3.1415 -2.1458
  190DOPC   H4Y23479   0.992   7.053  12.562 -2.4833  1.7398  0.3886
  190DOPC   C3523480   1.148   7.164  12.677 -0.5933 -0.1792  0.0274
  190DOPC   H5X23481   1.243   7.219  12.660  1.0158 -2.1920  1.8778
  190DOPC   H5Y23482   1.173   7.074  12.737 -3.2307 -0.0252  1.5023
  190DOPC   C3623483   1.057   7.251  12.772  0.1419  0.3322 -0.4892
  190DOPC   H6X23484   1.038   7.348  12.722 -1.9297  0.4145  0.3221
  190DOPC   H6Y23485   0.960   7.199  12.785 -0.3390  0.8599 -1.8020
  190DOPC   C3723486   1.118   7.269  12.907 -0.0438 -0.3985 -0.3052
  190DOPC   H7X23487   1.140   7.173  12.958 -0.8973 -0.9292 -0.9041
  190DOPC   H7Y23488   1.215   7.321  12.891  0.4750 -1.3636 -0.3424
  190DOPC   C3823489   1.028   7.349  13.007 -0.3846 -0.0151 -1.0009
  190DOPC   H8X23490   0.961   7.285  13.069  0.2213  0.1676 -0.1622
  190DOPC   H8Y23491   0.970   7.422  12.946 -0.9585 -0.0562 -0.5083
  190DOPC   C3923492   1.122   7.414  13.106  0.5834  0.3874  0.3630
  190DOPC   H9X23493   1.179   7.497  13.062 -1.0634  1.8537  0.8884
  190DOPC  C31023494   1.140   7.390  13.236  0.2093  0.3304  0.2065
  190DOPC  H10X23495   1.206   7.461  13.288  1.1035  0.0555 -0.5211
  190DOPC  C31123496   1.072   7.288  13.323 -0.4523  0.2310  0.1283
  190DOPC  H11X23497   1.149   7.253  13.395 -0.0066  1.2062  0.1417
  190DOPC  H11Y23498   1.045   7.201  13.260 -0.3363  0.7313 -0.6258
  190DOPC  C31223499   0.955   7.357  13.396  0.3299 -0.0246 -0.5742
  190DOPC  H12X23500   0.893   7.281  13.449  0.8960 -0.2637 -0.2516
  190DOPC  H12Y23501   0.890   7.417  13.329  0.5155  1.1932  0.2991
  190DOPC  C31323502   1.004   7.452  13.509 -0.4067 -0.0636  0.8281
  190DOPC  H13X23503   1.066   7.393  13.579 -1.6109 -0.8599  1.2561
  190DOPC  H13Y23504   1.068   7.530  13.463 -2.3886  0.7185 -0.7598
  190DOPC  C31423505   0.894   7.516  13.594 -0.2253 -0.6246  0.0018
  190DOPC  H14X23506   0.845   7.584  13.520 -0.2429 -1.2476 -0.5715
  190DOPC  H14Y23507   0.815   7.444  13.624 -0.7721 -0.1348 -0.2289
  190DOPC  C31523508   0.945   7.593  13.716  0.8835  0.4519  0.7826
  190DOPC  H15X23509   1.020   7.665  13.677 -0.3143 -0.0964 -2.9434
  190DOPC  H15Y23510   1.001   7.526  13.784 -0.8990  0.9676  2.8648
  190DOPC  C31623511   0.835   7.667  13.791  0.5524  0.0920 -0.2227
  190DOPC  H16X23512   0.771   7.718  13.715 -0.4841 -1.1677 -0.2387
  190DOPC  H16Y23513   0.763   7.607  13.851  2.1652 -1.8366 -0.1034
  190DOPC  C31723514   0.888   7.766  13.896  0.1398 -0.1528 -0.3613
  190DOPC  H17X23515   0.952   7.710  13.968 -1.0398  1.6935  2.2847
  190DOPC  H17Y23516   0.955   7.838  13.844 -0.6187 -0.6417 -2.0904
  190DOPC  C31823517   0.780   7.845  13.977  0.5134 -0.4435 -0.5419
  190DOPC  H18X23518   0.731   7.912  13.904  0.4150  1.0463  0.8561
  190DOPC  H18Y23519   0.719   7.775  14.039 -0.2375  0.6060 -0.0809
  190DOPC  H18Z23520   0.840   7.907  14.046 -1.1846 -0.7806  1.3266
  191DOPC     N23521   4.747   6.562  11.893  0.3389 -0.3820 -0.2275
  191DOPC   C1223522   4.896   6.543  11.873 -0.0416  0.0004  0.4006
  191DOPC  H12A23523   4.933   6.449  11.912 -0.3907 -0.5845 -0.6287
  191DOPC  H12B23524   4.953   6.623  11.916 -1.7748  0.6272  1.6405
  191DOPC   C1323525   4.698   6.692  11.837 -0.0942  0.2688  0.1890
  191DOPC  H13A23526   4.742   6.770  11.898  1.1188 -0.6225  0.5094
  191DOPC  H13B23527   4.726   6.693  11.733 -1.8356 -2.7241 -0.4239
  191DOPC  H13C23528   4.591   6.691  11.846 -0.0937  3.2018  2.1288
  191DOPC   C1423529   4.730   6.572  12.047  0.2105  0.4720 -0.2788
  191DOPC  H14A23530   4.740   6.473  12.089  0.2152 -0.1398 -1.6336
  191DOPC  H14B23531   4.800   6.638  12.096 -0.2948 -0.8359  2.3944
  191DOPC  H14C23532   4.628   6.600  12.069  0.0954  0.1917 -0.4476
  191DOPC   C1523533   4.671   6.453  11.832 -0.3789 -0.4953  0.0477
  191DOPC  H15A23534   4.566   6.468  11.852 -0.2561 -1.9752  2.1241
  191DOPC  H15B23535   4.701   6.359  11.877  0.4072 -0.2955 -0.0464
  191DOPC  H15C23536   4.695   6.449  11.727  2.0047  1.2571  0.4636
  191DOPC   C1123537   4.937   6.538  11.723 -0.6736  0.0064  0.0986
  191DOPC  H11A23538   4.906   6.634  11.675  0.0663  0.6071  0.7880
  191DOPC  H11B23539   5.048   6.538  11.727 -0.6557 -1.0824 -0.2377
  191DOPC     P23540   4.936   6.273  11.684 -0.0806  0.1883  0.2729
  191DOPC   O1323541   5.069   6.243  11.625 -0.4104 -0.7383 -0.1757
  191DOPC   O1423542   4.822   6.185  11.647 -0.4522  0.4784 -0.5705
  191DOPC   O1223543   4.895   6.428  11.649  0.0014 -0.3378  0.1034
  191DOPC   O1123544   4.951   6.261  11.840  0.4047  0.0964  0.0522
  191DOPC    C123545   5.050   6.191  11.911 -0.3942 -0.0581 -0.1454
  191DOPC    HA23546   5.140   6.257  11.908 -0.5272  0.1286 -0.0145
  191DOPC    HB23547   5.080   6.095  11.863 -0.3573  0.2434 -0.7358
  191DOPC    C223548   5.013   6.167  12.059  0.2092  0.0483  0.2863
  191DOPC    HS23549   5.037   6.255  12.122  1.1924 -0.9752  1.3828
  191DOPC   O2123550   5.068   6.047  12.111 -0.3488  0.8394 -0.0648
  191DOPC   C2123551   5.190   6.067  12.161  0.1203 -0.1931  0.2438
  191DOPC   O2223552   5.256   6.165  12.131 -0.2094 -0.2889 -0.5253
  191DOPC   C2223553   5.227   5.945  12.250  0.0506 -0.0698 -0.2517
  191DOPC   H2R23554   5.288   5.874  12.191  0.4826  0.6724 -0.7252
  191DOPC   H2S23555   5.132   5.891  12.272  0.3105 -0.5115 -0.2098
  191DOPC    C323556   4.856   6.155  12.069  0.0039 -0.0678  0.0540
  191DOPC    HX23557   4.842   6.064  12.007  0.9767  0.4343 -0.9543
  191DOPC    HY23558   4.814   6.248  12.023  3.2013 -0.1632 -3.6735
  191DOPC   O3123559   4.803   6.132  12.202  0.6668 -0.1047 -0.1798
  191DOPC   C3123560   4.811   6.229  12.286  0.7868 -0.8083 -0.3958
  191DOPC   O3223561   4.846   6.340  12.257  0.0962  0.1236  0.0646
  191DOPC   C3223562   4.758   6.179  12.421 -0.4009 -0.0762 -0.1355
  191DOPC   H2X23563   4.657   6.222  12.440  0.4491  1.4559  1.1898
  191DOPC   H2Y23564   4.730   6.072  12.413 -1.8425  0.3376 -0.9333
  191DOPC   C2323565   5.300   5.986  12.381 -0.1323  0.2496  0.2708
  191DOPC   H3R23566   5.397   6.032  12.350  0.3041 -0.6832  0.2362
  191DOPC   H3S23567   5.331   5.892  12.430  2.2884  0.5907 -0.4816
  191DOPC   C2423568   5.220   6.072  12.485  0.7641  0.3950 -0.4229
  191DOPC   H4R23569   5.126   6.018  12.510 -0.5075  2.6716 -0.0084
  191DOPC   H4S23570   5.179   6.164  12.439 -0.8900 -0.1525 -0.1267
  191DOPC   C2523571   5.297   6.088  12.615 -0.0236 -0.1895 -0.4649
  191DOPC   H5R23572   5.373   6.168  12.598 -1.1489  1.2435  0.9203
  191DOPC   H5S23573   5.352   5.995  12.637 -2.4138 -1.1977  1.7688
  191DOPC   C2623574   5.213   6.139  12.729  0.3843 -0.2008 -0.5899
  191DOPC   H6R23575   5.115   6.086  12.738 -1.2539  2.6152 -0.9609
  191DOPC   H6S23576   5.206   6.249  12.717 -0.5418 -0.0995  0.6293
  191DOPC   C2723577   5.290   6.112  12.865 -0.4807  0.1083  0.2203
  191DOPC   H7R23578   5.390   6.157  12.851 -0.1127  0.1820  2.6862
  191DOPC   H7S23579   5.294   6.003  12.886 -2.3435 -0.5556 -2.4027
  191DOPC   C2823580   5.235   6.198  12.984  0.2653  0.7529 -0.0862
  191DOPC   H8R23581   5.247   6.308  12.969 -1.4591  0.8348 -1.1871
  191DOPC   H8S23582   5.302   6.187  13.071  0.2978  0.0957 -0.1908
  191DOPC   C2923583   5.089   6.178  13.018  0.1709  0.6506  0.3956
  191DOPC   H9R23584   5.022   6.159  12.932  0.2951  0.9966  0.2192
  191DOPC  C21023585   5.026   6.217  13.129 -0.3360  0.0231 -0.2073
  191DOPC  H10R23586   4.919   6.193  13.138 -0.5452  1.1692  0.6175
  191DOPC  C21123587   5.098   6.273  13.254 -0.1532  0.0585  0.7883
  191DOPC  H11R23588   5.051   6.367  13.290 -2.0919 -0.0802 -1.1817
  191DOPC  H11S23589   5.202   6.307  13.235  0.9871 -3.3430  0.3855
  191DOPC  C21223590   5.098   6.161  13.362 -0.2985  0.4729 -0.4315
  191DOPC  H12R23591   5.142   6.072  13.312  1.2099  0.8593  0.1543
  191DOPC  H12S23592   4.995   6.144  13.401  0.9154 -0.5183  2.6390
  191DOPC  C21323593   5.189   6.193  13.480  0.3735  0.9119  0.1814
  191DOPC  H13R23594   5.162   6.292  13.523  3.3068  1.2687  1.4533
  191DOPC  H13S23595   5.294   6.207  13.444  1.7308 -2.1261  2.4817
  191DOPC  C21423596   5.188   6.082  13.583  0.4895 -0.1172 -0.5788
  191DOPC  H14R23597   5.224   5.991  13.530  0.7198  0.0816 -0.7616
  191DOPC  H14S23598   5.085   6.058  13.616  0.7032 -0.5133 -0.1846
  191DOPC  C21523599   5.282   6.114  13.705 -0.2113 -0.3612 -0.3646
  191DOPC  H15R23600   5.382   6.148  13.672  0.9105 -1.3732  1.7911
  191DOPC  H15S23601   5.307   6.017  13.754  0.4906  0.1831  0.3727
  191DOPC  C21623602   5.231   6.210  13.814 -0.1815 -0.4263 -0.2304
  191DOPC  H16R23603   5.152   6.170  13.881 -0.0778  0.6820  0.5839
  191DOPC  H16S23604   5.174   6.292  13.767 -0.2068 -0.1774  0.2261
  191DOPC  C21723605   5.346   6.261  13.901  0.5850  0.3773 -0.3545
  191DOPC  H17R23606   5.384   6.345  13.839  0.5311  0.4600 -0.2745
  191DOPC  H17S23607   5.416   6.175  13.912  0.9692  0.0715 -3.8639
  191DOPC  C21823608   5.307   6.321  14.037 -0.0348 -0.7399  0.0684
  191DOPC  H18R23609   5.216   6.383  14.038  1.0943  0.9840  0.8700
  191DOPC  H18S23610   5.387   6.381  14.086 -3.0229  2.7649  1.0191
  191DOPC  H18T23611   5.277   6.238  14.105  1.3557  0.4743  2.3139
  191DOPC   C3323612   4.863   6.212  12.529  0.1143  0.1931 -0.3930
  191DOPC   H3X23613   4.849   6.321  12.545 -1.2450 -0.0649  0.3436
  191DOPC   H3Y23614   4.966   6.191  12.493  0.3706  0.0697  0.4029
  191DOPC   C3423615   4.827   6.129  12.658 -0.4811 -0.6481  0.4397
  191DOPC   H4X23616   4.913   6.151  12.725  0.9070  1.6675 -1.9048
  191DOPC   H4Y23617   4.840   6.021  12.635 -0.6683 -0.8518  1.2620
  191DOPC   C3523618   4.687   6.154  12.719 -0.4908  0.5280  0.0303
  191DOPC   H5X23619   4.675   6.070  12.791 -0.3518  0.8575  0.4424
  191DOPC   H5Y23620   4.609   6.145  12.640 -0.6494  0.4126  0.1977
  191DOPC   C3623621   4.659   6.282  12.781 -0.3058 -0.0139  0.3133
  191DOPC   H6X23622   4.656   6.366  12.709  0.3159 -1.9036 -2.0660
  191DOPC   H6Y23623   4.554   6.284  12.816 -1.5437  0.5548 -3.0770
  191DOPC   C3723624   4.756   6.316  12.893 -0.4640  0.6662  0.3081
  191DOPC   H7X23625   4.787   6.217  12.934 -2.5976 -0.3661 -0.4103
  191DOPC   H7Y23626   4.845   6.359  12.843 -0.2654 -0.1705 -0.0916
  191DOPC   C3823627   4.707   6.411  12.994  0.0706 -0.4054 -0.2582
  191DOPC   H8X23628   4.652   6.485  12.932  1.9653  1.0982 -0.2349
  191DOPC   H8Y23629   4.800   6.457  13.033  0.8146 -2.3072  0.3328
  191DOPC   C3923630   4.628   6.334  13.096  0.1329 -0.5031  0.0430
  191DOPC   H9X23631   4.561   6.262  13.047 -1.0634  0.8010 -0.2964
  191DOPC  C31023632   4.630   6.359  13.229 -0.0974 -0.0406  0.6367
  191DOPC  H10X23633   4.558   6.306  13.291  0.4109 -0.9036  0.5041
  191DOPC  C31123634   4.716   6.459  13.299 -0.1758 -0.2676 -0.6755
  191DOPC  H11X23635   4.681   6.563  13.281  0.2605  0.3896  1.8803
  191DOPC  H11Y23636   4.816   6.461  13.250  0.8419 -2.5023  1.1628
  191DOPC  C31223637   4.725   6.423  13.451  0.2679 -0.4639 -0.4724
  191DOPC  H12X23638   4.755   6.318  13.468 -0.1808 -0.4866  0.2242
  191DOPC  H12Y23639   4.624   6.431  13.497  0.0793  0.3131 -0.9871
  191DOPC  C31323640   4.818   6.517  13.528  0.1861 -0.2701 -1.1660
  191DOPC  H13X23641   4.908   6.526  13.464  1.1956 -0.8898  0.1201
  191DOPC  H13Y23642   4.764   6.614  13.535  0.6243 -0.0772 -0.2886
  191DOPC  C31423643   4.850   6.467  13.670  0.0571 -0.3151  0.4078
  191DOPC  H14X23644   4.902   6.369  13.661 -0.9987 -0.9548  1.0923
  191DOPC  H14Y23645   4.925   6.537  13.713  0.6615 -1.8099  1.9203
  191DOPC  C31523646   4.737   6.456  13.775 -0.5323  0.2340  0.2891
  191DOPC  H15X23647   4.661   6.390  13.726  1.4175 -1.4677 -0.6285
  191DOPC  H15Y23648   4.696   6.558  13.789  0.4003  0.6179  0.2999
  191DOPC  C31623649   4.786   6.390  13.904  0.6458  0.3818 -0.4781
  191DOPC  H16X23650   4.825   6.290  13.875 -0.8246  0.1792 -1.8636
  191DOPC  H16Y23651   4.874   6.452  13.935 -0.5394  2.1271 -0.4858
  191DOPC  C31723652   4.671   6.375  14.011 -0.4519 -0.2494 -0.2034
  191DOPC  H17X23653   4.625   6.473  14.036 -0.1102  0.3617 -1.8731
  191DOPC  H17Y23654   4.595   6.309  13.964  0.3499 -1.0321 -0.4155
  191DOPC  C31823655   4.734   6.302  14.133 -0.4658 -0.2922  0.1204
  191DOPC  H18X23656   4.805   6.378  14.173  1.0536  0.9888 -4.4096
  191DOPC  H18Y23657   4.654   6.272  14.204  0.7343 -0.0744  1.6104
  191DOPC  H18Z23658   4.786   6.208  14.104  2.9448  0.9727  1.6250
  192DOPC     N23659   2.507   2.959  12.094  0.3548 -0.2668  0.2217
  192DOPC   C1223660   2.403   2.869  12.041  0.2973  0.3403  0.3095
  192DOPC  H12A23661   2.445   2.829  11.950  1.6214  3.4200 -0.5489
  192DOPC  H12B23662   2.316   2.926  12.012  0.7150  0.9139  0.1699
  192DOPC   C1323663   2.455   3.018  12.223  0.2881 -0.2014 -0.0340
  192DOPC  H13A23664   2.520   3.093  12.266  1.2539 -1.7635  1.3222
  192DOPC  H13B23665   2.367   3.077  12.200  0.2453  0.2371  1.1620
  192DOPC  H13C23666   2.431   2.938  12.291 -1.4273  0.8319  0.6432
  192DOPC   C1423667   2.522   3.082  12.004 -0.4122 -0.0495 -0.4804
  192DOPC  H14A23668   2.426   3.108  11.963 -1.4125  0.2397  1.9122
  192DOPC  H14B23669   2.560   3.156  12.071 -2.3857  0.6169 -0.0327
  192DOPC  H14C23670   2.593   3.066  11.923  0.0998  0.3045 -0.1072
  192DOPC   C1523671   2.641   2.902  12.112 -0.2471  0.6158 -0.1063
  192DOPC  H15A23672   2.638   2.836  12.198 -2.3937 -0.3374 -0.8313
  192DOPC  H15B23673   2.710   2.984  12.124  1.7122 -0.9046 -0.4308
  192DOPC  H15C23674   2.663   2.836  12.029  0.8060 -1.8254  1.9530
  192DOPC   C1123675   2.363   2.738  12.124  0.6387  0.7929 -0.3413
  192DOPC  H11A23676   2.295   2.669  12.069  1.2810 -1.7517  1.8218
  192DOPC  H11B23677   2.444   2.667  12.151 -1.8571 -2.0782  0.2336
  192DOPC     P23678   2.148   2.823  12.263 -0.0423  0.1180 -0.5032
  192DOPC   O1323679   2.077   2.808  12.132  0.3806  0.1127  0.3363
  192DOPC   O1423680   2.147   2.954  12.332 -0.2850  0.0759  0.1150
  192DOPC   O1223681   2.302   2.775  12.255  0.4079  0.3022 -0.0359
  192DOPC   O1123682   2.083   2.716  12.365  0.0723  0.3994  0.0099
  192DOPC    C123683   2.106   2.579  12.328  0.1237  0.1986 -0.4379
  192DOPC    HA23684   2.213   2.555  12.313  0.1884  0.8952 -1.1207
  192DOPC    HB23685   2.056   2.555  12.232  0.1285 -1.0145 -0.1600
  192DOPC    C223686   2.048   2.495  12.445 -0.4895 -0.0721  0.4576
  192DOPC    HS23687   1.938   2.512  12.441 -0.5178 -0.2600  0.4593
  192DOPC   O2123688   2.124   2.538  12.557 -0.2735  0.1069 -0.5544
  192DOPC   C2123689   2.062   2.570  12.664  0.4174 -0.3273 -0.2372
  192DOPC   O2223690   1.947   2.541  12.684  0.2600 -0.1057 -0.4359
  192DOPC   C2223691   2.142   2.665  12.757  0.5293 -0.9270 -0.6389
  192DOPC   H2R23692   2.154   2.758  12.698 -1.2106 -0.9463 -1.0669
  192DOPC   H2S23693   2.242   2.616  12.763  1.4335  0.6604 -2.0016
  192DOPC    C323694   2.074   2.343  12.424 -0.2818 -0.1782  0.1866
  192DOPC    HX23695   2.184   2.336  12.411  0.1001  2.1949  1.4600
  192DOPC    HY23696   2.023   2.321  12.328 -0.6212  1.2856  0.0120
  192DOPC   O3123697   2.030   2.268  12.536  0.1811  0.0924  1.0875
  192DOPC   C3123698   1.916   2.206  12.529  0.4802  0.0873  0.0318
  192DOPC   O3223699   1.852   2.191  12.423  0.1593 -0.4540 -1.1145
  192DOPC   C3223700   1.874   2.159  12.666 -0.2980  0.6486 -0.8861
  192DOPC   H2X23701   1.910   2.055  12.680 -1.4689  0.3449 -0.0265
  192DOPC   H2Y23702   1.933   2.223  12.735  1.6285 -0.8048 -1.0964
  192DOPC   C2323703   2.068   2.711  12.887 -0.0571 -0.0065 -0.6372
  192DOPC   H3R23704   1.984   2.779  12.863  0.5611  1.2447  0.6025
  192DOPC   H3S23705   2.132   2.776  12.950 -1.1151 -0.9471  1.5103
  192DOPC   C2423706   2.007   2.601  12.970 -0.5714 -0.5685 -0.8502
  192DOPC   H4R23707   2.081   2.518  12.980 -0.7136 -0.8265 -1.8211
  192DOPC   H4S23708   1.917   2.557  12.922  0.0983 -0.8328 -1.9185
  192DOPC   C2523709   1.980   2.640  13.120 -0.1551  0.2795 -0.6794
  192DOPC   H5R23710   1.893   2.708  13.108  0.2083  1.0013  0.5379
  192DOPC   H5S23711   2.066   2.691  13.169 -1.7634  1.6155  0.8978
  192DOPC   C2623712   1.937   2.524  13.199  0.1169  0.6257 -0.6140
  192DOPC   H6R23713   2.021   2.451  13.204 -1.0968 -0.7379  1.1559
  192DOPC   H6S23714   1.862   2.483  13.127  0.5495 -0.8326 -0.2722
  192DOPC   C2723715   1.868   2.558  13.335  0.5558  0.6882  0.0665
  192DOPC   H7R23716   1.785   2.627  13.308  3.9285  3.8906 -3.3943
  192DOPC   H7S23717   1.936   2.621  13.396  0.2303  0.0168  1.1420
  192DOPC   C2823718   1.805   2.436  13.408 -0.0155  0.2327 -0.5759
  192DOPC   H8R23719   1.753   2.376  13.330 -0.7706  2.6050 -2.0219
  192DOPC   H8S23720   1.727   2.490  13.468  0.6770  1.4648 -0.7445
  192DOPC   C2923721   1.905   2.369  13.497 -0.2420 -0.0155  0.2776
  192DOPC   H9R23722   1.974   2.304  13.440 -2.2178 -0.0705 -2.2312
  192DOPC  C21023723   1.900   2.369  13.637 -0.2461 -0.0107 -0.1396
  192DOPC  H10R23724   1.983   2.306  13.671 -0.6010  0.5089  1.8280
  192DOPC  C21123725   1.799   2.427  13.728  0.4172  0.6891  0.5800
  192DOPC  H11R23726   1.759   2.525  13.693  2.6016  1.5760  0.3928
  192DOPC  H11S23727   1.852   2.435  13.826  0.9003  0.2317  0.3584
  192DOPC  C21223728   1.685   2.325  13.770  0.4594  0.5470 -0.2084
  192DOPC  H12R23729   1.732   2.244  13.830  0.6322  1.0031  0.2793
  192DOPC  H12S23730   1.641   2.281  13.677  1.8336 -1.3524 -0.0246
  192DOPC  C21323731   1.577   2.401  13.853 -0.7051 -0.1922 -0.0929
  192DOPC  H13R23732   1.543   2.477  13.779 -1.6791 -1.3255 -0.8329
  192DOPC  H13S23733   1.623   2.459  13.936  2.2459  0.2941 -1.8853
  192DOPC  C21423734   1.451   2.331  13.901 -0.0540 -0.7578  0.1184
  192DOPC  H14R23735   1.382   2.312  13.816 -0.6223 -3.0391  1.0260
  192DOPC  H14S23736   1.391   2.401  13.962 -0.6847 -0.3127 -0.9826
  192DOPC  C21523737   1.486   2.215  13.991  0.9051 -0.2046  0.9528
  192DOPC  H15R23738   1.570   2.249  14.055  0.0070  2.4129  0.8810
  192DOPC  H15S23739   1.523   2.130  13.930 -1.1734  0.7114 -1.7921
  192DOPC  C21623740   1.359   2.165  14.060  0.2506 -0.6028 -0.1464
  192DOPC  H16R23741   1.286   2.125  13.986  0.9759  1.6907 -2.2522
  192DOPC  H16S23742   1.310   2.243  14.122  0.9526 -0.6924  0.5284
  192DOPC  C21723743   1.386   2.043  14.153 -0.0087 -0.4950 -0.0350
  192DOPC  H17R23744   1.467   2.070  14.224  0.2964 -2.8647  0.6055
  192DOPC  H17S23745   1.416   1.960  14.085 -1.5744 -0.0347 -1.3556
  192DOPC  C21823746   1.263   1.992  14.230  0.2275  0.5235 -0.0086
  192DOPC  H18R23747   1.226   2.069  14.301  0.3747 -0.4611  1.1650
  192DOPC  H18S23748   1.298   1.901  14.283  0.6043  1.0253  0.6251
  192DOPC  H18T23749   1.176   1.960  14.169  0.0961  0.7972  0.0337
  192DOPC   C3323750   1.721   2.159  12.701 -0.1965 -1.0759 -0.1989
  192DOPC   H3X23751   1.680   2.083  12.631  1.7986 -1.0997 -1.4278
  192DOPC   H3Y23752   1.684   2.261  12.678  1.0006 -0.0380  2.1351
  192DOPC   C3423753   1.681   2.111  12.843 -0.6835  0.1206  0.4122
  192DOPC   H4X23754   1.736   2.016  12.861  0.6940  0.0908 -3.1134
  192DOPC   H4Y23755   1.573   2.087  12.847 -0.9128  0.8460 -0.9852
  192DOPC   C3523756   1.709   2.228  12.940 -0.2787  0.3370  0.0646
  192DOPC   H5X23757   1.653   2.319  12.909 -1.4245 -0.1688  0.6048
  192DOPC   H5Y23758   1.820   2.240  12.934 -0.4208  1.0307 -1.9815
  192DOPC   C3623759   1.674   2.178  13.086 -0.2337  0.2447 -0.0518
  192DOPC   H6X23760   1.717   2.079  13.112  0.2766  0.2394 -0.9029
  192DOPC   H6Y23761   1.727   2.246  13.156 -1.7461  0.5809  0.8077
  192DOPC   C3723762   1.526   2.188  13.122  0.6039  0.3689  0.2195
  192DOPC   H7X23763   1.494   2.294  13.134  0.0312  0.2217  0.0262
  192DOPC   H7Y23764   1.470   2.140  13.038 -1.0290  0.7400  1.0560
  192DOPC   C3823765   1.494   2.115  13.254  0.4753 -0.2337 -0.8550
  192DOPC   H8X23766   1.383   2.121  13.266  0.4652 -1.0768 -0.5092
  192DOPC   H8Y23767   1.547   2.178  13.329  0.0435 -1.2653  0.3717
  192DOPC   C3923768   1.534   1.966  13.278  0.5801  0.2594 -0.5230
  192DOPC   H9X23769   1.508   1.906  13.190 -3.1069  0.8334  0.0059
  192DOPC  C31023770   1.580   1.906  13.388  0.3950 -0.4256 -0.2921
  192DOPC  H10X23771   1.631   1.809  13.391 -0.2570 -0.7548  0.5981
  192DOPC  C31123772   1.613   1.991  13.509  0.0561 -0.6924  0.3992
  192DOPC  H11X23773   1.543   2.076  13.526  0.3162 -0.1804 -0.9403
  192DOPC  H11Y23774   1.715   2.033  13.500  0.1518 -0.6448  1.5707
  192DOPC  C31223775   1.610   1.904  13.636  0.4827  0.0508  0.5402
  192DOPC  H12X23776   1.681   1.946  13.710  1.1853 -0.6510  0.2708
  192DOPC  H12Y23777   1.655   1.806  13.610  0.0821  0.0556 -0.2161
  192DOPC  C31323778   1.476   1.892  13.711  0.7842  0.1207 -0.4730
  192DOPC  H13X23779   1.420   1.987  13.706  1.4952  0.4900 -2.3471
  192DOPC  H13Y23780   1.435   1.816  13.640 -1.4035 -0.0800  0.9176
  192DOPC  C31423781   1.477   1.838  13.859  0.2119 -0.1505  0.3932
  192DOPC  H14X23782   1.525   1.911  13.927 -1.0024 -0.3863  1.5451
  192DOPC  H14Y23783   1.368   1.833  13.881  0.2689 -2.2776  0.4313
  192DOPC  C31523784   1.547   1.701  13.869 -0.1264 -0.1083 -0.1999
  192DOPC  H15X23785   1.655   1.720  13.852 -0.6247  1.7944 -1.5944
  192DOPC  H15Y23786   1.509   1.645  13.780 -0.3350  1.7658 -1.3330
  192DOPC  C31623787   1.547   1.628  14.004 -0.1034  0.5602  0.3609
  192DOPC  H16X23788   1.447   1.598  14.042 -0.3602 -1.3913 -1.6609
  192DOPC  H16Y23789   1.606   1.534  13.996 -2.6112 -1.2362  1.5788
  192DOPC  C31723790   1.612   1.704  14.128 -0.3823 -0.3827  0.2744
  192DOPC  H17X23791   1.716   1.726  14.096 -0.5384 -1.8868 -1.3970
  192DOPC  H17Y23792   1.556   1.799  14.143 -1.5732 -0.8883 -0.8015
  192DOPC  C31823793   1.596   1.619  14.258 -0.7155 -0.1728  0.4816
  192DOPC  H18X23794   1.601   1.691  14.342  2.8893  0.8406 -0.4061
  192DOPC  H18Y23795   1.514   1.545  14.270 -0.8687 -0.2609 -0.9460
  192DOPC  H18Z23796   1.684   1.551  14.250  1.4268  2.4883 -0.1429
  193DOPC     N23797   1.529   2.672  11.422  0.0535 -0.8735 -0.4968
  193DOPC   C1223798   1.429   2.568  11.396  0.0297 -0.1316 -0.1912
  193DOPC  H12A23799   1.459   2.526  11.301  0.4231  0.4430 -0.3286
  193DOPC  H12B23800   1.332   2.608  11.375 -0.1382 -1.1286 -1.4647
  193DOPC   C1323801   1.519   2.769  11.305 -0.0086 -0.7004  0.8235
  193DOPC  H13A23802   1.441   2.843  11.317  0.3136 -0.0190 -1.0103
  193DOPC  H13B23803   1.608   2.830  11.302 -1.0165  0.8474  1.1199
  193DOPC  H13C23804   1.521   2.722  11.208 -0.8725  1.5029 -0.3273
  193DOPC   C1423805   1.669   2.613  11.437  0.3737  0.4004 -0.4295
  193DOPC  H14A23806   1.701   2.561  11.349  0.0869 -0.5434  0.0079
  193DOPC  H14B23807   1.741   2.685  11.472  0.9305 -0.4684  0.2630
  193DOPC  H14C23808   1.662   2.536  11.513 -0.3478  2.8306  2.1714
  193DOPC   C1523809   1.494   2.752  11.545 -0.0447  0.0327 -1.1929
  193DOPC  H15A23810   1.400   2.804  11.539  0.7009  1.9385  1.8239
  193DOPC  H15B23811   1.568   2.830  11.558  0.2216 -0.6551  2.5977
  193DOPC  H15C23812   1.482   2.693  11.634  1.2137  0.3512 -0.7918
  193DOPC   C1123813   1.410   2.452  11.500  0.5573 -0.5084 -0.0508
  193DOPC  H11A23814   1.353   2.373  11.447  1.7571  0.3880 -2.8522
  193DOPC  H11B23815   1.507   2.408  11.531 -0.3365 -1.3004  1.8156
  193DOPC     P23816   1.193   2.533  11.635  0.1943 -0.0793  0.3262
  193DOPC   O1323817   1.148   2.617  11.521 -0.0236 -0.1076  0.0426
  193DOPC   O1423818   1.170   2.594  11.768  0.0089  0.5356 -0.1212
  193DOPC   O1223819   1.349   2.493  11.625 -0.0734  0.0490  0.3215
  193DOPC   O1123820   1.116   2.400  11.629 -0.1891  0.2519  0.4171
  193DOPC    C123821   1.152   2.288  11.713  0.1089 -0.6792  0.5697
  193DOPC    HA23822   1.233   2.307  11.788  0.3443  0.7311  0.0016
  193DOPC    HB23823   1.197   2.217  11.641 -0.2893  0.7695 -1.1633
  193DOPC    C223824   1.034   2.223  11.783 -0.2063 -0.3196 -0.5713
  193DOPC    HS23825   0.954   2.239  11.708  0.0130  1.7948 -0.4201
  193DOPC   O2123826   1.002   2.294  11.910  0.2162 -0.2515  0.4120
  193DOPC   C2123827   0.887   2.364  11.914 -0.1650  0.5721  0.1441
  193DOPC   O2223828   0.809   2.395  11.823 -0.0793 -0.3695 -0.1895
  193DOPC   C2223829   0.870   2.412  12.063  0.3841  0.3176  0.1955
  193DOPC   H2R23830   0.968   2.453  12.097  0.1530  1.2406 -0.2252
  193DOPC   H2S23831   0.840   2.315  12.108 -0.5556  0.0166 -1.0484
  193DOPC    C323832   1.052   2.069  11.805  0.7284 -0.1186  0.6603
  193DOPC    HX23833   1.099   2.023  11.716 -1.3121 -0.7259 -0.1569
  193DOPC    HY23834   0.951   2.024  11.799  1.8605 -2.8286  0.5973
  193DOPC   O3123835   1.116   2.040  11.930  0.7590  0.5822 -0.1844
  193DOPC   C3123836   1.137   1.906  11.933 -0.6249 -0.5945 -0.1424
  193DOPC   O3223837   1.107   1.830  11.842  0.7008  0.2503 -0.3564
  193DOPC   C3223838   1.201   1.855  12.062 -0.5017  0.6834  0.2886
  193DOPC   H2X23839   1.304   1.894  12.071 -0.4974  0.3921  1.8579
  193DOPC   H2Y23840   1.152   1.902  12.150 -0.7708  0.6679  0.1474
  193DOPC   C2323841   0.763   2.521  12.090 -0.4334  0.4883 -0.0002
  193DOPC   H3R23842   0.676   2.503  12.023  0.5749 -1.3277 -0.9002
  193DOPC   H3S23843   0.800   2.621  12.057 -2.7847  0.9347 -1.5632
  193DOPC   C2423844   0.725   2.530  12.237  0.1904  0.2990 -0.5467
  193DOPC   H4R23845   0.667   2.624  12.246  0.2290  0.1597  1.5398
  193DOPC   H4S23846   0.811   2.521  12.307 -0.6300 -0.9775  0.3369
  193DOPC   C2523847   0.627   2.419  12.274 -0.4100 -0.1281  0.1332
  193DOPC   H5R23848   0.688   2.326  12.269 -2.1234 -1.3474  0.9678
  193DOPC   H5S23849   0.544   2.416  12.201 -1.6005  2.3710  1.2507
  193DOPC   C2623850   0.566   2.433  12.418 -0.4121  0.0870 -0.0027
  193DOPC   H6R23851   0.650   2.437  12.490 -0.7607 -1.7737  0.5519
  193DOPC   H6S23852   0.498   2.347  12.435  0.2516 -0.1891  1.3854
  193DOPC   C2723853   0.466   2.550  12.423 -0.4469 -0.0660 -0.5550
  193DOPC   H7R23854   0.396   2.549  12.336  1.7954 -1.1296 -2.4779
  193DOPC   H7S23855   0.519   2.647  12.419  0.4900 -0.5238  0.2630
  193DOPC   C2823856   0.405   2.557  12.561  0.5326 -0.0046 -1.0289
  193DOPC   H8R23857   0.477   2.561  12.646  0.0077  0.4628 -0.6017
  193DOPC   H8S23858   0.347   2.463  12.573  0.7308 -0.1082 -0.8685
  193DOPC   C2923859   0.317   2.677  12.585  0.6627  0.0953  0.1659
  193DOPC   H9R23860   0.283   2.714  12.487 -1.2533 -1.3345  0.2388
  193DOPC  C21023861   0.285   2.737  12.699 -0.3258  0.2734 -0.0238
  193DOPC  H10R23862   0.209   2.816  12.699 -0.4699  0.1351 -0.3898
  193DOPC  C21123863   0.322   2.674  12.832 -0.1203  0.4993 -0.1923
  193DOPC  H11R23864   0.421   2.708  12.869 -0.8442  1.9038  0.5771
  193DOPC  H11S23865   0.325   2.564  12.824 -0.1880  0.5290 -0.6337
  193DOPC  C21223866   0.220   2.723  12.931  0.1657  0.6880  0.2673
  193DOPC  H12R23867   0.120   2.703  12.887  0.7619 -0.2869 -0.6692
  193DOPC  H12S23868   0.232   2.833  12.943 -1.1719  0.8652  0.2289
  193DOPC  C21323869   0.226   2.636  13.061  0.0912 -0.6486  0.8855
  193DOPC  H13R23870   0.331   2.645  13.097 -0.3228 -3.5040  3.1394
  193DOPC  H13S23871   0.219   2.528  13.039 -2.0133 -1.0731  3.2322
  193DOPC  C21423872   0.114   2.676  13.156  0.6836 -0.7732  0.0567
  193DOPC  H14R23873   0.016   2.660  13.107  1.0040  0.5410 -1.0426
  193DOPC  H14S23874   0.119   2.780  13.194 -0.3836 -0.3265 -0.9758
  193DOPC  C21523875   0.129   2.582  13.279 -0.0938  0.1229 -0.1237
  193DOPC  H15R23876   0.113   2.478  13.242 -2.2160  1.2307 -2.6306
  193DOPC  H15S23877   0.052   2.612  13.352  0.2944  0.4010  0.1738
  193DOPC  C21623878   0.264   2.596  13.350  0.5739 -0.7204 -0.1207
  193DOPC  H16R23879   0.277   2.697  13.394  0.9168 -2.2269  3.5911
  193DOPC  H16S23880   0.353   2.570  13.288  0.8552  0.1688 -0.1008
  193DOPC  C21723881   0.252   2.510  13.473  0.4826  0.4865  0.3270
  193DOPC  H17R23882   0.163   2.527  13.537 -0.5335  1.3088 -1.2478
  193DOPC  H17S23883   0.344   2.527  13.534  1.0386 -0.7062 -0.1486
  193DOPC  C21823884   0.260   2.355  13.448 -0.5771 -0.9180  0.1749
  193DOPC  H18R23885   0.332   2.328  13.367  0.6376  0.0276  0.9000
  193DOPC  H18S23886   0.157   2.322  13.426 -0.4682 -1.3333  0.2767
  193DOPC  H18T23887   0.287   2.293  13.536  1.5419 -0.1648  0.1319
  193DOPC   C3323888   1.209   1.694  12.052  0.7081 -0.6830  0.3399
  193DOPC   H3X23889   1.284   1.654  12.123  0.1543 -1.2101  0.6402
  193DOPC   H3Y23890   1.247   1.666  11.951 -0.8750 -0.7113 -0.2842
  193DOPC   C3423891   1.074   1.622  12.074 -0.1966  0.7418  0.3494
  193DOPC   H4X23892   1.088   1.512  12.067  1.0502  0.9303 -0.3396
  193DOPC   H4Y23893   1.012   1.637  11.983 -0.6708 -1.7571  0.1988
  193DOPC   C3523894   1.001   1.666  12.201 -0.0708  0.8434 -0.3665
  193DOPC   H5X23895   0.902   1.618  12.207 -0.0133  0.7867  0.2062
  193DOPC   H5Y23896   0.993   1.776  12.213 -0.8438  1.0541 -2.4443
  193DOPC   C3623897   1.067   1.599  12.323  0.0746  0.4694  0.2968
  193DOPC   H6X23898   1.064   1.490  12.299 -1.9444  0.7248 -0.8815
  193DOPC   H6Y23899   1.171   1.631  12.344 -0.2376  2.2081 -0.6308
  193DOPC   C3723900   0.975   1.614  12.450  0.2077  0.3638 -0.2588
  193DOPC   H7X23901   0.973   1.721  12.482 -1.7300 -0.0553  1.1717
  193DOPC   H7Y23902   0.870   1.593  12.423 -0.0279  0.7513  0.3355
  193DOPC   C3823903   1.011   1.526  12.573  0.6365  0.1576 -1.0557
  193DOPC   H8X23904   0.958   1.551  12.668  2.8469 -0.1518  0.3512
  193DOPC   H8Y23905   1.120   1.543  12.588  0.3499  0.5364  0.8704
  193DOPC   C3923906   0.988   1.377  12.552  0.2240  0.1615 -0.0326
  193DOPC   H9X23907   0.945   1.358  12.452  0.5967  0.3741 -0.2328
  193DOPC  C31023908   1.026   1.278  12.635  0.6850 -0.3197 -0.2910
  193DOPC  H10X23909   1.004   1.173  12.609 -2.2542 -0.0476  0.7466
  193DOPC  C31123910   1.084   1.299  12.779 -0.3072  0.8740 -0.4272
  193DOPC  H11X23911   1.088   1.406  12.808 -0.7232  1.0287 -0.9211
  193DOPC  H11Y23912   1.184   1.253  12.793  0.2095  2.0457 -0.1515
  193DOPC  C31223913   0.992   1.214  12.868 -0.0663  0.0026 -0.6095
  193DOPC  H12X23914   0.983   1.109  12.832 -1.2267 -0.2851  0.4534
  193DOPC  H12Y23915   0.888   1.253  12.861 -0.8628 -2.2983 -3.4772
  193DOPC  C31323916   1.045   1.210  13.016  1.1064  0.2418 -0.4027
  193DOPC  H13X23917   1.148   1.167  13.019  0.7871 -0.4906  0.4366
  193DOPC  H13Y23918   1.048   1.307  13.068  2.1006  0.9850 -1.7686
  193DOPC  C31423919   0.952   1.109  13.093  0.6894 -0.8996  0.2421
  193DOPC  H14X23920   0.847   1.145  13.098  0.8934 -0.3117  0.3891
  193DOPC  H14Y23921   0.957   1.009  13.046 -0.8081 -0.3593 -1.1699
  193DOPC  C31523922   0.989   1.072  13.238  0.4574 -0.2192 -0.3430
  193DOPC  H15X23923   1.091   1.029  13.242 -0.2832 -2.0423  0.1163
  193DOPC  H15Y23924   0.919   0.994  13.274  0.1424 -0.4631 -1.4372
  193DOPC  C31623925   0.990   1.200  13.327 -0.6122 -0.0851  0.7150
  193DOPC  H16X23926   1.069   1.273  13.300  0.1068 -1.4224 -0.9926
  193DOPC  H16Y23927   0.890   1.248  13.331 -0.7647 -0.4663  2.3479
  193DOPC  C31723928   1.019   1.168  13.478  0.2365 -0.4837  0.3361
  193DOPC  H17X23929   0.958   1.086  13.522 -2.7624  0.4463 -1.8150
  193DOPC  H17Y23930   1.124   1.131  13.480  0.7176  0.8100  0.1770
  193DOPC  C31823931   1.003   1.299  13.560 -0.2067 -0.7059 -0.5016
  193DOPC  H18X23932   1.075   1.316  13.643  0.0721 -1.9633 -0.4704
  193DOPC  H18Y23933   1.014   1.389  13.495  1.7707 -0.9678 -0.5908
  193DOPC  H18Z23934   0.903   1.319  13.604 -0.3750 -0.4755 -0.9756
  194DOPC     N23935   2.241   0.005  11.773  0.3709 -0.5252 -0.0880
  194DOPC   C1223936   2.250  -0.087  11.891 -0.9226 -0.0329 -0.3406
  194DOPC  H12A23937   2.351  -0.079  11.928 -1.4940 -0.1230  1.2920
  194DOPC  H12B23938   2.253  -0.187  11.850  1.5493 -0.4638  0.7202
  194DOPC   C1323939   2.229   0.149  11.813 -0.3522  0.4652 -0.2894
  194DOPC  H13A23940   2.234   0.219  11.731 -0.5862 -0.6145 -1.2588
  194DOPC  H13B23941   2.138   0.166  11.867  1.7189 -0.5320  3.8851
  194DOPC  H13C23942   2.315   0.174  11.873 -1.0851 -0.4101  1.1598
  194DOPC   C1423943   2.124  -0.027  11.682 -0.6355  0.2005  0.7127
  194DOPC  H14A23944   2.131  -0.128  11.645 -1.1104 -0.0497  1.2960
  194DOPC  H14B23945   2.034  -0.021  11.742 -1.4958 -1.6450 -0.3311
  194DOPC  H14C23946   2.118   0.036  11.595  2.0432 -3.0289 -2.0700
  194DOPC   C1523947   2.355  -0.023  11.685 -0.2891 -0.5001  0.0455
  194DOPC  H15A23948   2.449  -0.008  11.738 -0.4201  0.3934  0.0406
  194DOPC  H15B23949   2.346   0.036  11.595 -1.4035  1.0062  1.0818
  194DOPC  H15C23950   2.366  -0.121  11.641  1.4711  0.2868 -1.4200
  194DOPC   C1123951   2.154  -0.083  12.005 -0.3968 -0.5301 -0.0439
  194DOPC  H11A23952   2.192  -0.173  12.059  1.0906 -1.0616 -1.8656
  194DOPC  H11B23953   2.166   0.007  12.069 -1.8436  0.1525 -0.6945
  194DOPC     P23954   1.937  -0.227  11.983  0.0627  0.0446 -0.5295
  194DOPC   O1323955   2.019  -0.336  11.930  0.0525 -0.2011  0.1464
  194DOPC   O1423956   1.807  -0.205  11.920  0.7456 -0.0724 -0.3629
  194DOPC   O1223957   2.019  -0.096  11.958  0.2550  0.0642 -0.5030
  194DOPC   O1123958   1.918  -0.254  12.139  0.3612  0.4096 -0.5671
  194DOPC    C123959   1.902  -0.142  12.228 -0.5766 -0.0488 -0.8430
  194DOPC    HA23960   1.874  -0.042  12.187 -0.7813  1.2396  2.1953
  194DOPC    HB23961   1.997  -0.124  12.283  0.2774  0.1677 -2.3396
  194DOPC    C223962   1.791  -0.163  12.332  0.2739  0.3339  0.0555
  194DOPC    HS23963   1.757  -0.061  12.362  1.6805  2.5160 -4.7841
  194DOPC   O2123964   1.850  -0.223  12.456  0.0308 -0.7755  0.1883
  194DOPC   C2123965   1.927  -0.136  12.529  0.8789  0.4713  0.0568
  194DOPC   O2223966   1.946  -0.017  12.505 -0.4635  0.4427  0.4046
  194DOPC   C2223967   1.985  -0.208  12.657  0.4749 -0.2816 -0.6795
  194DOPC   H2R23968   2.031  -0.302  12.621 -1.5126 -0.6386 -2.5328
  194DOPC   H2S23969   1.900  -0.239  12.721  1.6534 -1.3228  0.4347
  194DOPC    C323970   1.677  -0.259  12.281 -0.5776  0.1830 -0.3918
  194DOPC    HX23971   1.714  -0.363  12.269  0.0866  0.2348  1.0084
  194DOPC    HY23972   1.634  -0.232  12.182 -0.5192 -1.7625 -0.9709
  194DOPC   O3123973   1.575  -0.245  12.376 -0.0146 -0.4299 -0.2145
  194DOPC   C3123974   1.569  -0.321  12.485 -0.1698 -0.1921  0.5320
  194DOPC   O3223975   1.639  -0.417  12.505 -0.8495 -0.1700 -0.1366
  194DOPC   C3223976   1.453  -0.288  12.579 -0.1646 -0.0056  0.6336
  194DOPC   H2X23977   1.412  -0.187  12.558  0.1935  0.0325  0.0643
  194DOPC   H2Y23978   1.375  -0.360  12.546  0.2096  0.4916 -1.5523
  194DOPC   C2323979   2.075  -0.110  12.731  0.1860 -0.3512 -0.7865
  194DOPC   H3R23980   2.134  -0.050  12.658 -1.1081  1.0711 -0.7096
  194DOPC   H3S23981   2.144  -0.167  12.797  1.2707  1.1317 -0.5944
  194DOPC   C2423982   1.992  -0.014  12.819  0.0104 -0.1732  0.0937
  194DOPC   H4R23983   1.922  -0.068  12.887  0.0327 -0.0900  0.1830
  194DOPC   H4S23984   1.918   0.039  12.756 -0.9528 -0.1070  1.2520
  194DOPC   C2523985   2.064   0.087  12.906  0.1120  0.9062  0.0816
  194DOPC   H5R23986   2.108   0.168  12.844  1.7481 -0.3165 -0.4281
  194DOPC   H5S23987   2.138   0.033  12.969  1.5454  2.0609 -0.5628
  194DOPC   C2623988   1.954   0.156  12.999 -0.3217 -0.0476 -0.3462
  194DOPC   H6R23989   1.852   0.114  12.991 -1.6884  3.1578 -1.5063
  194DOPC   H6S23990   1.939   0.259  12.960  0.3246  0.1090 -0.1954
  194DOPC   C2723991   1.988   0.166  13.149  0.3075 -0.0171  0.2371
  194DOPC   H7R23992   2.084   0.219  13.172  0.1399 -0.7555  2.9794
  194DOPC   H7S23993   2.008   0.062  13.183  2.1468  0.0904 -0.4113
  194DOPC   C2823994   1.882   0.225  13.239  0.6618 -0.2201  0.2744
  194DOPC   H8R23995   1.794   0.158  13.238  1.9535 -2.2589 -4.4497
  194DOPC   H8S23996   1.852   0.320  13.190  1.3426 -0.5466 -0.8065
  194DOPC   C2923997   1.937   0.251  13.381  0.1340  0.0236 -0.9929
  194DOPC   H9R23998   2.036   0.299  13.391 -0.4354  0.6974  2.4721
  194DOPC  C21023999   1.882   0.199  13.495 -0.1201 -0.5049 -0.4432
  194DOPC  H10R24000   1.917   0.235  13.593 -1.9864 -2.0540  0.8796
  194DOPC  C21124001   1.739   0.148  13.500 -0.1592  0.6511 -0.2983
  194DOPC  H11R24002   1.736   0.038  13.482 -1.8466  0.8136 -1.2186
  194DOPC  H11S24003   1.679   0.195  13.419 -0.6828 -0.7267 -0.7466
  194DOPC  C21224004   1.678   0.160  13.637 -0.1285  0.5906 -0.1144
  194DOPC  H12R24005   1.693   0.263  13.676 -1.2743  0.3448  1.0416
  194DOPC  H12S24006   1.729   0.091  13.708 -1.1108 -1.2526 -1.1195
  194DOPC  C21324007   1.527   0.115  13.623  0.2314 -0.5614  0.4917
  194DOPC  H13R24008   1.520   0.017  13.572  2.5681  0.3045 -1.6757
  194DOPC  H13S24009   1.472   0.190  13.562 -1.2501 -0.9219  1.3282
  194DOPC  C21424010   1.454   0.122  13.757 -0.6861  0.0056 -0.2211
  194DOPC  H14R24011   1.501   0.056  13.833 -0.6253  1.0000  0.6306
  194DOPC  H14S24012   1.347   0.093  13.758 -0.4126 -1.0439 -0.1425
  194DOPC  C21524013   1.448   0.267  13.810  0.3810 -0.6713 -0.4193
  194DOPC  H15R24014   1.439   0.347  13.733  3.1710  0.7819  0.6280
  194DOPC  H15S24015   1.550   0.287  13.849 -1.0577  1.2108  2.8962
  194DOPC  C21624016   1.360   0.304  13.937 -0.7511  0.8895  0.6930
  194DOPC  H16R24017   1.400   0.396  13.984  1.2201  0.2873  0.2810
  194DOPC  H16S24018   1.382   0.223  14.009  0.1560  1.0092  0.5631
  194DOPC  C21724019   1.214   0.320  13.904 -0.5019  0.4058 -0.1540
  194DOPC  H17R24020   1.153   0.296  13.993 -0.0937 -0.2410 -0.0431
  194DOPC  H17S24021   1.184   0.254  13.820 -0.5886  1.4723 -0.9819
  194DOPC  C21824022   1.193   0.461  13.856  0.3659  0.4156  0.6101
  194DOPC  H18R24023   1.089   0.496  13.837  0.6525  0.3442 -1.2571
  194DOPC  H18S24024   1.249   0.476  13.761 -0.4577 -0.9776 -0.1391
  194DOPC  H18T24025   1.243   0.529  13.928 -0.1315  0.1497  1.2236
  194DOPC   C3324026   1.504  -0.299  12.728  0.4980 -0.4125  0.3663
  194DOPC   H3X24027   1.579  -0.380  12.740  0.7303  0.0901  2.7251
  194DOPC   H3Y24028   1.413  -0.309  12.790  1.0054 -1.3926  0.9917
  194DOPC   C3424029   1.579  -0.175  12.776  0.7079 -0.3552 -0.1900
  194DOPC   H4X24030   1.503  -0.094  12.775  0.3077 -0.7215 -1.3735
  194DOPC   H4Y24031   1.669  -0.168  12.712  1.6025 -1.0178  0.9472
  194DOPC   C3524032   1.642  -0.179  12.917 -0.5139 -0.3113 -0.1928
  194DOPC   H5X24033   1.690  -0.079  12.925  0.1999 -0.4598 -1.9752
  194DOPC   H5Y24034   1.729  -0.249  12.915 -0.5781 -0.4091  0.4075
  194DOPC   C3624035   1.548  -0.185  13.031  0.8888  0.0668 -0.0142
  194DOPC   H6X24036   1.470  -0.107  13.024 -1.2210 -1.2264  4.6393
  194DOPC   H6Y24037   1.506  -0.288  13.025 -0.7833  0.7207 -0.1385
  194DOPC   C3724038   1.607  -0.148  13.171 -0.4791 -0.4491  0.0667
  194DOPC   H7X24039   1.674  -0.231  13.203  0.0245 -0.0589  0.0382
  194DOPC   H7Y24040   1.653  -0.047  13.175  0.6771 -0.9503 -0.0327
  194DOPC   C3824041   1.493  -0.135  13.274 -0.5502 -0.2840  0.1108
  194DOPC   H8X24042   1.441  -0.041  13.248  1.5042  0.3090 -2.1651
  194DOPC   H8Y24043   1.541  -0.120  13.373 -0.0175 -1.7297  0.0949
  194DOPC   C3924044   1.396  -0.248  13.293 -0.7113  0.4275  0.0577
  194DOPC   H9X24045   1.321  -0.260  13.212  1.3724 -0.1200 -1.8940
  194DOPC  C31024046   1.391  -0.336  13.394 -1.0921  0.3297  0.3777
  194DOPC  H10X24047   1.300  -0.399  13.394 -0.5265 -0.5416 -1.2367
  194DOPC  C31124048   1.476  -0.333  13.517  0.1146 -0.1453 -0.3001
  194DOPC  H11X24049   1.557  -0.258  13.514  1.3288 -1.3741  0.3299
  194DOPC  H11Y24050   1.518  -0.436  13.523 -0.0677 -0.2238 -0.3407
  194DOPC  C31224051   1.398  -0.324  13.643  0.0365  0.8171  0.6320
  194DOPC  H12X24052   1.330  -0.411  13.655  0.0957  0.7633  0.5732
  194DOPC  H12Y24053   1.327  -0.239  13.654 -0.4779  0.5280 -0.3951
  194DOPC  C31324054   1.493  -0.321  13.767 -0.7525 -0.0053  0.6815
  194DOPC  H13X24055   1.552  -0.416  13.770  0.7765  0.9338  1.9241
  194DOPC  H13Y24056   1.570  -0.241  13.764 -1.6190  0.9495  2.5157
  194DOPC  C31424057   1.420  -0.313  13.899  0.1815 -0.4440 -0.8638
  194DOPC  H14X24058   1.359  -0.405  13.898 -1.3651  0.4329  1.5850
  194DOPC  H14Y24059   1.497  -0.312  13.979 -0.7949 -1.7663  0.1479
  194DOPC  C31524060   1.310  -0.208  13.921  0.6523 -0.5045 -0.5581
  194DOPC  H15X24061   1.222  -0.219  13.853 -0.1040  0.5695  0.2240
  194DOPC  H15Y24062   1.365  -0.115  13.897 -0.9790  0.9198  0.9513
  194DOPC  C31624063   1.251  -0.194  14.065 -0.0734  0.2676 -0.4377
  194DOPC  H16X24064   1.194  -0.287  14.085  2.4541 -1.5678 -1.1552
  194DOPC  H16Y24065   1.332  -0.186  14.141  0.6773 -0.2173 -1.1727
  194DOPC  C31724066   1.149  -0.076  14.072 -0.4769 -0.0693  0.3763
  194DOPC  H17X24067   1.210   0.017  14.076  0.0795 -0.2596 -2.0710
  194DOPC  H17Y24068   1.106  -0.076  13.969 -0.4282  1.0690  0.3400
  194DOPC  C31824069   1.042  -0.073  14.178  0.3163 -0.6114  0.2752
  194DOPC  H18X24070   0.989  -0.170  14.175  2.3240 -1.7333 -0.8685
  194DOPC  H18Y24071   1.081  -0.060  14.281 -1.2941 -2.0872  1.1298
  194DOPC  H18Z24072   0.969   0.008  14.155  2.1496  1.6309  1.9081
  195DOPC     N24073   5.767   0.511  11.120 -0.6745  0.1726 -0.6939
  195DOPC   C1224074   5.728   0.585  11.248  0.4958 -1.1320  0.2492
  195DOPC  H12A24075   5.640   0.535  11.286  1.9830 -3.3230  1.0342
  195DOPC  H12B24076   5.707   0.685  11.216  1.4844 -1.3967 -1.3755
  195DOPC   C1324077   5.805   0.370  11.165 -0.1464 -0.5302 -0.6670
  195DOPC  H13A24078   5.725   0.331  11.226 -1.4216  1.5158 -0.9579
  195DOPC  H13B24079   5.804   0.297  11.085 -0.3673 -2.5713  1.0897
  195DOPC  H13C24080   5.899   0.371  11.218 -1.1624 -1.4103  1.2455
  195DOPC   C1424081   5.894   0.566  11.065 -0.0647 -0.4386  0.0726
  195DOPC  H14A24082   5.963   0.568  11.148 -0.6352 -0.7529  0.5583
  195DOPC  H14B24083   5.936   0.513  10.980  1.3665 -1.8986  1.6329
  195DOPC  H14C24084   5.884   0.669  11.035 -1.7964 -1.0318 -1.6003
  195DOPC   C1524085   5.660   0.518  11.020 -0.3270  0.1156  1.3898
  195DOPC  H15A24086   5.569   0.471  11.056 -1.3973  0.7749 -0.3149
  195DOPC  H15B24087   5.689   0.461  10.933 -0.3559  0.2660  1.2821
  195DOPC  H15C24088   5.645   0.618  10.983 -0.4513  0.1875  1.6326
  195DOPC   C1124089   5.825   0.587  11.375 -0.3487 -0.5151  0.1963
  195DOPC  H11A24090   5.931   0.612  11.350 -1.3039  3.1694 -0.7357
  195DOPC  H11B24091   5.780   0.660  11.444 -0.2094  0.7902 -1.0465
  195DOPC     P24092   5.759   0.397  11.556  0.4021 -0.3039 -0.1566
  195DOPC   O1324093   5.771   0.250  11.541  0.3066  0.3493  0.5699
  195DOPC   O1424094   5.627   0.455  11.567 -0.0185  0.0641 -0.0662
  195DOPC   O1224095   5.836   0.453  11.427  0.0815 -0.9646  0.0185
  195DOPC   O1124096   5.850   0.461  11.675  0.0144  0.8429  0.1193
  195DOPC    C124097   5.827   0.589  11.724  0.2730 -0.3651 -0.8778
  195DOPC    HA24098   5.760   0.574  11.811  0.6103 -1.1344 -0.7350
  195DOPC    HB24099   5.787   0.662  11.652 -0.0677 -0.3801 -0.7058
  195DOPC    C224100   5.961   0.659  11.776  1.0960  0.3210  0.3119
  195DOPC    HS24101   6.028   0.653  11.689  1.9256  1.0043  0.8874
  195DOPC   O2124102   6.011   0.578  11.885 -0.6559 -0.3503  0.5519
  195DOPC   C2124103   6.137   0.602  11.909 -0.4008  0.1862 -0.2535
  195DOPC   O2224104   6.217   0.645  11.825  0.0413 -0.0956 -0.3514
  195DOPC   C2224105   6.169   0.555  12.055 -0.3093 -0.0469  0.4956
  195DOPC   H2R24106   6.278   0.537  12.066 -0.5304 -1.2511  0.7674
  195DOPC   H2S24107   6.127   0.454  12.073 -0.3535 -0.0808  0.2111
  195DOPC    C324108   5.952   0.805  11.808  0.7287  0.0927 -0.5985
  195DOPC    HX24109   5.898   0.855  11.725 -0.0177  0.4320  0.0778
  195DOPC    HY24110   6.053   0.852  11.806  1.9108 -2.0817  1.7528
  195DOPC   O3124111   5.889   0.817  11.939 -0.7688  0.3027  0.1538
  195DOPC   C3124112   5.764   0.843  11.943  0.8225 -0.9312  0.3687
  195DOPC   O3224113   5.692   0.865  11.845 -0.1470 -0.3255 -0.4058
  195DOPC   C3224114   5.718   0.823  12.088  0.3790 -0.4155  0.5046
  195DOPC   H2X24115   5.613   0.860  12.096 -0.3802 -2.0141 -1.2886
  195DOPC   H2Y24116   5.725   0.716  12.116  0.3897 -0.5308  0.0578
  195DOPC   C2324117   6.118   0.650  12.161 -0.3209  0.4306  0.1780
  195DOPC   H3R24118   6.100   0.750  12.116  0.6922  1.4843  1.9839
  195DOPC   H3S24119   6.207   0.667  12.226  2.3715  0.4710 -3.2571
  195DOPC   C2424120   5.996   0.584  12.227 -0.4648  0.9841  0.1524
  195DOPC   H4R24121   5.942   0.526  12.148 -0.3828 -0.8011  1.3563
  195DOPC   H4S24122   5.933   0.667  12.265 -2.5129  0.0327 -0.9871
  195DOPC   C2524123   6.028   0.482  12.340  0.5119 -0.0877 -0.8418
  195DOPC   H5R24124   6.118   0.422  12.317 -1.1689 -3.6420  1.0844
  195DOPC   H5S24125   5.944   0.409  12.332  2.3288 -2.1482 -2.3520
  195DOPC   C2624126   6.045   0.549  12.480  0.3718  0.4678 -0.9110
  195DOPC   H6R24127   5.956   0.616  12.489  0.6056  0.5792  1.2497
  195DOPC   H6S24128   6.139   0.606  12.494  0.2011  0.5819 -0.1548
  195DOPC   C2724129   6.036   0.448  12.602  0.3670  0.4626  0.0878
  195DOPC   H7R24130   6.126   0.382  12.604  0.2082  0.2490  1.5840
  195DOPC   H7S24131   5.954   0.380  12.573  0.0884  0.6509  0.4370
  195DOPC   C2824132   6.003   0.518  12.736  1.0936  0.1985 -0.0383
  195DOPC   H8R24133   5.955   0.452  12.811  1.1317  0.9054  0.6273
  195DOPC   H8S24134   5.936   0.600  12.702  0.8707  1.2952  2.7738
  195DOPC   C2924135   6.122   0.596  12.790  0.1139  0.3719  0.0850
  195DOPC   H9R24136   6.105   0.704  12.774  0.4057  0.1843 -1.7018
  195DOPC  C21024137   6.210   0.554  12.875 -0.0228 -0.2606 -0.6929
  195DOPC  H10R24138   6.299   0.616  12.890  1.9574 -2.9835 -0.5294
  195DOPC  C21124139   6.221   0.414  12.935  0.0130  0.0795  0.2526
  195DOPC  H11R24140   6.325   0.376  12.929 -0.3526 -0.8496 -0.4804
  195DOPC  H11S24141   6.164   0.333  12.884  0.0275 -0.5678  1.2410
  195DOPC  C21224142   6.166   0.408  13.078 -0.7100  0.4560 -0.0396
  195DOPC  H12R24143   6.184   0.306  13.116  1.7201  0.4787 -0.9520
  195DOPC  H12S24144   6.060   0.443  13.082 -0.6480  0.7218 -0.6479
  195DOPC  C21324145   6.255   0.493  13.177  1.1579 -0.5109 -1.0388
  195DOPC  H13R24146   6.235   0.601  13.163  0.8691 -0.6326 -1.6196
  195DOPC  H13S24147   6.364   0.478  13.158  1.4125 -1.9186  1.1383
  195DOPC  C21424148   6.225   0.446  13.327  0.9249 -0.2405  0.3074
  195DOPC  H14R24149   6.249   0.338  13.333 -1.5087 -0.8335  0.3239
  195DOPC  H14S24150   6.116   0.452  13.343  0.8195 -0.5594 -0.2502
  195DOPC  C21524151   6.299   0.520  13.440 -0.1396  0.0200  0.2297
  195DOPC  H15R24152   6.250   0.620  13.441  2.0691  1.1661  0.9586
  195DOPC  H15S24153   6.404   0.546  13.416  0.1670 -0.7936  0.6486
  195DOPC  C21624154   6.284   0.456  13.581  0.1696  0.1300 -0.2202
  195DOPC  H16R24155   6.368   0.388  13.608  0.5351 -0.0477 -1.7237
  195DOPC  H16S24156   6.191   0.395  13.589 -0.5286  1.1986  0.0181
  195DOPC  C21724157   6.280   0.560  13.694 -0.5972 -0.0228  0.1673
  195DOPC  H17R24158   6.198   0.632  13.674 -0.1026  0.4072 -0.3312
  195DOPC  H17S24159   6.376   0.616  13.694  0.7018 -2.1399  0.0279
  195DOPC  C21824160   6.253   0.493  13.829 -0.1113 -0.3150  0.5355
  195DOPC  H18R24161   6.342   0.431  13.855 -0.1447 -0.6808 -0.1978
  195DOPC  H18S24162   6.162   0.431  13.814 -0.7707  0.5931  0.7161
  195DOPC  H18T24163   6.234   0.569  13.907  3.6298  0.9729  0.3720
  195DOPC   C3324164   5.799   0.889  12.205  0.6796 -0.3766  0.5604
  195DOPC   H3X24165   5.800   0.999  12.188 -0.0220 -0.2148  1.4716
  195DOPC   H3Y24166   5.904   0.857  12.192  0.3816 -1.0535 -0.3667
  195DOPC   C3424167   5.741   0.850  12.344  0.4235  0.0644  0.6912
  195DOPC   H4X24168   5.731   0.740  12.356  1.3657 -0.1859 -0.5059
  195DOPC   H4Y24169   5.641   0.896  12.361 -1.5068 -3.0584 -1.0907
  195DOPC   C3524170   5.834   0.893  12.456 -0.1303 -0.3552 -0.0306
  195DOPC   H5X24171   5.839   1.004  12.455 -0.7862 -0.3209  0.1520
  195DOPC   H5Y24172   5.934   0.847  12.441 -1.0340 -3.2438  1.9067
  195DOPC   C3624173   5.782   0.853  12.598  0.0575 -0.4545  1.0121
  195DOPC   H6X24174   5.679   0.893  12.611  0.4600  1.2819 -0.6089
  195DOPC   H6Y24175   5.786   0.742  12.606  1.2758 -0.6918 -1.6111
  195DOPC   C3724176   5.860   0.909  12.719 -1.1229  0.1475 -0.3550
  195DOPC   H7X24177   5.967   0.882  12.705 -1.1897  0.1647 -0.9146
  195DOPC   H7Y24178   5.849   1.020  12.715  0.8493  0.4373  0.8212
  195DOPC   C3824179   5.816   0.851  12.856  0.5647  0.3285 -0.3624
  195DOPC   H8X24180   5.802   0.741  12.851 -1.2895  0.4774  0.7443
  195DOPC   H8Y24181   5.712   0.887  12.870  1.0986  1.1636  1.7809
  195DOPC   C3924182   5.905   0.907  12.968  0.6295  0.5668  0.3266
  195DOPC   H9X24183   5.924   1.015  12.961 -1.7061  1.0059  0.0600
  195DOPC  C31024184   5.956   0.852  13.081  0.1700 -0.6691 -0.5231
  195DOPC  H10X24185   6.032   0.911  13.135 -0.7555 -0.7391  0.9093
  195DOPC  C31124186   5.935   0.710  13.133 -0.4772  0.1949  0.1634
  195DOPC  H11X24187   6.010   0.644  13.084 -1.6417 -2.3934  1.6918
  195DOPC  H11Y24188   5.831   0.676  13.115  0.6900 -2.5740 -2.2406
  195DOPC  C31224189   5.953   0.698  13.283 -0.1604 -0.1459 -0.1005
  195DOPC  H12X24190   6.056   0.735  13.305  0.3415 -1.1231 -0.7242
  195DOPC  H12Y24191   5.951   0.590  13.307  0.0720 -0.5308 -1.6837
  195DOPC  C31324192   5.841   0.759  13.367  0.2835  0.4028  0.9531
  195DOPC  H13X24193   5.804   0.847  13.309  0.7301 -1.0581 -1.7275
  195DOPC  H13Y24194   5.751   0.693  13.363  0.9247 -0.4957  1.2062
  195DOPC  C31424195   5.877   0.791  13.516 -0.4323 -0.4339  0.4101
  195DOPC  H14X24196   5.962   0.862  13.514 -1.4168  0.7501 -0.9314
  195DOPC  H14Y24197   5.792   0.843  13.565 -1.2467  0.6322 -1.9805
  195DOPC  C31524198   5.910   0.665  13.602  0.1590  0.5036 -0.0190
  195DOPC  H15X24199   6.004   0.622  13.561  1.0179  0.7960  1.5554
  195DOPC  H15Y24200   5.830   0.592  13.576  0.1999  1.0253 -1.6709
  195DOPC  C31624201   5.913   0.696  13.752  0.1720 -0.1784  0.4772
  195DOPC  H16X24202   5.810   0.692  13.793  0.1997 -3.5631  0.4623
  195DOPC  H16Y24203   5.967   0.608  13.795  0.0367 -0.4602  0.0700
  195DOPC  C31724204   5.988   0.826  13.807 -0.2947  0.0350 -0.3138
  195DOPC  H17X24205   6.097   0.814  13.789 -0.1885  1.4188 -0.6844
  195DOPC  H17Y24206   5.962   0.911  13.740  0.4543 -0.4803 -1.2936
  195DOPC  C31824207   5.950   0.852  13.956 -0.3790  0.1298 -0.0288
  195DOPC  H18X24208   5.978   0.952  13.996 -1.8280  0.4370  0.2752
  195DOPC  H18Y24209   5.839   0.848  13.958 -0.3608 -0.1654  0.8237
  195DOPC  H18Z24210   6.001   0.780  14.023  1.1824  2.5655  1.5969
  196DOPC     N24211   2.850   1.794  11.643  0.0760  0.1092 -0.1141
  196DOPC   C1224212   2.812   1.726  11.770 -0.0774  1.0241  0.0804
  196DOPC  H12A24213   2.888   1.733  11.846 -0.9168 -0.7596  1.1487
  196DOPC  H12B24214   2.821   1.619  11.756  1.6438  1.2999 -1.2430
  196DOPC   C1324215   2.742   1.791  11.538 -1.3197 -0.0148  0.3071
  196DOPC  H13A24216   2.724   1.693  11.497  0.5341  0.5092 -2.0087
  196DOPC  H13B24217   2.649   1.827  11.580 -0.5221  0.2752  1.8840
  196DOPC  H13C24218   2.770   1.857  11.457  0.0010 -0.5684  0.2975
  196DOPC   C1424219   2.972   1.719  11.584 -0.2375 -0.4384 -0.0194
  196DOPC  H14A24220   2.937   1.649  11.510 -1.0391  0.4786 -0.5347
  196DOPC  H14B24221   3.037   1.795  11.543 -0.9943 -0.2121 -0.8390
  196DOPC  H14C24222   3.023   1.660  11.659  0.5347  0.0745 -0.1278
  196DOPC   C1524223   2.881   1.936  11.677  0.4177 -0.1170 -0.2889
  196DOPC  H15A24224   2.798   1.991  11.718  0.2013 -0.4606 -0.2708
  196DOPC  H15B24225   2.917   1.995  11.594 -0.3762  1.4607  0.4490
  196DOPC  H15C24226   2.957   1.939  11.754  1.1101  2.1796 -0.9777
  196DOPC   C1124227   2.691   1.774  11.841  0.3818  0.6536 -0.4483
  196DOPC  H11A24228   2.687   1.723  11.939  0.6744  0.4801 -0.5264
  196DOPC  H11B24229   2.705   1.882  11.865 -0.3908  0.0370  3.4684
  196DOPC     P24230   2.483   1.622  11.760  0.1318  0.2429  0.4713
  196DOPC   O1324231   2.467   1.582  11.619 -0.1236  0.2081 -0.0222
  196DOPC   O1424232   2.361   1.651  11.839  0.1321  0.3206 -0.2689
  196DOPC   O1224233   2.569   1.756  11.766  0.7817 -0.0144  0.1736
  196DOPC   O1124234   2.576   1.518  11.831  0.5822 -0.5851 -0.5983
  196DOPC    C124235   2.588   1.383  11.799 -0.0812  0.0761  0.6513
  196DOPC    HA24236   2.665   1.337  11.865  1.0383 -0.5021 -0.9818
  196DOPC    HB24237   2.623   1.377  11.694 -0.3913  0.9221  0.4908
  196DOPC    C224238   2.452   1.305  11.820 -0.7887 -0.0318  0.1248
  196DOPC    HS24239   2.391   1.329  11.730  0.1270  0.5036 -0.3612
  196DOPC   O2124240   2.382   1.368  11.935 -0.9518  0.4300  0.6961
  196DOPC   C2124241   2.253   1.374  11.937 -0.5880  0.3001 -0.0680
  196DOPC   O2224242   2.171   1.327  11.863 -0.3188  0.5675  0.1572
  196DOPC   C2224243   2.214   1.451  12.063 -0.0993  0.5967 -0.0548
  196DOPC   H2R24244   2.292   1.529  12.079  0.4711 -0.2357  1.4591
  196DOPC   H2S24245   2.221   1.386  12.152 -2.0705  1.4323  0.7795
  196DOPC    C324246   2.461   1.147  11.824  0.0578  0.6607 -0.4570
  196DOPC    HX24247   2.516   1.114  11.734  0.0891 -0.0945 -0.1721
  196DOPC    HY24248   2.359   1.103  11.813  0.5341 -0.2843 -1.2261
  196DOPC   O3124249   2.519   1.098  11.944 -0.2689 -0.6858 -0.1969
  196DOPC   C3124250   2.435   1.074  12.043 -0.3012  0.3190 -0.7450
  196DOPC   O3224251   2.314   1.084  12.041  0.0377 -0.6188  0.1822
  196DOPC   C3224252   2.525   1.036  12.164  0.2152 -0.1751  0.3192
  196DOPC   H2X24253   2.513   0.925  12.172  0.7199 -0.2880 -0.4205
  196DOPC   H2Y24254   2.631   1.043  12.131  0.9675  1.0988  2.8147
  196DOPC   C2324255   2.070   1.521  12.056 -1.0081  0.6405 -0.8936
  196DOPC   H3R24256   1.983   1.455  12.036 -0.8403  0.2722 -0.4138
  196DOPC   H3S24257   2.075   1.591  11.969 -0.4284  0.0749 -1.3223
  196DOPC   C2424258   2.054   1.619  12.179  0.2075  0.0690 -0.1812
  196DOPC   H4R24259   1.987   1.700  12.143 -1.3112 -0.4344  1.3641
  196DOPC   H4S24260   2.145   1.674  12.210 -0.8162  0.5091  2.2458
  196DOPC   C2524261   1.995   1.548  12.296  0.1469  0.5964 -0.5671
  196DOPC   H5R24262   2.027   1.442  12.310 -0.1491  0.4304 -1.1250
  196DOPC   H5S24263   1.886   1.531  12.282  0.5400 -3.6855  0.0537
  196DOPC   C2624264   2.026   1.624  12.435 -0.3177  0.6149  0.2568
  196DOPC   H6R24265   1.957   1.710  12.426  0.2203  1.2829  2.1522
  196DOPC   H6S24266   2.129   1.666  12.444  0.5895 -1.1292 -1.2134
  196DOPC   C2724267   1.996   1.538  12.564  0.0091 -0.2772  0.0246
  196DOPC   H7R24268   2.067   1.452  12.563  1.9395  1.2585 -1.1009
  196DOPC   H7S24269   1.895   1.493  12.551  0.3005 -0.6353 -1.1897
  196DOPC   C2824270   2.004   1.620  12.686  0.2031  0.1628 -0.4583
  196DOPC   H8R24271   2.102   1.672  12.696  1.5118 -2.4112  1.3364
  196DOPC   H8S24272   1.999   1.545  12.768 -1.0134  0.7015 -0.0129
  196DOPC   C2924273   1.886   1.717  12.696 -0.6527 -0.2064  0.2543
  196DOPC   H9R24274   1.870   1.784  12.611 -2.1594  0.8203  1.2918
  196DOPC  C21024275   1.811   1.738  12.806  1.1755 -0.5273  0.4183
  196DOPC  H10R24276   1.726   1.807  12.802 -0.9601 -3.0568 -0.2687
  196DOPC  C21124277   1.835   1.672  12.940  0.5762  0.0661 -0.6113
  196DOPC  H11R24278   1.939   1.638  12.953  0.4032  0.5258  3.1607
  196DOPC  H11S24279   1.759   1.596  12.967  0.5007 -0.5793 -2.5217
  196DOPC  C21224280   1.812   1.786  13.046  0.5502  1.0187  0.0566
  196DOPC  H12R24281   1.704   1.808  13.053  0.5234  0.7133  0.5829
  196DOPC  H12S24282   1.858   1.880  13.008  0.5724  1.0239  0.0969
  196DOPC  C21324283   1.877   1.754  13.182 -0.2665 -0.1429 -0.5862
  196DOPC  H13R24284   1.842   1.841  13.241  0.9654 -1.8200  2.8714
  196DOPC  H13S24285   1.988   1.759  13.176 -0.1320 -0.6967  0.9570
  196DOPC  C21424286   1.802   1.632  13.248  0.3560 -0.0820  0.8689
  196DOPC  H14R24287   1.812   1.544  13.180  0.7961 -0.9755  2.0549
  196DOPC  H14S24288   1.696   1.665  13.251  0.7448  1.1369  1.8890
  196DOPC  C21524289   1.851   1.588  13.384 -0.3128  0.5408 -0.4957
  196DOPC  H15R24290   1.823   1.673  13.449 -1.0035 -0.4875  0.5982
  196DOPC  H15S24291   1.962   1.590  13.385 -0.2362  0.8084  3.0943
  196DOPC  C21624292   1.786   1.458  13.444  0.0836  0.3072 -0.0075
  196DOPC  H16R24293   1.800   1.380  13.367 -1.2639 -0.7531  0.7816
  196DOPC  H16S24294   1.678   1.482  13.444  0.4195  2.1350  2.0660
  196DOPC  C21724295   1.826   1.412  13.587  0.3783 -0.8487  0.7945
  196DOPC  H17R24296   1.934   1.396  13.568  0.3627  0.9393 -1.3486
  196DOPC  H17S24297   1.765   1.322  13.610 -0.6281 -0.4210 -0.1273
  196DOPC  C21824298   1.799   1.518  13.702  0.2253  0.1274  0.5889
  196DOPC  H18R24299   1.818   1.478  13.803  0.2030 -1.6101 -0.0699
  196DOPC  H18S24300   1.692   1.548  13.699  0.4719  1.1197  1.1689
  196DOPC  H18T24301   1.860   1.609  13.680 -0.8154  0.4781 -1.1012
  196DOPC   C3324302   2.482   1.106  12.295  0.5110  0.6009  0.2303
  196DOPC   H3X24303   2.371   1.116  12.294  0.4764  0.2647  0.3768
  196DOPC   H3Y24304   2.521   1.209  12.303 -0.2660  0.7678  2.3933
  196DOPC   C3424305   2.501   1.028  12.420  0.0162  0.1613  0.0694
  196DOPC   H4X24306   2.610   1.010  12.429  0.4012  1.2382 -1.9113
  196DOPC   H4Y24307   2.453   0.928  12.417  0.6356 -0.2164  1.7943
  196DOPC   C3524308   2.447   1.103  12.541 -0.0037 -0.2852  0.0726
  196DOPC   H5X24309   2.337   1.114  12.541  0.0799  0.6091  0.1483
  196DOPC   H5Y24310   2.504   1.198  12.544 -1.8519  0.8768 -0.0569
  196DOPC   C3624311   2.499   1.025  12.664  0.2597  0.1580  0.1212
  196DOPC   H6X24312   2.430   0.938  12.667 -0.5020  0.7660  0.5100
  196DOPC   H6Y24313   2.603   0.999  12.635 -0.1158  2.6697 -4.3198
  196DOPC   C3724314   2.478   1.102  12.796 -1.0239  0.0737 -0.9600
  196DOPC   H7X24315   2.545   1.191  12.787 -0.9002  0.1134  0.1559
  196DOPC   H7Y24316   2.372   1.130  12.811 -0.7562  0.9716 -0.6443
  196DOPC   C3824317   2.521   1.023  12.923  0.5304  0.0824 -0.0128
  196DOPC   H8X24318   2.528   1.097  13.005 -1.3914 -0.8017  1.0206
  196DOPC   H8Y24319   2.629   0.997  12.929  0.3830 -0.5685 -0.1019
  196DOPC   C3924320   2.419   0.913  12.964 -0.2060  0.0826 -0.0221
  196DOPC   H9X24321   2.420   0.829  12.892  0.1372 -2.0640  2.3573
  196DOPC  C31024322   2.336   0.908  13.065  0.3214 -0.0960 -0.2007
  196DOPC  H10X24323   2.265   0.824  13.067  0.2536 -0.0785 -1.3102
  196DOPC  C31124324   2.325   1.013  13.171 -0.3351  0.1296 -0.0079
  196DOPC  H11X24325   2.221   1.015  13.208  0.5497  1.8278  2.7188
  196DOPC  H11Y24326   2.341   1.112  13.123  0.0071 -0.8786 -2.1007
  196DOPC  C31224327   2.415   0.988  13.296  0.1255 -0.2524 -0.3070
  196DOPC  H12X24328   2.523   0.985  13.269 -0.2136  0.1699 -1.8289
  196DOPC  H12Y24329   2.381   0.887  13.326 -0.6235  0.5344  1.6617
  196DOPC  C31324330   2.395   1.077  13.421  0.0685  0.2915 -0.0356
  196DOPC  H13X24331   2.410   1.184  13.398 -2.0480  0.4757 -0.7111
  196DOPC  H13Y24332   2.290   1.054  13.448  0.3955 -4.0410 -1.5369
  196DOPC  C31424333   2.471   1.032  13.545 -0.8553 -0.3340 -0.2520
  196DOPC  H14X24334   2.476   0.921  13.549 -1.1810 -0.3182  2.5352
  196DOPC  H14Y24335   2.576   1.065  13.526 -0.3006 -2.2790 -0.8433
  196DOPC  C31524336   2.414   1.086  13.675  0.5851  0.8634 -0.2422
  196DOPC  H15X24337   2.312   1.042  13.683  1.4811 -1.3897 -0.5899
  196DOPC  H15Y24338   2.400   1.197  13.672  2.6222  1.2270  1.3572
  196DOPC  C31624339   2.491   1.041  13.796 -0.0555  0.3093 -0.0532
  196DOPC  H16X24340   2.495   0.930  13.794  2.4652  0.3291 -2.6172
  196DOPC  H16Y24341   2.600   1.061  13.790 -0.2865  1.8347  0.3514
  196DOPC  C31724342   2.429   1.070  13.935  0.7897 -0.0856 -0.1550
  196DOPC  H17X24343   2.396   1.175  13.950  1.1387 -0.2302  1.8981
  196DOPC  H17Y24344   2.325   1.031  13.932  1.0588 -0.9221  0.9888
  196DOPC  C31824345   2.491   1.003  14.058  0.4369 -0.2585 -0.0483
  196DOPC  H18X24346   2.592   1.049  14.070  1.5376 -2.5189 -0.2451
  196DOPC  H18Y24347   2.435   1.023  14.152  0.3452 -2.9322  0.5540
  196DOPC  H18Z24348   2.492   0.893  14.049 -0.4310 -0.2778  0.0265
  197DOPC     N24349   6.076   6.443  11.339  0.4532  0.7776 -0.3952
  197DOPC   C1224350   6.150   6.577  11.355 -0.0327  0.1832  0.6550
  197DOPC  H12A24351   6.087   6.664  11.343 -1.1901 -0.7203 -0.0662
  197DOPC  H12B24352   6.204   6.590  11.263 -1.1685  1.1802  0.0954
  197DOPC   C1324353   6.182   6.345  11.296  0.4808 -0.3526  0.6266
  197DOPC  H13A24354   6.248   6.339  11.381 -0.6935 -1.6240  1.4916
  197DOPC  H13B24355   6.149   6.242  11.290  0.0773 -0.1365 -1.5021
  197DOPC  H13C24356   6.232   6.384  11.209  0.3441 -1.4430  0.0535
  197DOPC   C1424357   5.976   6.442  11.233  0.3249  0.7693  0.0534
  197DOPC  H14A24358   5.942   6.347  11.194 -0.1309  1.1317 -0.4457
  197DOPC  H14B24359   5.882   6.489  11.257  0.4028  0.9616 -0.0145
  197DOPC  H14C24360   6.009   6.498  11.147 -0.3429  2.4674  0.8535
  197DOPC   C1524361   6.017   6.394  11.468 -0.1770 -0.6469  0.3889
  197DOPC  H15A24362   5.955   6.465  11.521 -0.7247 -1.6528  1.1221
  197DOPC  H15B24363   6.088   6.363  11.544 -0.5742  0.6675  1.3205
  197DOPC  H15C24364   5.957   6.306  11.448  0.6596 -1.4463  1.2856
  197DOPC   C1124365   6.248   6.595  11.478 -0.2042  0.1669 -0.1496
  197DOPC  H11A24366   6.293   6.696  11.470  0.2195  0.0605  0.7269
  197DOPC  H11B24367   6.182   6.583  11.566 -1.4924 -4.3736 -1.4725
  197DOPC     P24368   6.488   6.492  11.416  0.0683 -0.3785  0.2439
  197DOPC   O1324369   6.474   6.508  11.272 -0.0248  0.5358 -0.2718
  197DOPC   O1424370   6.552   6.363  11.456  0.3958  0.2262 -0.0517
  197DOPC   O1224371   6.346   6.498  11.489 -0.4941 -0.1176  0.0344
  197DOPC   O1124372   6.577   6.609  11.469 -0.3213  0.6906  0.3904
  197DOPC    C124373   6.685   6.606  11.562  0.7363  0.2458  0.2814
  197DOPC    HA24374   6.727   6.709  11.561 -2.4540  1.6468  0.1492
  197DOPC    HB24375   6.772   6.546  11.527 -1.0921 -2.6873  0.4981
  197DOPC    C224376   6.633   6.582  11.711  0.6337 -0.1434  0.5232
  197DOPC    HS24377   6.579   6.486  11.715 -1.2461  0.9213  3.2142
  197DOPC   O2124378   6.535   6.685  11.743  0.0402  0.3051 -0.0417
  197DOPC   C2124379   6.460   6.676  11.848 -0.8146  0.0800  0.0620
  197DOPC   O2224380   6.441   6.573  11.911 -0.2540 -0.1839 -0.0786
  197DOPC   C2224381   6.410   6.817  11.890  0.0923  0.3600  0.4190
  197DOPC   H2R24382   6.402   6.893  11.809  2.0580 -1.2917 -1.4463
  197DOPC   H2S24383   6.504   6.853  11.938  1.0253 -1.5335  0.0967
  197DOPC    C324384   6.752   6.575  11.808  0.8869 -0.2841 -0.2276
  197DOPC    HX24385   6.817   6.497  11.762  0.9151 -0.5030  0.1777
  197DOPC    HY24386   6.716   6.539  11.907 -0.5988 -2.5282 -1.4801
  197DOPC   O3124387   6.826   6.696  11.811 -0.1734  0.2243 -0.1882
  197DOPC   C3124388   6.797   6.790  11.898  0.6561  0.6801  0.2019
  197DOPC   O3224389   6.720   6.779  11.993 -0.1965  0.4474 -0.5742
  197DOPC   C3224390   6.879   6.914  11.862  0.1228  0.1763  0.2060
  197DOPC   H2X24391   6.969   6.886  11.804  0.0670 -1.0446  0.6952
  197DOPC   H2Y24392   6.813   6.979  11.800 -0.1769  1.9757  2.2626
  197DOPC   C2324393   6.283   6.836  11.979 -0.2154  0.2838  0.9146
  197DOPC   H3R24394   6.200   6.787  11.922  1.6608 -1.0753 -0.7964
  197DOPC   H3S24395   6.257   6.941  12.001 -1.1140  0.2838 -0.0276
  197DOPC   C2424396   6.305   6.774  12.124  0.3000 -0.1903 -0.4457
  197DOPC   H4R24397   6.383   6.843  12.164 -0.0963  0.7159 -1.1876
  197DOPC   H4S24398   6.350   6.673  12.118  0.2396 -0.2286 -0.2713
  197DOPC   C2524399   6.177   6.792  12.219 -0.2236  0.2722  0.3434
  197DOPC   H5R24400   6.094   6.733  12.175  0.8760 -0.5414 -0.7196
  197DOPC   H5S24401   6.140   6.896  12.222  1.0413  0.9019 -2.4100
  197DOPC   C2624402   6.206   6.751  12.364 -0.3970 -0.0957 -0.5001
  197DOPC   H6R24403   6.310   6.779  12.389  1.5263 -4.0432 -2.9336
  197DOPC   H6S24404   6.214   6.640  12.369  1.3782  0.0238  0.1251
  197DOPC   C2724405   6.092   6.803  12.457  0.0222 -0.1176 -0.5865
  197DOPC   H7R24406   5.987   6.790  12.423 -0.6453  1.6429  0.6948
  197DOPC   H7S24407   6.096   6.913  12.450 -0.6095  0.1709  2.4334
  197DOPC   C2824408   6.099   6.767  12.611 -0.1517 -0.0841  0.3467
  197DOPC   H8R24409   6.049   6.843  12.674 -1.0944  0.4053 -0.9620
  197DOPC   H8S24410   6.208   6.769  12.635 -0.2527  0.1565  0.7941
  197DOPC   C2924411   6.041   6.627  12.635 -0.1325 -0.4510 -0.3794
  197DOPC   H9R24412   5.936   6.624  12.603  0.4698  0.1661 -2.6709
  197DOPC  C21024413   6.107   6.531  12.704  0.1731 -0.3754  0.3226
  197DOPC  H10R24414   6.053   6.438  12.730 -0.2190 -0.1941  0.1692
  197DOPC  C21124415   6.247   6.538  12.769 -0.0898 -0.3765 -0.3351
  197DOPC  H11R24416   6.285   6.643  12.772 -0.8030 -0.0197 -2.2186
  197DOPC  H11S24417   6.322   6.505  12.693  1.6129 -1.1952  1.6198
  197DOPC  C21224418   6.248   6.459  12.904 -0.0593 -0.5664 -0.5384
  197DOPC  H12R24419   6.353   6.474  12.938  0.6620 -2.4922 -1.7847
  197DOPC  H12S24420   6.244   6.349  12.891 -0.2424 -0.6951  0.5032
  197DOPC  C21324421   6.150   6.517  13.000  0.0736 -0.1514 -0.7285
  197DOPC  H13R24422   6.046   6.498  12.963  0.1037 -0.9595 -0.4183
  197DOPC  H13S24423   6.148   6.628  13.003 -1.7212 -0.1181 -1.5603
  197DOPC  C21424424   6.154   6.455  13.144  0.3717  0.1337  0.1091
  197DOPC  H14R24425   6.152   6.344  13.139  0.4330 -0.0706  2.8692
  197DOPC  H14S24426   6.055   6.479  13.188  0.8848  2.0520  0.3319
  197DOPC  C21524427   6.265   6.525  13.230  0.6750  0.0302  0.3789
  197DOPC  H15R24428   6.274   6.630  13.192 -1.4272 -0.2121 -0.9332
  197DOPC  H15S24429   6.363   6.475  13.213  1.3107  1.1093  0.7418
  197DOPC  C21624430   6.229   6.534  13.382  0.4558 -0.3236  0.4179
  197DOPC  H16R24431   6.129   6.583  13.376  0.1483 -1.0619 -0.7832
  197DOPC  H16S24432   6.305   6.590  13.440 -0.0091 -0.5820  1.3102
  197DOPC  C21724433   6.204   6.392  13.450  0.1033 -0.6951  0.1362
  197DOPC  H17R24434   6.304   6.342  13.454  0.6032  0.3414  2.1289
  197DOPC  H17S24435   6.129   6.347  13.382 -1.5639  4.5899 -2.0019
  197DOPC  C21824436   6.136   6.403  13.588 -0.6387 -0.5178  0.1430
  197DOPC  H18R24437   6.220   6.396  13.660  1.4078 -3.1486 -2.3050
  197DOPC  H18S24438   6.087   6.304  13.601  2.5701 -2.4674 -1.4418
  197DOPC  H18T24439   6.069   6.491  13.597  0.9572  0.7463  0.1523
  197DOPC   C3324440   6.923   6.988  11.991  0.0011 -0.0172  0.0802
  197DOPC   H3X24441   6.840   6.999  12.063  0.7553  0.2708  0.9282
  197DOPC   H3Y24442   6.961   7.087  11.959  0.5382 -0.0472  0.5948
  197DOPC   C3424443   7.030   6.898  12.069  0.2959  0.1397 -0.1665
  197DOPC   H4X24444   7.115   6.889  11.998 -0.5746  0.8980 -1.3399
  197DOPC   H4Y24445   6.988   6.802  12.106  0.0836  0.0194 -0.7080
  197DOPC   C3524446   7.074   6.972  12.198 -0.1426  0.5530  0.2312
  197DOPC   H5X24447   6.989   6.978  12.269 -0.3461 -1.7977  0.2523
  197DOPC   H5Y24448   7.096   7.080  12.186  1.2164  0.1441 -1.2668
  197DOPC   C3624449   7.210   6.914  12.262 -0.0788 -0.8725 -0.0464
  197DOPC   H6X24450   7.199   6.804  12.272 -1.6717 -0.9707 -2.0367
  197DOPC   H6Y24451   7.296   6.930  12.193 -0.1422  0.1797  0.1083
  197DOPC   C3724452   7.223   6.958  12.413 -0.5253 -0.3584 -0.0939
  197DOPC   H7X24453   7.172   7.056  12.417 -0.2093 -0.0199 -2.4869
  197DOPC   H7Y24454   7.176   6.882  12.478 -0.5175  0.1165  0.4709
  197DOPC   C3824455   7.374   6.951  12.459  0.4665  0.3100  0.0662
  197DOPC   H8X24456   7.443   6.943  12.373  0.0137 -0.4807 -0.2326
  197DOPC   H8Y24457   7.395   6.863  12.524 -3.1124 -0.3566  0.5551
  197DOPC   C3924458   7.407   7.078  12.527  0.1973  0.6807 -0.3159
  197DOPC   H9X24459   7.461   7.148  12.462  2.6974 -0.7085  0.1475
  197DOPC  C31024460   7.395   7.104  12.660 -0.5287  0.8048  0.1610
  197DOPC  H10X24461   7.419   7.205  12.696  0.9434  0.8898 -0.9661
  197DOPC  C31124462   7.317   7.017  12.753  0.5912  0.1082 -0.2234
  197DOPC  H11X24463   7.237   6.961  12.700  1.1247 -1.3181  0.4193
  197DOPC  H11Y24464   7.271   7.088  12.825  2.2057  1.4884 -0.4990
  197DOPC  C31224465   7.399   6.906  12.819  0.0489  0.5732 -0.0791
  197DOPC  H12X24466   7.430   6.836  12.738  0.3758 -0.2190  0.7095
  197DOPC  H12Y24467   7.335   6.843  12.884  0.3645 -1.2181 -1.4200
  197DOPC  C31324468   7.528   6.946  12.890 -0.3519 -0.1646 -0.3590
  197DOPC  H13X24469   7.583   6.855  12.922 -0.6549  0.2131  1.3415
  197DOPC  H13Y24470   7.599   6.989  12.817  0.7028 -1.4338 -0.1237
  197DOPC  C31424471   7.492   7.031  13.010 -0.0617 -0.8680 -0.3614
  197DOPC  H14X24472   7.588   7.052  13.062 -0.1878 -1.1966  0.0146
  197DOPC  H14Y24473   7.446   7.125  12.973  2.7677  0.3398 -1.1194
  197DOPC  C31524474   7.396   6.970  13.104  0.4689  0.2361 -0.2089
  197DOPC  H15X24475   7.441   6.870  13.121 -1.4059 -0.8587 -1.4366
  197DOPC  H15Y24476   7.296   6.944  13.064 -1.1837 -1.1546  4.1797
  197DOPC  C31624477   7.378   7.054  13.232  0.6761 -0.4817  0.2422
  197DOPC  H16X24478   7.470   7.113  13.252 -0.3978  1.4843 -0.3576
  197DOPC  H16Y24479   7.291   7.121  13.215  1.8332  1.2397  0.8194
  197DOPC  C31724480   7.350   6.978  13.359 -0.3901  0.2391 -0.5233
  197DOPC  H17X24481   7.253   6.934  13.326 -0.7028  0.0944  0.5496
  197DOPC  H17Y24482   7.422   6.894  13.363  0.5412  0.8012 -3.3143
  197DOPC  C31824483   7.355   7.069  13.479  0.0837  0.2939  0.2249
  197DOPC  H18X24484   7.305   7.017  13.564 -0.9024  1.6097  0.4768
  197DOPC  H18Y24485   7.454   7.103  13.518 -0.1033  1.8638 -0.5991
  197DOPC  H18Z24486   7.290   7.157  13.462 -1.2186  0.0749  3.3694
  198DOPC     N24487   6.633   5.398  11.369 -0.1973  0.0103  0.2438
  198DOPC   C1224488   6.731   5.332  11.459 -0.1930  0.4839  0.3559
  198DOPC  H12A24489   6.831   5.333  11.417 -0.1879 -2.0661  0.1487
  198DOPC  H12B24490   6.715   5.226  11.451  0.0995  0.5415 -1.4229
  198DOPC   C1324491   6.649   5.338  11.232 -0.0549 -0.4094 -0.5797
  198DOPC  H13A24492   6.632   5.231  11.235 -3.0051 -0.0317 -0.8129
  198DOPC  H13B24493   6.571   5.388  11.176 -2.1869 -1.0319  1.6354
  198DOPC  H13C24494   6.744   5.363  11.189  1.2258  0.5144  2.5132
  198DOPC   C1424495   6.657   5.540  11.356 -0.3905 -0.1072 -0.1014
  198DOPC  H14A24496   6.605   5.575  11.269 -1.6055 -0.9748  0.2509
  198DOPC  H14B24497   6.618   5.580  11.448  0.0434 -1.9494  0.9404
  198DOPC  H14C24498   6.761   5.569  11.354 -0.0363 -1.0988  1.5166
  198DOPC   C1524499   6.490   5.381  11.417 -0.3743 -0.0153  0.7882
  198DOPC  H15A24500   6.479   5.302  11.490 -1.1396 -1.2601 -0.6303
  198DOPC  H15B24501   6.426   5.342  11.340 -0.0410 -0.6982  0.8526
  198DOPC  H15C24502   6.456   5.475  11.459 -1.4168  0.0486 -0.1375
  198DOPC   C1124503   6.724   5.376  11.602  0.2911  0.5288 -0.4365
  198DOPC  H11A24504   6.818   5.343  11.652 -1.2058 -0.4008  1.9811
  198DOPC  H11B24505   6.726   5.487  11.601  2.3053  0.5242 -0.4079
  198DOPC     P24506   6.570   5.357  11.808 -0.2457  0.1208 -0.9569
  198DOPC   O1324507   6.522   5.240  11.882 -0.2664  0.1633  0.0554
  198DOPC   O1424508   6.472   5.465  11.780  0.0374  0.1370  0.2438
  198DOPC   O1224509   6.620   5.309  11.665 -0.2278  0.0579 -0.4890
  198DOPC   O1124510   6.696   5.418  11.874 -0.8508 -0.3323  0.2255
  198DOPC    C124511   6.787   5.345  11.966  0.4097 -0.9417  0.1507
  198DOPC    HA24512   6.892   5.381  11.969  0.6154 -1.5309  0.2599
  198DOPC    HB24513   6.804   5.240  11.933  1.5897 -1.1259  1.2698
  198DOPC    C224514   6.733   5.334  12.106  0.6453 -0.7536 -0.7727
  198DOPC    HS24515   6.661   5.249  12.113 -2.2699  1.4621 -1.5399
  198DOPC   O2124516   6.666   5.459  12.142 -0.1211 -0.6336  0.0011
  198DOPC   C2124517   6.569   5.454  12.231  0.3413 -0.4808  0.1903
  198DOPC   O2224518   6.509   5.355  12.263  0.4628  0.3849 -1.2928
  198DOPC   C2224519   6.537   5.596  12.280 -0.5416  0.4314 -0.4266
  198DOPC   H2R24520   6.543   5.665  12.193 -2.4622 -0.1438 -1.0508
  198DOPC   H2S24521   6.616   5.620  12.355  0.5863 -2.4386 -0.5732
  198DOPC    C324522   6.861   5.309  12.200  0.8325  0.8389 -0.1469
  198DOPC    HX24523   6.933   5.394  12.190 -0.4398  1.7310 -2.8330
  198DOPC    HY24524   6.925   5.223  12.170 -0.4332 -0.1382 -0.1336
  198DOPC   O3124525   6.821   5.296  12.336 -0.1765 -0.5181 -0.1091
  198DOPC   C3124526   6.777   5.176  12.377  0.1967  0.3053  0.2213
  198DOPC   O3224527   6.781   5.069  12.312 -0.3198 -0.5737 -0.0186
  198DOPC   C3224528   6.708   5.200  12.505 -0.5509  0.6851 -0.0322
  198DOPC   H2X24529   6.765   5.278  12.560  2.5843  0.0973 -2.1555
  198DOPC   H2Y24530   6.603   5.231  12.488 -0.1109  0.4077 -4.7829
  198DOPC   C2324531   6.396   5.611  12.347  0.2018  0.2183 -0.6206
  198DOPC   H3R24532   6.317   5.561  12.287 -0.8919 -0.4971  1.3164
  198DOPC   H3S24533   6.370   5.718  12.361 -0.2621 -0.1643  1.8922
  198DOPC   C2424534   6.407   5.560  12.491  0.0400  0.0430  0.7275
  198DOPC   H4R24535   6.446   5.456  12.496  0.7135  0.3132  1.3277
  198DOPC   H4S24536   6.306   5.548  12.535 -0.3522 -1.3931 -0.4817
  198DOPC   C2524537   6.490   5.654  12.581 -0.2915 -0.5467 -0.2229
  198DOPC   H5R24538   6.458   5.760  12.570 -0.9718 -0.5489  1.5068
  198DOPC   H5S24539   6.596   5.659  12.547  0.3319 -1.5463  1.4641
  198DOPC   C2624540   6.489   5.584  12.722 -0.3495  0.1481  0.1271
  198DOPC   H6R24541   6.505   5.475  12.712  1.1846  0.3660 -0.0299
  198DOPC   H6S24542   6.392   5.598  12.774 -0.5680  0.7610 -0.4255
  198DOPC   C2724543   6.589   5.624  12.827  0.6508  0.2304  0.1020
  198DOPC   H7R24544   6.557   5.723  12.866 -2.1698 -0.5291 -0.0056
  198DOPC   H7S24545   6.690   5.627  12.781  1.7499  0.1364  2.3952
  198DOPC   C2824546   6.593   5.523  12.941 -0.1326  0.8964 -0.3703
  198DOPC   H8R24547   6.692   5.527  12.990 -0.5506 -0.5390  0.6325
  198DOPC   H8S24548   6.578   5.417  12.912 -1.4961  0.5679  1.3614
  198DOPC   C2924549   6.484   5.558  13.045  0.0217  0.9987  0.9049
  198DOPC   H9R24550   6.381   5.561  13.006  0.1014 -0.2963  0.5669
  198DOPC  C21024551   6.492   5.595  13.169  0.1595  0.0859 -0.7485
  198DOPC  H10R24552   6.403   5.633  13.222  0.4178  0.6277 -0.6900
  198DOPC  C21124553   6.618   5.599  13.253 -0.3073  0.6530 -0.3710
  198DOPC  H11R24554   6.674   5.694  13.237 -1.2352  0.9802 -1.9009
  198DOPC  H11S24555   6.688   5.519  13.220  0.7741  1.0677  0.8143
  198DOPC  C21224556   6.589   5.553  13.394  0.3728 -0.1989 -0.1548
  198DOPC  H12R24557   6.684   5.540  13.449  0.9266  1.0660 -0.7724
  198DOPC  H12S24558   6.528   5.460  13.390 -2.5712  1.6532 -1.4214
  198DOPC  C21324559   6.517   5.662  13.476 -0.4380 -0.2250 -0.2484
  198DOPC  H13R24560   6.421   5.673  13.422 -0.1688 -1.1743 -0.9430
  198DOPC  H13S24561   6.575   5.756  13.460 -2.0843  0.9545  0.4474
  198DOPC  C21424562   6.491   5.628  13.625 -0.5663  0.7335 -0.2891
  198DOPC  H14R24563   6.580   5.622  13.692 -1.2990  0.6532  0.6932
  198DOPC  H14S24564   6.445   5.528  13.634  1.8324 -0.4142  0.1981
  198DOPC  C21524565   6.391   5.718  13.697  0.4994 -0.3882  0.0268
  198DOPC  H15R24566   6.289   5.725  13.653  1.4899  1.8070 -2.1988
  198DOPC  H15S24567   6.427   5.822  13.677  0.9451 -0.5016  0.2355
  198DOPC  C21624568   6.381   5.684  13.849  0.0217 -0.0351 -0.8613
  198DOPC  H16R24569   6.488   5.673  13.876 -0.4349  1.5814  2.0724
  198DOPC  H16S24570   6.330   5.586  13.863 -2.5404  1.5160  1.9892
  198DOPC  C21724571   6.309   5.789  13.938  0.2606 -0.3256 -0.1020
  198DOPC  H17R24572   6.202   5.764  13.922  0.0338  0.4309  0.1810
  198DOPC  H17S24573   6.331   5.892  13.903  0.0378 -0.7202 -1.4710
  198DOPC  C21824574   6.359   5.790  14.080  0.2080  0.3885  0.0389
  198DOPC  H18R24575   6.350   5.693  14.133  0.5760  0.9494  1.1622
  198DOPC  H18S24576   6.309   5.866  14.144  1.3567  0.1294  1.2817
  198DOPC  H18T24577   6.467   5.814  14.073  0.2445  0.2188  0.0330
  198DOPC   C3324578   6.713   5.067  12.586 -0.5179  0.4271  0.5595
  198DOPC   H3X24579   6.813   5.019  12.595  0.1825  1.1966 -2.1831
  198DOPC   H3Y24580   6.646   4.990  12.543  0.6381 -0.5446  0.4664
  198DOPC   C3424581   6.659   5.084  12.730 -0.6348  0.0683 -0.7730
  198DOPC   H4X24582   6.651   4.980  12.766  2.2130  0.3794  1.0432
  198DOPC   H4Y24583   6.556   5.125  12.732 -0.6757 -0.0373 -0.7302
  198DOPC   C3524584   6.747   5.168  12.822 -0.0151 -0.2931  0.2571
  198DOPC   H5X24585   6.708   5.271  12.809  1.8456  0.2298 -1.8048
  198DOPC   H5Y24586   6.856   5.156  12.803  0.2678  0.9634  1.0242
  198DOPC   C3624587   6.742   5.133  12.973 -0.0853  0.1339  0.2973
  198DOPC   H6X24588   6.645   5.167  13.015 -0.4034 -1.1900  0.6747
  198DOPC   H6Y24589   6.742   5.022  12.976 -0.1209 -0.0626 -3.0869
  198DOPC   C3724590   6.867   5.189  13.057  0.2856  0.0412  0.1169
  198DOPC   H7X24591   6.965   5.170  13.008 -0.3900  0.7435 -1.5723
  198DOPC   H7Y24592   6.862   5.300  13.060 -1.4979 -0.0085  0.0702
  198DOPC   C3824593   6.863   5.136  13.204  0.3937  0.0322  0.3684
  198DOPC   H8X24594   6.958   5.171  13.250 -0.0373  0.4586  0.9510
  198DOPC   H8Y24595   6.866   5.025  13.204 -1.6395 -0.0603  0.8637
  198DOPC   C3924596   6.741   5.171  13.282 -0.3923  0.0438 -0.2589
  198DOPC   H9X24597   6.645   5.128  13.251 -0.6754  0.9628 -0.6825
  198DOPC  C31024598   6.750   5.246  13.394  0.3460  0.5278  0.7235
  198DOPC  H10X24599   6.658   5.274  13.446 -0.0515 -0.5554  0.6166
  198DOPC  C31124600   6.873   5.307  13.452 -0.2490  0.1091 -1.1195
  198DOPC  H11X24601   6.879   5.417  13.431  0.6300 -0.4175 -4.2174
  198DOPC  H11Y24602   6.967   5.261  13.416  0.5161  0.9218 -0.2255
  198DOPC  C31224603   6.879   5.290  13.600  0.3413  0.1597 -0.4987
  198DOPC  H12X24604   6.971   5.337  13.640  1.0741 -0.7983 -1.0316
  198DOPC  H12Y24605   6.870   5.180  13.616 -1.2762  0.5946  2.3897
  198DOPC  C31324606   6.773   5.371  13.675  0.0835 -0.4545 -0.3755
  198DOPC  H13X24607   6.765   5.477  13.643 -2.4918 -0.9262 -1.5606
  198DOPC  H13Y24608   6.674   5.321  13.666 -0.1718  0.0608 -0.4464
  198DOPC  C31424609   6.806   5.379  13.824 -0.0918 -0.0323  0.1748
  198DOPC  H14X24610   6.897   5.441  13.837  0.7070 -1.0894 -0.2575
  198DOPC  H14Y24611   6.724   5.418  13.887 -0.3944 -1.9859  1.0575
  198DOPC  C31524612   6.838   5.238  13.890 -0.1004  0.1219 -0.2690
  198DOPC  H15X24613   6.914   5.185  13.830 -1.4486 -2.4959  0.2065
  198DOPC  H15Y24614   6.739   5.188  13.889 -0.6173  0.9682  1.8060
  198DOPC  C31624615   6.897   5.245  14.027  1.0451  0.4671 -0.2114
  198DOPC  H16X24616   7.007   5.233  14.022  1.2457  2.2642 -0.4456
  198DOPC  H16Y24617   6.877   5.333  14.091  1.9236  1.5687 -1.3994
  198DOPC  C31724618   6.859   5.133  14.131  0.2985  0.5025  0.3712
  198DOPC  H17X24619   6.751   5.146  14.152  0.0482 -0.4381 -0.2437
  198DOPC  H17Y24620   6.881   5.038  14.077 -0.2793 -0.2808  1.4930
  198DOPC  C31824621   6.944   5.124  14.254 -0.9500  0.0783 -0.2745
  198DOPC  H18X24622   6.905   5.200  14.325 -0.1226 -1.5638  2.1057
  198DOPC  H18Y24623   6.928   5.034  14.318 -1.8177  0.2228 -0.2844
  198DOPC  H18Z24624   7.050   5.125  14.221 -0.8444 -2.0810 -0.1746
  199DOPC     N24625   5.177   0.298  11.333 -0.0587 -0.0956 -0.8313
  199DOPC   C1224626   5.090   0.222  11.426 -0.0447  0.1095 -0.4679
  199DOPC  H12A24627   5.126   0.120  11.424 -2.4210 -0.8051  0.7055
  199DOPC  H12B24628   4.987   0.227  11.397  0.2988 -0.3632 -1.8605
  199DOPC   C1324629   5.316   0.312  11.391  0.5920  0.1368  0.5804
  199DOPC  H13A24630   5.314   0.347  11.493  2.2701  0.7988  0.4051
  199DOPC  H13B24631   5.354   0.211  11.400  0.4672 -0.1383 -1.4420
  199DOPC  H13C24632   5.371   0.367  11.317  2.2864  0.8884  2.3368
  199DOPC   C1424633   5.125   0.438  11.318  0.2045  0.6113 -0.2809
  199DOPC  H14A24634   5.106   0.488  11.413  1.4199 -0.7938  0.7382
  199DOPC  H14B24635   5.196   0.502  11.268 -0.1186  0.8893 -0.3920
  199DOPC  H14C24636   5.032   0.437  11.262 -0.5710 -3.5436  0.7499
  199DOPC   C1524637   5.176   0.233  11.189 -0.2796 -0.3593 -0.5667
  199DOPC  H15A24638   5.252   0.285  11.132 -1.5896  1.9520 -0.3366
  199DOPC  H15B24639   5.084   0.233  11.132  0.1291 -0.5417 -1.2394
  199DOPC  H15C24640   5.189   0.126  11.191  1.1262 -0.1999 -0.0025
  199DOPC   C1124641   5.089   0.257  11.577  0.1223  0.0456 -0.2611
  199DOPC  H11A24642   5.050   0.163  11.622  1.4478 -0.5096 -0.2355
  199DOPC  H11B24643   5.192   0.259  11.617  0.7594  0.3752 -1.8854
  199DOPC     P24644   4.872   0.358  11.664 -0.1198  0.2194 -0.0703
  199DOPC   O1324645   4.797   0.261  11.584 -0.1077  0.3688  0.0108
  199DOPC   O1424646   4.805   0.484  11.693  0.0937  0.5991  0.2471
  199DOPC   O1224647   5.011   0.377  11.608 -0.5531  0.0128  0.2902
  199DOPC   O1124648   4.902   0.289  11.793  0.5555  0.1486 -0.5158
  199DOPC    C124649   4.981   0.339  11.904  0.2932  0.3855 -0.8275
  199DOPC    HA24650   5.056   0.418  11.880  1.4209 -0.2938  0.2847
  199DOPC    HB24651   5.037   0.255  11.953  1.3523  0.8134 -1.2652
  199DOPC    C224652   4.889   0.400  12.018  0.4794  0.0997  0.0612
  199DOPC    HS24653   4.861   0.507  12.003 -2.1151 -0.3939  1.0246
  199DOPC   O2124654   4.954   0.392  12.145 -0.3926 -0.3356 -0.0351
  199DOPC   C2124655   5.055   0.468  12.174  0.1985 -0.1230 -0.3515
  199DOPC   O2224656   5.104   0.553  12.107  0.3435 -0.2899  0.2056
  199DOPC   C2224657   5.107   0.423  12.314  0.2844  1.0185 -0.7923
  199DOPC   H2R24658   5.212   0.459  12.318  1.5650 -2.3685 -0.4267
  199DOPC   H2S24659   5.097   0.313  12.315  1.7450  0.8664 -0.8087
  199DOPC    C324660   4.759   0.320  12.045 -0.9216  0.4433  0.0658
  199DOPC    HX24661   4.794   0.215  12.043  0.2615  0.8385 -1.0204
  199DOPC    HY24662   4.702   0.339  11.952 -2.5250 -0.8809  0.7279
  199DOPC   O3124663   4.689   0.369  12.162  0.4541 -0.5434 -0.4304
  199DOPC   C3124664   4.666   0.268  12.247 -0.1916 -0.2422  0.4821
  199DOPC   O3224665   4.713   0.155  12.242 -0.1141  0.3970  0.1347
  199DOPC   C3224666   4.572   0.315  12.354  0.1177  0.3878 -0.2115
  199DOPC   H2X24667   4.493   0.376  12.305 -0.7376 -1.2030 -0.8954
  199DOPC   H2Y24668   4.525   0.227  12.403  1.9361 -0.0845  0.7679
  199DOPC   C2324669   5.030   0.464  12.434  0.4904  0.0142  0.3136
  199DOPC   H3R24670   5.046   0.405  12.526 -1.6302  1.0559  1.4247
  199DOPC   H3S24671   4.921   0.452  12.412  0.7698 -0.8874 -0.7157
  199DOPC   C2424672   5.068   0.612  12.475  0.7213  0.1072  0.0121
  199DOPC   H4R24673   5.068   0.675  12.384  0.4764  0.0500 -0.0298
  199DOPC   H4S24674   5.167   0.607  12.525  0.1444 -1.2007  1.1174
  199DOPC   C2524675   4.969   0.682  12.573 -0.7042  0.2291 -0.5054
  199DOPC   H5R24676   4.863   0.662  12.543 -1.0423  0.2355  0.6369
  199DOPC   H5S24677   4.983   0.792  12.573  0.5205  0.0864  0.2318
  199DOPC   C2624678   4.986   0.625  12.718  0.0526  0.0147  0.2248
  199DOPC   H6R24679   4.977   0.515  12.708 -0.9585  0.1233 -0.1785
  199DOPC   H6S24680   4.905   0.661  12.784 -0.6936 -0.3439 -0.4830
  199DOPC   C2724681   5.119   0.656  12.791 -0.2681 -0.1524 -0.3893
  199DOPC   H7R24682   5.116   0.762  12.824  0.7376  0.0870 -1.0360
  199DOPC   H7S24683   5.208   0.647  12.726  0.6449  0.3642  0.7526
  199DOPC   C2824684   5.146   0.554  12.906  0.1095  1.0851 -0.2448
  199DOPC   H8R24685   5.241   0.575  12.960 -0.1088  1.1477  0.1216
  199DOPC   H8S24686   5.161   0.455  12.859 -0.1122 -1.4175  4.3900
  199DOPC   C2924687   5.033   0.542  13.004 -0.8064 -0.4971 -0.3677
  199DOPC   H9R24688   4.946   0.490  12.963 -1.1736 -0.7950  0.7486
  199DOPC  C21024689   5.019   0.599  13.121  0.0836 -0.2718 -0.1358
  199DOPC  H10R24690   4.931   0.573  13.182  0.0771  1.4416  0.6290
  199DOPC  C21124691   5.125   0.665  13.195 -0.3851 -1.0635  0.1103
  199DOPC  H11R24692   5.094   0.762  13.241  0.6519 -1.0667  0.8525
  199DOPC  H11S24693   5.214   0.695  13.135 -0.2560  1.0791  1.2499
  199DOPC  C21224694   5.179   0.604  13.326  0.0654 -0.0650 -0.1102
  199DOPC  H12R24695   5.091   0.572  13.386 -0.3805 -4.7641 -2.7914
  199DOPC  H12S24696   5.247   0.685  13.361  2.6113 -0.7247 -3.0783
  199DOPC  C21324697   5.258   0.477  13.298 -0.0137  0.1457 -1.2172
  199DOPC  H13R24698   5.352   0.516  13.253  1.6150  1.4692  2.8449
  199DOPC  H13S24699   5.209   0.412  13.223  2.0158  0.9871 -3.4086
  199DOPC  C21424700   5.283   0.387  13.425 -0.2218 -0.4113  0.0801
  199DOPC  H14R24701   5.344   0.298  13.398 -1.3241 -1.7258  1.6729
  199DOPC  H14S24702   5.183   0.358  13.464 -0.7617  1.4407  0.1725
  199DOPC  C21524703   5.365   0.472  13.526 -0.3041  0.1434  0.0460
  199DOPC  H15R24704   5.301   0.550  13.574 -0.3299  1.2852 -1.7230
  199DOPC  H15S24705   5.436   0.542  13.476  0.2105  0.0209  0.5901
  199DOPC  C21624706   5.433   0.391  13.630  0.1797 -0.2845  0.7879
  199DOPC  H16R24707   5.508   0.336  13.570 -1.4567 -1.9668  0.1912
  199DOPC  H16S24708   5.361   0.317  13.671  1.2671 -1.4792  0.5916
  199DOPC  C21724709   5.490   0.471  13.746  0.2807  0.6212  0.1145
  199DOPC  H17R24710   5.553   0.551  13.703 -0.6903  1.3652  0.0297
  199DOPC  H17S24711   5.557   0.410  13.810  1.0522  1.3323 -0.0061
  199DOPC  C21824712   5.392   0.524  13.844  0.0681  0.3673  0.4413
  199DOPC  H18R24713   5.426   0.604  13.914  1.8110  0.3315 -0.2910
  199DOPC  H18S24714   5.337   0.451  13.906 -2.3419  1.8283  0.1301
  199DOPC  H18T24715   5.311   0.571  13.785  1.1285  0.9071 -0.6294
  199DOPC   C3324716   4.649   0.402  12.459 -0.1402  0.0279  0.3316
  199DOPC   H3X24717   4.696   0.488  12.407 -0.9966  3.0311  4.1652
  199DOPC   H3Y24718   4.730   0.343  12.507  0.7196  0.2535 -0.7837
  199DOPC   C3424719   4.561   0.459  12.568 -0.5671 -0.1839  0.7989
  199DOPC   H4X24720   4.480   0.389  12.598  2.2681 -3.4128  1.6075
  199DOPC   H4Y24721   4.528   0.560  12.536  1.0441  0.2375  0.4124
  199DOPC   C3524722   4.639   0.471  12.698  0.4237 -0.0888  0.0220
  199DOPC   H5X24723   4.725   0.542  12.693 -0.9514  1.5727 -1.4812
  199DOPC   H5Y24724   4.678   0.368  12.714  0.7995  0.1103  0.4085
  199DOPC   C3624725   4.557   0.517  12.812  0.6620  0.6549  0.5173
  199DOPC   H6X24726   4.543   0.627  12.827 -0.2833  0.8678 -1.5659
  199DOPC   H6Y24727   4.453   0.482  12.795  0.7988  1.1510 -1.5453
  199DOPC   C3724728   4.618   0.473  12.945 -0.2399 -0.7659  0.0571
  199DOPC   H7X24729   4.604   0.367  12.974  1.9731 -0.6154  1.9456
  199DOPC   H7Y24730   4.728   0.478  12.931 -0.5104 -0.2083 -2.4729
  199DOPC   C3824731   4.572   0.560  13.069 -0.3214  0.4994  0.7767
  199DOPC   H8X24732   4.461   0.566  13.073 -0.3167  0.2441  1.2834
  199DOPC   H8Y24733   4.604   0.661  13.034  3.5031 -1.4877 -2.1695
  199DOPC   C3924734   4.652   0.524  13.196 -0.0794 -0.3908 -0.1064
  199DOPC   H9X24735   4.724   0.441  13.194  0.5917  0.1350  0.8452
  199DOPC  C31024736   4.623   0.574  13.322 -0.0032 -0.3366  0.4279
  199DOPC  H10X24737   4.683   0.543  13.409  0.4087  0.2823  0.3720
  199DOPC  C31124738   4.518   0.676  13.359  0.0069  0.3552 -0.1976
  199DOPC  H11X24739   4.448   0.689  13.274 -0.0834  1.3256  0.0157
  199DOPC  H11Y24740   4.566   0.775  13.373 -0.5732  0.7382 -0.8843
  199DOPC  C31224741   4.453   0.625  13.491  0.1631  0.3201  0.1552
  199DOPC  H12X24742   4.421   0.520  13.471 -2.0511  1.1435 -0.9236
  199DOPC  H12Y24743   4.370   0.696  13.514 -0.5812 -0.6546  0.5695
  199DOPC  C31324744   4.549   0.636  13.617  0.3514 -0.3115  0.0675
  199DOPC  H13X24745   4.624   0.555  13.607 -2.2178 -2.6642 -1.9308
  199DOPC  H13Y24746   4.593   0.737  13.612  0.2713 -0.2209  1.0635
  199DOPC  C31424747   4.476   0.648  13.753  0.1939 -0.2302 -0.3032
  199DOPC  H14X24748   4.395   0.724  13.745  1.5901  1.5805  1.5765
  199DOPC  H14Y24749   4.450   0.542  13.771 -0.6880  0.1931  1.0479
  199DOPC  C31524750   4.558   0.707  13.865 -0.5373  0.1211  0.3831
  199DOPC  H15X24751   4.560   0.817  13.857 -0.9022  0.1598  0.7911
  199DOPC  H15Y24752   4.665   0.676  13.859 -1.1915 -2.0437 -1.9815
  199DOPC  C31624753   4.512   0.676  14.005 -0.4913  0.4396 -0.0133
  199DOPC  H16X24754   4.582   0.738  14.066 -0.6173  0.5819 -0.0120
  199DOPC  H16Y24755   4.409   0.711  14.027 -0.4025 -0.2787  1.7581
  199DOPC  C31724756   4.509   0.520  14.048  0.2470 -0.3564  0.3312
  199DOPC  H17X24757   4.415   0.485  14.000  0.6228 -0.3312 -0.4249
  199DOPC  H17Y24758   4.600   0.478  14.001 -1.9310 -2.8751 -1.9368
  199DOPC  C31824759   4.501   0.503  14.201  0.1179 -0.2867 -0.1802
  199DOPC  H18X24760   4.471   0.402  14.236 -0.3668 -0.2537 -0.4928
  199DOPC  H18Y24761   4.589   0.540  14.258 -0.6801  2.3410 -0.5137
  199DOPC  H18Z24762   4.418   0.568  14.236  0.2045 -0.1615 -0.2085
  200DOPC     N24763   2.041   1.040  11.102  0.5225 -0.4543  0.0441
  200DOPC   C1224764   2.074   1.102  11.239  0.1119  0.3990  0.1300
  200DOPC  H12A24765   2.092   1.206  11.217 -1.9070  0.8115  0.2784
  200DOPC  H12B24766   2.161   1.060  11.288 -1.2735 -1.5848  0.9839
  200DOPC   C1324767   1.957   1.129  11.019  0.0916  0.8146 -0.4290
  200DOPC  H13A24768   1.926   1.086  10.925 -1.8335 -0.0515  0.5287
  200DOPC  H13B24769   1.870   1.166  11.072 -0.3120 -0.5276 -0.1358
  200DOPC  H13C24770   1.999   1.227  11.003  2.2045 -0.2096 -1.4931
  200DOPC   C1424771   1.958   0.914  11.121  0.1359  0.3044  0.0773
  200DOPC  H14A24772   1.933   0.871  11.026 -0.3729  2.5162 -0.8534
  200DOPC  H14B24773   2.000   0.835  11.182 -1.8469 -2.3650 -1.7850
  200DOPC  H14C24774   1.863   0.946  11.160  0.5379  0.8413  0.6498
  200DOPC   C1524775   2.167   1.011  11.027 -0.5595 -0.3310  0.6470
  200DOPC  H15A24776   2.230   0.950  11.091 -1.9595 -0.9131  1.5147
  200DOPC  H15B24777   2.222   1.102  11.008 -1.9074  0.3757  0.0298
  200DOPC  H15C24778   2.160   0.963  10.930  1.8342 -0.7804  0.6216
  200DOPC   C1124779   1.961   1.104  11.337  0.2197 -0.3181 -0.4646
  200DOPC  H11A24780   1.929   1.003  11.370 -3.1792  0.6683 -0.3249
  200DOPC  H11B24781   1.989   1.155  11.432  0.1080 -2.5687  0.8623
  200DOPC     P24782   1.807   1.319  11.320  0.0305  0.2260 -0.0993
  200DOPC   O1324783   1.713   1.353  11.210 -0.6950 -0.4682  0.1446
  200DOPC   O1424784   1.923   1.414  11.338  0.1071  0.1830  0.0157
  200DOPC   O1224785   1.848   1.171  11.286  0.0642  0.0246  0.0423
  200DOPC   O1124786   1.726   1.314  11.449  0.4594  0.5049  0.8883
  200DOPC    C124787   1.661   1.209  11.518  0.5112 -0.5604 -0.2181
  200DOPC    HA24788   1.692   1.112  11.474  0.8246  0.4870 -2.4408
  200DOPC    HB24789   1.553   1.219  11.494  0.2082  1.9939  1.6902
  200DOPC    C224790   1.680   1.218  11.675  0.0778  0.5237  0.7209
  200DOPC    HS24791   1.670   1.114  11.711 -0.1008  0.0707 -0.5771
  200DOPC   O2124792   1.587   1.299  11.741 -0.5191  0.1049  0.4612
  200DOPC   C2124793   1.456   1.266  11.746  0.1850  0.7798 -0.1605
  200DOPC   O2224794   1.414   1.160  11.704  0.7986  0.0058 -0.0956
  200DOPC   C2224795   1.376   1.387  11.783 -0.5113 -0.1053 -1.5132
  200DOPC   H2R24796   1.302   1.392  11.700 -0.6216 -2.8988 -1.6951
  200DOPC   H2S24797   1.428   1.485  11.789  1.0077 -0.9223 -0.7118
  200DOPC    C324798   1.825   1.271  11.712  0.4461 -0.0542 -0.3004
  200DOPC    HX24799   1.830   1.381  11.706  0.6820  0.0419  1.2414
  200DOPC    HY24800   1.907   1.224  11.653  0.0474  1.5800 -2.2486
  200DOPC   O3124801   1.852   1.246  11.846 -0.2459 -0.2117 -0.2246
  200DOPC   C3124802   1.900   1.130  11.881 -0.3622  0.0493  0.5829
  200DOPC   O3224803   1.908   1.035  11.803  0.8382 -0.0590 -0.1536
  200DOPC   C3224804   1.921   1.116  12.028 -1.3342  0.6907  0.4923
  200DOPC   H2X24805   1.899   1.009  12.050 -0.5776 -0.0058 -1.8048
  200DOPC   H2Y24806   2.027   1.139  12.052 -1.9994  3.7136  0.9011
  200DOPC   C2324807   1.331   1.345  11.923  0.5173  0.1048 -0.0828
  200DOPC   H3R24808   1.272   1.251  11.914  1.3751 -0.4478  0.0093
  200DOPC   H3S24809   1.260   1.422  11.962  0.1799 -0.4188  0.3385
  200DOPC   C2424810   1.441   1.352  12.031  0.1493 -0.9288  0.5571
  200DOPC   H4R24811   1.486   1.452  12.013 -0.7196 -0.7846 -1.0094
  200DOPC   H4S24812   1.515   1.276  11.999  0.0813 -0.4917 -0.6972
  200DOPC   C2524813   1.378   1.340  12.178 -0.9663  0.9411  1.1028
  200DOPC   H5R24814   1.329   1.242  12.198  0.3982  0.1171  0.5112
  200DOPC   H5S24815   1.300   1.418  12.193 -1.8907  0.2677 -0.0760
  200DOPC   C2624816   1.493   1.336  12.281 -0.2041 -0.7535  0.0837
  200DOPC   H6R24817   1.538   1.438  12.278 -0.0580 -0.8425 -1.4802
  200DOPC   H6S24818   1.562   1.256  12.247  1.3166  0.0759  1.0676
  200DOPC   C2724819   1.445   1.290  12.413  0.5757 -0.5312 -0.9004
  200DOPC   H7R24820   1.531   1.269  12.480 -0.3167 -1.0128  0.1347
  200DOPC   H7S24821   1.384   1.197  12.409 -0.1094 -0.1282 -0.1899
  200DOPC   C2824822   1.362   1.394  12.492 -0.0762  0.2317 -0.1245
  200DOPC   H8R24823   1.330   1.350  12.588 -1.9294 -1.0465 -1.2721
  200DOPC   H8S24824   1.272   1.429  12.437  1.2109  3.6136 -0.3702
  200DOPC   C2924825   1.458   1.512  12.529 -0.3296 -0.2393  0.3656
  200DOPC   H9R24826   1.474   1.583  12.446 -0.8043 -0.5956 -0.0417
  200DOPC  C21024827   1.501   1.545  12.652 -0.4052 -0.3544  0.6491
  200DOPC  H10R24828   1.573   1.629  12.653  0.5268 -1.1026 -0.3321
  200DOPC  C21124829   1.481   1.468  12.781 -0.2157 -0.1843  0.4964
  200DOPC  H11R24830   1.579   1.423  12.808  0.0872 -0.6205 -1.2055
  200DOPC  H11S24831   1.402   1.390  12.778 -1.4582  1.0744 -0.6127
  200DOPC  C21224832   1.439   1.575  12.885  0.4899  0.5918  0.0812
  200DOPC  H12R24833   1.343   1.624  12.861  1.4115  3.0438  1.0794
  200DOPC  H12S24834   1.516   1.655  12.887  1.3523 -0.2066  0.1070
  200DOPC  C21324835   1.424   1.518  13.030  0.4102  0.0852 -0.0582
  200DOPC  H13R24836   1.527   1.489  13.059  0.7463 -1.2528 -2.3124
  200DOPC  H13S24837   1.361   1.426  13.021 -2.1040  1.6649  0.3622
  200DOPC  C21424838   1.347   1.608  13.125  0.0564 -0.3780 -0.0589
  200DOPC  H14R24839   1.253   1.636  13.074 -0.2836 -1.7582 -0.2243
  200DOPC  H14S24840   1.389   1.710  13.139 -0.7412 -0.1258  0.5781
  200DOPC  C21524841   1.316   1.532  13.254 -0.3660  0.5020 -0.8450
  200DOPC  H15R24842   1.405   1.521  13.320  0.0147 -0.6443 -1.5269
  200DOPC  H15S24843   1.289   1.425  13.241 -1.1771  0.3014  1.8441
  200DOPC  C21624844   1.202   1.600  13.335 -0.4145  0.1746  0.0168
  200DOPC  H16R24845   1.131   1.527  13.379 -1.4575  0.9481 -0.3324
  200DOPC  H16S24846   1.136   1.659  13.267 -0.7770 -0.2348  0.0095
  200DOPC  C21724847   1.264   1.688  13.439 -1.0429 -0.1649  0.3116
  200DOPC  H17R24848   1.338   1.753  13.388  0.4885 -0.7737  1.6680
  200DOPC  H17S24849   1.315   1.617  13.508 -0.3870 -0.0846 -0.0762
  200DOPC  C21824850   1.161   1.776  13.510  0.5766  0.0136 -0.1461
  200DOPC  H18R24851   1.101   1.712  13.578  0.2578  1.5684  1.0931
  200DOPC  H18S24852   1.099   1.834  13.439 -0.1585 -3.3803 -2.5563
  200DOPC  H18T24853   1.219   1.841  13.579  1.3131 -0.5216 -0.2437
  200DOPC   C3324854   1.831   1.210  12.113  0.4312  0.5978  0.1698
  200DOPC   H3X24855   1.730   1.168  12.095  0.6848  0.7795 -1.8536
  200DOPC   H3Y24856   1.840   1.313  12.073 -0.1778  0.8026  0.5542
  200DOPC   C3424857   1.863   1.212  12.264  1.3955 -0.0478 -0.6257
  200DOPC   H4X24858   1.798   1.289  12.311  0.7507 -1.6052  1.1523
  200DOPC   H4Y24859   1.970   1.235  12.284  0.9878  0.6977  0.7723
  200DOPC   C3524860   1.818   1.074  12.324 -0.7411  0.0536  0.1146
  200DOPC   H5X24861   1.889   0.997  12.287 -2.5728 -0.1898 -3.2484
  200DOPC   H5Y24862   1.717   1.051  12.285 -0.1234  0.1277 -1.6434
  200DOPC   C3624863   1.828   1.077  12.473 -0.1549 -0.2454 -0.1395
  200DOPC   H6X24864   1.771   1.162  12.517  0.5891  1.1207 -1.7269
  200DOPC   H6Y24865   1.787   0.978  12.505 -0.4027 -0.0380  0.1857
  200DOPC   C3724866   1.968   1.090  12.524 -0.1256  0.0329 -0.2448
  200DOPC   H7X24867   2.032   1.011  12.478  1.5881  2.3666 -2.1751
  200DOPC   H7Y24868   2.016   1.186  12.494  0.4715  0.3697  1.6503
  200DOPC   C3824869   1.955   1.097  12.675 -0.0372 -0.2142 -0.3806
  200DOPC   H8X24870   1.932   0.998  12.720 -0.7287  1.1936  2.5950
  200DOPC   H8Y24871   1.872   1.171  12.687  0.4773 -0.0086  2.5445
  200DOPC   C3924872   2.079   1.149  12.750 -0.0037 -0.0301  0.0842
  200DOPC   H9X24873   2.174   1.105  12.713  1.2156  1.9995  0.6463
  200DOPC  C31024874   2.080   1.231  12.854 -0.2417 -0.5423 -0.0327
  200DOPC  H10X24875   2.172   1.257  12.908  0.6930  0.6224 -2.0884
  200DOPC  C31124876   1.957   1.284  12.917  0.1108  0.2365 -0.5710
  200DOPC  H11X24877   1.888   1.312  12.834  0.4343  1.4673 -0.4398
  200DOPC  H11Y24878   1.987   1.375  12.973  1.2038 -0.1117 -0.5700
  200DOPC  C31224879   1.880   1.198  13.015 -0.8317  0.2789  0.4140
  200DOPC  H12X24880   1.883   1.093  12.981 -0.1007  0.7248 -0.9628
  200DOPC  H12Y24881   1.780   1.245  13.033 -0.4144  1.5209 -0.3448
  200DOPC  C31324882   1.942   1.204  13.147  1.1581 -0.0517 -0.4074
  200DOPC  H13X24883   2.049   1.174  13.148  1.0147 -0.5763  0.1918
  200DOPC  H13Y24884   1.943   1.304  13.195 -0.0077 -0.2978  0.1638
  200DOPC  C31424885   1.862   1.111  13.248  0.0610  0.2653  0.3487
  200DOPC  H14X24886   1.755   1.139  13.247 -0.4104 -1.4317 -0.3656
  200DOPC  H14Y24887   1.875   1.014  13.195  0.1804  1.2704 -1.5622
  200DOPC  C31524888   1.929   1.113  13.390  0.4559  0.3367 -0.0451
  200DOPC  H15X24889   1.946   1.220  13.410 -0.9235  0.6814 -0.6107
  200DOPC  H15Y24890   2.030   1.067  13.385 -0.1103 -1.2946  1.9230
  200DOPC  C31624891   1.840   1.047  13.497 -0.0069 -0.0068  0.5040
  200DOPC  H16X24892   1.736   1.085  13.499 -1.2920 -3.0885 -0.5703
  200DOPC  H16Y24893   1.822   0.943  13.460  2.6585 -1.4675  2.8732
  200DOPC  C31724894   1.898   1.053  13.635 -0.8306  0.3506 -0.5674
  200DOPC  H17X24895   2.008   1.043  13.632 -0.8099 -1.1947  2.1056
  200DOPC  H17Y24896   1.874   1.151  13.682 -0.4455  1.4094 -2.4924
  200DOPC  C31824897   1.840   0.939  13.726 -0.2053 -0.0108 -0.1761
  200DOPC  H18X24898   1.730   0.947  13.731 -0.1106  1.3881  0.0416
  200DOPC  H18Y24899   1.881   0.841  13.693  0.1130  0.9018 -2.6980
  200DOPC  H18Z24900   1.867   0.963  13.831 -2.4306 -1.5654  0.8070
  201SOD    SOD24901   0.274   2.981  17.742  0.4782 -0.2095 -0.1967
  202SOD    SOD24902   2.702   5.461  10.021  0.1938  0.0102  0.5953
  203SOD    SOD24903   2.932   3.872  18.416 -0.3035 -0.0265  0.6677
  204SOD    SOD24904   0.129   0.399  10.557  0.1448 -0.5553 -0.1596
  205SOD    SOD24905   5.619   3.924  16.868 -0.1996 -0.6459  0.6390
  206SOD    SOD24906   3.575   2.229   9.730  0.0698  0.6070 -0.2204
  207SOD    SOD24907   0.170   2.774   8.784  0.4781  0.0775  0.8288
  208SOD    SOD24908   3.530   4.250  20.087  0.2679 -0.2494  0.1528
  209SOD    SOD24909   0.297   5.230   8.640 -0.1848  0.3553  0.0551
  210SOD    SOD24910   6.592   2.563  16.205  0.2556 -0.3729 -0.1868
  211SOD    SOD24911   6.231   2.016  18.044  0.1201  0.4458 -0.5165
  212SOD    SOD24912   4.314   4.218  19.187 -0.5052 -0.3984 -0.3686
  213SOD    SOD24913   1.151   6.076   9.750 -0.3941 -0.0203  0.0744
  214SOD    SOD24914   5.593   0.965  17.030  0.0902  0.5433 -0.5620
  215SOD    SOD24915   0.554   3.682  19.647  0.6732 -0.3105  0.2320
  216SOD    SOD24916   4.145   3.610  17.694  0.2729  0.1427  0.0024
  217SOD    SOD24917   3.965   0.894  12.020  0.2172 -0.1494 -0.1294
  218SOD    SOD24918   5.977   2.884  18.761  0.2168 -0.0929  0.3537
  219SOD    SOD24919   3.702   4.428  18.082 -0.0956  0.0563 -0.2076
  220SOD    SOD24920   2.897   4.676   9.388 -0.0713  0.2294 -0.5722
  221SOD    SOD24921   6.314   6.390  11.930  0.2966  0.2925  0.1894
  222SOD    SOD24922   1.594   4.209  18.126 -0.0094  0.4805  0.1883
  223SOD    SOD24923   0.993   0.613   9.340  0.0169 -0.0016 -0.1601
  224SOD    SOD24924   0.684   5.168   9.911  0.3193  0.0432  0.0746
  225SOD    SOD24925   6.580   2.813  11.741  0.1973  0.8216  0.1201
  226SOD    SOD24926   1.013   6.358  17.593 -0.3571 -0.6115 -0.2319
  227CLA    CLA24927   5.922   4.502  10.391 -0.5472  0.4998 -0.0651
  228CLA    CLA24928   2.383   4.881   9.711 -0.2966 -0.1123 -0.2446
  229CLA    CLA24929   3.042   1.733  10.832  0.1497 -0.5671  0.0151
  230CLA    CLA24930   5.529   2.964  18.097  0.3397  0.1250  0.4461
  231CLA    CLA24931   0.288   5.889  18.342  0.1677 -0.3331  0.2425
  232CLA    CLA24932   0.672   4.446  19.395 -0.4300 -0.5349 -0.0204
  233CLA    CLA24933   4.973   5.390  17.665 -0.2958  0.2499 -0.1955
  234CLA    CLA24934   1.674   5.527  17.999 -0.0890  0.2185  0.4298
  235CLA    CLA24935   5.853   1.375   9.681 -0.2341 -0.1611 -0.0590
  236CLA    CLA24936   1.742   6.574  18.153 -0.4741 -0.1368  0.3206
  237CLA    CLA24937   4.189   3.175  17.841 -0.2704 -0.0609 -0.7084
  238CLA    CLA24938   4.029   4.029  10.352 -0.0278  0.1823  0.3670
  239CLA    CLA24939   0.588   2.658  10.687  0.0282 -0.5280 -0.3828
  240CLA    CLA24940   6.125   3.128  19.653  0.2612  0.3350  0.1298
  241CLA    CLA24941   1.716   2.590  10.628  0.1534  0.0719 -0.0456
  242CLA    CLA24942   6.402   0.403  18.256 -0.0591  0.4568  0.2546
  243CLA    CLA24943   0.652   4.861   9.059 -0.2590  0.0622 -0.3394
  244CLA    CLA24944   1.382   0.694  10.494 -0.2339 -0.2408  0.3367
  245CLA    CLA24945   0.711   5.984  10.542 -0.2004 -0.0537  0.0743
  246CLA    CLA24946   1.230   1.185  19.664  0.1114  0.3064  0.6107
  247CLA    CLA24947   6.521   2.235  10.573  0.2645 -0.3433 -0.0070
  248CLA    CLA24948   0.797   3.331   8.677  0.2182 -0.1457 -0.0393
  249CLA    CLA24949   4.331   6.062   9.637  0.2904 -0.1088 -0.2997
  250CLA    CLA24950   2.466   2.095  19.402  0.0631  0.1212  0.1822
  251CLA    CLA24951   5.726   1.781  19.360  0.2928  0.4042 -0.3425
  252CLA    CLA24952   1.015   4.960  11.227 -0.1336 -0.2397 -0.1288
  253TIP3   OH224953   2.259   0.773  18.603  0.1022  0.0566  0.3025
  253TIP3    H124954   2.230   0.855  18.641 -0.1281  0.1922 -0.1568
  253TIP3    H224955   2.195   0.755  18.533 -1.3322 -1.7400  1.9358
  254TIP3   OH224956   2.198   3.196  16.684 -0.0753  0.7434  0.0346
  254TIP3    H124957   2.229   3.276  16.642 -0.8671  0.3663 -1.3330
  254TIP3    H224958   2.147   3.151  16.616  0.4207 -0.9656  0.7386
  255TIP3   OH224959   1.405   1.990  19.309  0.2390 -0.5838  0.5078
  255TIP3    H124960   1.500   1.974  19.307  0.5553  0.9883  1.1133
  255TIP3    H224961   1.383   1.986  19.402 -0.0523  0.2056  0.4798
  256TIP3   OH224962   3.289   3.697  17.929  0.0600 -0.1633 -0.0312
  256TIP3    H124963   3.372   3.743  17.936 -0.1198  0.3477 -1.0255
  256TIP3    H224964   3.224   3.767  17.919 -0.3602 -0.5880 -0.3084
  257TIP3   OH224965   5.996   1.624  17.808  1.3007 -0.1910  0.5509
  257TIP3    H124966   5.927   1.559  17.820  0.2378  1.1089  1.7011
  257TIP3    H224967   5.973   1.670  17.727  0.5264  0.5651  1.1893
  258TIP3   OH224968   4.847   2.181  20.155 -0.3441 -0.0457  0.0377
  258TIP3    H124969   4.877   2.271  20.146  1.5266 -0.6190  0.0935
  258TIP3    H224970   4.804   2.160  20.072 -0.5936  0.8119 -0.0528
  259TIP3   OH224971   4.583   3.886  18.130 -0.1391  0.3367 -0.0540
  259TIP3    H124972   4.594   3.846  18.216 -1.6329  0.7901  0.3837
  259TIP3    H224973   4.549   3.974  18.148  0.3658  0.7607 -1.0797
  260TIP3   OH224974   5.075   4.301  18.234  0.4911  0.1897  0.0984
  260TIP3    H124975   4.992   4.289  18.188  0.7497 -1.1298 -0.0457
  260TIP3    H224976   5.050   4.321  18.324  0.0156  0.5070 -0.1005
  261TIP3   OH224977   2.768   3.434  18.960  0.0609 -0.3620  0.1292
  261TIP3    H124978   2.757   3.340  18.952 -0.2855 -0.2266 -1.2109
  261TIP3    H224979   2.679   3.469  18.965  0.1498 -0.0326 -0.4747
  262TIP3   OH224980   3.002   5.107  19.549 -0.1583 -0.1157 -0.1994
  262TIP3    H124981   3.072   5.045  19.570  0.6829  0.6783 -0.5850
  262TIP3    H224982   3.047   5.183  19.512 -1.0932  1.0795  0.9994
  263TIP3   OH224983   2.238   3.788  17.274  0.2422 -1.0715 -0.2402
  263TIP3    H124984   2.240   3.733  17.352  0.7335 -0.6684  0.0418
  263TIP3    H224985   2.298   3.745  17.213  1.0216 -0.5961  0.1679
  264TIP3   OH224986   0.108   0.502  17.626  0.3755 -0.1060  0.7134
  264TIP3    H124987   0.082   0.412  17.603 -0.0366  0.0561  0.5363
  264TIP3    H224988   0.197   0.493  17.659  0.3303 -0.5860  0.7157
  265TIP3   OH224989   3.659   5.712  20.221 -0.0153  0.1026 -0.5977
  265TIP3    H124990   3.713   5.770  20.275  0.4477 -0.5984 -0.2766
  265TIP3    H224991   3.721   5.648  20.186 -0.4741 -0.0444 -1.1519
  266TIP3   OH224992   2.388   5.013  20.401 -0.2631 -0.2773 -0.1152
  266TIP3    H124993   2.428   4.936  20.359 -1.7327 -1.5174  0.6559
  266TIP3    H224994   2.349   4.979  20.482 -0.6352  1.3572  0.4259
  267TIP3   OH224995   6.480   1.476  18.549 -0.2584 -0.2345  0.2305
  267TIP3    H124996   6.544   1.471  18.478 -1.3489 -1.5063 -0.7156
  267TIP3    H224997   6.532   1.474  18.629  0.8881 -1.9338 -0.5014
  268TIP3   OH224998   3.496   4.316  18.080  0.7384 -0.4263  0.2277
  268TIP3    H124999   3.440   4.282  18.150 -0.5323 -0.9180 -0.9778
  268TIP3    H225000   3.467   4.269  18.002  0.6261  1.6637 -1.0460
  269TIP3   OH225001   2.811   5.396  18.307  0.6906  0.3277  0.8480
  269TIP3    H125002   2.803   5.302  18.323  1.1746  0.4746  2.0879
  269TIP3    H225003   2.799   5.436  18.394 -1.5072  1.5488  0.0625
  270TIP3   OH225004   6.636   5.000  18.148  0.2140 -0.1156  0.1025
  270TIP3    H125005   6.625   4.989  18.053  2.0210  1.4486 -0.3476
  270TIP3    H225006   6.725   4.971  18.165  1.0147  2.5225  0.7593
  271TIP3   OH225007   0.954   0.244  18.543  0.3777 -0.7071  0.1517
  271TIP3    H125008   0.879   0.191  18.569  0.4347 -0.2169  1.3505
  271TIP3    H225009   1.000   0.190  18.479 -0.4262 -1.4377  0.1694
  272TIP3   OH225010   0.637   5.513  16.888 -0.4358  0.3810  0.0507
  272TIP3    H125011   0.701   5.515  16.817  0.3769 -2.3457  0.5682
  272TIP3    H225012   0.572   5.449  16.860 -0.3157 -0.4511  1.5558
  273TIP3   OH225013   5.669   5.839  18.821 -0.7145  0.1728  0.3036
  273TIP3    H125014   5.764   5.835  18.828 -0.7144  0.8075  0.7648
  273TIP3    H225015   5.652   5.920  18.774 -1.0958  1.8145  3.0182
  274TIP3   OH225016   3.231   4.545  18.226 -0.2792  0.0365 -0.2628
  274TIP3    H125017   3.215   4.504  18.141  0.2839  1.5445 -1.1299
  274TIP3    H225018   3.182   4.627  18.224 -0.4514 -0.0081  0.9797
  275TIP3   OH225019   4.318   6.544  17.803 -0.4310 -0.4070  0.1477
  275TIP3    H125020   4.297   6.520  17.893 -1.7630  2.7091  0.7965
  275TIP3    H225021   4.250   6.503  17.750 -1.2170 -0.1069  0.9064
  276TIP3   OH225022   5.770   4.084  19.604 -0.3839 -0.1057 -0.2079
  276TIP3    H125023   5.765   4.176  19.578  0.1160 -0.0802 -0.2350
  276TIP3    H225024   5.861   4.072  19.631 -0.4891 -0.5499 -0.0424
  277TIP3   OH225025   2.665   4.016  17.484  0.2376 -0.0562  0.7370
  277TIP3    H125026   2.737   3.970  17.527  3.6685  1.2030 -3.0677
  277TIP3    H225027   2.626   3.952  17.425  1.0903  0.2756 -0.2235
  278TIP3   OH225028   6.066   3.872  19.370 -0.0840 -0.5080  0.2994
  278TIP3    H125029   6.001   3.839  19.432  1.0843 -0.2668  1.7046
  278TIP3    H225030   6.137   3.906  19.425  0.6124  0.5289 -1.1632
  279TIP3   OH225031   0.557   4.997  19.092  0.0045 -0.0967  0.4322
  279TIP3    H125032   0.518   4.922  19.138 -0.5940  0.3751  0.7018
  279TIP3    H225033   0.541   5.072  19.149 -0.0701  0.3641 -0.1858
  280TIP3   OH225034   6.016   0.069  17.885  0.2251  0.5626 -0.2626
  280TIP3    H125035   6.076   0.140  17.865  1.4756 -0.5989 -0.7482
  280TIP3    H225036   6.034   0.003  17.818 -0.0566 -0.7096  0.8895
  281TIP3   OH225037   2.920   5.319  20.414 -0.3889 -0.1196  0.4269
  281TIP3    H125038   2.944   5.306  20.323 -2.5266 -1.2656 -0.0486
  281TIP3    H225039   2.824   5.318  20.414 -0.4591 -1.2099  2.8121
  282TIP3   OH225040   6.651   5.109  19.682  0.1523 -0.9858  0.0412
  282TIP3    H125041   6.702   5.157  19.617  1.6099  2.6674  3.4602
  282TIP3    H225042   6.564   5.149  19.679  0.6920  0.3653  1.3095
  283TIP3   OH225043   2.553   4.186  19.927 -0.0336  0.2674 -0.6740
  283TIP3    H125044   2.491   4.113  19.930  0.4455 -0.1759 -1.1250
  283TIP3    H225045   2.510   4.253  19.874  0.3828 -0.5645 -2.1184
  284TIP3   OH225046   2.578   0.898  10.443 -0.0636 -0.0636 -0.0159
  284TIP3    H125047   2.598   0.818  10.491 -0.5669  0.1567  0.5725
  284TIP3    H225048   2.525   0.868  10.369 -0.2075 -0.2875  0.1725
  285TIP3   OH225049   5.589   5.939  12.140 -0.4196  0.0368  0.5798
  285TIP3    H125050   5.678   5.955  12.107 -0.8922 -0.5790 -1.1033
  285TIP3    H225051   5.603   5.889  12.220  0.7785 -1.4792 -0.4894
  286TIP3   OH225052   0.980   1.802  10.802 -0.1822  0.3278 -0.2974
  286TIP3    H125053   1.069   1.839  10.797  0.9381 -2.2219 -0.6281
  286TIP3    H225054   0.971   1.774  10.893 -0.0238 -0.7986 -0.6168
  287TIP3   OH225055   4.697   2.376   8.274 -0.4130 -0.0870  0.5466
  287TIP3    H125056   4.665   2.396   8.186  1.9087 -1.1008 -0.6066
  287TIP3    H225057   4.619   2.352   8.324 -1.9795  1.9612 -0.7794
  288TIP3   OH225058   4.832   3.814   9.397 -0.0414 -0.1283  0.4002
  288TIP3    H125059   4.747   3.795   9.358  0.9409 -1.0663 -1.4080
  288TIP3    H225060   4.812   3.844   9.486 -2.2383 -0.3164  0.0100
  289TIP3   OH225061   5.914   1.810   9.272  0.0417 -1.0403 -0.6883
  289TIP3    H125062   5.839   1.778   9.322  1.0210 -3.4091 -0.5606
  289TIP3    H225063   5.989   1.798   9.331  0.5418  1.6286 -0.6578
  290TIP3   OH225064   2.374   0.869   8.675 -0.1427 -0.1824  0.2310
  290TIP3    H125065   2.432   0.833   8.742 -0.7076 -2.1942 -0.2975
  290TIP3    H225066   2.406   0.833   8.593 -1.0707  0.0763 -0.2660
  291TIP3   OH225067   3.819   4.418  12.244 -0.6439  0.2511 -0.7098
  291TIP3    H125068   3.910   4.390  12.236 -0.7353 -1.2440  2.2350
  291TIP3    H225069   3.822   4.493  12.304 -1.4221 -0.6883  0.5543
  292TIP3   OH225070   3.816   6.289  11.906 -0.2111 -0.0374  0.3348
  292TIP3    H125071   3.903   6.247  11.904  0.4644  1.3242  0.4760
  292TIP3    H225072   3.804   6.323  11.817 -0.3528  0.2842  0.4774
  293TIP3   OH225073   0.705   3.939  10.037  0.1954  0.2838 -0.4999
  293TIP3    H125074   0.615   3.935  10.069  0.3801 -1.0292 -0.0920
  293TIP3    H225075   0.748   4.002  10.096 -0.1128 -0.1525  0.2095
  294TIP3   OH225076   2.625   4.398  10.030  0.4295 -0.0265 -0.1034
  294TIP3    H125077   2.535   4.372  10.009  0.3142  0.3484 -0.0689
  294TIP3    H225078   2.670   4.315  10.048 -0.0084 -0.1839  0.2856
  295TIP3   OH225079   6.674   6.358   9.244  0.2163  0.6998 -0.0020
  295TIP3    H125080   6.737   6.303   9.196  0.2601  0.0152  0.8059
  295TIP3    H225081   6.606   6.297   9.273  1.0892  0.7048  2.3294
  296TIP3   OH225082   5.684   0.304   8.971  0.0506  0.7173 -0.4081
  296TIP3    H125083   5.735   0.374   8.930 -1.2780  3.2951  2.0657
  296TIP3    H225084   5.606   0.296   8.916 -0.0718  1.6091 -0.3704
  297TIP3   OH225085   4.739   2.232   9.382 -0.4340 -0.0697  0.1677
  297TIP3    H125086   4.650   2.220   9.415 -0.2958  2.2380  1.5779
  297TIP3    H225087   4.764   2.319   9.412  2.3248 -0.6652 -0.1759
  298TIP3   OH225088   2.726   5.705   8.851  0.8402  0.3310 -0.3987
  298TIP3    H125089   2.770   5.709   8.936  0.1238  1.5382 -0.0615
  298TIP3    H225090   2.633   5.715   8.872  0.7981  2.6122 -1.4443
  299TIP3   OH225091   2.335   1.690  11.390  0.6086 -0.1034 -0.1065
  299TIP3    H125092   2.352   1.648  11.475 -2.3893 -2.4566 -0.5097
  299TIP3    H225093   2.361   1.624  11.325 -1.3198 -0.1838 -0.8537
  300TIP3   OH225094   4.469   2.413  10.038 -0.3987  0.3722  0.0950
  300TIP3    H125095   4.486   2.504  10.064 -2.9038  0.7796  0.5244
  300TIP3    H225096   4.401   2.420   9.971  1.4053 -1.0629 -2.0441
  301TIP3   OH225097   2.981   1.214  10.834 -0.3983 -0.6184 -0.1717
  301TIP3    H125098   3.073   1.197  10.853 -0.3147  0.5908  0.6214
  301TIP3    H225099   2.934   1.178  10.909 -0.6379 -1.7208 -0.8296
  302TIP3   OH225100   4.782   5.708  10.541 -0.2701  0.5461 -0.6913
  302TIP3    H125101   4.743   5.670  10.620  1.0125  1.5321  0.4705
  302TIP3    H225102   4.861   5.655  10.525  1.6151  2.6283  1.0317
  303TIP3   OH225103   0.970   1.868   9.305 -0.2691  0.2240 -0.0156
  303TIP3    H125104   1.047   1.872   9.362 -1.9025 -0.3429  2.3927
  303TIP3    H225105   0.994   1.920   9.228  2.0638  1.0534  1.1805
  304TIP3   OH225106   3.194   4.437  12.110 -0.0448  0.0798  0.1874
  304TIP3    H125107   3.158   4.521  12.083 -0.7426  0.1620  1.3107
  304TIP3    H225108   3.206   4.389  12.029  2.2740  1.9663 -0.6896
  305TIP3   OH225109   5.574   0.042   9.976 -0.1203  0.4025  0.0492
  305TIP3    H125110   5.509   0.104   9.942 -0.1937  1.2554  1.6204
  305TIP3    H225111   5.652   0.056   9.923 -0.7004  0.5608 -0.7733
  306TIP3   OH225112   6.004   2.795  10.547 -0.0232  0.4316  0.0826
  306TIP3    H125113   6.090   2.796  10.588  0.4403 -1.2131 -0.7685
  306TIP3    H225114   5.986   2.702  10.530 -1.3708  0.8472 -0.9674
  307TIP3   OH225115   3.612   4.398  10.185 -0.2837 -0.7611 -0.4705
  307TIP3    H125116   3.630   4.489  10.208  0.1198 -0.5926 -1.4314
  307TIP3    H225117   3.537   4.374  10.240  0.6634 -0.3871  1.0523
  308TIP3   OH225118   5.327   3.098   9.904  0.2487 -0.2101 -0.8534
  308TIP3    H125119   5.322   3.156   9.980 -0.3951 -0.8072 -0.4164
  308TIP3    H225120   5.278   3.144   9.835 -1.5712 -0.8557 -0.0608
  309TIP3   OH225121   5.786   3.210   9.151 -0.3933  0.6160  0.4718
  309TIP3    H125122   5.801   3.227   9.058  0.2677  3.1341  0.9801
  309TIP3    H225123   5.698   3.173   9.154 -0.4251  0.4785 -1.1432
  310TIP3   OH225124   3.214   1.859  11.427 -0.0606 -1.0741 -0.4516
  310TIP3    H125125   3.291   1.893  11.382 -0.2278 -0.8673 -0.5816
  310TIP3    H225126   3.218   1.898  11.514 -1.0843  0.5169 -1.0909
  311TIP3   OH225127   1.943   2.592  10.856 -0.3078  0.4526  0.3412
  311TIP3    H125128   1.891   2.585  10.776 -1.1177 -1.6303  0.9864
  311TIP3    H225129   1.889   2.552  10.924  0.9530  0.8648  1.6465
  312TIP3   OH225130   3.999   6.582   9.298 -0.7335 -0.1643  0.3189
  312TIP3    H125131   3.934   6.624   9.355 -2.3760 -1.4688 -0.4884
  312TIP3    H225132   4.076   6.638   9.304 -1.0929  0.1863  3.1745
  313TIP3   OH225133   4.172   1.499   9.432 -0.1891 -0.4955  0.4924
  313TIP3    H125134   4.093   1.444   9.428 -0.9030  0.5473  0.0177
  313TIP3    H225135   4.149   1.569   9.493  0.8169 -0.8353  1.3075
  314TIP3   OH225136   3.583   0.930   9.310  0.6621  0.1554  0.0877
  314TIP3    H125137   3.490   0.925   9.290  0.6732  0.6808 -0.1105
  314TIP3    H225138   3.608   0.839   9.331 -0.3205  0.3085  2.1848
  315TIP3   OH225139   5.569   2.646   9.520  0.1625  0.0749  0.2536
  315TIP3    H125140   5.581   2.741   9.527  1.2276  0.0979 -1.3101
  315TIP3    H225141   5.502   2.635   9.453  0.7238 -0.2820 -0.2586
  316TIP3   OH225142   6.574   2.993   9.955  0.1818  0.2961  0.4041
  316TIP3    H125143   6.578   3.013   9.861  0.2046 -0.3679  0.2616
  316TIP3    H225144   6.548   2.901   9.959  0.5436  0.2164  1.0400
  317TIP3   OH225145   4.848   4.005  10.487 -0.2074 -0.3385 -0.0985
  317TIP3    H125146   4.920   3.961  10.442 -0.5845 -0.6305 -0.4260
  317TIP3    H225147   4.814   4.066  10.422 -0.1522 -0.0858  0.1107
  318TIP3   OH225148   2.387   3.294  12.499  0.3830 -0.9929 -0.5216
  318TIP3    H125149   2.479   3.277  12.521  0.4252  0.8051  1.0411
  318TIP3    H225150   2.383   3.285  12.404  2.3155 -0.5872 -0.6927
  319TIP3   OH225151   3.303   5.703   8.795 -0.7776  0.3927  0.2169
  319TIP3    H125152   3.253   5.739   8.868 -0.1259  0.1732  0.7834
  319TIP3    H225153   3.251   5.630   8.763 -0.5743 -0.1744  1.1519
  320TIP3   OH225154   2.472   2.191  12.199 -0.4931 -0.3858  0.1344
  320TIP3    H125155   2.377   2.181  12.212 -0.9964  0.5160 -2.2303
  320TIP3    H225156   2.483   2.189  12.104  1.7641  0.4426  0.3121
  321TIP3   OH225157   0.194   5.637   9.093 -0.2037  0.6018  0.5408
  321TIP3    H125158   0.181   5.712   9.151 -1.7215  0.0999  0.8894
  321TIP3    H225159   0.283   5.608   9.111  0.2929  2.1096  0.6451
  322TIP3   OH225160   2.989   0.109   9.018  0.2169 -0.3776  0.4228
  322TIP3    H125161   3.035   0.170   8.960  0.5750 -0.0981  0.9970
  322TIP3    H225162   3.032   0.025   9.005  1.0287 -0.0734  1.1108
  323TIP3   OH225163   2.464   5.680  16.944 -0.6900  0.1646 -0.1042
  323TIP3    H125164   2.458   5.651  16.853 -0.0868  0.5967 -0.2910
  323TIP3    H225165   2.485   5.773  16.937  2.5912 -0.4316  0.4438
  324TIP3   OH225166   5.530   3.180  19.096 -0.4102 -0.3892  0.4147
  324TIP3    H125167   5.608   3.208  19.144  0.1414  0.6607 -1.0106
  324TIP3    H225168   5.473   3.257  19.095  0.7382  0.5992 -2.8072
  325TIP3   OH225169   3.797   6.320  18.973  0.4383  0.3627  0.3311
  325TIP3    H125170   3.826   6.379  18.903  0.8903 -0.4748 -0.1951
  325TIP3    H225171   3.810   6.232  18.938 -0.3561 -0.0621  1.0614
  326TIP3   OH225172   5.264   3.750  18.057  0.2503  0.1617 -0.0216
  326TIP3    H125173   5.289   3.717  17.971 -0.0233 -0.6414  0.1958
  326TIP3    H225174   5.168   3.751  18.056  0.2188  2.4155 -0.5490
  327TIP3   OH225175   0.062   5.966  18.822 -0.2494 -0.2877 -0.1236
  327TIP3    H125176   0.031   6.053  18.848  1.4818  0.1257  0.7212
  327TIP3    H225177   0.061   5.967  18.727 -0.5612  0.5438 -0.1182
  328TIP3   OH225178   4.410   2.883  19.182  0.0880  0.1293 -0.9812
  328TIP3    H125179   4.344   2.951  19.191 -0.0124  0.2076 -2.0721
  328TIP3    H225180   4.400   2.852  19.091  0.2862 -1.1660 -0.5830
  329TIP3   OH225181   5.754   6.210  18.540  0.4867  0.6416 -0.0091
  329TIP3    H125182   5.822   6.181  18.479 -0.3342  1.3631 -1.3192
  329TIP3    H225183   5.738   6.301  18.518 -1.8244  0.1559 -0.6892
  330TIP3   OH225184   3.064   1.661  18.652  0.4293  0.2787 -0.8498
  330TIP3    H125185   2.995   1.599  18.626  1.1364 -0.7362 -0.3427
  330TIP3    H225186   3.016   1.738  18.682 -0.4654  0.0485 -1.6335
  331TIP3   OH225187   3.042   1.055  19.084  0.2727  0.0497 -0.2694
  331TIP3    H125188   3.021   1.099  19.167 -0.7760  1.1833 -1.0953
  331TIP3    H225189   3.059   1.127  19.023  1.6401 -0.7824 -0.9030
  332TIP3   OH225190   4.876   4.933  18.558  0.2225  0.5874  0.2614
  332TIP3    H125191   4.966   4.965  18.549  0.4751  0.1265  1.0248
  332TIP3    H225192   4.854   4.952  18.650  1.1532 -3.3199  1.4649
  333TIP3   OH225193   3.765   6.268  19.508 -0.1162 -0.2384 -0.2063
  333TIP3    H125194   3.804   6.195  19.555 -1.3648 -1.2333 -0.6425
  333TIP3    H225195   3.781   6.249  19.416 -2.8769 -1.5604 -0.5415
  334TIP3   OH225196   2.389   0.247  19.762 -0.4071 -0.3573 -0.3625
  334TIP3    H125197   2.358   0.333  19.790 -0.1116  0.1019 -1.3845
  334TIP3    H225198   2.328   0.222  19.692  1.5058  0.6489 -2.5587
  335TIP3   OH225199   1.247   3.978  17.453  0.5005  0.4177 -0.2653
  335TIP3    H125200   1.212   3.970  17.541  0.6542  1.5636 -0.0788
  335TIP3    H225201   1.219   3.898  17.408 -1.7083  0.9206  0.0988
  336TIP3   OH225202   4.840   6.349  17.988 -0.1867  0.0150  0.2692
  336TIP3    H125203   4.756   6.383  18.020 -0.7098 -1.4999  0.5612
  336TIP3    H225204   4.817   6.297  17.911  0.3368 -1.2607  0.9559
  337TIP3   OH225205   6.018   2.499  20.354 -0.5310 -0.3058  0.4086
  337TIP3    H125206   6.077   2.556  20.403  0.5968  0.5460 -1.8010
  337TIP3    H225207   6.025   2.414  20.398 -0.4452  0.6372  2.3401
  338TIP3   OH225208   6.622   4.113  17.149 -0.2250  0.1311  0.1035
  338TIP3    H125209   6.674   4.130  17.227 -1.1820  1.1137  0.5526
  338TIP3    H225210   6.649   4.025  17.121 -0.3536 -0.5306  1.9280
  339TIP3   OH225211   1.883   0.088  20.007  0.5313 -0.3612 -0.2469
  339TIP3    H125212   1.929   0.086  19.923 -0.2910 -1.2689 -0.6988
  339TIP3    H225213   1.865  -0.004  20.028 -1.9604 -0.0452 -0.6371
  340TIP3   OH225214   1.655   4.324  20.084 -0.0796  0.2927  0.4255
  340TIP3    H125215   1.657   4.338  19.990 -1.6660  0.4283  0.3769
  340TIP3    H225216   1.562   4.333  20.107  0.1798 -0.4953  1.8788
  341TIP3   OH225217   2.637   2.107  17.251  0.0471  0.5458  0.2120
  341TIP3    H125218   2.647   2.015  17.277  1.0133  0.4038 -0.5887
  341TIP3    H225219   2.711   2.123  17.192 -0.2418  1.7759  0.1606
  342TIP3   OH225220   3.714   3.251  17.927  0.4393  0.5361 -0.3477
  342TIP3    H125221   3.674   3.257  18.014  0.0951 -0.2335 -0.4412
  342TIP3    H225222   3.803   3.283  17.939  1.2928 -2.0039  0.9163
  343TIP3   OH225223   6.467   6.441  20.104  0.4889  0.3474  0.4972
  343TIP3    H125224   6.426   6.499  20.041 -0.9101 -0.4168  0.6699
  343TIP3    H225225   6.506   6.500  20.169  0.3001  1.0940 -0.0546
  344TIP3   OH225226   4.472   6.211  18.257  0.3782 -0.2347  0.1974
  344TIP3    H125227   4.466   6.154  18.333 -2.6865 -1.2022 -0.6262
  344TIP3    H225228   4.524   6.161  18.193  3.4317  0.8010  1.6508
  345TIP3   OH225229   4.753   4.063  17.955  0.3897 -0.0929  0.2351
  345TIP3    H125230   4.676   4.078  17.901  1.2607 -0.9992 -1.3349
  345TIP3    H225231   4.725   3.996  18.018  0.5894 -2.6010 -2.1505
  346TIP3   OH225232   3.409   6.536  19.979  0.0565 -0.1524  0.0940
  346TIP3    H125233   3.413   6.589  19.899 -0.5355  1.1791  0.9136
  346TIP3    H225234   3.484   6.566  20.030 -0.6897  0.4371  0.8718
  347TIP3   OH225235   2.772   2.162  19.541  0.1383  0.0083  0.0757
  347TIP3    H125236   2.688   2.124  19.516 -0.2217 -0.2598  1.5918
  347TIP3    H225237   2.831   2.142  19.468 -1.4125  1.3723 -1.6633
  348TIP3   OH225238   5.121   0.288  19.047 -0.3172  0.5609  0.1345
  348TIP3    H125239   5.068   0.240  18.983  0.0473  3.3435 -2.5179
  348TIP3    H225240   5.058   0.311  19.116 -1.3100 -0.5673 -0.3474
  349TIP3   OH225241   4.837   3.000  18.148  0.4761  0.4268 -0.1984
  349TIP3    H125242   4.900   3.072  18.152 -0.1882  1.0764 -1.0708
  349TIP3    H225243   4.885   2.925  18.184  1.8965  0.8014 -1.1909
  350TIP3   OH225244   2.725   5.292  18.672 -0.0977 -0.0325  0.3762
  350TIP3    H125245   2.665   5.336  18.733 -0.1854 -2.0034  1.8142
  350TIP3    H225246   2.791   5.251  18.728 -1.7337 -4.3145 -0.4638
  351TIP3   OH225247   3.009   1.776  17.977  0.5664  0.3044 -0.1344
  351TIP3    H125248   2.926   1.770  17.930 -0.5494  0.5148  1.7243
  351TIP3    H225249   3.030   1.685  18.000 -0.1249  0.4295  1.0084
  352TIP3   OH225250   4.240   3.079  19.068  0.4746  0.0297 -0.0643
  352TIP3    H125251   4.248   3.077  18.972 -1.8138  0.3723 -0.3007
  352TIP3    H225252   4.160   3.030  19.086  0.2189  1.0138  1.6012
  353TIP3   OH225253   0.391   3.957  17.206  0.2407 -0.4794 -0.5580
  353TIP3    H125254   0.479   3.991  17.187  0.4425 -0.0451  1.0553
  353TIP3    H225255   0.360   3.925  17.121  0.9462  1.6603 -1.7053
  354TIP3   OH225256   5.474   6.317  18.395 -0.4383  0.1905  0.3648
  354TIP3    H125257   5.410   6.379  18.359  0.4405  0.4159 -0.8509
  354TIP3    H225258   5.554   6.367  18.406  0.2132 -0.6498 -0.3855
  355TIP3   OH225259   4.256   3.868  18.458 -0.8557 -0.7874 -0.4395
  355TIP3    H125260   4.285   3.908  18.376 -1.7860  0.8640 -0.0009
  355TIP3    H225261   4.337   3.853  18.507 -0.4875  1.0531 -0.4175
  356TIP3   OH225262   0.642   0.423  17.673  0.2300 -0.3350  0.0137
  356TIP3    H125263   0.559   0.388  17.642  0.1334 -0.6285  0.5840
  356TIP3    H225264   0.623   0.457  17.761  0.6164 -0.0208 -0.0209
  357TIP3   OH225265   4.292   0.295  18.451 -0.1278  0.3824  0.5359
  357TIP3    H125266   4.356   0.225  18.438  1.0718  1.7097 -1.1527
  357TIP3    H225267   4.208   0.253  18.431  0.6213 -0.4756 -1.0386
  358TIP3   OH225268   2.528   6.649  18.267  0.0680  0.4028 -0.1952
  358TIP3    H125269   2.524   6.720  18.202 -0.5119  1.2767  0.7571
  358TIP3    H225270   2.611   6.663  18.312 -0.2364  0.7519  0.2728
  359TIP3   OH225271   6.183   4.981  19.330 -0.2107 -0.2480 -0.0688
  359TIP3    H125272   6.144   5.065  19.351  1.2580  0.2076  0.9604
  359TIP3    H225273   6.234   4.997  19.250  0.8751  0.1322  0.6718
  360TIP3   OH225274   2.623   4.735  17.947 -0.1459  0.0074  0.0503
  360TIP3    H125275   2.620   4.823  17.984 -1.1482  0.1578 -0.3647
  360TIP3    H225276   2.687   4.741  17.876 -0.2785  0.4252 -0.0376
  361TIP3   OH225277   4.281   5.553  18.723 -0.1408  0.5094  0.6272
  361TIP3    H125278   4.345   5.483  18.715 -1.5217 -0.9035  1.3237
  361TIP3    H225279   4.332   5.634  18.715  1.4393 -0.5518 -0.6135
  362TIP3   OH225280   0.949   5.768  19.638 -0.3650 -0.3574 -0.1582
  362TIP3    H125281   1.040   5.787  19.662 -0.8487 -0.2032  1.7285
  362TIP3    H225282   0.915   5.852  19.607 -0.2982 -0.0041  0.6893
  363TIP3   OH225283   5.407   2.150  20.090 -0.0834  0.3681  0.3144
  363TIP3    H125284   5.409   2.093  20.167  1.6045 -0.4041 -0.2633
  363TIP3    H225285   5.347   2.107  20.030  1.7723 -1.3230 -0.4383
  364TIP3   OH225286   2.516   0.541  18.859  0.0408 -0.0012  0.1767
  364TIP3    H125287   2.607   0.546  18.830 -0.3316  0.4777 -0.9782
  364TIP3    H225288   2.487   0.632  18.865 -1.2166 -0.1438 -2.4193
  365TIP3   OH225289   1.377   3.847  19.608  0.4416 -0.0777 -0.5178
  365TIP3    H125290   1.442   3.907  19.573  0.0879  0.0000 -1.0436
  365TIP3    H225291   1.394   3.764  19.563  1.6339 -0.7075  0.9814
  366TIP3   OH225292   3.938   6.156  17.457  0.1455  0.0045 -0.4749
  366TIP3    H125293   3.868   6.193  17.511  1.8048 -0.7555  2.4323
  366TIP3    H225294   3.915   6.063  17.450  0.5508 -0.1438  0.0510
  367TIP3   OH225295   1.587   2.388  20.120 -0.4575  0.2968  0.0081
  367TIP3    H125296   1.502   2.367  20.160 -0.0699  0.1255  0.7637
  367TIP3    H225297   1.601   2.319  20.056 -0.7702  0.1700  0.0733
  368TIP3   OH225298   6.438   0.620  17.726  0.3209  0.2336 -0.3643
  368TIP3    H125299   6.464   0.532  17.698  1.6389 -0.0903  1.5634
  368TIP3    H225300   6.521   0.662  17.751 -0.5373  0.9532  1.4887
  369TIP3   OH225301   5.103   5.566  17.895  0.4993 -0.3432 -0.3985
  369TIP3    H125302   5.065   5.484  17.863 -0.7247  0.3271 -0.6832
  369TIP3    H225303   5.139   5.608  17.817  1.0242 -0.5320 -0.2680
  370TIP3   OH225304   2.357   0.612  19.623 -0.3877 -0.2178  0.3542
  370TIP3    H125305   2.331   0.695  19.663  1.0568  0.7518 -0.6114
  370TIP3    H225306   2.318   0.545  19.679 -1.9051  1.0951  0.9596
  371TIP3   OH225307   1.511   4.141  20.452  0.1270  0.5082  0.4123
  371TIP3    H125308   1.508   4.104  20.364 -0.7857  3.4486 -0.9177
  371TIP3    H225309   1.596   4.113  20.487 -0.2800 -2.2443 -0.6147
  372TIP3   OH225310   5.875   3.621  19.844 -0.2305  0.1510 -0.3327
  372TIP3    H125311   5.794   3.650  19.801  0.6422  1.7714 -0.9845
  372TIP3    H225312   5.920   3.703  19.867 -0.2026 -0.6213  2.8761
  373TIP3   OH225313   5.212   5.622  18.119  0.2534  0.1621 -0.0584
  373TIP3    H125314   5.284   5.679  18.092 -0.1687  1.1025  0.7050
  373TIP3    H225315   5.180   5.583  18.038  0.6293  0.9414 -0.5925
  374TIP3   OH225316   4.523   4.110  18.422 -0.3888  0.2996 -0.1491
  374TIP3    H125317   4.602   4.135  18.469 -1.7207  1.9440  1.4140
  374TIP3    H225318   4.538   4.020  18.394  1.9923  0.5624  0.1209
  375TIP3   OH225319   0.549   1.851  18.727 -0.0004 -0.4167 -0.3972
  375TIP3    H125320   0.454   1.843  18.732 -0.0760  1.0819  1.4842
  375TIP3    H225321   0.565   1.902  18.648 -1.1003  2.8563  1.3177
  376TIP3   OH225322   0.497   0.802  19.613  0.5875 -0.4479 -0.3392
  376TIP3    H125323   0.525   0.828  19.700  0.9724 -2.2007  0.0950
  376TIP3    H225324   0.572   0.755  19.576 -0.3221 -1.6484 -0.7362
  377TIP3   OH225325   5.219   6.675  20.034 -0.2435 -0.0868  0.4194
  377TIP3    H125326   5.187   6.699  20.121 -0.1990 -0.7869  0.6373
  377TIP3    H225327   5.220   6.579  20.034  0.0157 -0.0945 -0.2593
  378TIP3   OH225328   2.886   3.606  18.091  0.0813 -0.1553  0.7161
  378TIP3    H125329   2.811   3.593  18.034  0.5093 -1.2173  0.3720
  378TIP3    H225330   2.870   3.549  18.167  1.8242 -2.7089 -0.6575
  379TIP3   OH225331   6.673   3.736  19.731 -0.1223 -0.4695 -0.0922
  379TIP3    H125332   6.607   3.780  19.678 -1.0802 -0.6876  0.8900
  379TIP3    H225333   6.643   3.747  19.821  0.4222 -1.8124  0.2769
  380TIP3   OH225334   0.647   4.629  18.022  0.3122 -0.1519 -0.6226
  380TIP3    H125335   0.706   4.698  17.992 -0.6471  0.8322 -0.2823
  380TIP3    H225336   0.560   4.667  18.017 -0.0921 -0.7383  1.2057
  381TIP3   OH225337   5.893   4.674  18.228  0.2573 -0.0704  0.1730
  381TIP3    H125338   5.840   4.640  18.156  1.9234 -0.3183 -0.9800
  381TIP3    H225339   5.970   4.711  18.186  0.7435  0.8193  1.7661
  382TIP3   OH225340   2.363   3.985  19.937 -0.1481  0.5069 -0.1230
  382TIP3    H125341   2.330   3.903  19.900  0.5590  0.0019  0.3427
  382TIP3    H225342   2.288   4.044  19.936 -0.9484 -0.4777  0.5211
  383TIP3   OH225343   0.209   2.803  18.354 -0.2723 -0.2455 -0.5180
  383TIP3    H125344   0.270   2.874  18.374 -0.7797  0.3219 -0.9689
  383TIP3    H225345   0.265   2.725  18.351  0.5609  0.3556 -1.5719
  384TIP3   OH225346   6.008   4.581  19.891 -0.3288 -0.0010 -0.4747
  384TIP3    H125347   6.102   4.566  19.884  0.0389  1.9407 -0.3795
  384TIP3    H225348   5.977   4.513  19.951  1.3321  0.4023  0.9374
  385TIP3   OH225349   0.565   3.855  19.008 -0.1773  0.0724  0.1131
  385TIP3    H125350   0.622   3.862  19.085  2.4662 -0.1828 -1.6736
  385TIP3    H225351   0.503   3.786  19.031 -1.1777  1.7094  2.9091
  386TIP3   OH225352   6.050   6.110  19.511 -0.6495  0.5339 -0.2836
  386TIP3    H125353   6.067   6.045  19.443  0.6692  0.9790 -0.4090
  386TIP3    H225354   6.053   6.194  19.465  0.3536  0.8458  0.3245
  387TIP3   OH225355   3.713   2.999  19.437  0.1456  0.0155  0.2877
  387TIP3    H125356   3.755   3.056  19.372  0.6856  0.5621  1.0927
  387TIP3    H225357   3.785   2.951  19.477 -0.3348 -1.5558 -0.6390
  388TIP3   OH225358   0.395   0.416  16.973 -0.2721  0.1783  0.0341
  388TIP3    H125359   0.351   0.492  17.011  0.0143  1.9836 -2.8651
  388TIP3    H225360   0.488   0.437  16.979 -0.2136  0.4309 -1.3246
  389TIP3   OH225361   5.240   5.078  16.379  0.1474  0.0079 -0.3956
  389TIP3    H125362   5.278   5.117  16.300 -0.2787  1.3580  0.0559
  389TIP3    H225363   5.150   5.056  16.354 -0.3363  1.4393  0.0135
  390TIP3   OH225364   3.312   4.178  20.181  0.3679 -1.3032 -0.3447
  390TIP3    H125365   3.265   4.146  20.104 -1.8693 -3.5551  1.7983
  390TIP3    H225366   3.252   4.239  20.223  0.4578 -2.0684  0.9525
  391TIP3   OH225367   3.109   3.993  19.729  0.2091 -0.4066 -0.4192
  391TIP3    H125368   3.084   3.972  19.639 -0.0766  0.8177 -0.6486
  391TIP3    H225369   3.091   3.914  19.779  1.4215 -1.4829 -1.6224
  392TIP3   OH225370   1.115   2.117  20.227  0.6953 -0.3489 -0.1165
  392TIP3    H125371   1.104   2.060  20.150 -2.5069 -0.2858  0.1896
  392TIP3    H225372   1.116   2.057  20.301 -1.2519 -0.1767  0.0984
  393TIP3   OH225373   0.378   2.045  17.163  0.4633 -0.1414  0.0873
  393TIP3    H125374   0.315   2.115  17.179  0.4412 -0.1957  0.2420
  393TIP3    H225375   0.333   1.965  17.192  0.6823 -0.1544  0.3996
  394TIP3   OH225376   2.835   0.857  17.670 -0.7376 -0.0842 -0.4007
  394TIP3    H125377   2.817   0.950  17.660  0.5353  0.3610  1.0070
  394TIP3    H225378   2.829   0.842  17.765  3.0420 -0.4813 -0.0746
  395TIP3   OH225379   6.501   4.560  19.284  0.0762 -0.1804 -0.4055
  395TIP3    H125380   6.579   4.557  19.339 -0.0616 -1.2681 -0.2578
  395TIP3    H225381   6.450   4.634  19.318  0.3463 -0.3799  0.4401
  396TIP3   OH225382   5.641   6.106  18.770 -0.0509 -0.0693  0.3513
  396TIP3    H125383   5.570   6.163  18.739  0.4040 -0.7100 -2.0560
  396TIP3    H225384   5.714   6.124  18.711  0.1812 -2.9326 -0.4082
  397TIP3   OH225385   6.205   4.322  19.890 -0.0543  0.3620 -0.2362
  397TIP3    H125386   6.227   4.364  19.974 -0.4435 -0.0351  0.0687
  397TIP3    H225387   6.267   4.361  19.827 -0.7800  1.8430 -0.0880
  398TIP3   OH225388   2.177   2.880  17.594  0.5742  0.5270 -0.2219
  398TIP3    H125389   2.210   2.937  17.663  1.5805 -1.4575  1.0309
  398TIP3    H225390   2.219   2.913  17.514  1.5095  1.2357  0.5310
  399TIP3   OH225391   4.340   4.711  19.605 -0.0201  0.4775 -0.2999
  399TIP3    H125392   4.410   4.741  19.663  0.2552  2.1282 -1.4233
  399TIP3    H225393   4.305   4.633  19.648  3.2150 -1.0940 -0.2715
  400TIP3   OH225394   0.372   3.441  17.703  0.6578 -0.0320 -0.1076
  400TIP3    H125395   0.449   3.469  17.752  0.1704  2.0227 -0.4246
  400TIP3    H225396   0.299   3.449  17.766  0.1398  1.9477 -0.8637
  401TIP3   OH225397   4.910   4.676  18.767 -0.0916 -0.7158 -0.0453
  401TIP3    H125398   4.980   4.617  18.794 -0.4701 -1.4050 -0.5426
  401TIP3    H225399   4.853   4.683  18.844  0.0353 -0.8682  0.0615
  402TIP3   OH225400   5.772   3.652  17.711  0.7415  0.2302  0.1084
  402TIP3    H125401   5.847   3.596  17.691 -0.1918 -0.4517 -1.6827
  402TIP3    H225402   5.755   3.699  17.629  0.1543  1.5415  0.9447
  403TIP3   OH225403   6.284   0.848  17.661  0.1054  0.1424 -0.0894
  403TIP3    H125404   6.318   0.889  17.581  1.5793 -0.0696  0.3835
  403TIP3    H225405   6.343   0.774  17.676  0.0652  0.3807  1.3779
  404TIP3   OH225406   0.727   2.241  18.962 -0.2578 -0.4334  0.1839
  404TIP3    H125407   0.699   2.194  19.041  0.5480 -0.4875  0.4463
  404TIP3    H225408   0.698   2.331  18.976 -2.2438 -0.9046 -0.5306
  405TIP3   OH225409   6.657   2.343  19.983 -0.5032  0.1717  0.2429
  405TIP3    H125410   6.674   2.437  19.987  1.4211 -0.0958 -0.6497
  405TIP3    H225411   6.595   2.327  20.054  1.1796  1.7015  2.1799
  406TIP3   OH225412   0.792   5.070  17.849 -0.3938 -0.1980  0.0420
  406TIP3    H125413   0.768   5.153  17.891 -1.3607  0.1174 -1.0687
  406TIP3    H225414   0.866   5.093  17.793  1.1016 -0.6834  1.7293
  407TIP3   OH225415   2.677   1.363  19.209 -0.2651 -0.3127 -0.0880
  407TIP3    H125416   2.654   1.308  19.134  1.5144  0.2772 -1.1433
  407TIP3    H225417   2.661   1.452  19.180 -0.6356 -0.1248  0.6651
  408TIP3   OH225418   4.701   5.545  19.724  0.6181 -0.2384  0.2777
  408TIP3    H125419   4.644   5.549  19.800 -1.8788 -0.4470 -1.4585
  408TIP3    H225420   4.771   5.608  19.743 -0.3965  0.3515  2.3268
  409TIP3   OH225421   5.944   5.601  18.644 -0.3545  0.0169  0.4094
  409TIP3    H125422   5.970   5.513  18.672 -0.7185  0.5397  2.6343
  409TIP3    H225423   5.888   5.633  18.716 -0.4844  1.9507 -0.4841
  410TIP3   OH225424   4.556   6.236  17.824  0.2415 -0.2688  0.0390
  410TIP3    H125425   4.593   6.319  17.796  0.4904 -0.4012 -0.0277
  410TIP3    H225426   4.495   6.212  17.754  0.4925 -0.3538 -0.1535
  411TIP3   OH225427   5.923   3.074  18.458  0.0694 -0.4820  0.1792
  411TIP3    H125428   5.927   3.090  18.552  1.2647 -1.0360  0.2393
  411TIP3    H225429   5.832   3.048  18.442 -0.3984  0.5919  1.0056
  412TIP3   OH225430   0.262   0.971  19.029 -0.1105 -0.3959 -0.2538
  412TIP3    H125431   0.342   0.983  18.978 -0.0578  1.0935  0.1383
  412TIP3    H225432   0.271   1.032  19.103  0.6970 -3.6875  2.6556
  413TIP3   OH225433   2.463   0.939  20.286 -0.0273  0.7576 -0.3204
  413TIP3    H125434   2.443   1.021  20.331  0.9807  1.6486 -1.4199
  413TIP3    H225435   2.377   0.900  20.269 -0.5761  1.8983 -0.3298
  414TIP3   OH225436   4.301   5.465  18.420 -0.1806 -0.0671  0.1021
  414TIP3    H125437   4.384   5.433  18.456 -0.6082 -2.6368 -0.9977
  414TIP3    H225438   4.245   5.477  18.497  0.7089  0.2326  0.7306
  415TIP3   OH225439   6.072   2.932  19.911 -0.1916  0.2934  0.1749
  415TIP3    H125440   6.056   2.988  19.835 -1.6540 -0.9957 -0.5186
  415TIP3    H225441   5.990   2.883  19.923  0.6998 -0.9949  1.3345
  416TIP3   OH225442   4.219   3.144  19.667 -0.9116  0.2371 -0.0508
  416TIP3    H125443   4.170   3.226  19.673  1.7476  2.1489 -1.6970
  416TIP3    H225444   4.273   3.143  19.746 -1.3319 -0.2539  0.2380
  417TIP3   OH225445   3.425   4.872  19.303 -0.0370 -0.0593 -0.1360
  417TIP3    H125446   3.335   4.901  19.314  0.1640  0.7406 -0.5378
  417TIP3    H225447   3.478   4.943  19.337  0.4660  0.1770 -1.3555
  418TIP3   OH225448   1.883   1.300  18.355 -0.4788  0.1610 -0.0367
  418TIP3    H125449   1.881   1.339  18.442 -1.6521  0.6086 -0.2464
  418TIP3    H225450   1.915   1.211  18.369  1.0247  0.7681  0.6071
  419TIP3   OH225451   5.260   0.219  19.842 -0.6262  0.1581  0.0882
  419TIP3    H125452   5.291   0.161  19.912 -1.2541  3.1976  3.1680
  419TIP3    H225453   5.257   0.163  19.764 -0.7772 -3.7829  2.6145
  420TIP3   OH225454   3.167   3.431  20.218  0.1987 -0.5017 -0.0482
  420TIP3    H125455   3.104   3.501  20.233 -0.2045 -0.7847 -0.3821
  420TIP3    H225456   3.232   3.469  20.159  0.2391 -0.2654  0.1465
  421TIP3   OH225457   0.280   1.858  16.917  0.3647 -0.3950 -0.3631
  421TIP3    H125458   0.353   1.913  16.886 -0.3710  1.0056  0.3050
  421TIP3    H225459   0.205   1.888  16.866 -0.4283  0.4972  1.2680
  422TIP3   OH225460   0.891   2.764  17.449 -0.0240  0.6712  0.1993
  422TIP3    H125461   0.804   2.742  17.481 -0.0604  1.4624  0.6882
  422TIP3    H225462   0.877   2.838  17.390 -0.0645 -1.3427 -2.4503
  423TIP3   OH225463   5.157   0.313  17.671 -0.2931 -0.0395 -0.7015
  423TIP3    H125464   5.241   0.269  17.684  0.9823  2.3579 -0.0971
  423TIP3    H225465   5.092   0.252  17.705  1.2135 -1.8134 -0.8168
  424TIP3   OH225466   3.628   2.252  18.468 -0.3538  0.1752  0.1676
  424TIP3    H125467   3.547   2.298  18.449  0.4979  1.5536 -0.3119
  424TIP3    H225468   3.694   2.321  18.473  0.5840 -0.7669  1.8253
  425TIP3   OH225469   1.647   4.217  18.927 -0.5792  0.4211 -0.1838
  425TIP3    H125470   1.720   4.261  18.969 -0.1186 -0.6168  0.1450
  425TIP3    H225471   1.570   4.270  18.949 -0.2635  0.2302  1.4831
  426TIP3   OH225472   4.046   5.570  18.578  0.3825  0.0824  0.0756
  426TIP3    H125473   3.997   5.490  18.595 -0.1845  0.7077  1.6307
  426TIP3    H225474   4.122   5.564  18.636  0.2275  0.7536  0.3561
  427TIP3   OH225475   1.328   4.945  17.602 -0.3970  0.0407  0.1032
  427TIP3    H125476   1.246   4.954  17.554 -0.4080 -0.9588 -0.0841
  427TIP3    H225477   1.389   5.002  17.555 -1.1166  1.2498  0.5948
  428TIP3   OH225478   2.705   4.533  19.713 -1.2969  0.3623  0.3124
  428TIP3    H125479   2.714   4.628  19.700  1.2386  0.0522 -0.6682
  428TIP3    H225480   2.748   4.516  19.796  0.9053 -0.2274 -0.8725
  429TIP3   OH225481   3.244   0.465  19.290 -0.1517  0.0309 -0.2156
  429TIP3    H125482   3.254   0.542  19.233  0.5387  0.0417 -0.0827
  429TIP3    H225483   3.174   0.489  19.350  0.0166  0.5336 -0.2180
  430TIP3   OH225484   1.718   2.822  18.265 -0.1102  0.2212 -0.2477
  430TIP3    H125485   1.701   2.806  18.358  1.1555  1.3685  0.1987
  430TIP3    H225486   1.645   2.877  18.237 -0.7409 -0.5037 -0.0664
  431TIP3   OH225487   6.635   5.484  18.328 -0.0845  0.2688 -0.5230
  431TIP3    H125488   6.633   5.580  18.330  0.5263  0.2912 -0.6510
  431TIP3    H225489   6.607   5.461  18.240  1.9165  0.4283 -1.2586
  432TIP3   OH225490   4.563   5.931  16.654  0.2083 -0.2754  0.2739
  432TIP3    H125491   4.528   6.004  16.705 -0.2641 -0.2868 -0.0262
  432TIP3    H225492   4.624   5.888  16.713  0.1395  0.0848  0.6123
  433TIP3   OH225493   4.296   2.951  19.884  0.2301 -0.0485  0.0593
  433TIP3    H125494   4.274   2.882  19.946 -0.7506  1.8166  1.9236
  433TIP3    H225495   4.268   2.917  19.799  2.1128 -2.9273  0.4286
  434TIP3   OH225496   0.350   5.831  19.696 -0.3795  0.0046 -1.0663
  434TIP3    H125497   0.287   5.759  19.687 -0.0104 -0.3985 -0.5003
  434TIP3    H225498   0.337   5.863  19.785  2.0998 -1.9228  0.1089
  435TIP3   OH225499   1.295   2.014  16.911  0.5736  0.7097  0.0214
  435TIP3    H125500   1.246   1.982  16.987 -0.7710  2.7472  0.0934
  435TIP3    H225501   1.378   1.968  16.915 -0.6692 -1.6201  0.8776
  436TIP3   OH225502   2.890   3.862  18.652 -0.6522  0.2982  0.1523
  436TIP3    H125503   2.836   3.830  18.725  0.3404 -0.2206  0.6951
  436TIP3    H225504   2.977   3.825  18.670 -0.1768  0.9188 -0.8135
  437TIP3   OH225505   6.448   4.607  17.793 -0.2590 -0.1835  0.2876
  437TIP3    H125506   6.422   4.543  17.727 -1.5529  2.1346 -1.5792
  437TIP3    H225507   6.456   4.556  17.874 -0.1509 -2.8508 -1.3014
  438TIP3   OH225508   1.862   5.721  16.798 -0.8307 -0.8329  0.3744
  438TIP3    H125509   1.772   5.722  16.830 -1.5172  0.4179 -1.4619
  438TIP3    H225510   1.857   5.757  16.710  1.5943  0.1782  0.5711
  439TIP3   OH225511   3.378   0.179  18.454  0.0970  0.5323 -0.5699
  439TIP3    H125512   3.405   0.242  18.387 -0.9092  0.3723 -1.1525
  439TIP3    H225513   3.460   0.148  18.492  0.7497  0.1796 -2.1679
  440TIP3   OH225514   1.405   4.482  20.082  0.0550 -0.2340  0.2945
  440TIP3    H125515   1.477   4.539  20.107 -0.1147 -0.8566  2.3371
  440TIP3    H225516   1.331   4.541  20.069  0.2182  0.1495  1.0540
  441TIP3   OH225517   5.775   3.163  20.367  0.2597 -0.2726  0.0171
  441TIP3    H125518   5.864   3.199  20.377  0.1042 -0.1896  1.3201
  441TIP3    H225519   5.718   3.236  20.390 -0.0783 -1.0069  1.6634
  442TIP3   OH225520   0.225   2.353  18.034 -0.4293 -0.6277 -0.2631
  442TIP3    H125521   0.145   2.387  17.994  0.3833  1.0450 -0.5369
  442TIP3    H225522   0.260   2.292  17.969 -0.2471  0.4565 -1.2167
  443TIP3   OH225523   3.761   0.921  18.096  0.1997  0.8428  0.2779
  443TIP3    H125524   3.729   0.914  18.007 -0.9796 -0.7623  0.7741
  443TIP3    H225525   3.793   0.833  18.117 -1.0744  0.7180  1.9494
  444TIP3   OH225526   5.917   6.641  18.276 -0.0738 -0.0428  0.4290
  444TIP3    H125527   5.874   6.671  18.196 -0.1708 -1.7552 -0.2111
  444TIP3    H225528   5.926   6.720  18.330 -0.9660  0.9543 -0.8164
  445TIP3   OH225529   6.025   0.184  16.943 -0.1599  0.0625 -0.0801
  445TIP3    H125530   5.986   0.127  17.009  0.5056 -0.9793 -0.5631
  445TIP3    H225531   5.996   0.148  16.860 -0.8953  1.3004 -0.3803
  446TIP3   OH225532   0.367   0.904  17.932  0.0666 -0.3467  0.2384
  446TIP3    H125533   0.425   0.894  17.856 -0.5428  0.2285 -0.3146
  446TIP3    H225534   0.378   0.823  17.981 -0.6247 -1.3841 -1.2336
  447TIP3   OH225535   1.674   5.417  18.454  0.4589  0.1629 -0.2828
  447TIP3    H125536   1.636   5.444  18.538 -0.2118 -0.0733 -0.5000
  447TIP3    H225537   1.755   5.467  18.447  0.6022  0.0695  0.5781
  448TIP3   OH225538   4.147   2.973  19.421  0.2063 -0.1216 -0.4124
  448TIP3    H125539   4.166   2.880  19.405 -0.6187 -0.3408 -0.1603
  448TIP3    H225540   4.153   2.982  19.516  1.3138  0.3262 -0.5121
  449TIP3   OH225541   1.207   1.394  17.498 -0.4351 -0.1030  0.4488
  449TIP3    H125542   1.247   1.335  17.563  2.9405  0.3202 -1.0101
  449TIP3    H225543   1.172   1.336  17.431 -0.5797 -0.4842  0.8516
  450TIP3   OH225544   1.887   6.567  16.667  0.7638  0.6762  0.1196
  450TIP3    H125545   1.914   6.476  16.680  3.0842  1.0090 -1.7066
  450TIP3    H225546   1.802   6.573  16.711 -0.0722 -2.7048 -0.7169
  451TIP3   OH225547   3.350   5.211  20.032 -0.1735 -0.5442 -0.0692
  451TIP3    H125548   3.399   5.210  19.949  0.3126 -2.6128  0.1817
  451TIP3    H225549   3.259   5.199  20.006 -0.1496 -0.0854 -0.3677
  452TIP3   OH225550   6.500   1.974  19.757 -0.0312  0.1179 -0.3758
  452TIP3    H125551   6.589   1.991  19.726  0.1299 -1.6976 -1.0439
  452TIP3    H225552   6.511   1.948  19.848  0.0218  0.7851 -0.1912
  453TIP3   OH225553   0.749   2.798  19.139 -0.0362 -0.1261  0.3100
  453TIP3    H125554   0.758   2.876  19.193 -1.2934 -0.8650  1.6562
  453TIP3    H225555   0.840   2.770  19.122  0.4014  1.0506  0.6237
  454TIP3   OH225556   1.248   0.303  16.961 -0.0913 -0.2390 -0.5383
  454TIP3    H125557   1.341   0.305  16.985 -0.3478 -0.2481  0.5252
  454TIP3    H225558   1.225   0.395  16.949  0.0507 -0.2338 -0.7723
  455TIP3   OH225559   1.876   2.458  19.643  0.7257  0.4732  0.7077
  455TIP3    H125560   1.813   2.528  19.659  1.0993  1.1890 -0.7915
  455TIP3    H225561   1.894   2.423  19.730 -2.0879 -0.1036  1.1782
  456TIP3   OH225562   4.533   2.187  20.598  0.3605 -0.3084  0.4002
  456TIP3    H125563   4.619   2.218  20.628 -0.3883  0.3287  2.0021
  456TIP3    H225564   4.536   2.092  20.614  0.8120 -0.3125  0.3194
  457TIP3   OH225565   2.658   4.575  18.940 -0.2766 -0.7564 -0.0773
  457TIP3    H125566   2.696   4.532  19.016  2.2874 -0.3518 -1.0458
  457TIP3    H225567   2.584   4.625  18.975 -1.0206 -2.8974  1.6346
  458TIP3   OH225568   4.989   5.892  17.824  0.2583 -0.4211 -0.2643
  458TIP3    H125569   5.029   5.872  17.909 -1.4970 -0.8298  0.5098
  458TIP3    H225570   5.014   5.818  17.768 -0.4776 -1.3413  0.5879
  459TIP3   OH225571   2.867   0.844  18.135 -0.0153 -0.0413  0.1235
  459TIP3    H125572   2.820   0.910  18.187  0.3670  0.7131 -0.4712
  459TIP3    H225573   2.900   0.782  18.200 -1.1166 -0.1357  0.6258
  460TIP3   OH225574   5.805   4.586  18.712  0.1291 -0.1874  0.2109
  460TIP3    H125575   5.764   4.507  18.747 -0.7826  0.2473  0.1448
  460TIP3    H225576   5.854   4.555  18.635 -1.5994 -0.4602 -0.8383
  461TIP3   OH225577   2.675   4.718  19.400 -0.4354 -0.3978  0.5023
  461TIP3    H125578   2.602   4.704  19.461 -0.1234  1.2091  1.3221
  461TIP3    H225579   2.693   4.812  19.407  1.7571 -0.7666  0.3737
  462TIP3   OH225580   1.289   6.137  17.471 -0.5501 -0.2131  0.1942
  462TIP3    H125581   1.289   6.229  17.495  1.5870 -0.2867  0.7516
  462TIP3    H225582   1.214   6.126  17.413 -2.6470  1.1817  2.4738
  463TIP3   OH225583   0.122   2.836  17.471 -0.0089 -0.1850  0.2551
  463TIP3    H125584   0.107   2.743  17.458 -2.2645  0.0539  0.7134
  463TIP3    H225585   0.206   2.841  17.515  0.7604 -1.8938 -0.9075
  464TIP3   OH225586   2.778   3.194  19.389  0.2704  0.1406  0.3139
  464TIP3    H125587   2.866   3.175  19.422 -0.5293 -1.9179  1.4463
  464TIP3    H225588   2.780   3.163  19.299  1.1878  1.7455 -0.2562
  465TIP3   OH225589   4.091   5.884  17.458  0.1219 -0.0844  0.5353
  465TIP3    H125590   4.166   5.889  17.519 -1.0552 -0.9387  2.1335
  465TIP3    H225591   4.101   5.798  17.416 -1.1825 -1.3061  2.5361
  466TIP3   OH225592   5.108   0.087  20.295 -0.0486 -0.7314  0.3234
  466TIP3    H125593   5.167   0.104  20.369  0.0898  0.4372 -0.0370
  466TIP3    H225594   5.055   0.166  20.288  0.0943 -0.7430 -0.9756
  467TIP3   OH225595   1.744   1.785  18.829  0.2680  0.0080 -0.0098
  467TIP3    H125596   1.743   1.844  18.753 -0.2634  0.9688  0.7189
  467TIP3    H225597   1.782   1.838  18.899 -0.8505 -0.2750  0.8350
  468TIP3   OH225598   5.027   3.241  19.906 -0.0950 -0.0352  0.1111
  468TIP3    H125599   5.106   3.187  19.900 -0.0347 -0.0529  0.9615
  468TIP3    H225600   4.961   3.193  19.856  0.4095 -0.0680 -0.5197
  469TIP3   OH225601   2.003   4.826  19.139  0.5801 -0.5487  0.6747
  469TIP3    H125602   2.054   4.900  19.107 -0.2667  0.7835  2.2759
  469TIP3    H225603   1.928   4.821  19.079  0.6015 -0.0702  0.6073
  470TIP3   OH225604   1.344   4.250  18.951 -0.1913  0.0896 -0.3508
  470TIP3    H125605   1.373   4.341  18.950  0.0984 -0.0035 -0.9243
  470TIP3    H225606   1.258   4.252  18.992 -0.1939  0.6265 -0.3800
  471TIP3   OH225607   1.330   5.640  18.014 -0.1954 -0.4399 -0.3857
  471TIP3    H125608   1.415   5.604  17.988  0.6215  1.4036 -0.4078
  471TIP3    H225609   1.342   5.735  18.011 -2.1294 -0.1396  0.0732
  472TIP3   OH225610   2.898   3.350  18.563 -0.1372  0.1363 -0.1311
  472TIP3    H125611   2.988   3.323  18.547  0.2841  1.1488  0.4482
  472TIP3    H225612   2.848   3.268  18.564  0.9888 -0.5692  0.9143
  473TIP3   OH225613   1.347   4.440  20.406  0.0219 -0.2197  0.4888
  473TIP3    H125614   1.347   4.389  20.325 -1.2703  0.0619  0.2884
  473TIP3    H225615   1.288   4.392  20.464 -1.5348  1.2081  0.1620
  474TIP3   OH225616   5.047   3.665  18.586  0.0318  0.1347  0.3165
  474TIP3    H125617   5.098   3.680  18.665  1.8736  0.0013 -0.7842
  474TIP3    H225618   5.109   3.678  18.514 -1.6793  0.7035 -1.1471
  475TIP3   OH225619   5.248   4.502  18.616  0.2082  0.0907 -0.0670
  475TIP3    H125620   5.187   4.546  18.556 -0.6284  0.4301  1.0007
  475TIP3    H225621   5.333   4.543  18.599  0.0023  0.1233 -1.0606
  476TIP3   OH225622   3.721   1.947  16.893 -0.1146  0.7959 -0.8739
  476TIP3    H125623   3.664   1.873  16.912 -0.3774  1.3427  0.6029
  476TIP3    H225624   3.799   1.909  16.853  1.2211 -0.7423  2.7811
  477TIP3   OH225625   5.027   0.053  19.317 -0.4986 -0.5478  0.4369
  477TIP3    H125626   4.947   0.037  19.269 -2.1160  3.0303  1.5765
  477TIP3    H225627   4.999   0.060  19.409  0.8679  1.6946  0.7571
  478TIP3   OH225628   1.671   6.621  19.079 -0.0934 -0.3209  0.4806
  478TIP3    H125629   1.639   6.531  19.087 -0.9304 -0.3562 -2.2109
  478TIP3    H225630   1.592   6.675  19.088 -0.0234 -0.0523 -0.3722
  479TIP3   OH225631   0.385   0.298  18.371 -0.2214  0.1512 -0.5507
  479TIP3    H125632   0.392   0.341  18.456 -0.2878  1.1358 -1.0370
  479TIP3    H225633   0.311   0.239  18.381 -1.0148  1.1606 -0.2997
  480TIP3   OH225634   1.770   2.212  19.942 -0.2440  0.1067 -0.2353
  480TIP3    H125635   1.819   2.149  19.889  0.0073  0.4284 -0.3920
  480TIP3    H225636   1.769   2.174  20.029 -0.7028 -0.4514 -0.4795
  481TIP3   OH225637   6.282   0.022  17.509 -0.3573 -0.2046  0.1179
  481TIP3    H125638   6.359  -0.016  17.552  1.6004  1.5719 -1.5674
  481TIP3    H225639   6.319   0.084  17.445 -3.1070 -1.3613 -2.8303
  482TIP3   OH225640   4.240   4.616  17.678  0.0272  0.9207  0.0701
  482TIP3    H125641   4.242   4.709  17.654  3.7028  0.6124 -1.4671
  482TIP3    H225642   4.213   4.571  17.598  0.2138  0.5597  0.2073
  483TIP3   OH225643   5.980   2.355  18.652 -0.6799  0.3609  0.1931
  483TIP3    H125644   5.953   2.365  18.561 -1.3897  1.6211  0.5189
  483TIP3    H225645   5.913   2.299  18.691 -0.6124  0.1787  0.0511
  484TIP3   OH225646   1.409   1.016  20.070  0.2848 -0.0540 -0.0458
  484TIP3    H125647   1.336   0.955  20.081  0.7764 -0.6285  0.1209
  484TIP3    H225648   1.473   0.966  20.019  0.8209  0.2161  0.3608
  485TIP3   OH225649   2.823   6.523  18.005 -0.1488 -0.1548 -0.0204
  485TIP3    H125650   2.866   6.609  18.010  0.7381 -0.5513 -0.6233
  485TIP3    H225651   2.742   6.539  17.958 -0.0779  0.3899  0.0395
  486TIP3   OH225652   2.826   2.266  19.907  0.7828 -0.1352  0.2646
  486TIP3    H125653   2.793   2.206  19.840 -1.1665 -0.0617  1.0946
  486TIP3    H225654   2.916   2.237  19.923  1.1401 -0.4609 -1.9951
  487TIP3   OH225655   4.513   4.705  17.542  0.3993 -0.0854 -0.1065
  487TIP3    H125656   4.430   4.737  17.575  0.4168  1.0576 -1.0729
  487TIP3    H225657   4.490   4.651  17.466  0.4917 -0.5422  0.1881
  488TIP3   OH225658   0.123   0.569  16.299 -0.5121  1.0358  0.4962
  488TIP3    H125659   0.214   0.586  16.275 -0.2623 -0.0852  0.6176
  488TIP3    H225660   0.095   0.650  16.342 -0.0341  1.9373 -0.8010
  489TIP3   OH225661   4.108   4.647  18.309 -0.0505  0.1851 -0.0130
  489TIP3    H125662   4.188   4.699  18.319  0.6839 -1.1501  1.8220
  489TIP3    H225663   4.138   4.565  18.269 -0.5113 -0.2408  0.4917
  490TIP3   OH225664   0.237   0.192  17.369  0.3148 -0.0050 -0.2594
  490TIP3    H125665   0.286   0.195  17.286 -0.3887 -2.1312 -0.8267
  490TIP3    H225666   0.251   0.103  17.401 -1.0402  0.1778  0.9078
  491TIP3   OH225667   3.190   1.059  18.709 -0.0909 -0.0821  0.5346
  491TIP3    H125668   3.224   1.003  18.778 -3.1371  0.7450  2.9684
  491TIP3    H225669   3.119   1.008  18.670  0.6564  0.0363 -1.0450
  492TIP3   OH225670   1.815   1.489  18.552  0.3608 -0.3601 -0.6008
  492TIP3    H125671   1.771   1.559  18.505  0.3256 -0.4644 -0.7227
  492TIP3    H225672   1.873   1.534  18.614 -1.1429 -0.1918  0.7381
  493TIP3   OH225673   3.199   4.519  18.791  0.2410  0.0478  0.0532
  493TIP3    H125674   3.202   4.511  18.696 -0.7250 -1.2270  0.1028
  493TIP3    H225675   3.106   4.515  18.813  0.1801  3.2093  0.8776
  494TIP3   OH225676   1.671   1.197  19.476  0.3648  0.3663 -0.2528
  494TIP3    H125677   1.618   1.118  19.486  0.3665  0.5091  1.0078
  494TIP3    H225678   1.661   1.243  19.559  3.7142 -0.3423  0.6703
  495TIP3   OH225679   0.051   1.372  18.719 -0.5625  0.2275  1.3712
  495TIP3    H125680   0.106   1.328  18.784 -0.3009 -1.2393  0.1952
  495TIP3    H225681  -0.014   1.307  18.695  2.0243 -1.1222 -3.1803
  496TIP3   OH225682   5.069   5.532  18.330 -0.4361 -0.0124 -0.7184
  496TIP3    H125683   5.131   5.558  18.262 -0.1103  0.4906 -0.2447
  496TIP3    H225684   5.069   5.606  18.391 -1.5011 -0.0077 -0.7016
  497TIP3   OH225685   5.457   1.990  18.773 -0.2430  0.1999 -0.0805
  497TIP3    H125686   5.474   1.947  18.857  0.1960 -0.1188 -0.3264
  497TIP3    H225687   5.450   2.083  18.794  3.1724  0.5773 -0.0872
  498TIP3   OH225688   2.228   0.367  18.043 -0.2868 -0.1314  0.3885
  498TIP3    H125689   2.259   0.326  17.962  0.8158  0.4968  0.4685
  498TIP3    H225690   2.144   0.325  18.060 -1.3164  0.7877 -1.9024
  499TIP3   OH225691   3.526   2.646  18.105  0.2378  0.1197 -0.4994
  499TIP3    H125692   3.530   2.716  18.041  0.6815  0.7523  0.2005
  499TIP3    H225693   3.432   2.629  18.115  0.0222  1.6150  0.3633
  500TIP3   OH225694   1.738   2.013  17.540 -0.3729 -0.0745 -0.5666
  500TIP3    H125695   1.797   2.043  17.609 -0.4300 -1.1903 -0.0146
  500TIP3    H225696   1.776   1.930  17.510 -0.1556  0.5549 -2.1284
  501TIP3   OH225697   1.756   2.185  18.645  0.0471  0.2188 -0.2463
  501TIP3    H125698   1.696   2.201  18.717  0.6495 -0.3754  0.4012
  501TIP3    H225699   1.841   2.215  18.677  0.4352 -0.6118 -0.4720
  502TIP3   OH225700   6.108   2.360  19.420 -0.3937  0.4156 -0.2761
  502TIP3    H125701   6.059   2.424  19.472  0.2870  2.3527 -1.8716
  502TIP3    H225702   6.197   2.364  19.456 -0.7713 -1.1644  0.9161
  503TIP3   OH225703   2.711   3.909  18.375  0.1550 -0.3104  0.0502
  503TIP3    H125704   2.679   3.862  18.298 -0.6965 -1.0900  0.8610
  503TIP3    H225705   2.654   3.880  18.446 -0.4871  2.0670  0.5727
  504TIP3   OH225706   4.506   2.202  17.523 -0.0472  0.1881  0.0377
  504TIP3    H125707   4.438   2.264  17.498  1.3907  1.4089 -1.0354
  504TIP3    H225708   4.461   2.139  17.580 -1.8110  1.5456  0.2452
  505TIP3   OH225709   4.404   2.009  20.352  0.4297 -0.3537  0.4607
  505TIP3    H125710   4.418   2.072  20.422 -1.9122  2.0274 -1.0229
  505TIP3    H225711   4.314   1.979  20.364  0.6447 -1.3931 -0.4081
  506TIP3   OH225712   1.844   2.749  17.840  0.4586 -0.3150 -0.1167
  506TIP3    H125713   1.776   2.816  17.834  1.4970  0.8468  0.5287
  506TIP3    H225714   1.922   2.797  17.870  0.9864 -1.9753  1.3671
  507TIP3   OH225715   4.692   0.101  18.284 -0.2160  0.2938 -0.1770
  507TIP3    H125716   4.747   0.023  18.274  1.6195  1.6530 -1.2585
  507TIP3    H225717   4.754   0.171  18.305 -1.9457  1.2848  2.0592
  508TIP3   OH225718   4.682   0.505  20.299  0.1599 -0.3604  0.0204
  508TIP3    H125719   4.637   0.504  20.214 -2.3442 -0.8155  1.2822
  508TIP3    H225720   4.693   0.413  20.322 -1.3980 -0.2634  1.2659
  509TIP3   OH225721   3.265   5.165  19.470 -0.0886 -0.5968  0.1056
  509TIP3    H125722   3.254   5.259  19.479 -0.7721 -0.7267  0.7108
  509TIP3    H225723   3.238   5.145  19.381  2.9098  0.1698 -1.0932
  510TIP3   OH225724   2.145   1.060  18.665  0.1211  0.4742 -0.3107
  510TIP3    H125725   2.199   1.075  18.743  1.1534  1.5043 -1.1837
  510TIP3    H225726   2.055   1.070  18.696  0.4729  0.0446  0.9052
  511TIP3   OH225727   2.603   5.554  17.733  0.4065 -0.2087 -0.2407
  511TIP3    H125728   2.546   5.518  17.665 -0.4129  1.8229 -0.7027
  511TIP3    H225729   2.571   5.643  17.746  1.6618  0.0233  1.5835
  512TIP3   OH225730   6.187   0.543  17.662 -0.1445  0.1039  0.0261
  512TIP3    H125731   6.267   0.572  17.705  0.6826 -1.2004 -0.5692
  512TIP3    H225732   6.143   0.490  17.727  0.3653 -0.6361 -0.2224
  513TIP3   OH225733   3.655   2.390  20.538  0.1092  0.3814  0.5790
  513TIP3    H125734   3.745   2.421  20.532  0.4325 -0.4872  0.8480
  513TIP3    H225735   3.602   2.469  20.527  0.8740  0.7613 -0.5697
  514TIP3   OH225736   1.641   1.455  20.175 -0.6554 -0.5100  0.1488
  514TIP3    H125737   1.694   1.452  20.255  0.2371 -1.9807 -0.4601
  514TIP3    H225738   1.567   1.398  20.193 -0.0887 -1.4080 -0.2993
  515TIP3   OH225739   3.567   3.509  17.763  0.1352 -0.2748 -0.3172
  515TIP3    H125740   3.473   3.490  17.756 -0.5154  1.8363  1.6023
  515TIP3    H225741   3.592   3.472  17.848  0.6899  0.4222 -0.1724
  516TIP3   OH225742   3.372   4.493  17.438  0.2118  0.2742  0.0750
  516TIP3    H125743   3.458   4.455  17.455 -0.2513 -0.9030 -0.0846
  516TIP3    H225744   3.362   4.488  17.343 -1.0687 -2.0728  0.2569
  517TIP3   OH225745   3.634   4.728  17.231 -0.3200 -0.7830 -0.6627
  517TIP3    H125746   3.723   4.749  17.203  1.1488 -0.1422  3.6847
  517TIP3    H225747   3.586   4.811  17.224  1.0934  0.3993  1.8648
  518TIP3   OH225748   4.312   2.213  17.269  0.3307  0.1840 -0.1001
  518TIP3    H125749   4.387   2.172  17.226  1.7915  3.0917 -0.5786
  518TIP3    H225750   4.335   2.306  17.273 -1.8058  0.7154  2.8116
  519TIP3   OH225751   4.990   0.750  18.575 -0.5872  0.1310  0.2317
  519TIP3    H125752   5.011   0.692  18.501  1.0125  1.2650 -0.2634
  519TIP3    H225753   5.061   0.735  18.638 -0.5928  0.9673  0.4387
  520TIP3   OH225754   5.440   4.232  19.293  0.4091  0.3724 -0.2421
  520TIP3    H125755   5.363   4.232  19.236 -0.1509 -1.3660  0.4494
  520TIP3    H225756   5.463   4.324  19.302 -1.6978  0.9622 -0.3378
  521TIP3   OH225757   4.153   5.669  17.902 -0.5937 -0.5263 -0.7298
  521TIP3    H125758   4.197   5.734  17.956  0.4372 -0.3234 -1.7750
  521TIP3    H225759   4.061   5.674  17.929 -0.3314  0.5127  0.0446
  522TIP3   OH225760   0.183   3.128  19.990 -1.0295  1.0135 -0.2983
  522TIP3    H125761   0.105   3.157  20.038 -0.6280  2.8808 -0.7018
  522TIP3    H225762   0.155   3.047  19.947 -1.5284 -0.5750  2.7065
  523TIP3   OH225763   0.458   6.362  19.525 -0.2904 -0.3930  0.7786
  523TIP3    H125764   0.426   6.287  19.576  0.0233 -0.0286  1.5365
  523TIP3    H225765   0.421   6.439  19.570  0.5539 -0.0317  0.8753
  524TIP3   OH225766   4.186   0.733  19.250 -0.3007  0.3038  0.2008
  524TIP3    H125767   4.165   0.753  19.159 -0.4673  1.5565  0.4900
  524TIP3    H225768   4.110   0.762  19.300  0.4427  1.1876  0.8826
  525TIP3   OH225769   2.124   0.043  19.870 -0.2368 -0.0958  0.2750
  525TIP3    H125770   2.146   0.087  19.788 -0.7847  0.1703  0.2699
  525TIP3    H225771   2.119  -0.050  19.846  0.0078 -0.0652  0.0953
  526TIP3   OH225772   4.004   6.645  18.546  0.3651 -0.4514 -0.3399
  526TIP3    H125773   4.098   6.662  18.552  0.1116  2.2582 -2.1121
  526TIP3    H225774   3.964   6.713  18.601 -0.5937 -1.4625  0.2502
  527TIP3   OH225775   1.549   6.538  19.821 -0.7315  0.4468 -0.2571
  527TIP3    H125776   1.641   6.567  19.819  0.4487 -2.7473  0.3498
  527TIP3    H225777   1.518   6.563  19.908  0.1934 -0.0095  0.2208
  528TIP3   OH225778   2.028   6.621  17.500  0.4892  0.1969  0.6225
  528TIP3    H125779   1.950   6.642  17.448  0.2992  0.1905  0.9005
  528TIP3    H225780   2.016   6.528  17.523  1.6491 -0.4446 -1.1672
  529TIP3   OH225781   1.331   6.242  18.257 -0.1822 -0.0332 -0.5311
  529TIP3    H125782   1.409   6.297  18.246 -1.7490  2.1938 -1.3453
  529TIP3    H225783   1.354   6.158  18.217  2.2988 -0.0178  0.6884
  530TIP3   OH225784   4.562   5.104  18.072 -0.0635  0.5206 -0.2016
  530TIP3    H125785   4.536   5.175  18.013 -0.6684  1.0535  0.6572
  530TIP3    H225786   4.480   5.080  18.117  0.0460 -1.0471 -0.7980
  531TIP3   OH225787   3.182   6.003  18.834  0.0653 -0.5447  0.2864
  531TIP3    H125788   3.261   6.034  18.789 -0.8466  0.9521 -0.3699
  531TIP3    H225789   3.143   5.940  18.772 -0.5237  0.5725 -0.5247
  532TIP3   OH225790   1.733   0.907  20.093  0.0548  0.0014 -0.3736
  532TIP3    H125791   1.813   0.959  20.081 -0.8017  1.1373 -1.4578
  532TIP3    H225792   1.696   0.900  20.006 -0.6625 -1.1475  0.0131
  533TIP3   OH225793   5.114   2.626  19.028  0.3865 -0.1760 -0.2518
  533TIP3    H125794   5.170   2.696  19.062 -0.0646  0.3755 -0.6179
  533TIP3    H225795   5.070   2.666  18.953  1.1641 -1.2858 -1.3362
  534TIP3   OH225796   5.809   2.958  17.964  0.2832 -0.7988 -0.1848
  534TIP3    H125797   5.725   2.964  18.010  0.9899 -0.9148  1.1760
  534TIP3    H225798   5.785   2.939  17.873 -1.1311 -2.3886  0.4656
  535TIP3   OH225799   5.162   3.380  19.462 -0.0249  0.1276 -0.1396
  535TIP3    H125800   5.209   3.312  19.511 -0.1519 -0.2673 -0.5651
  535TIP3    H225801   5.090   3.405  19.519  0.2432  0.1760  0.1812
  536TIP3   OH225802   5.205   4.829  18.904 -0.5291 -0.3268  0.5028
  536TIP3    H125803   5.259   4.859  18.830 -1.2174 -0.3559 -0.0251
  536TIP3    H225804   5.161   4.751  18.871  0.4794 -1.3681  1.5317
  537TIP3   OH225805   2.556   5.171  20.019  0.5936  0.5874  0.4055
  537TIP3    H125806   2.516   5.253  20.048 -0.6973 -0.0014  0.3659
  537TIP3    H225807   2.489   5.104  20.035 -0.0894  0.1231 -3.5078
  538TIP3   OH225808   1.247   1.678  18.900  0.1021  0.4368  0.1867
  538TIP3    H125809   1.328   1.628  18.902 -0.1741 -0.0409 -0.3011
  538TIP3    H225810   1.276   1.769  18.891  0.6251  0.4555  1.7039
  539TIP3   OH225811   0.134   0.392  19.161 -0.4208 -0.0096  0.5849
  539TIP3    H125812   0.050   0.377  19.204  0.7631 -1.8340  2.4726
  539TIP3    H225813   0.164   0.477  19.193 -1.3012  0.4327  0.2605
  540TIP3   OH225814   2.381   5.950  19.037 -0.1863 -0.1098 -0.9939
  540TIP3    H125815   2.437   5.883  19.076 -0.1562  0.6349  0.2948
  540TIP3    H225816   2.298   5.943  19.084 -0.6054 -0.0648 -1.7116
  541TIP3   OH225817   1.846   3.220  18.736  0.4473  0.4890  0.0192
  541TIP3    H125818   1.928   3.176  18.716  0.7089  1.4228 -1.1070
  541TIP3    H225819   1.830   3.201  18.828  1.7029 -0.0741  0.1396
  542TIP3   OH225820   2.647   2.960  18.837 -0.2606  0.2670 -0.3831
  542TIP3    H125821   2.602   2.943  18.920 -0.7551  0.5636 -0.5839
  542TIP3    H225822   2.651   2.874  18.794 -2.5320  0.5411 -1.2881
  543TIP3   OH225823   1.528   5.008  19.219 -0.7048 -0.3889  0.5338
  543TIP3    H125824   1.617   5.033  19.243 -0.5470 -0.4177 -0.0028
  543TIP3    H225825   1.485   4.988  19.303 -0.2064 -0.3846  0.7956
  544TIP3   OH225826   2.002   6.046  20.079 -0.4363 -0.0802  0.1427
  544TIP3    H125827   2.056   6.084  20.010  1.0987 -0.9813  0.7890
  544TIP3    H225828   1.913   6.077  20.060  0.2907  1.4495 -0.9616
  545TIP3   OH225829   3.921   1.154  19.271  0.3061 -0.0757  0.5527
  545TIP3    H125830   3.899   1.078  19.219  1.4679  0.8365 -1.3670
  545TIP3    H225831   3.848   1.215  19.257 -0.6764 -0.8089  2.1734
  546TIP3   OH225832   2.968   4.015  16.945 -0.1471  0.0789  0.2446
  546TIP3    H125833   3.020   4.057  17.014  0.3752 -1.8666  1.0873
  546TIP3    H225834   3.011   3.931  16.929 -1.5356 -0.4640 -0.9019
  547TIP3   OH225835   5.973   0.199  18.413 -0.6168 -0.4707  0.3801
  547TIP3    H125836   6.021   0.264  18.464 -0.5482  0.5216 -0.9265
  547TIP3    H225837   5.990   0.221  18.322 -0.8425 -2.1390 -0.1016
  548TIP3   OH225838   4.755   6.329  20.078  0.7336 -0.6207 -0.4116
  548TIP3    H125839   4.816   6.260  20.103  2.1748  1.2171  1.5362
  548TIP3    H225840   4.801   6.378  20.010  0.7816 -0.1315 -0.0285
  549TIP3   OH225841   4.018   6.371  20.197 -0.4224 -0.5701  0.2750
  549TIP3    H125842   4.067   6.449  20.221 -0.1860  0.1968 -2.3332
  549TIP3    H225843   4.085   6.302  20.189 -0.4202 -0.6672  1.0786
  550TIP3   OH225844   0.788   1.056  19.754 -0.5204  0.2641  0.3150
  550TIP3    H125845   0.836   1.132  19.788  1.6340 -0.6359 -0.5530
  550TIP3    H225846   0.754   1.086  19.670  0.3477  0.2895 -0.0407
  551TIP3   OH225847   1.680   5.315  17.359 -0.9484  0.2533 -0.4517
  551TIP3    H125848   1.667   5.362  17.277 -1.7815  0.7095 -0.0687
  551TIP3    H225849   1.765   5.344  17.390 -1.7182  2.0093  0.0890
  552TIP3   OH225850   1.302   2.301  18.410  0.2683 -0.5887  0.2726
  552TIP3    H125851   1.336   2.276  18.324 -3.4136 -0.2091 -1.4603
  552TIP3    H225852   1.262   2.387  18.396  2.6813  1.2607  3.3449
  553TIP3   OH225853   1.482   5.712  18.833 -0.2155 -0.4994 -0.5023
  553TIP3    H125854   1.485   5.726  18.928  0.4517 -0.0786 -0.5770
  553TIP3    H225855   1.389   5.704  18.813 -0.3231 -1.3690  0.2924
  554TIP3   OH225856   4.059   4.731  18.951  0.1350 -0.5574  0.4119
  554TIP3    H125857   4.073   4.796  18.882  1.5014 -0.7164  0.5075
  554TIP3    H225858   4.037   4.783  19.029 -3.1076 -0.4323 -0.4201
  555TIP3   OH225859   3.289   0.393  18.985 -0.0209  0.3026 -0.2652
  555TIP3    H125860   3.214   0.386  19.044  2.1636  0.6386  2.8603
  555TIP3    H225861   3.313   0.302  18.965 -1.8212  0.1946 -2.2475
  556TIP3   OH225862   3.014   5.059  18.191 -0.4613 -0.2444 -0.0215
  556TIP3    H125863   3.060   5.075  18.273 -2.3394 -1.3636  1.3639
  556TIP3    H225864   3.054   5.118  18.128  0.8321  0.9076  1.7836
  557TIP3   OH225865   2.536   2.987  17.720  0.0893  0.4680  0.2327
  557TIP3    H125866   2.618   2.971  17.674  0.5028 -1.4130  1.5079
  557TIP3    H225867   2.560   3.044  17.793  0.1852  0.2353  0.3832
  558TIP3   OH225868   1.181   0.032  19.862  0.2266 -0.0242  0.1219
  558TIP3    H125869   1.266   0.068  19.837 -0.8057  2.4015 -0.2138
  558TIP3    H225870   1.199  -0.022  19.939  2.1373 -0.0742 -0.3163
  559TIP3   OH225871   1.689   5.524  19.178  0.6849 -0.2717  0.1985
  559TIP3    H125872   1.755   5.463  19.145 -0.8323 -1.4848 -0.7460
  559TIP3    H225873   1.611   5.505  19.126  0.2408  2.8254 -0.4650
  560TIP3   OH225874   2.963   5.479  19.748 -0.0376 -0.2683  0.8591
  560TIP3    H125875   3.012   5.548  19.793  0.0044 -0.2864  0.8420
  560TIP3    H225876   2.901   5.447  19.812 -1.8021  1.4951  0.1215
  561TIP3   OH225877   1.097   0.499  18.331 -0.3096  0.0653  0.2886
  561TIP3    H125878   1.090   0.553  18.252 -1.1998 -2.0598 -1.2144
  561TIP3    H225879   1.027   0.434  18.321  0.9821 -1.6490  1.6855
  562TIP3   OH225880   6.309   1.286  18.845 -0.7484  0.6465 -0.0899
  562TIP3    H125881   6.319   1.334  18.763  1.9319  1.8712  0.8510
  562TIP3    H225882   6.292   1.353  18.911  0.4332  0.0581  0.8550
  563TIP3   OH225883   2.016   3.563  20.403 -0.1054  0.3553  0.2239
  563TIP3    H125884   2.042   3.641  20.452  0.9008 -0.5709  1.2286
  563TIP3    H225885   2.098   3.516  20.388 -1.0229 -2.3651  2.9147
  564TIP3   OH225886   5.721   4.615  19.345 -0.4476 -0.0681  0.2255
  564TIP3    H125887   5.776   4.682  19.384  0.4479 -1.6050  1.7305
  564TIP3    H225888   5.768   4.588  19.266  1.2018 -1.5504  1.6306
  565TIP3   OH225889   6.229   1.203  19.541  0.2118 -0.1623  0.0737
  565TIP3    H125890   6.190   1.245  19.617  0.6483 -1.6319  1.1672
  565TIP3    H225891   6.225   1.269  19.472  0.2121  1.3686  1.4829
  566TIP3   OH225892   4.488   5.189  19.338 -0.3601  0.1570 -0.0648
  566TIP3    H125893   4.398   5.163  19.316 -1.3871  2.7944  0.6725
  566TIP3    H225894   4.488   5.196  19.433  1.1723 -1.4144  0.1035
  567TIP3   OH225895   0.965   3.236  19.520  0.4960 -0.0465 -0.2376
  567TIP3    H125896   0.987   3.308  19.462  2.5051 -0.0916  0.4047
  567TIP3    H225897   0.924   3.278  19.596  0.5952  0.3087 -0.3806
  568TIP3   OH225898   2.568   3.752  18.205  0.2054  0.1893  0.1292
  568TIP3    H125899   2.482   3.726  18.237  0.7872 -1.0982  0.7201
  568TIP3    H225900   2.557   3.761  18.110 -0.5941  0.1648  0.2131
  569TIP3   OH225901   4.964   3.018  17.635 -0.0878 -0.3120  0.2330
  569TIP3    H125902   5.032   2.953  17.647  1.1837  0.7581 -0.8841
  569TIP3    H225903   4.955   3.027  17.540 -0.0672  1.2918  0.3498
  570TIP3   OH225904   1.688   2.706  19.335 -0.1110  0.4348 -0.0906
  570TIP3    H125905   1.782   2.694  19.323  0.6053  4.0970  0.7221
  570TIP3    H225906   1.673   2.684  19.427  0.0740  0.3388 -0.0829
  571TIP3   OH225907   4.936   4.620  17.948  0.2964 -0.3160 -0.0448
  571TIP3    H125908   4.910   4.663  17.866  0.4921  1.2219  0.6736
  571TIP3    H225909   5.028   4.600  17.935  0.3279 -0.0799 -0.2079
  572TIP3   OH225910   0.945   0.572  18.980  0.7710 -0.2085 -0.3054
  572TIP3    H125911   0.951   0.660  19.018 -0.7429 -0.9070  1.7076
  572TIP3    H225912   0.852   0.552  18.979  1.1510 -2.3646  0.7156
  573TIP3   OH225913   4.051   1.360  19.793  0.1855 -0.4272  0.0731
  573TIP3    H125914   4.007   1.446  19.794  0.6913 -0.1638 -0.2136
  573TIP3    H225915   3.979   1.297  19.801 -0.1615  0.0336  0.7612
  574TIP3   OH225916   6.195   1.866  18.227  0.0724 -0.0700 -0.4255
  574TIP3    H125917   6.218   1.866  18.320  2.1023  0.0861 -0.8657
  574TIP3    H225918   6.205   1.775  18.200  1.3081  0.1724 -0.8552
  575TIP3   OH225919   0.096   1.502  18.452  0.5912 -0.1209  0.3995
  575TIP3    H125920   0.188   1.525  18.440  1.0109 -1.2193  1.2972
  575TIP3    H225921   0.098   1.412  18.486 -0.8718 -1.0422 -1.7100
  576TIP3   OH225922   2.037   2.937  17.900 -0.0881  0.2862 -0.6365
  576TIP3    H125923   2.022   3.020  17.857 -1.2759  0.4476  0.0368
  576TIP3    H225924   2.132   2.930  17.907  0.0576  2.8796  1.7059
  577TIP3   OH225925   1.425   6.035  20.112 -0.1203 -0.1173  0.0570
  577TIP3    H125926   1.448   6.109  20.055  1.0247 -1.1714 -0.9212
  577TIP3    H225927   1.460   6.059  20.198 -1.2345  1.1882  0.1755
  578TIP3   OH225928   2.394   2.783  20.153 -0.3963  0.0219 -0.2566
  578TIP3    H125929   2.337   2.855  20.180 -0.7089 -0.0564 -0.6874
  578TIP3    H225930   2.346   2.741  20.081  0.3177  0.1185 -0.8048
  579TIP3   OH225931   1.998   6.398  18.198 -0.3756  0.7265  0.1666
  579TIP3    H125932   1.984   6.414  18.291 -0.9041  1.8684 -0.0978
  579TIP3    H225933   1.920   6.433  18.155  0.0620  0.6183 -0.7433
  580TIP3   OH225934   2.837   3.644  18.423 -0.1995  0.0244  0.1901
  580TIP3    H125935   2.899   3.571  18.433  0.1223  0.3927  0.9784
  580TIP3    H225936   2.754   3.602  18.400 -0.0588 -0.6080  0.8104
  581TIP3   OH225937   0.077   2.387  16.180  0.5076  0.4191  0.0166
  581TIP3    H125938   0.136   2.356  16.249  1.2315  1.0527 -0.3045
  581TIP3    H225939   0.112   2.351  16.099 -0.6994 -0.8397  0.0092
  582TIP3   OH225940   2.757   0.380  18.992  0.0510  0.2133  0.2335
  582TIP3    H125941   2.686   0.356  19.051  0.2370 -2.0733 -0.3899
  582TIP3    H225942   2.826   0.316  19.008  0.7214  0.4657 -1.3741
  583TIP3   OH225943   5.144   0.299  17.030 -0.0822  0.3980 -0.0377
  583TIP3    H125944   5.227   0.275  17.071  0.5041 -0.5496 -1.6755
  583TIP3    H225945   5.157   0.388  17.000  0.2741  0.3186 -0.1211
  584TIP3   OH225946   6.003   3.758  18.451 -0.6050  0.0304 -0.2421
  584TIP3    H125947   5.918   3.721  18.476 -1.1882  0.7251 -1.1462
  584TIP3    H225948   6.062   3.682  18.446 -0.1586 -0.1666  4.0253
  585TIP3   OH225949   2.678   2.472  20.005  0.3586 -0.2178  0.0220
  585TIP3    H125950   2.715   2.537  20.065  2.2837 -2.1413  1.0156
  585TIP3    H225951   2.737   2.397  20.010 -1.6178 -1.9826 -1.2950
  586TIP3   OH225952   5.575   5.195  18.329  0.7318  0.5210  0.0007
  586TIP3    H125953   5.544   5.233  18.247  2.1189 -0.1735 -0.8922
  586TIP3    H225954   5.625   5.118  18.302  1.0570  0.1683  1.5169
  587TIP3   OH225955   4.762   2.614  20.061 -0.0062  0.1249  0.1044
  587TIP3    H125956   4.760   2.595  19.968 -2.2342  0.1755  0.1011
  587TIP3    H225957   4.671   2.613  20.088  0.5029  1.3205  2.0571
  588TIP3   OH225958   3.343   5.456  19.058  0.3515  0.2994 -0.5905
  588TIP3    H125959   3.316   5.476  19.148 -0.6037  0.2524 -0.8598
  588TIP3    H225960   3.439   5.457  19.061  0.3333 -0.0840  0.5165
  589TIP3   OH225961   4.380   0.915  19.066  0.2762 -0.1196 -0.6505
  589TIP3    H125962   4.438   0.856  19.019  2.4690 -0.2941  2.0625
  589TIP3    H225963   4.435   0.955  19.133 -2.3463  1.0797  0.9387
  590TIP3   OH225964   5.068   5.879  18.115 -0.5170 -0.5908 -0.1107
  590TIP3    H125965   5.097   5.847  18.200  1.0457  0.8351 -0.0394
  590TIP3    H225966   4.981   5.914  18.130 -0.6298 -1.2013  0.6792
  591TIP3   OH225967   2.126   0.415  19.251  0.0587  0.6759  0.1887
  591TIP3    H125968   2.172   0.342  19.292  1.8416  2.5382  1.7342
  591TIP3    H225969   2.156   0.414  19.160 -2.7455 -2.5754 -0.8833
  592TIP3   OH225970   4.066   5.522  18.895 -0.5320  0.0437 -0.8018
  592TIP3    H125971   4.152   5.530  18.854  0.5859  0.0088  1.3879
  592TIP3    H225972   4.044   5.612  18.921 -0.0328 -0.2287  0.6844
  593TIP3   OH225973   5.156   4.547  18.867  0.0505  0.2504 -0.0232
  593TIP3    H125974   5.184   4.498  18.790  0.3601 -0.8332  0.7505
  593TIP3    H225975   5.236   4.592  18.897  0.4483 -0.9722  0.8294
  594TIP3   OH225976   1.250   2.523  20.015 -0.2421  0.3106  0.0884
  594TIP3    H125977   1.174   2.548  19.964  0.8217  0.3956 -1.5153
  594TIP3    H225978   1.322   2.519  19.952  0.6109 -2.1695  1.0725
  595TIP3   OH225979   2.470   3.986  20.186 -0.0334 -0.0267 -0.4960
  595TIP3    H125980   2.420   4.009  20.108 -0.9165  1.1430  0.3858
  595TIP3    H225981   2.506   3.900  20.166 -1.1574 -0.2451 -1.7503
  596TIP3   OH225982   0.598   3.134  17.236  0.5572  0.3761 -0.9313
  596TIP3    H125983   0.654   3.187  17.179 -0.6145  0.7954 -1.7322
  596TIP3    H225984   0.584   3.053  17.186  0.2782  0.3601 -0.8260
  597TIP3   OH225985   3.225   4.190  17.811 -0.1165  0.2670 -0.3672
  597TIP3    H125986   3.257   4.138  17.884  0.9182 -1.2396 -1.8493
  597TIP3    H225987   3.264   4.151  17.734 -2.0775  1.0982 -1.8716
  598TIP3   OH225988   3.617   1.822  20.058  0.1376  0.3493  0.0236
  598TIP3    H125989   3.612   1.731  20.032  3.1195 -0.4606  1.7930
  598TIP3    H225990   3.544   1.864  20.013 -1.8491 -3.0085 -0.1987
  599TIP3   OH225991   6.679   6.588  20.195  0.2088  0.3572 -0.1211
  599TIP3    H125992   6.623   6.652  20.239  0.1016 -0.7955  1.5286
  599TIP3    H225993   6.716   6.635  20.121 -0.1664  2.2008  0.8081
  600TIP3   OH225994   5.190   0.246  18.334  0.7423 -0.0672  0.4295
  600TIP3    H125995   5.236   0.295  18.266 -0.2409  0.2192 -0.0358
  600TIP3    H225996   5.237   0.268  18.415  0.0262  2.0537  0.3111
  601TIP3   OH225997   6.595   4.553  19.756 -0.0004 -0.1735 -0.2740
  601TIP3    H125998   6.661   4.527  19.821 -1.2432 -0.5946  0.8723
  601TIP3    H225999   6.643   4.606  19.693  1.1715  0.6952  1.2742
  602TIP3   OH226000   3.962   3.366  17.956 -0.1987  0.0852  0.4222
  602TIP3    H126001   4.038   3.309  17.944 -1.0474 -0.9815 -0.0458
  602TIP3    H226002   3.953   3.412  17.873 -2.4659 -2.8439 -1.1482
  603TIP3   OH226003   4.145   0.403  18.127  0.3222  0.5349 -0.4997
  603TIP3    H126004   4.065   0.419  18.077 -0.2945  0.0500  0.3049
  603TIP3    H226005   4.173   0.490  18.157 -1.1397  0.5320  1.0360
  604TIP3   OH226006   4.132   2.208  17.615  0.0728  0.1805  0.3852
  604TIP3    H126007   4.125   2.121  17.576  0.1436  1.0147 -1.6274
  604TIP3    H226008   4.098   2.267  17.548  0.0471  1.7148  1.6897
  605TIP3   OH226009   4.505   6.431  17.464  0.0052 -0.1012 -0.3260
  605TIP3    H126010   4.593   6.395  17.450  0.2902  0.6121 -0.4176
  605TIP3    H226011   4.520   6.514  17.508 -0.6391 -0.0423 -0.2120
  606TIP3   OH226012   0.962   5.685  19.190  0.0081 -0.0008  0.2933
  606TIP3    H126013   0.905   5.761  19.174  1.8780  0.8345 -3.9074
  606TIP3    H226014   0.933   5.620  19.127  1.1465 -1.0954  0.8619
  607TIP3   OH226015   5.482   2.019  19.677  0.1467 -0.2109  0.1938
  607TIP3    H126016   5.573   2.049  19.686 -0.1815  0.4687  1.6564
  607TIP3    H226017   5.445   2.029  19.765 -0.5356 -3.2479  0.3891
  608TIP3   OH226018   4.766   1.249  17.170  0.8276  0.2338 -0.4064
  608TIP3    H126019   4.814   1.189  17.114 -0.3805 -1.7356  0.5566
  608TIP3    H226020   4.821   1.259  17.247  0.5383 -0.5794 -0.0822
  609TIP3   OH226021   3.559   2.873  17.580  0.3832 -0.7403 -0.4280
  609TIP3    H126022   3.631   2.810  17.572  0.8624 -0.4210  1.0643
  609TIP3    H226023   3.572   2.913  17.666 -1.9887 -1.1790  0.2024
  610TIP3   OH226024   0.141   6.582  17.255 -0.1113  0.4913 -0.5002
  610TIP3    H126025   0.120   6.631  17.176  1.1285  0.7696 -0.6660
  610TIP3    H226026   0.062   6.530  17.272  0.0357 -0.5078 -2.6205
  611TIP3   OH226027   2.455   4.940  19.676  0.5033  0.0060 -0.0386
  611TIP3    H126028   2.422   4.971  19.760 -0.7058 -0.9295 -0.1286
  611TIP3    H226029   2.390   4.875  19.648  0.8625  0.3226 -1.7099
  612TIP3   OH226030   0.494   1.013  18.902 -0.5424 -0.0204  0.0611
  612TIP3    H126031   0.550   0.956  18.850  0.2534  0.6665  0.1373
  612TIP3    H226032   0.536   1.017  18.988 -1.1731 -0.1625  0.3866
  613TIP3   OH226033   5.176   2.706  16.482  0.4515 -1.0444 -0.3294
  613TIP3    H126034   5.217   2.790  16.505  1.5219 -1.6810  0.1710
  613TIP3    H226035   5.239   2.640  16.511 -1.3433 -2.1344  1.3315
  614TIP3   OH226036   1.901   6.095  19.266  0.5713  0.1721  0.4231
  614TIP3    H126037   1.821   6.133  19.303  0.3504 -0.6091  0.7763
  614TIP3    H226038   1.924   6.025  19.327  0.0774 -1.3157 -1.0180
  615TIP3   OH226039   4.757   0.117  19.853 -0.2929  0.0291 -0.5507
  615TIP3    H126040   4.766   0.099  19.760 -2.2844  3.0881 -1.5029
  615TIP3    H226041   4.840   0.160  19.878  0.5200 -1.4173 -0.6746
  616TIP3   OH226042   2.315   3.941  17.535  0.0827  0.0171 -0.9138
  616TIP3    H126043   2.385   3.877  17.549 -1.0997 -1.1361 -0.0662
  616TIP3    H226044   2.256   3.899  17.472 -2.2740 -1.1616  1.8237
  617TIP3   OH226045   3.430   0.905  18.038  0.0182  0.3334  0.2235
  617TIP3    H126046   3.492   0.934  17.971 -0.9796 -0.8017 -1.2737
  617TIP3    H226047   3.444   0.810  18.045 -0.7084  0.2471  0.7417
  618TIP3   OH226048   5.150   0.479  19.598  0.0340 -0.1396  0.0015
  618TIP3    H126049   5.080   0.420  19.626 -1.0686  1.2075  0.1652
  618TIP3    H226050   5.170   0.452  19.509 -1.7599  0.3897 -0.5926
  619TIP3   OH226051   1.322   0.309  18.080 -0.0015 -0.6821  0.5994
  619TIP3    H126052   1.360   0.224  18.103  3.3153  0.4258 -0.2169
  619TIP3    H226053   1.318   0.308  17.984  0.4696  0.2011  0.5585
  620TIP3   OH226054   0.037   4.633  18.245 -0.0084  0.0581  0.5728
  620TIP3    H126055   0.127   4.619  18.273  0.2558 -3.4541 -1.4661
  620TIP3    H226056  -0.015   4.575  18.300 -1.0225  1.5279  1.2470
  621TIP3   OH226057   6.646   3.488  20.185  0.0774  0.4257 -1.0710
  621TIP3    H126058   6.554   3.512  20.194 -0.5029 -1.2885 -2.1015
  621TIP3    H226059   6.661   3.425  20.256  1.4916  3.2632  1.3785
  622TIP3   OH226060   0.975   1.470  20.189 -0.2382  0.3452  0.4466
  622TIP3    H126061   0.929   1.548  20.219 -0.0633  1.1971 -1.3504
  622TIP3    H226062   0.924   1.440  20.114  1.9737  1.2491 -1.5477
  623TIP3   OH226063   1.359   2.102  17.929 -0.1771 -0.2741 -0.1475
  623TIP3    H126064   1.418   2.148  17.869  1.4337 -1.7847  0.1891
  623TIP3    H226065   1.358   2.011  17.897 -2.5573 -0.2590 -0.2799
  624TIP3   OH226066   4.700   1.997  17.466 -0.0681 -0.3538 -0.0768
  624TIP3    H126067   4.676   1.976  17.556  0.3076 -0.9356 -0.1073
  624TIP3    H226068   4.641   2.068  17.442  1.1889  1.2297  1.2944
  625TIP3   OH226069   1.642   1.326  18.689 -0.2285 -0.0348  0.1483
  625TIP3    H126070   1.570   1.290  18.638 -1.0122  1.9401 -0.2195
  625TIP3    H226071   1.687   1.384  18.628  1.2633 -0.6624  0.5982
  626TIP3   OH226072   1.324   3.207  19.949 -0.5803  0.0076  0.6941
  626TIP3    H126073   1.257   3.172  19.890  0.7465  1.2464 -1.6745
  626TIP3    H226074   1.393   3.140  19.949 -0.3095  0.2766  0.2880
  627TIP3   OH226075   2.809   3.500  17.708 -0.2134  0.2176  0.1095
  627TIP3    H126076   2.862   3.431  17.747  0.6812  0.4083 -0.7262
  627TIP3    H226077   2.732   3.507  17.766 -0.9118 -2.2389 -0.3886
  628TIP3   OH226078   0.069   0.076  19.127  0.6145  0.1433 -0.0366
  628TIP3    H126079   0.123   0.003  19.156  2.7076  1.5769 -0.1601
  628TIP3    H226080   0.113   0.154  19.160 -1.3107  1.4051 -0.2859
  629TIP3   OH226081   2.543   0.285  20.021 -0.1303  0.0944 -0.2714
  629TIP3    H126082   2.536   0.305  19.928 -1.3335 -0.6558 -0.3617
  629TIP3    H226083   2.477   0.341  20.063 -1.7147 -1.7087 -0.2418
  630TIP3   OH226084   6.361   3.470  20.272  0.4538 -0.5346 -0.1129
  630TIP3    H126085   6.378   3.399  20.333  0.0031  0.1640  0.8467
  630TIP3    H226086   6.270   3.457  20.245 -0.2403  0.6946  1.4872
  631TIP3   OH226087   3.546   1.190  19.833 -0.6361 -0.1764 -0.2905
  631TIP3    H126088   3.582   1.261  19.779 -0.6183 -0.1154 -0.1987
  631TIP3    H226089   3.453   1.187  19.812 -0.4657 -0.7494 -1.0011
  632TIP3   OH226090   0.426   5.640  18.458  0.3359  0.3586  0.0952
  632TIP3    H126091   0.412   5.567  18.397 -1.4277  0.3764  0.4094
  632TIP3    H226092   0.379   5.713  18.417  0.8760  0.9278  0.4815
  633TIP3   OH226093   2.397   0.837  17.399 -0.5045 -0.0338 -0.3473
  633TIP3    H126094   2.339   0.773  17.357 -0.5582 -1.0414  1.1929
  633TIP3    H226095   2.442   0.788  17.467 -0.8062  1.6373  1.1379
  634TIP3   OH226096   1.915   6.315  19.521  0.2346  0.2920  0.4433
  634TIP3    H126097   1.954   6.249  19.463  0.6695  0.7852  0.1658
  634TIP3    H226098   1.913   6.395  19.468  1.7488  1.0683  1.4913
  635TIP3   OH226099   1.125   1.577  17.075 -0.0114  0.1381 -0.1263
  635TIP3    H126100   1.134   1.670  17.054 -1.7903  0.5381  0.7500
  635TIP3    H226101   1.104   1.536  16.991 -0.4774  0.7171 -0.3009
  636TIP3   OH226102   2.348   4.836  18.624  0.0665  0.1443 -0.0303
  636TIP3    H126103   2.298   4.909  18.660  0.4467 -0.2085  1.2513
  636TIP3    H226104   2.331   4.840  18.530 -2.6941 -0.2024  0.3755
  637TIP3   OH226105   6.057   3.727  18.896 -0.3695 -0.3670  0.2911
  637TIP3    H126106   5.965   3.741  18.874  0.0862 -0.2942 -1.7802
  637TIP3    H226107   6.072   3.782  18.973 -1.8227  0.3473  0.0992
  638TIP3   OH226108   3.549   6.380  18.749 -0.1715  0.2099  0.4486
  638TIP3    H126109   3.514   6.361  18.662 -1.4636  3.1484  0.2391
  638TIP3    H226110   3.507   6.314  18.805 -1.4306 -0.0515 -0.7266
  639TIP3   OH226111   1.080   2.187  19.047  0.0815 -0.2942  0.2157
  639TIP3    H126112   1.029   2.267  19.031 -0.7354 -0.8048  0.2226
  639TIP3    H226113   1.115   2.199  19.136 -0.5068 -0.1874  0.4364
  640TIP3   OH226114   1.180   2.179  19.342 -0.2151 -0.4095  0.6373
  640TIP3    H126115   1.224   2.187  19.427 -1.7339 -0.3010  1.4396
  640TIP3    H226116   1.130   2.260  19.333  1.1383  0.2920 -1.1237
  641TIP3   OH226117   4.835   5.076  19.123  0.0485 -0.4736  0.3585
  641TIP3    H126118   4.753   5.045  19.083 -0.5628  0.5480  0.7991
  641TIP3    H226119   4.899   5.008  19.100 -0.5205 -0.4595 -1.4380
  642TIP3   OH226120   4.074   3.771  18.739 -0.0684 -0.2586  0.0309
  642TIP3    H126121   4.044   3.688  18.701 -1.0353  0.4901 -0.9076
  642TIP3    H226122   4.125   3.811  18.670 -0.5540  0.4290  0.0584
  643TIP3   OH226123   0.365   0.793  18.352 -0.9781  0.3997  0.0358
  643TIP3    H126124   0.357   0.697  18.356 -1.4248  0.3629 -1.3210
  643TIP3    H226125   0.293   0.821  18.296  1.1349  1.2002 -2.4659
  644TIP3   OH226126   0.865   0.498  17.084 -0.1364  0.1250 -0.1259
  644TIP3    H126127   0.831   0.579  17.122  0.1972 -0.4924  1.5682
  644TIP3    H226128   0.913   0.456  17.155  0.6793 -1.0159 -1.2970
  645TIP3   OH226129   2.082   1.104  17.288 -0.3742 -0.2674  0.2392
  645TIP3    H126130   2.146   1.096  17.359  0.5593  0.0085 -0.5441
  645TIP3    H226131   2.012   1.044  17.312  0.3240 -0.8134  0.9726
  646TIP3   OH226132   6.171   1.974  18.601  0.0302  0.0558  0.0887
  646TIP3    H126133   6.152   2.047  18.660 -1.6866 -0.3492  0.1078
  646TIP3    H226134   6.223   1.914  18.654 -0.1471  0.4222  0.6883
  647TIP3   OH226135   1.320   5.199  19.390 -0.7442 -0.3661  0.1915
  647TIP3    H126136   1.351   5.196  19.299  0.0547 -2.1366  0.4785
  647TIP3    H226137   1.226   5.183  19.384 -0.2464 -4.0245 -0.2050
  648TIP3   OH226138   0.389   2.892  17.935 -0.3498 -0.0028 -0.9285
  648TIP3    H126139   0.322   2.855  17.992 -0.5793  0.5545 -0.8283
  648TIP3    H226140   0.446   2.818  17.914  0.5721  0.0369  1.1726
  649TIP3   OH226141   3.511   2.789  19.546 -0.0696  0.0585  0.1177
  649TIP3    H126142   3.567   2.859  19.513  0.3756 -0.9349 -1.3071
  649TIP3    H226143   3.489   2.737  19.469 -0.8259 -1.0795  1.0622
  650TIP3   OH226144   0.937   5.354  17.516  0.4978  0.2641 -0.6496
  650TIP3    H126145   1.032   5.351  17.505  0.4990  0.6071 -0.7565
  650TIP3    H226146   0.912   5.443  17.490  0.3776  0.8044  1.1584
  651TIP3   OH226147   6.464   5.696  17.633 -0.8002 -0.3192 -0.2914
  651TIP3    H126148   6.399   5.654  17.576  0.6319 -3.0790 -0.0574
  651TIP3    H226149   6.470   5.638  17.709  0.7873  0.7123  0.4172
  652TIP3   OH226150   3.449   6.584  17.906 -0.0241 -0.5444  0.0816
  652TIP3    H126151   3.366   6.614  17.942 -0.5247 -1.9924  0.2202
  652TIP3    H226152   3.473   6.650  17.841 -0.7584  0.4155  0.7741
  653TIP3   OH226153   1.795   2.825  19.893  0.1887  0.2271  0.1629
  653TIP3    H126154   1.747   2.776  19.959  0.1736  1.3307  1.0064
  653TIP3    H226155   1.883   2.786  19.894  0.2193  0.3045  0.9184
  654TIP3   OH226156   2.057   0.739  16.349 -0.5186  0.4091  0.6328
  654TIP3    H126157   1.986   0.703  16.297  0.2476 -0.0610 -0.1030
  654TIP3    H226158   2.132   0.743  16.290  0.3550 -0.0543  1.6565
  655TIP3   OH226159   0.470   6.489  19.100  0.4069 -0.5493 -0.3721
  655TIP3    H126160   0.506   6.541  19.028 -0.2938 -2.5591 -2.2876
  655TIP3    H226161   0.544   6.436  19.130  0.5777 -0.0671  0.0702
  656TIP3   OH226162   1.971   2.143  19.720 -0.4792 -0.3669  0.1197
  656TIP3    H126163   2.050   2.141  19.773 -1.0560 -0.3231  1.0015
  656TIP3    H226164   1.998   2.186  19.638  0.2600  0.2112  0.6514
  657TIP3   OH226165   0.901   1.834  19.113 -0.4584 -0.0385  0.1250
  657TIP3    H126166   0.964   1.885  19.163  3.3172 -1.1061 -3.0451
  657TIP3    H226167   0.879   1.889  19.038 -2.3716 -0.2139  0.5068
  658TIP3   OH226168   4.067   4.049  18.566 -0.1673  0.0945  0.2287
  658TIP3    H126169   4.129   4.005  18.508 -0.2316 -1.1622  1.0587
  658TIP3    H226170   4.120   4.078  18.641  0.1458  2.8190 -0.9496
  659TIP3   OH226171   4.272   3.857  19.362 -0.6670 -0.3760 -0.0612
  659TIP3    H126172   4.333   3.883  19.432  0.0591  0.3189 -0.9150
  659TIP3    H226173   4.316   3.785  19.317 -0.6689 -0.1658 -0.4075
  660TIP3   OH226174   0.644   1.861  18.446 -0.5366  0.3924 -0.2857
  660TIP3    H126175   0.689   1.777  18.451 -0.4492  0.4189 -0.5972
  660TIP3    H226176   0.606   1.862  18.359 -0.7173  0.5850 -0.2045
  661TIP3   OH226177   4.509   1.473  18.843 -0.7494 -0.2003  0.1097
  661TIP3    H126178   4.536   1.501  18.930 -0.2718 -1.3211  0.3312
  661TIP3    H226179   4.497   1.555  18.794  0.1898  0.4021  0.8624
  662TIP3   OH226180   3.230   0.623  20.255  0.2529 -0.2718  0.1059
  662TIP3    H126181   3.159   0.634  20.318  0.3691  0.1047  0.1757
  662TIP3    H226182   3.238   0.528  20.243 -0.4220 -0.3132 -0.0877
  663TIP3   OH226183   5.254   5.606  17.303 -0.2176 -0.3499 -0.0841
  663TIP3    H126184   5.338   5.643  17.329 -1.2116  2.0861 -0.0352
  663TIP3    H226185   5.228   5.551  17.377  1.8359 -2.1536 -0.6199
  664TIP3   OH226186   1.828   4.316  19.092  0.0436 -0.4840 -0.2922
  664TIP3    H126187   1.920   4.316  19.119  0.4768 -1.7628 -1.6487
  664TIP3    H226188   1.803   4.408  19.092  1.4970 -0.0732 -0.4727
  665TIP3   OH226189   3.661   1.367  19.669 -0.2695 -0.2090 -0.5383
  665TIP3    H126190   3.703   1.308  19.607 -1.3393 -1.8715  0.2516
  665TIP3    H226191   3.571   1.376  19.636 -0.6104 -0.4522  0.2917
  666TIP3   OH226192   4.729   4.305  18.983 -0.2682 -0.1986 -0.2913
  666TIP3    H126193   4.746   4.391  18.945 -1.6764  0.8889  1.3854
  666TIP3    H226194   4.724   4.246  18.908  1.1912  1.0700 -1.4475
  667TIP3   OH226195   5.643   5.610  16.907  0.2181  0.3327  0.3181
  667TIP3    H126196   5.629   5.694  16.863  0.3649  1.2246  1.8819
  667TIP3    H226197   5.623   5.544  16.841  1.1231  1.5882 -1.2771
  668TIP3   OH226198   0.792   6.530  19.287  0.5669 -0.0463  0.1603
  668TIP3    H126199   0.785   6.492  19.199  0.8229 -1.0945  0.5826
  668TIP3    H226200   0.708   6.575  19.299  0.6683  0.4283 -0.7541
  669TIP3   OH226201   0.363   4.462  18.181  0.0598 -0.0514  0.1104
  669TIP3    H126202   0.374   4.494  18.092 -0.1661  0.3350  0.2221
  669TIP3    H226203   0.347   4.540  18.234 -1.3989 -0.4107  0.2358
  670TIP3   OH226204   1.744   6.268  18.583 -0.4319 -0.1476  0.1705
  670TIP3    H126205   1.651   6.245  18.585 -0.2119 -1.1232 -0.0778
  670TIP3    H226206   1.776   6.246  18.671 -0.7117  1.4825  0.7045
  671TIP3   OH226207   4.159   4.178  18.076 -0.3156  0.0814 -0.8254
  671TIP3    H126208   4.162   4.238  18.002  0.4593  0.3857 -0.5566
  671TIP3    H226209   4.081   4.204  18.125 -2.0157 -1.3958 -2.5654
  672TIP3   OH226210   1.552   2.415  18.160 -0.4948 -0.1432  0.2854
  672TIP3    H126211   1.558   2.334  18.109  1.1300  0.2726 -0.2135
  672TIP3    H226212   1.642   2.440  18.178 -0.9441  1.7506  0.1529
  673TIP3   OH226213   0.829   1.208  17.937 -0.1244  0.2129  0.1883
  673TIP3    H126214   0.770   1.275  17.972  0.6376  1.3771 -0.6993
  673TIP3    H226215   0.893   1.195  18.007 -0.5536  0.0458  0.5577
  674TIP3   OH226216   3.899   2.476  19.538 -0.4056  0.3913  0.9250
  674TIP3    H126217   3.837   2.540  19.572 -1.2710 -0.1447  0.4089
  674TIP3    H226218   3.843   2.407  19.500  0.4774  0.8173 -1.3020
  675TIP3   OH226219   3.575   5.492  19.467 -0.3510  0.2185 -0.0445
  675TIP3    H126220   3.563   5.586  19.479 -0.7811  0.2326 -0.5429
  675TIP3    H226221   3.637   5.485  19.395  0.2619  0.1192  0.4822
  676TIP3   OH226222   6.655   1.198  20.211  0.3177  0.8919  0.3842
  676TIP3    H126223   6.694   1.138  20.148  0.0850 -0.0974  1.1622
  676TIP3    H226224   6.583   1.149  20.249 -0.0474  1.7683  0.8500
  677TIP3   OH226225   6.091   6.580  19.077 -0.0770  0.2492  0.5339
  677TIP3    H126226   6.092   6.539  19.164  0.4115 -0.2527  0.3003
  677TIP3    H226227   6.156   6.531  19.027  1.0886  1.8203  0.4526
  678TIP3   OH226228   4.068   2.002  19.749  0.0877  0.0911  0.6016
  678TIP3    H126229   3.993   1.971  19.798 -0.7627  0.3205 -0.5166
  678TIP3    H226230   4.110   1.922  19.716 -0.7800  0.0052 -0.3534
  679TIP3   OH226231   1.667   5.140  16.747 -0.3999 -0.5577 -0.7534
  679TIP3    H126232   1.746   5.192  16.729 -0.8948  0.5304  0.0768
  679TIP3    H226233   1.664   5.075  16.677  0.4189  0.3509 -1.6649
  680TIP3   OH226234   4.583   5.844  19.326 -0.2777 -0.2623  0.0980
  680TIP3    H126235   4.536   5.809  19.401  0.4729 -0.6880  0.3849
  680TIP3    H226236   4.659   5.786  19.316  0.2143  0.4348 -0.3148
  681TIP3   OH226237   3.128   4.560  19.346 -0.0593 -0.5914  0.1695
  681TIP3    H126238   3.112   4.534  19.255  0.4672 -1.5925  0.3502
  681TIP3    H226239   3.052   4.613  19.369  1.2976  2.5759 -1.9030
  682TIP3   OH226240   5.783   5.868  17.940  0.2709  0.3505 -0.6575
  682TIP3    H126241   5.741   5.791  17.902 -1.7545  0.1933  1.6415
  682TIP3    H226242   5.720   5.939  17.927  0.8517  0.9647 -0.2300
  683TIP3   OH226243   0.585   5.180  16.985 -0.0848 -0.4678 -0.2209
  683TIP3    H126244   0.667   5.151  17.026  0.8884  0.7571 -1.2044
  683TIP3    H226245   0.606   5.183  16.891 -1.4528 -0.7097 -0.5528
  684TIP3   OH226246   2.706   2.028  19.851  0.0817  0.2302 -0.3425
  684TIP3    H126247   2.656   1.948  19.831  1.4490 -1.0503  1.1295
  684TIP3    H226248   2.797   2.000  19.846  0.5955  1.8033 -0.0777
  685TIP3   OH226249   3.492   1.230  19.475  0.3215 -0.0456 -0.2088
  685TIP3    H126250   3.440   1.262  19.401 -1.1047  0.4005  0.9157
  685TIP3    H226251   3.566   1.185  19.435 -0.8640 -0.6015 -1.9164
  686TIP3   OH226252   1.733   0.865  17.840 -0.2189 -0.2699 -0.5018
  686TIP3    H126253   1.775   0.853  17.754 -2.1981 -2.4818 -1.2641
  686TIP3    H226254   1.763   0.791  17.892 -1.3764 -0.6064 -0.3017
  687TIP3   OH226255   5.925   1.903  18.517  0.2583 -0.3505 -0.0361
  687TIP3    H126256   6.009   1.941  18.542  0.2613 -1.1902  1.3499
  687TIP3    H226257   5.861   1.945  18.574 -0.1587 -0.3289 -0.5047
  688TIP3   OH226258   6.155   5.838  17.364  0.3330 -0.0708 -0.1251
  688TIP3    H126259   6.123   5.898  17.431  0.9706  1.1552 -0.8927
  688TIP3    H226260   6.227   5.791  17.406  0.8000  0.7692  0.0462
  689TIP3   OH226261   4.657   4.657  18.608  0.3293  0.0221 -0.0183
  689TIP3    H126262   4.602   4.600  18.661 -0.3740  0.8725  0.1818
  689TIP3    H226263   4.741   4.658  18.653 -0.4512  1.2877  1.5125
  690TIP3   OH226264   4.930   2.672  19.562  0.4869  0.0267 -0.5630
  690TIP3    H126265   4.973   2.753  19.534  0.6141 -0.1298 -0.8230
  690TIP3    H226266   4.967   2.605  19.505  2.6300 -0.7287  1.5905
  691TIP3   OH226267   5.985   1.779  16.890 -0.2187 -0.2332 -0.0731
  691TIP3    H126268   6.063   1.810  16.845  0.0023 -0.4032  0.1914
  691TIP3    H226269   5.945   1.718  16.827 -0.0244 -0.3121 -0.1202
  692TIP3   OH226270   5.737   3.352  17.952 -0.2781  0.0929 -0.2087
  692TIP3    H126271   5.658   3.407  17.951 -0.7797 -0.6054 -1.3571
  692TIP3    H226272   5.738   3.313  18.039 -0.4947  1.0961  0.2587
  693TIP3   OH226273   3.379   2.663  17.863 -0.5765  0.3491 -0.1036
  693TIP3    H126274   3.287   2.637  17.868 -0.5794  0.3555 -0.1262
  693TIP3    H226275   3.385   2.717  17.784 -0.5440  0.3116 -0.1267
  694TIP3   OH226276   3.212   2.677  18.628  0.4370  0.1691  0.3826
  694TIP3    H126277   3.160   2.670  18.548  0.8741  1.2108 -0.0208
  694TIP3    H226278   3.266   2.599  18.629 -0.7712 -0.6881  0.5579
  695TIP3   OH226279   5.854   0.952  16.298 -0.3491 -0.1496  0.3221
  695TIP3    H126280   5.918   1.023  16.290 -0.6225  0.1809  0.9213
  695TIP3    H226281   5.906   0.875  16.319  0.0708 -0.4055 -1.4799
  696TIP3   OH226282   6.403   6.446  18.462  0.3012  0.0486  0.4223
  696TIP3    H126283   6.319   6.492  18.464  0.2490 -0.0586  0.7509
  696TIP3    H226284   6.428   6.437  18.554  0.7457  0.2125  0.3239
  697TIP3   OH226285   1.483   5.144  20.050  0.8512 -0.3637  0.1417
  697TIP3    H126286   1.468   5.057  20.089 -0.0192  0.0637  0.7880
  697TIP3    H226287   1.395   5.176  20.028  1.2955 -0.6006 -2.2876
  698TIP3   OH226288   2.975   2.205  17.384  0.4760  0.4048  0.3161
  698TIP3    H126289   2.947   2.146  17.314 -1.7937  0.1000  1.3866
  698TIP3    H226290   3.028   2.271  17.340 -0.1700 -0.2613 -1.5553
  699TIP3   OH226291   2.203   5.326  18.672 -0.0560 -0.2568 -0.4923
  699TIP3    H126292   2.176   5.369  18.591  1.7258  1.1170 -0.4348
  699TIP3    H226293   2.280   5.275  18.647 -0.6876 -1.4658 -0.0450
  700TIP3   OH226294   0.635   0.830  19.059 -0.2268  0.1245 -0.3989
  700TIP3    H126295   0.608   0.799  19.145  0.1245 -1.2187 -0.7380
  700TIP3    H226296   0.649   0.750  19.008  5.0734  0.4629 -0.0512
  701TIP3   OH226297   3.058   3.736  19.819 -0.0509 -0.5416  0.5188
  701TIP3    H126298   3.061   3.682  19.740  0.1287  0.5159 -0.2155
  701TIP3    H226299   3.017   3.680  19.885 -1.3688 -1.0213 -0.6701
  702TIP3   OH226300   0.569   3.411  16.718 -0.2176 -0.3153 -0.1962
  702TIP3    H126301   0.648   3.464  16.726 -0.1911 -0.3713 -0.0677
  702TIP3    H226302   0.515   3.457  16.654  0.1110 -0.5172 -0.6257
  703TIP3   OH226303   2.304   3.218  17.354 -0.5419 -0.4250 -0.5029
  703TIP3    H126304   2.210   3.232  17.340 -0.5943  1.2132  0.9809
  703TIP3    H226305   2.346   3.295  17.315  0.0469 -0.5007 -0.0442
  704TIP3   OH226306   1.044   3.835  18.522 -0.1301  0.0891  0.0448
  704TIP3    H126307   1.135   3.805  18.519  0.1107  0.8209  0.0594
  704TIP3    H226308   0.994   3.755  18.542  0.4555 -0.4100 -0.4439
  705TIP3   OH226309   5.685   6.566  17.650 -0.5306 -0.3931 -0.6937
  705TIP3    H126310   5.631   6.496  17.613  0.2360 -1.7863  0.6975
  705TIP3    H226311   5.760   6.572  17.591 -0.1876 -1.3670 -0.3798
  706TIP3   OH226312   1.468   5.768  17.449  0.1544 -0.5108  0.4285
  706TIP3    H126313   1.556   5.759  17.485 -0.2435  0.7699  1.8617
  706TIP3    H226314   1.481   5.804  17.362  1.0725 -0.2664  0.6565
  707TIP3   OH226315   4.812   5.971  18.466  0.2328 -0.6163  0.0623
  707TIP3    H126316   4.830   5.998  18.556 -0.0580 -0.6924  0.1437
  707TIP3    H226317   4.721   5.942  18.467 -0.2404  0.7886 -0.5892
  708TIP3   OH226318   5.972   4.233  17.858  0.1679  1.2101 -0.1494
  708TIP3    H126319   5.926   4.302  17.906  0.0146  0.2418  1.1556
  708TIP3    H226320   5.947   4.247  17.767 -1.2217  1.8637  0.2965
  709TIP3   OH226321   0.137   3.981  18.307  0.0488 -0.7331 -0.5040
  709TIP3    H126322   0.045   3.956  18.306  0.4055 -2.4831  2.0395
  709TIP3    H226323   0.136   4.077  18.305 -1.9548 -0.6344  1.7482
  710TIP3   OH226324   0.294   6.365  18.927  0.0324  0.3003 -0.2260
  710TIP3    H126325   0.344   6.371  19.009  0.3085 -1.4639 -0.2298
  710TIP3    H226326   0.349   6.409  18.863  0.9684 -0.4014  0.0652
  711TIP3   OH226327   0.793   2.869  19.934  0.4162  0.5203 -0.0099
  711TIP3    H126328   0.698   2.857  19.938  0.2866  0.5043 -2.0628
  711TIP3    H226329   0.829   2.796  19.985 -0.6399  1.5194  2.3341
  712TIP3   OH226330   4.560   5.645  18.167 -0.6871 -0.0705  0.2407
  712TIP3    H126331   4.528   5.565  18.125 -2.0257  1.6250 -2.2397
  712TIP3    H226332   4.645   5.661  18.126  0.0165 -0.6842  1.4264
  713TIP3   OH226333   0.478   0.260  19.469  0.0307 -0.1218  0.1215
  713TIP3    H126334   0.513   0.333  19.520  3.0552 -2.7997  2.2817
  713TIP3    H226335   0.459   0.192  19.533 -1.5268 -1.7249 -1.8773
  714TIP3   OH226336   2.496   4.115  17.990  0.1489 -0.0592  0.8003
  714TIP3    H126337   2.420   4.123  18.047  0.7118 -0.5504  1.6410
  714TIP3    H226338   2.459   4.114  17.902 -0.6501  1.9939  1.0427
  715TIP3   OH226339   4.439   6.531  18.560  1.0435  0.2232  0.4462
  715TIP3    H126340   4.402   6.585  18.630  1.3716  0.7431  0.2229
  715TIP3    H226341   4.363   6.495  18.515  0.8112  0.7438  0.4108
  716TIP3   OH226342   3.119   0.766  19.434  0.6440 -0.1262 -0.6542
  716TIP3    H126343   3.121   0.698  19.501 -0.4397  0.7699  0.3308
  716TIP3    H226344   3.037   0.752  19.387 -0.2996  1.2930  0.4720
  717TIP3   OH226345   6.406   2.786  17.746  0.2562  0.2247 -0.1763
  717TIP3    H126346   6.429   2.849  17.679 -1.0441 -0.2051 -1.0771
  717TIP3    H226347   6.311   2.777  17.740  0.3599 -1.6185  0.0761
  718TIP3   OH226348   6.369   3.770  19.318 -0.6374  0.3260  0.4832
  718TIP3    H126349   6.319   3.772  19.237  1.6144 -0.3322 -1.0288
  718TIP3    H226350   6.379   3.678  19.339  1.7270  0.2749 -0.5308
  719TIP3   OH226351   4.027   2.482  19.062  0.3881  0.4208  0.1380
  719TIP3    H126352   4.116   2.459  19.034 -0.1257  0.2958 -1.5276
  719TIP3    H226353   4.037   2.512  19.152  1.7464 -2.0688  0.9089
  720TIP3   OH226354   0.552   3.824  18.258  0.0150  0.5471 -0.0494
  720TIP3    H126355   0.611   3.796  18.329 -0.2659 -0.9694 -0.3625
  720TIP3    H226356   0.610   3.839  18.183  0.1422  0.2628 -0.0134
  721TIP3   OH226357   1.251   4.834  17.830 -0.4149 -0.0531 -0.1126
  721TIP3    H126358   1.277   4.872  17.746 -0.7514 -1.6097 -0.9594
  721TIP3    H226359   1.213   4.908  17.879 -0.1868  0.8881 -1.3075
  722TIP3   OH226360   3.735   5.936  17.496 -0.2749 -0.2109 -0.4659
  722TIP3    H126361   3.695   5.960  17.412 -1.5374  1.0410  0.4434
  722TIP3    H226362   3.662   5.901  17.548  0.9101 -3.2068 -0.6255
  723TIP3   OH226363   0.324   1.264  17.100  0.2014  0.0860 -0.1089
  723TIP3    H126364   0.282   1.178  17.109 -0.6836  0.5847  0.7399
  723TIP3    H226365   0.277   1.306  17.028  0.7586 -0.1977 -0.6490
  724TIP3   OH226366   1.583   3.007  18.973 -0.0204  0.2787  0.3878
  724TIP3    H126367   1.631   3.086  19.001 -1.8972  1.2841  1.0038
  724TIP3    H226368   1.562   2.962  19.055 -0.8084  0.2998  0.2071
  725TIP3   OH226369   3.610   0.909  18.340 -0.7787  0.5890 -0.3630
  725TIP3    H126370   3.593   0.999  18.367 -2.0112  0.6644 -1.2705
  725TIP3    H226371   3.650   0.917  18.253 -0.4971  0.2771 -0.2619
  726TIP3   OH226372   6.265   0.113  18.213  0.0671  0.3038 -0.9528
  726TIP3    H126373   6.343   0.107  18.157 -0.7290  1.4575 -2.2614
  726TIP3    H226374   6.281   0.189  18.268 -0.1050  0.5019 -1.1751
  727TIP3   OH226375   2.118   6.601  16.870 -0.2579 -0.7337 -0.0723
  727TIP3    H126376   2.099   6.565  16.957 -0.5555  0.1597  0.2431
  727TIP3    H226377   2.212   6.583  16.858 -0.3683 -1.4811  0.1307
  728TIP3   OH226378   4.841   1.581  17.277 -0.2433  0.1983  0.5433
  728TIP3    H126379   4.907   1.558  17.211 -0.3315  0.3186  0.4128
  728TIP3    H226380   4.839   1.506  17.336  0.9226  0.7184  1.2755
  729TIP3   OH226381   6.058   3.809  19.973  0.6693  0.1565  0.1263
  729TIP3    H126382   6.119   3.737  19.987  1.1434  0.6157  0.4543
  729TIP3    H226383   6.114   3.885  19.958  0.2322  0.0927 -2.4200
  730TIP3   OH226384   6.107   1.163  18.239  0.9509  0.0543 -0.5622
  730TIP3    H126385   6.130   1.112  18.162  1.8457 -1.4673  0.6705
  730TIP3    H226386   6.017   1.137  18.259  0.7927  0.2908 -0.9506
  731TIP3   OH226387   3.731   2.720  19.080  0.4950 -0.5895 -0.4480
  731TIP3    H126388   3.810   2.689  19.125  0.4058 -0.7881 -0.4256
  731TIP3    H226389   3.680   2.640  19.065  0.3337 -0.4700 -0.5296
  732TIP3   OH226390   0.014   4.703  19.554 -0.4237 -0.0857 -0.4417
  732TIP3    H126391   0.087   4.765  19.555  0.0046 -0.4577  2.7148
  732TIP3    H226392   0.044   4.631  19.498  2.1266 -0.6831  1.4927
  733TIP3   OH226393   2.978   3.834  19.205  0.0591  0.4279 -0.2119
  733TIP3    H126394   2.902   3.791  19.244  0.9341 -0.3113  0.7160
  733TIP3    H226395   3.051   3.812  19.263  0.8192  1.9044 -0.5559
  734TIP3   OH226396   2.481   6.342  19.213  0.5413 -0.0363 -0.0588
  734TIP3    H126397   2.504   6.257  19.177  2.3313  0.1435  0.5414
  734TIP3    H226398   2.507   6.405  19.146  0.1332  0.0867 -0.1019
  735TIP3   OH226399   5.505   4.489  18.043  0.1698  0.5580 -0.2007
  735TIP3    H126400   5.421   4.499  18.087  0.0878 -2.3538  0.5332
  735TIP3    H226401   5.569   4.487  18.115  0.3636 -1.2579 -0.3863
  736TIP3   OH226402   1.090   5.474  18.571 -0.8600 -0.1763 -0.1337
  736TIP3    H126403   1.036   5.521  18.635 -0.2747  3.9520 -2.3380
  736TIP3    H226404   1.038   5.473  18.491  0.5424 -0.1792 -1.0789
  737TIP3   OH226405   3.794   6.206  19.240 -0.5280 -0.3010  0.0192
  737TIP3    H126406   3.886   6.193  19.220 -0.0282  2.1406  0.4163
  737TIP3    H226407   3.752   6.218  19.155 -0.4700 -1.3141 -0.1550
  738TIP3   OH226408   2.993   3.547  16.832 -0.0809 -0.0326  0.0652
  738TIP3    H126409   3.078   3.559  16.789 -1.0729 -0.1602 -2.0718
  738TIP3    H226410   2.997   3.603  16.910  2.5227 -1.2860  0.9495
  739TIP3   OH226411   1.214   4.957  20.359  0.1047  0.0346 -0.2980
  739TIP3    H126412   1.144   5.019  20.339 -0.8021 -0.5531  0.8981
  739TIP3    H226413   1.266   5.001  20.426 -0.0836 -0.1638 -0.0157
  740TIP3   OH226414   6.500   4.855  19.969  0.2029 -0.4143  0.2440
  740TIP3    H126415   6.591   4.832  19.988  0.3609  0.4911  0.6512
  740TIP3    H226416   6.487   4.833  19.877  0.4507 -1.7168  0.5031
  741TIP3   OH226417   6.095   5.918  19.686  0.5658  0.0663  0.2079
  741TIP3    H126418   6.088   5.960  19.772  0.8796  0.5308  0.0122
  741TIP3    H226419   6.089   5.990  19.624  0.8567 -0.2072 -0.1400
  742TIP3   OH226420   5.648   2.289  19.419 -0.2991  0.1026  0.2415
  742TIP3    H126421   5.646   2.359  19.484  0.2329 -0.6547  1.0844
  742TIP3    H226422   5.708   2.224  19.455  2.6000  1.0508 -2.4672
  743TIP3   OH226423   3.700   2.884  20.014 -0.6617 -0.1059 -0.1116
  743TIP3    H126424   3.617   2.902  19.970 -0.2634  1.5836 -0.2628
  743TIP3    H226425   3.712   2.958  20.074  0.1722 -0.9226  0.7781
  744TIP3   OH226426   4.357   3.841  18.883 -0.0782  0.4254 -0.3390
  744TIP3    H126427   4.286   3.864  18.943 -0.2180 -0.1548 -0.2710
  744TIP3    H226428   4.363   3.745  18.889 -0.9637  0.2206 -2.2364
  745TIP3   OH226429   3.658   4.199  17.436 -1.0358 -0.1631  0.1937
  745TIP3    H126430   3.724   4.141  17.398 -1.2200 -0.3864  0.2125
  745TIP3    H226431   3.614   4.146  17.502  0.5844  0.7842  2.1583
  746TIP3   OH226432   3.143   6.389  19.101 -0.0905  0.4624 -0.0534
  746TIP3    H126433   3.068   6.448  19.111  0.0693  0.4232  1.5379
  746TIP3    H226434   3.210   6.443  19.057 -0.6859  0.8016 -0.5656
  747TIP3   OH226435   5.495   0.092  18.917  0.1544  0.9940 -0.0030
  747TIP3    H126436   5.585   0.092  18.887 -0.7245 -2.5128 -3.4770
  747TIP3    H226437   5.494   0.029  18.990  0.3043 -0.4682 -1.2114
  748TIP3   OH226438   1.678   0.224  17.210  0.1546  0.3356  0.3530
  748TIP3    H126439   1.674   0.242  17.116 -0.6453  0.9877  0.5062
  748TIP3    H226440   1.740   0.289  17.244  1.0694 -0.4211  0.1647
  749TIP3   OH226441   1.597   3.362  19.264 -0.1391  0.2098  0.1622
  749TIP3    H126442   1.612   3.446  19.307  1.3808  0.0302  0.0436
  749TIP3    H226443   1.638   3.298  19.323 -0.8984 -0.3988  0.0355
  750TIP3   OH226444   3.472   3.055  19.027 -0.4715 -0.0309  0.3875
  750TIP3    H126445   3.473   3.150  19.044  0.0682 -0.0748  0.6285
  750TIP3    H226446   3.391   3.040  18.978 -1.0462  0.4186  1.1658
  751TIP3   OH226447   5.998   5.569  19.503 -0.6046  0.3212  0.1680
  751TIP3    H126448   5.987   5.651  19.551 -0.6998 -0.1529  0.9813
  751TIP3    H226449   5.926   5.513  19.533 -0.2923 -0.2099 -0.0517
  752TIP3   OH226450   0.797   5.560  17.417 -0.3068 -0.2960 -0.0936
  752TIP3    H126451   0.847   5.608  17.351 -0.3700  0.3270  0.3001
  752TIP3    H226452   0.717   5.533  17.371  0.6328 -1.8258 -0.8949
  753TIP3   OH226453   5.357   2.758  20.218  0.7132  0.1576 -0.3457
  753TIP3    H126454   5.408   2.835  20.244  0.7480  0.1165 -0.2907
  753TIP3    H226455   5.268   2.791  20.207  0.0166 -0.3674  2.7551
  754TIP3   OH226456   6.010   3.534  17.633  0.2026  0.1976  0.1249
  754TIP3    H126457   6.008   3.527  17.537  1.1925  0.3549  0.0793
  754TIP3    H226458   6.074   3.602  17.651  1.1771 -0.8922  0.9294
  755TIP3   OH226459   0.214   3.868  19.845  0.4929 -0.1880 -0.0050
  755TIP3    H126460   0.185   3.957  19.862  0.0554 -0.2045 -0.6270
  755TIP3    H226461   0.139   3.826  19.803  0.5607 -0.9592  0.6365
  756TIP3   OH226462   3.701   5.808  18.328  0.1329  0.1198  0.8053
  756TIP3    H126463   3.654   5.725  18.330 -0.9924  0.7575  1.6047
  756TIP3    H226464   3.770   5.798  18.394  0.8716 -0.6516 -0.0555
  757TIP3   OH226465   5.464   4.110  20.469 -0.4240  0.2329 -0.4748
  757TIP3    H126466   5.465   4.054  20.546 -1.4469 -0.6121 -1.0484
  757TIP3    H226467   5.440   4.052  20.397 -0.0320  1.1123 -1.3449
  758TIP3   OH226468   3.512   4.093  17.808  0.1436  0.6472  0.0967
  758TIP3    H126469   3.540   4.169  17.757 -0.5023  0.8110 -0.0210
  758TIP3    H226470   3.492   4.026  17.743 -1.0090  0.9663  0.0989
  759TIP3   OH226471   6.278   3.029  18.287  0.0273  0.0478 -0.6801
  759TIP3    H126472   6.184   3.025  18.271  0.1331  1.6894 -1.8489
  759TIP3    H226473   6.296   3.121  18.305  1.3557 -0.3166 -0.0222
  760TIP3   OH226474   2.727   2.886  17.539 -0.2940  0.3230  0.7049
  760TIP3    H126475   2.724   2.805  17.590  1.3692  1.6277  3.1295
  760TIP3    H226476   2.697   2.862  17.452 -0.7765 -2.6609  1.5972
  761TIP3   OH226477   0.942   1.297  18.614  0.3378  0.7146 -0.7409
  761TIP3    H126478   0.954   1.378  18.566 -0.5515  0.0320 -2.1769
  761TIP3    H226479   0.984   1.230  18.559 -0.7605 -0.0958 -0.6273
  762TIP3   OH226480   3.975   2.976  17.694  0.0638 -0.3773 -0.7699
  762TIP3    H126481   4.027   2.949  17.618  0.5509  1.1213 -1.0010
  762TIP3    H226482   4.037   3.019  17.752 -0.8962  1.6937 -1.1624
  763TIP3   OH226483   3.313   1.336  19.282  0.1215 -0.3829 -0.4290
  763TIP3    H126484   3.338   1.372  19.197  0.4395 -0.2635 -0.2836
  763TIP3    H226485   3.225   1.301  19.267  0.7936 -1.8262 -1.2477
  764TIP3   OH226486   6.149   0.969  19.114 -0.4666 -0.6923 -0.1176
  764TIP3    H126487   6.195   0.885  19.108 -0.2142 -0.5090 -0.8154
  764TIP3    H226488   6.217   1.035  19.100 -0.8576 -0.4042 -0.7138
  765TIP3   OH226489   2.134   1.102  18.380 -0.7033 -0.3127  0.1952
  765TIP3    H126490   2.154   1.083  18.472  0.2519 -1.5662 -0.2432
  765TIP3    H226491   2.100   1.020  18.345 -0.8271  0.0803 -0.6339
  766TIP3   OH226492   1.947   0.339  20.139 -0.1842  0.8009 -0.0103
  766TIP3    H126493   1.913   0.421  20.102  0.3014  1.2883  0.5929
  766TIP3    H226494   1.904   0.270  20.088  0.8250  1.4425 -1.7969
  767TIP3   OH226495   3.757   1.563  16.733 -0.0504  0.4013  0.5818
  767TIP3    H126496   3.826   1.564  16.800 -0.0682 -1.6279  0.6895
  767TIP3    H226497   3.773   1.483  16.683 -2.0511  0.1217  0.3185
  768TIP3   OH226498   2.079   5.886  17.664 -0.0024 -0.1026  0.5183
  768TIP3    H126499   2.059   5.822  17.595  1.4675 -0.4522  0.3823
  768TIP3    H226500   2.005   5.945  17.663 -1.0784 -1.4046  0.1704
  769TIP3   OH226501   5.559   1.114  19.408 -0.2183  0.1931  0.0305
  769TIP3    H126502   5.571   1.121  19.502 -0.2010 -0.0470  0.0449
  769TIP3    H226503   5.496   1.183  19.387 -1.5265 -0.8405  0.4586
  770TIP3   OH226504   4.750   1.890  19.796  0.2151 -0.2458  0.4639
  770TIP3    H126505   4.695   1.834  19.850 -0.6537  0.4573  0.3207
  770TIP3    H226506   4.757   1.972  19.844  1.7155 -0.5460  0.8052
  771TIP3   OH226507   6.524   0.240  19.713  0.4476 -0.2377  0.1312
  771TIP3    H126508   6.524   0.277  19.625 -1.5501  0.7085  0.4665
  771TIP3    H226509   6.525   0.145  19.699 -0.2018 -0.1016 -0.9307
  772TIP3   OH226510   4.731   0.881  17.348 -0.5915  0.0044  0.0628
  772TIP3    H126511   4.731   0.839  17.262  1.3075  1.7088 -0.8744
  772TIP3    H226512   4.641   0.912  17.359 -1.0713 -0.9354 -0.9370
  773TIP3   OH226513   4.465   2.689  20.046  0.2400  0.0616 -0.8011
  773TIP3    H126514   4.458   2.594  20.037  0.4196  0.0705 -1.0449
  773TIP3    H226515   4.417   2.709  20.126  2.2486 -0.5233  0.6409
  774TIP3   OH226516   6.581   5.410  18.057  0.2100  0.3615 -0.1868
  774TIP3    H126517   6.533   5.493  18.056 -0.1432  0.1666  0.4904
  774TIP3    H226518   6.530   5.352  18.000 -0.8490 -0.1060  1.1878
  775TIP3   OH226519   4.668   0.635  19.356 -0.2026  0.6171 -0.2499
  775TIP3    H126520   4.574   0.622  19.342  0.2715 -0.6892 -2.8494
  775TIP3    H226521   4.684   0.724  19.325 -0.6257  1.0679  0.7606
  776TIP3   OH226522   3.591   2.833  18.329  0.4950  0.2212 -0.3634
  776TIP3    H126523   3.599   2.834  18.234  0.0423  0.1380 -0.4076
  776TIP3    H226524   3.679   2.849  18.362  0.7109 -0.0639 -0.7969
  777TIP3   OH226525   4.699   2.710  18.164  0.4904  0.3450  0.6435
  777TIP3    H126526   4.762   2.711  18.093 -1.0533  0.2045 -0.8000
  777TIP3    H226527   4.694   2.618  18.190 -0.6638 -0.0350 -0.7572
  778TIP3   OH226528   0.542   0.839  17.705 -0.0506  0.7747 -0.1778
  778TIP3    H126529   0.483   0.808  17.637 -1.2819 -0.1567  1.2368
  778TIP3    H226530   0.622   0.788  17.692 -0.4623  0.2333 -0.6207
  779TIP3   OH226531   0.152   4.525  19.925  0.1244  0.0926  0.6296
  779TIP3    H126532   0.144   4.431  19.945 -0.6516  0.3923  1.8108
  779TIP3    H226533   0.246   4.542  19.926  0.5443 -1.2560 -2.5646
  780TIP3   OH226534   1.461   4.103  20.181 -0.1319  0.2546  0.3654
  780TIP3    H126535   1.548   4.142  20.191  0.3649 -0.8389  0.5313
  780TIP3    H226536   1.468   4.050  20.102 -0.8394  0.6185  0.0529
  781TIP3   OH226537   5.438   4.749  16.871  0.6101  0.4316  0.2225
  781TIP3    H126538   5.415   4.683  16.936 -0.5449  1.4156  0.8461
  781TIP3    H226539   5.378   4.733  16.798 -0.0755  1.1511  0.6199
  782TIP3   OH226540   2.216   0.488  20.284 -0.3046  0.5224 -0.1540
  782TIP3    H126541   2.167   0.417  20.242  1.3056 -0.4844 -0.3870
  782TIP3    H226542   2.265   0.445  20.353 -0.0099  1.5743  0.3013
  783TIP3   OH226543   0.690   4.346  17.610  0.0024  0.5169  0.1344
  783TIP3    H126544   0.677   4.331  17.517  1.8014 -0.4628 -0.0157
  783TIP3    H226545   0.776   4.390  17.615 -0.4426  1.3123  1.2820
  784TIP3   OH226546   3.184   1.043  17.774  0.3016  0.1941  0.4752
  784TIP3    H126547   3.148   1.020  17.860  2.5967 -1.7054  1.0330
  784TIP3    H226548   3.251   1.110  17.794  0.7208 -0.1291  0.1579
  785TIP3   OH226549   2.132   1.861  17.700 -0.3895  0.1855 -0.3491
  785TIP3    H126550   2.181   1.891  17.624  1.0046  2.1634  1.2305
  785TIP3    H226551   2.184   1.790  17.736  1.0472  1.7933  0.8965
  786TIP3   OH226552   1.134   2.553  16.972  0.7070 -0.3339  0.0809
  786TIP3    H126553   1.098   2.482  16.919 -0.4572  0.1622  0.1710
  786TIP3    H226554   1.096   2.632  16.934  0.0902  0.0497  1.4474
  787TIP3   OH226555   3.906   3.891  18.084  0.4337  0.2671  0.0876
  787TIP3    H126556   3.870   3.933  18.007  1.5775 -1.1233 -1.2744
  787TIP3    H226557   4.001   3.892  18.070  0.5685 -1.9788  0.3283
  788TIP3   OH226558   0.348   1.636  18.442  0.0603 -0.4595  0.2947
  788TIP3    H126559   0.333   1.718  18.395  1.6804 -0.7036 -0.7206
  788TIP3    H226560   0.421   1.655  18.501 -2.1716 -0.0384  3.1555
  789TIP3   OH226561   3.782   4.707  19.475 -0.3747 -0.0176 -0.8858
  789TIP3    H126562   3.718   4.779  19.467 -1.8402 -1.2468 -0.6719
  789TIP3    H226563   3.773   4.658  19.393 -0.2426 -0.6326 -0.5380
  790TIP3   OH226564   0.168   1.470  16.249 -0.0441 -0.2579  1.0265
  790TIP3    H126565   0.180   1.557  16.211 -0.5907 -1.0838 -1.2473
  790TIP3    H226566   0.085   1.475  16.296 -0.8738  0.0927 -0.4073
  791TIP3   OH226567   1.722   2.113  19.579  0.7609  0.0654 -0.1784
  791TIP3    H126568   1.742   2.088  19.488  1.5911  0.7868 -0.2103
  791TIP3    H226569   1.808   2.127  19.619  0.3680  0.8105  0.4097
  792TIP3   OH226570   4.769   3.506  19.637  0.5293 -0.2039  0.4982
  792TIP3    H126571   4.862   3.487  19.650  1.1813  2.4829  0.3046
  792TIP3    H226572   4.768   3.587  19.586 -1.9099  0.4229  1.3980
  793TIP3   OH226573   1.979   3.580  18.240  0.0299 -0.2176 -0.0974
  793TIP3    H126574   1.928   3.654  18.274  1.4814  0.8957 -0.2474
  793TIP3    H226575   1.939   3.503  18.280 -0.5350  0.7700  1.3248
  794TIP3   OH226576   1.757   3.696  18.396  0.0102 -0.1764 -0.0710
  794TIP3    H126577   1.707   3.615  18.405  0.8423 -0.5605  1.4053
  794TIP3    H226578   1.715   3.757  18.456  0.2265  0.0572 -0.1548
  795TIP3   OH226579   6.386   0.149  19.954 -0.1661 -0.2552 -0.3388
  795TIP3    H126580   6.422   0.174  20.039  3.4947 -3.5201 -0.6471
  795TIP3    H226581   6.425   0.210  19.892 -1.2300  0.8389  0.0130
  796TIP3   OH226582   3.528   4.618  18.140 -0.2117  0.0145  0.0845
  796TIP3    H126583   3.436   4.606  18.165  0.1150  0.1726  1.4461
  796TIP3    H226584   3.528   4.700  18.091 -0.5555  1.0547  1.7185
  797TIP3   OH226585   3.571   0.354  18.812 -0.2759 -0.2656  0.8739
  797TIP3    H126586   3.611   0.338  18.897 -0.8028 -0.3188  1.1200
  797TIP3    H226587   3.481   0.324  18.822 -0.2718 -0.5219  0.2141
  798TIP3   OH226588   3.762   2.141  18.847 -0.1219 -0.1424 -0.4828
  798TIP3    H126589   3.678   2.148  18.802 -0.5615 -1.5403  0.0712
  798TIP3    H226590   3.809   2.221  18.823 -0.6481 -0.4476 -2.7515
  799TIP3   OH226591   3.499   3.465  20.127 -0.0530  0.1775  0.7844
  799TIP3    H126592   3.472   3.389  20.178 -1.8416  0.3788  0.2308
  799TIP3    H226593   3.593   3.471  20.140  0.2401 -2.4498  0.4295
  800TIP3   OH226594   3.982   3.593  19.580 -0.0243  0.4683 -0.2786
  800TIP3    H126595   4.018   3.556  19.660 -0.0962 -1.6979 -1.1793
  800TIP3    H226596   4.046   3.572  19.512 -1.1390 -0.0105 -1.2236
  801TIP3   OH226597   0.974   4.932  18.478 -0.0286  0.0640 -0.2582
  801TIP3    H126598   1.055   4.957  18.522  0.0849 -1.2910  0.3407
  801TIP3    H226599   0.934   5.015  18.452  1.6595  0.7562 -0.7913
  802TIP3   OH226600   3.362   6.257  19.986  0.5818 -0.2710 -0.8617
  802TIP3    H126601   3.385   6.343  20.022 -1.7615  1.0068 -2.1658
  802TIP3    H226602   3.329   6.207  20.061 -0.7852  1.0354 -0.5469
  803TIP3   OH226603   4.800   1.610  18.397  0.2689 -0.5415 -0.1459
  803TIP3    H126604   4.889   1.576  18.402  0.1890 -0.7785 -0.3237
  803TIP3    H226605   4.783   1.645  18.485  0.6805 -0.1261 -0.2264
  804TIP3   OH226606   3.755   2.563  19.972 -0.3272 -0.2900  0.3974
  804TIP3    H126607   3.771   2.650  20.009  0.8789 -0.5951  0.6561
  804TIP3    H226608   3.721   2.511  20.045  1.9137 -0.8518  1.1271
  805TIP3   OH226609   3.793   6.455  19.726 -0.2774 -0.3475  0.4339
  805TIP3    H126610   3.787   6.390  19.656 -1.0168  0.7796 -0.5983
  805TIP3    H226611   3.735   6.422  19.795 -2.6694  0.3519 -1.0946
  806TIP3   OH226612   0.984   6.685  19.027 -0.5158  0.0379  0.2752
  806TIP3    H126613   1.060   6.696  18.970 -1.6662  2.0626 -0.9600
  806TIP3    H226614   1.020   6.692  19.116  0.6659  1.8875 -0.2898
  807TIP3   OH226615   0.769   4.721  19.476  0.3912  0.2698 -0.1091
  807TIP3    H126616   0.744   4.634  19.445  0.0444  0.3669 -0.1038
  807TIP3    H226617   0.787   4.708  19.569 -0.3807  0.3476  0.0556
  808TIP3   OH226618   1.722   4.204  18.658  0.0584 -0.3839  0.1978
  808TIP3    H126619   1.701   4.178  18.747 -0.9982  0.2097  0.1358
  808TIP3    H226620   1.640   4.239  18.623  0.9657  1.4105 -0.2809
  809TIP3   OH226621   4.667   0.087  18.651  0.3144  0.6846 -0.0535
  809TIP3    H126622   4.636   0.160  18.598  1.7450  1.5506  0.2636
  809TIP3    H226623   4.690   0.126  18.735  0.9692 -0.1548  0.1756
  810TIP3   OH226624   1.432   0.310  18.950 -0.0880 -0.4063  0.1316
  810TIP3    H126625   1.382   0.392  18.951  1.9807  1.0009 -1.9811
  810TIP3    H226626   1.412   0.271  18.864  1.4199 -0.4531 -0.2209
  811TIP3   OH226627   5.255   1.436  19.755  0.5357  0.5433  0.2880
  811TIP3    H126628   5.349   1.453  19.755  0.5544  0.4458  0.8098
  811TIP3    H226629   5.232   1.429  19.662  0.9325  1.1584  0.1397
  812TIP3   OH226630   1.003   3.206  20.237 -0.2761 -0.0391  0.1742
  812TIP3    H126631   1.089   3.248  20.232  0.0811 -0.8070 -0.2513
  812TIP3    H226632   0.999   3.150  20.160 -0.5919 -1.0668  0.9172
  813TIP3   OH226633   0.483   3.813  19.821  0.2145  0.0685 -0.2677
  813TIP3    H126634   0.513   3.837  19.909  0.5284  2.6534 -0.9796
  813TIP3    H226635   0.393   3.845  19.817  0.1956 -0.0527 -0.8757
  814TIP3   OH226636   4.612   2.036  18.036 -0.3989  0.0299 -0.3349
  814TIP3    H126637   4.535   2.075  17.995 -0.5226  0.3651  0.2112
  814TIP3    H226638   4.584   2.012  18.124  0.0538 -0.0541 -0.2083
  815TIP3   OH226639   5.296   6.104  18.468  0.4220 -0.5098  0.3137
  815TIP3    H126640   5.286   6.039  18.398  0.3200  0.5611 -0.6916
  815TIP3    H226641   5.349   6.173  18.429  0.8569 -0.1531  1.4963
  816TIP3   OH226642   1.873   1.126  18.767 -0.2191  0.3468  0.0378
  816TIP3    H126643   1.822   1.080  18.833 -0.8908 -0.7762 -1.2262
  816TIP3    H226644   1.812   1.190  18.730  0.1442  0.9494  0.4620
  817TIP3   OH226645   0.851   2.005  16.782 -0.4740  0.0212 -0.6865
  817TIP3    H126646   0.783   2.048  16.731 -0.7562 -1.7220 -1.8841
  817TIP3    H226647   0.922   2.069  16.788 -1.5376  1.2538 -0.8650
  818TIP3   OH226648   2.449   6.687  19.902  0.5555 -0.3592  0.3899
  818TIP3    H126649   2.416   6.776  19.914 -0.2637 -0.6363  0.2700
  818TIP3    H226650   2.510   6.693  19.829 -0.8751 -0.2001 -0.8519
  819TIP3   OH226651   0.072   0.800  16.947  0.3903  0.7790  0.6281
  819TIP3    H126652  -0.005   0.759  16.986  1.5100 -1.0914  1.0226
  819TIP3    H226653   0.039   0.879  16.904 -2.1428 -1.1400 -1.2524
  820TIP3   OH226654   2.250   2.078  19.792 -0.3271  0.2707 -0.2446
  820TIP3    H126655   2.328   2.132  19.805  1.6600 -2.1944 -1.1655
  820TIP3    H226656   2.231   2.042  19.878 -2.1788  2.8920  0.5686
  821TIP3   OH226657   2.433   5.727  19.273 -0.3571 -0.1659 -0.0446
  821TIP3    H126658   2.395   5.658  19.219  1.1682 -1.3901  0.3776
  821TIP3    H226659   2.528   5.719  19.260  0.0466 -0.1720  2.3627
  822TIP3   OH226660   0.455   5.501  19.697  0.1085 -0.8072  0.2962
  822TIP3    H126661   0.471   5.552  19.617 -0.3126  0.4284  0.9674
  822TIP3    H226662   0.542   5.487  19.734  0.2272 -0.5702  0.1106
  823TIP3   OH226663   5.858   2.334  18.400  0.2378 -0.2736 -0.0967
  823TIP3    H126664   5.920   2.378  18.341 -0.4900  0.0571 -0.6259
  823TIP3    H226665   5.857   2.243  18.369  0.5790 -0.3210  0.0207
  824TIP3   OH226666   0.585   3.676  19.412 -0.1604  0.1238 -0.3133
  824TIP3    H126667   0.679   3.686  19.403 -0.0736  0.1641  0.5506
  824TIP3    H226668   0.570   3.582  19.404  0.1771 -0.1006  1.3004
  825TIP3   OH226669   2.250   3.663  19.348  0.0572 -0.1478  0.4030
  825TIP3    H126670   2.225   3.667  19.256  1.7498 -0.2573 -0.0995
  825TIP3    H226671   2.191   3.724  19.392 -1.9753 -1.4073 -0.4366
  826TIP3   OH226672   2.066   1.792  20.135 -0.0559 -0.3775 -0.1280
  826TIP3    H126673   2.086   1.702  20.108 -1.5604 -0.7520 -0.0829
  826TIP3    H226674   2.006   1.825  20.068  0.5428  0.6319 -0.1825
  827TIP3   OH226675   4.136   4.599  17.204 -0.2653  0.2410 -0.1367
  827TIP3    H126676   4.222   4.587  17.164 -0.4040  0.9560 -0.6729
  827TIP3    H226677   4.145   4.565  17.293  0.2092 -0.8568 -0.6002
  828TIP3   OH226678   2.907   6.036  18.863  0.3209  0.1037  0.0584
  828TIP3    H126679   2.869   6.122  18.882 -0.3564  0.0455 -1.0164
  828TIP3    H226680   3.000   6.054  18.848  0.6442  0.3292  2.0457
  829TIP3   OH226681   6.306   6.228  16.748 -0.3624  0.2452 -0.4076
  829TIP3    H126682   6.388   6.249  16.793 -0.8494  1.1609  0.0873
  829TIP3    H226683   6.331   6.168  16.679  0.5750 -0.3351  0.4090
  830TIP3   OH226684   0.650   3.318  19.921 -0.3004  0.3917 -0.0531
  830TIP3    H126685   0.666   3.329  20.015 -0.6606  1.1979 -0.0737
  830TIP3    H226686   0.576   3.258  19.916 -2.1054  2.4673  0.2961
  831TIP3   OH226687   6.264   1.735  17.559 -0.0288  0.5284  0.5505
  831TIP3    H126688   6.206   1.782  17.499  3.0204  2.8105 -0.8724
  831TIP3    H226689   6.281   1.798  17.629  0.3030 -0.3064  1.2311
  832TIP3   OH226690   3.252   5.582  18.823  0.3383 -0.1892 -0.0245
  832TIP3    H126691   3.308   5.562  18.749  1.3123  1.5621  0.1751
  832TIP3    H226692   3.294   5.539  18.898  0.6691 -0.0329 -0.1160
  833TIP3   OH226693   5.151   5.155  19.443  0.3565 -0.4481 -0.0149
  833TIP3    H126694   5.225   5.192  19.490 -1.0091 -1.0219  2.8361
  833TIP3    H226695   5.184   5.136  19.356  2.3355  3.2887 -0.3017
  834TIP3   OH226696   3.851   3.946  18.802  0.2176 -0.4543 -0.4851
  834TIP3    H126697   3.930   3.892  18.798  0.2127 -0.4834 -0.1964
  834TIP3    H226698   3.865   4.013  18.735  1.7344  1.1970  1.3586
  835TIP3   OH226699   3.440   4.635  19.752  0.1509  0.7691 -0.0463
  835TIP3    H126700   3.475   4.723  19.768 -1.5489  1.4611  0.1161
  835TIP3    H226701   3.457   4.619  19.659  0.5389  1.2453 -0.0602
  836TIP3   OH226702   2.973   5.559  18.808  0.6022 -0.2313 -0.5742
  836TIP3    H126703   3.064   5.567  18.836  0.2901 -0.1173  0.4498
  836TIP3    H226704   2.930   5.637  18.842 -0.0333 -0.6553 -0.3867
  837TIP3   OH226705   6.412   1.079  20.260  0.0944  0.4494 -0.2159
  837TIP3    H126706   6.360   1.102  20.337 -1.5931  1.1995 -1.4954
  837TIP3    H226707   6.347   1.063  20.192  1.5281 -0.3593 -1.4509
  838TIP3   OH226708   5.626   3.716  19.676  0.0911  0.3237 -0.3960
  838TIP3    H126709   5.560   3.779  19.648 -0.2694 -0.4678 -1.4277
  838TIP3    H226710   5.592   3.632  19.645  0.2774 -0.4776  1.4155
  839TIP3   OH226711   0.412   0.681  17.539 -0.4932 -0.0953  0.0112
  839TIP3    H126712   0.410   0.698  17.444 -0.0345 -0.8085 -0.1336
  839TIP3    H226713   0.417   0.586  17.546 -0.9546 -0.0647  0.7698
  840TIP3   OH226714   0.208   1.628  20.096 -0.0715  0.0575  0.5001
  840TIP3    H126715   0.130   1.574  20.105 -0.0017  0.1685  1.9578
  840TIP3    H226716   0.208   1.656  20.004 -0.7154 -1.4730  0.0122
  841TIP3   OH226717   5.015   5.885  17.084 -0.0260 -0.3011  0.0892
  841TIP3    H126718   4.993   5.851  16.997  0.0045  0.8289 -0.3711
  841TIP3    H226719   4.931   5.895  17.128  0.0179 -1.8474  0.5866
  842TIP3   OH226720   1.051   0.151  18.007 -0.5814 -0.2534 -0.4677
  842TIP3    H126721   1.127   0.097  18.026 -0.2177 -0.1759 -1.6084
  842TIP3    H226722   0.987   0.128  18.075  0.1401 -0.9414 -0.0056
  843TIP3   OH226723   1.179   3.180  17.515  0.2342  0.3584  0.6644
  843TIP3    H126724   1.143   3.268  17.530 -0.4173  0.2922 -0.4320
  843TIP3    H226725   1.117   3.139  17.455  2.0363  0.1693 -1.1493
  844TIP3   OH226726   0.040   0.223  17.991  0.4613  0.4034  0.1487
  844TIP3    H126727  -0.022   0.296  17.984  2.0927  1.9165  0.8438
  844TIP3    H226728   0.075   0.212  17.903 -0.2390 -0.0029 -0.0944
  845TIP3   OH226729   4.536   1.839  19.236  0.7535 -0.0528 -0.1412
  845TIP3    H126730   4.525   1.928  19.201  0.1166  0.3529  1.0264
  845TIP3    H226731   4.458   1.791  19.205  0.2867  0.2517  0.5371
  846TIP3   OH226732   6.511   3.806  19.957  0.0793  0.2702  0.7055
  846TIP3    H126733   6.499   3.900  19.944 -0.0758  0.2844  0.9334
  846TIP3    H226734   6.592   3.799  20.007  0.8785  0.1934 -0.5545
  847TIP3   OH226735   5.707   3.263  18.705  0.1919 -0.2312  0.1019
  847TIP3    H126736   5.684   3.260  18.612  0.7782  2.4943 -0.2383
  847TIP3    H226737   5.632   3.224  18.750 -0.6164 -0.5469 -1.4575
  848TIP3   OH226738   4.531   2.367  18.999  0.2582  0.4253 -0.3609
  848TIP3    H126739   4.560   2.413  19.077 -0.9705  2.1133 -0.8484
  848TIP3    H226740   4.601   2.380  18.935  1.6616 -1.6595  0.6157
  849TIP3   OH226741   5.977   2.548  17.370 -0.4513  0.2306 -0.6445
  849TIP3    H126742   5.933   2.623  17.410  0.6846  1.3502 -1.4175
  849TIP3    H226743   6.068   2.576  17.361 -0.0860 -1.1052 -1.3202
  850TIP3   OH226744   6.241   0.727  18.684 -0.5028 -0.0556  0.2223
  850TIP3    H126745   6.295   0.802  18.706  0.2755 -0.3624 -0.6035
  850TIP3    H226746   6.151   0.756  18.702 -0.1629  0.8312  0.5363
  851TIP3   OH226747   2.014   2.674  19.396  0.0617  0.5002  0.8136
  851TIP3    H126748   2.093   2.631  19.429  0.2534 -0.1789 -0.4338
  851TIP3    H226749   1.988   2.620  19.321  0.0526  2.3043 -0.5565
  852TIP3   OH226750   1.388   1.322  18.541  0.2844 -0.0796 -0.0919
  852TIP3    H126751   1.361   1.404  18.501 -1.1519 -1.1397 -1.4151
  852TIP3    H226752   1.401   1.262  18.467  2.3317 -0.7987  0.7662
  853TIP3   OH226753   3.906   5.308  18.316 -0.0506  0.0247 -0.1410
  853TIP3    H126754   3.853   5.353  18.250  1.0794  2.2317  0.3440
  853TIP3    H226755   3.847   5.242  18.354 -1.6891  0.8073 -1.2042
  854TIP3   OH226756   5.320   1.591  17.331  0.4091  0.2721 -0.4413
  854TIP3    H126757   5.340   1.498  17.321  1.3425  0.4730 -0.5923
  854TIP3    H226758   5.383   1.621  17.397  0.8943  1.0306 -1.2281
  855TIP3   OH226759   4.355   0.256  20.148 -0.1004  0.5887 -0.0982
  855TIP3    H126760   4.295   0.270  20.075 -0.7490  0.3973  0.3828
  855TIP3    H226761   4.343   0.333  20.204  0.9019  1.0716 -0.5245
  856TIP3   OH226762   6.617   0.177  20.246 -0.0282 -0.6508  0.0941
  856TIP3    H126763   6.529   0.209  20.267  0.5355  0.2089  1.2335
  856TIP3    H226764   6.648   0.237  20.178 -0.9895 -2.0747 -1.6921
  857TIP3   OH226765   0.713   5.960  16.457  0.5345  0.0566 -0.0184
  857TIP3    H126766   0.649   6.026  16.428  0.6142  0.5171  0.8217
  857TIP3    H226767   0.730   5.908  16.379  0.6814  1.1991 -0.7861
  858TIP3   OH226768   4.470   1.209  18.337  0.0366 -0.3415  0.6771
  858TIP3    H126769   4.484   1.303  18.330  3.2598 -0.7608 -0.6186
  858TIP3    H226770   4.489   1.189  18.429  0.1421  0.1888  0.7749
  859TIP3   OH226771   5.672   0.542  20.126 -0.0048  0.5253  0.7950
  859TIP3    H126772   5.680   0.635  20.103 -2.0058  0.4707 -0.3624
  859TIP3    H226773   5.587   0.516  20.090  1.6979 -2.4981 -1.4546
  860TIP3   OH226774   3.422   4.410  19.935  0.1243  0.1242  0.1296
  860TIP3    H126775   3.338   4.366  19.924  0.6677 -1.1124  0.6451
  860TIP3    H226776   3.417   4.487  19.878 -0.6622 -0.9057 -1.2665
  861TIP3   OH226777   0.526   2.239  18.573  0.2706  0.2921  0.0943
  861TIP3    H126778   0.613   2.259  18.540  0.3290 -0.3533 -0.1616
  861TIP3    H226779   0.488   2.181  18.507 -0.1859  0.2249  0.4108
  862TIP3   OH226780   2.233   6.585  19.070 -0.1687 -0.2617  0.4277
  862TIP3    H126781   2.273   6.671  19.059 -0.8807 -0.0446 -0.5319
  862TIP3    H226782   2.139   6.603  19.076 -0.1732 -0.7355  2.9316
  863TIP3   OH226783   4.788   1.827  20.263 -0.7175  0.0000  0.4201
  863TIP3    H126784   4.809   1.913  20.300 -2.0871 -0.2604  1.9132
  863TIP3    H226785   4.693   1.824  20.262 -0.6912 -1.4158  0.1382
  864TIP3   OH226786   4.401   0.829  19.400  0.7958 -0.2559 -0.0171
  864TIP3    H126787   4.337   0.798  19.336 -0.6386  1.4388  0.5293
  864TIP3    H226788   4.444   0.903  19.358 -0.6319  1.3059  1.1302
  865TIP3   OH226789   2.207   4.290  20.179 -0.2730  0.6495  0.2604
  865TIP3    H126790   2.180   4.372  20.221  0.2459  0.9315  0.0574
  865TIP3    H226791   2.297   4.277  20.209  0.6091  1.5592 -1.7874
  866TIP3   OH226792   3.846   1.531  19.816  0.0111  0.1598  0.6675
  866TIP3    H126793   3.833   1.622  19.788  3.0395  0.8432  1.1031
  866TIP3    H226794   3.777   1.482  19.771 -2.4361  2.7644  1.3089
  867TIP3   OH226795   4.914   6.437  19.897  0.3911 -0.0863  0.3631
  867TIP3    H126796   4.940   6.520  19.858  2.3066  0.5191  2.7453
  867TIP3    H226797   4.975   6.373  19.859 -0.2911 -0.2144 -0.5443
  868TIP3   OH226798   1.222   2.216  17.559  0.6005  0.0792  0.1108
  868TIP3    H126799   1.309   2.176  17.559  0.4112 -0.3485  0.6112
  868TIP3    H226800   1.165   2.148  17.522  0.2546 -0.1839  1.0835
  869TIP3   OH226801   4.359   1.782  19.985 -0.4744 -0.9652 -0.3244
  869TIP3    H126802   4.285   1.745  20.033  1.6822 -4.5241  0.6323
  869TIP3    H226803   4.395   1.708  19.935  1.9766  0.7904 -1.3847
  870TIP3   OH226804   0.734   3.933  18.076 -0.3454 -0.3832 -0.2580
  870TIP3    H126805   0.779   4.013  18.105 -2.1507  0.3786  0.5844
  870TIP3    H226806   0.686   3.960  17.998  1.5735 -1.5215 -1.9454
  871TIP3   OH226807   6.100   0.068  20.119 -0.3450 -0.1655 -0.1360
  871TIP3    H126808   6.044  -0.010  20.117 -0.6632 -0.0254  1.7761
  871TIP3    H226809   6.084   0.110  20.034 -1.8734 -1.0100 -0.3169
  872TIP3   OH226810   3.298   3.138  16.979 -0.1069  0.3267  0.3235
  872TIP3    H126811   3.231   3.159  16.914  0.3840 -0.7880 -0.5742
  872TIP3    H226812   3.304   3.043  16.979  2.4587  0.3990 -0.6983
  873TIP3   OH226813   3.587   0.650  17.752 -0.5445  0.0680  0.3462
  873TIP3    H126814   3.580   0.635  17.847 -1.1555 -0.6117  0.2025
  873TIP3    H226815   3.671   0.611  17.728 -0.6843 -0.3434  0.5071
  874TIP3   OH226816   3.520   5.726  17.240  0.2104  0.4500  0.1243
  874TIP3    H126817   3.527   5.819  17.259 -1.3028  1.0203 -1.7990
  874TIP3    H226818   3.568   5.714  17.158 -0.5277 -0.2282 -0.2264
  875TIP3   OH226819   6.028   6.381  17.105  0.0963 -0.2930 -0.0308
  875TIP3    H126820   5.983   6.397  17.022 -0.3953 -0.5923  0.1779
  875TIP3    H226821   6.121   6.379  17.081  0.0537  0.8548 -0.3834
  876TIP3   OH226822   2.514   0.194  20.283 -0.1887  0.6942 -0.6601
  876TIP3    H126823   2.506   0.211  20.190 -1.3429  1.6823 -0.4081
  876TIP3    H226824   2.605   0.214  20.303 -0.2218  1.6345 -1.3712
  877TIP3   OH226825   3.736   0.038  19.867  0.1340 -0.4755 -0.2282
  877TIP3    H126826   3.796  -0.033  19.846  1.6803  0.2200  1.5842
  877TIP3    H226827   3.727   0.086  19.784 -1.0948 -2.7785 -1.5445
  878TIP3   OH226828   1.628   0.541  17.247 -0.2653 -0.3094 -0.6797
  878TIP3    H126829   1.723   0.531  17.254 -0.0942  1.5622  0.3654
  878TIP3    H226830   1.611   0.537  17.153  1.4295  3.0549 -1.2978
  879TIP3   OH226831   0.438   5.355  18.937 -0.3503  0.6799  0.4712
  879TIP3    H126832   0.444   5.420  18.867 -1.8702 -0.1761 -0.5281
  879TIP3    H226833   0.344   5.344  18.951 -0.0930 -0.1555  1.7346
  880TIP3   OH226834   0.415   0.345  18.807  0.0983 -0.6784  0.0022
  880TIP3    H126835   0.412   0.372  18.899  1.1355  0.3172 -0.2350
  880TIP3    H226836   0.328   0.367  18.773 -0.3045 -1.0872  0.7374
  881TIP3   OH226837   3.006   3.670  17.734 -0.1709 -0.1949 -0.3819
  881TIP3    H126838   2.944   3.604  17.704 -0.4300  0.1659 -0.6464
  881TIP3    H226839   2.999   3.669  17.829 -0.9683  0.2118 -0.4301
  882TIP3   OH226840   3.153   6.577  17.158 -0.9706 -0.2070 -0.0525
  882TIP3    H126841   3.144   6.647  17.094  2.6781  0.4745  0.0093
  882TIP3    H226842   3.145   6.497  17.106 -0.9402  0.2913 -0.8488
  883TIP3   OH226843   0.482   1.606  17.046 -0.0496 -0.0739 -0.3652
  883TIP3    H126844   0.525   1.684  17.012 -0.4810 -0.4351 -1.8028
  883TIP3    H226845   0.391   1.614  17.017  0.0307 -1.3639 -1.0413
  884TIP3   OH226846   3.336   5.184  17.987  0.5578 -0.3577 -0.0033
  884TIP3    H126847   3.363   5.271  17.958 -0.5900  0.2737  0.7469
  884TIP3    H226848   3.241   5.189  17.994  0.5137 -1.5400  0.4725
  885TIP3   OH226849   3.145   4.534  17.567  0.3341  0.2589  0.7007
  885TIP3    H126850   3.237   4.523  17.543 -0.0918 -0.6911 -0.6674
  885TIP3    H226851   3.124   4.623  17.539  0.6987  0.2836  0.4883
  886TIP3   OH226852   5.729   0.247  19.624 -0.0467 -0.3017  0.1528
  886TIP3    H126853   5.789   0.188  19.670  0.4899 -0.0277 -0.1933
  886TIP3    H226854   5.664   0.271  19.691  0.3859 -0.3782  0.6054
  887TIP3   OH226855   2.970   1.734  17.451 -0.0167  0.6872  0.3881
  887TIP3    H126856   2.937   1.808  17.503  2.1654  0.0957  2.8117
  887TIP3    H226857   3.027   1.774  17.386 -0.1597  1.2377  0.5945
  888TIP3   OH226858   2.622   0.262  20.603 -0.1294  0.4193 -0.3579
  888TIP3    H126859   2.663   0.250  20.517  1.5808  1.5208  0.2606
  888TIP3    H226860   2.694   0.252  20.665 -1.5344 -1.4062  1.0571
  889TIP3   OH226861   6.552   0.792  17.127  0.6886 -0.2102  0.5436
  889TIP3    H126862   6.531   0.731  17.198  1.7128 -0.5370  0.5825
  889TIP3    H226863   6.567   0.876  17.172  0.5001 -0.2145  0.6171
  890TIP3   OH226864   1.709   2.039  19.007  0.2348  0.9796  0.1211
  890TIP3    H126865   1.651   1.971  19.042  0.2217  0.4333 -0.9341
  890TIP3    H226866   1.653   2.091  18.950  0.6603  0.7228 -0.5471
  891TIP3   OH226867   1.598   3.509  20.307  0.0477  0.0452 -0.1851
  891TIP3    H126868   1.637   3.561  20.377 -2.9769  0.0899  1.6238
  891TIP3    H226869   1.569   3.573  20.243  0.5989  0.1773 -0.3133
  892TIP3   OH226870   0.681   3.528  18.735  0.6116 -0.4416  0.3040
  892TIP3    H126871   0.653   3.613  18.701 -1.7657 -1.6540 -1.0459
  892TIP3    H226872   0.631   3.517  18.816 -0.3420 -1.1998 -0.3660
  893TIP3   OH226873   5.977   5.265  17.860  0.1694  0.0887 -0.0799
  893TIP3    H126874   5.990   5.290  17.769  0.5881  1.5619  0.3656
  893TIP3    H226875   5.955   5.171  17.856 -0.0953  0.1897 -1.6995
  894TIP3   OH226876   2.838   5.422  17.709 -0.1136  0.0526 -0.3256
  894TIP3    H126877   2.765   5.484  17.713  0.3905  0.6880 -0.8653
  894TIP3    H226878   2.910   5.466  17.754 -0.8103 -1.7072  2.8069
  895TIP3   OH226879   3.582   1.835  20.392 -0.4713 -0.2735 -0.8546
  895TIP3    H126880   3.571   1.744  20.368  1.1393 -0.4913 -0.8602
  895TIP3    H226881   3.664   1.862  20.350 -1.5635  1.5534 -1.9130
  896TIP3   OH226882   3.112   2.749  19.546 -0.4345 -0.1834 -0.2418
  896TIP3    H126883   3.159   2.685  19.492 -0.0818 -0.2065  0.0903
  896TIP3    H226884   3.064   2.696  19.610  1.1655 -0.0776  1.1011
  897TIP3   OH226885   6.478   4.725  18.180  0.0997  0.4795 -0.2400
  897TIP3    H126886   6.570   4.703  18.192  0.0962  0.4187 -0.3270
  897TIP3    H226887   6.430   4.653  18.220  0.0791 -0.3284 -1.6697
  898TIP3   OH226888   6.265   2.007  17.669  0.4077  0.1085  0.5717
  898TIP3    H126889   6.270   2.055  17.586  1.1649  2.0190  1.6570
  898TIP3    H226890   6.297   2.069  17.734 -1.6969 -0.7771  2.5554
  899TIP3   OH226891   0.275   3.725  18.274 -0.7163  0.3900 -0.2350
  899TIP3    H126892   0.224   3.802  18.300 -1.8291 -0.6739  0.8887
  899TIP3    H226893   0.361   3.760  18.250 -0.2831  1.7640  2.8198
  900TIP3   OH226894   4.335   1.671  19.157  0.3101 -0.0558  0.5197
  900TIP3    H126895   4.333   1.578  19.181  0.1343 -0.2217 -0.1020
  900TIP3    H226896   4.249   1.704  19.183 -0.8132 -0.7896 -1.8984
  901TIP3   OH226897   5.920   2.456  19.840 -0.5877 -0.3719 -0.3137
  901TIP3    H126898   5.857   2.507  19.891 -1.2046 -1.6174  0.2431
  901TIP3    H226899   5.917   2.369  19.881  1.0778 -0.6135 -0.6468
  902TIP3   OH226900   6.333   5.033  19.110  0.0464  0.0568 -0.4051
  902TIP3    H126901   6.271   5.050  19.039  0.2554 -1.2771 -0.9342
  902TIP3    H226902   6.408   4.992  19.067  0.3655 -0.3575  0.5139
  903TIP3   OH226903   6.552   0.513  16.306 -0.0208  0.4422 -0.4825
  903TIP3    H126904   6.644   0.535  16.292 -0.2189  0.5035 -1.8233
  903TIP3    H226905   6.550   0.417  16.305  0.1839  0.4092  0.7583
  904TIP3   OH226906   5.223   5.245  17.262  0.2044  0.2600  0.0862
  904TIP3    H126907   5.172   5.302  17.320 -0.1474 -0.3857  0.4177
  904TIP3    H226908   5.163   5.221  17.192  0.1304 -0.2936  0.3379
  905TIP3   OH226909   1.864   1.729  19.627  0.3329  0.1022  0.0814
  905TIP3    H126910   1.923   1.791  19.584 -1.2447 -1.0132 -4.1786
  905TIP3    H226911   1.919   1.653  19.646  1.5160  1.3670  2.2732
  906TIP3   OH226912   1.804   5.724  19.835  0.4014  0.5218 -0.0873
  906TIP3    H126913   1.877   5.666  19.855  0.6011  0.8360  0.1121
  906TIP3    H226914   1.743   5.713  19.908  0.6624  0.9151  0.1970
  907TIP3   OH226915   0.765   0.432  19.785  0.2041  0.1518 -0.0699
  907TIP3    H126916   0.741   0.359  19.842  1.7977  0.0434  0.5086
  907TIP3    H226917   0.800   0.499  19.845  0.4236  0.6750 -0.7704
  908TIP3   OH226918   5.466   5.111  17.982 -0.4803  0.0482  0.1473
  908TIP3    H126919   5.446   5.032  17.932  1.1776 -1.1974  1.3355
  908TIP3    H226920   5.396   5.116  18.048  0.4641 -1.6487  1.3657
  909TIP3   OH226921   4.415   4.899  17.268  0.1521  0.4697  0.2639
  909TIP3    H126922   4.468   4.826  17.235 -0.1420 -0.3613  1.5707
  909TIP3    H226923   4.477   4.972  17.275  0.7623 -0.0320  0.2396
  910TIP3   OH226924   1.886   0.863  19.222 -0.0024  0.1990  0.2077
  910TIP3    H126925   1.959   0.839  19.164  1.4347  1.6469  1.3357
  910TIP3    H226926   1.871   0.955  19.205  0.2050  0.5648  1.8372
  911TIP3   OH226927   0.757   4.977  20.310  0.2634 -0.3486  0.3506
  911TIP3    H126928   0.689   5.003  20.248  0.5111 -0.2684  0.1174
  911TIP3    H226929   0.710   4.922  20.374 -0.2991  0.7624  0.9329
  912TIP3   OH226930   4.577   4.393  18.728  0.4415 -0.0921  0.1452
  912TIP3    H126931   4.590   4.394  18.823 -1.7312 -0.2924  0.4924
  912TIP3    H226932   4.506   4.330  18.715  1.6924 -1.1917 -1.7756
  913TIP3   OH226933   5.372   4.349  19.617 -0.1832 -0.0504  0.1248
  913TIP3    H126934   5.427   4.277  19.648 -1.5015 -0.8749  0.6624
  913TIP3    H226935   5.425   4.394  19.552  1.0769 -0.8606  0.5513
  914TIP3   OH226936   5.553   3.903  18.136  0.2535  0.5382  0.1968
  914TIP3    H126937   5.540   3.833  18.200 -0.5733 -0.8934 -1.4183
  914TIP3    H226938   5.466   3.940  18.123  0.3498  0.6150 -0.2742
  915TIP3   OH226939   0.409   3.558  20.015 -0.6839 -0.1927 -0.0911
  915TIP3    H126940   0.441   3.580  19.928 -1.7970  0.1420 -0.4274
  915TIP3    H226941   0.333   3.503  20.000 -0.0991 -1.2519  0.7062
  916TIP3   OH226942   1.659   5.151  18.376  0.6601 -0.0271  0.5894
  916TIP3    H126943   1.565   5.138  18.387  0.7325 -0.8751  0.2706
  916TIP3    H226944   1.675   5.239  18.410 -0.1655 -0.0665  1.1069
  917TIP3   OH226945   6.463   5.393  19.948  0.0750 -0.4880 -0.0841
  917TIP3    H126946   6.440   5.329  19.881  2.5650 -0.8886 -0.6524
  917TIP3    H226947   6.441   5.477  19.910 -0.1922 -0.8270 -0.6924
  918TIP3   OH226948   0.248   1.953  19.363  0.0931  0.0488 -0.2029
  918TIP3    H126949   0.282   2.021  19.420  3.0027 -1.0011 -0.5180
  918TIP3    H226950   0.244   1.993  19.276  0.7166  0.1408 -0.1918
  919TIP3   OH226951   2.853   2.595  16.407 -0.4674  0.0437  0.0824
  919TIP3    H126952   2.949   2.591  16.416 -0.4022 -0.6826 -0.7483
  919TIP3    H226953   2.830   2.685  16.433  0.5959  0.6495 -0.9435
  920TIP3   OH226954   3.605   5.827  17.727 -0.0559  0.0025 -0.0332
  920TIP3    H126955   3.546   5.751  17.719 -0.4040  0.1698  0.8440
  920TIP3    H226956   3.636   5.824  17.818 -0.0729  0.9084  0.0090
  921TIP3   OH226957   4.337   4.457  19.996 -0.0132 -0.2086 -0.6060
  921TIP3    H126958   4.414   4.512  20.005 -0.0342 -0.2245 -0.3185
  921TIP3    H226959   4.288   4.470  20.077  0.5441 -1.5280 -0.0238
  922TIP3   OH226960   5.658   0.526  17.369  0.3229  0.3475 -0.5259
  922TIP3    H126961   5.678   0.520  17.462 -1.3434 -3.2106 -0.2309
  922TIP3    H226962   5.743   0.516  17.326  1.0278  1.3816  0.5761
  923TIP3   OH226963   6.556   0.421  17.962 -0.5236 -0.6426  0.3706
  923TIP3    H126964   6.598   0.507  17.971  2.0273 -1.5249 -1.7350
  923TIP3    H226965   6.511   0.408  18.046  0.3162  2.0511  1.3574
  924TIP3   OH226966   0.762   5.145  16.781  0.3176  0.2905  0.1102
  924TIP3    H126967   0.853   5.166  16.761  0.5697 -0.3043  0.5953
  924TIP3    H226968   0.733   5.088  16.710  0.9199 -1.0501  0.8876
  925TIP3   OH226969   4.109   0.202  17.264  0.6288  0.4751 -0.2977
  925TIP3    H126970   4.034   0.165  17.217 -0.0440  1.6913 -0.2277
  925TIP3    H226971   4.172   0.222  17.195  0.4549  0.4286 -0.4737
  926TIP3   OH226972   3.159   5.575  17.117 -0.4584 -0.0889 -0.8676
  926TIP3    H126973   3.135   5.664  17.143  1.9657  0.4744 -0.3353
  926TIP3    H226974   3.075   5.529  17.111 -1.7348  2.0337 -0.5147
  927TIP3   OH226975   6.392   4.591  18.653  0.4692  0.0987 -0.0675
  927TIP3    H126976   6.372   4.635  18.735 -0.4655 -1.3546  0.5364
  927TIP3    H226977   6.484   4.610  18.636  0.8124  0.0081  1.5881
  928TIP3   OH226978   3.312   1.025  19.031 -0.2051 -0.1468  0.0207
  928TIP3    H126979   3.219   1.046  19.042  0.0538  1.8721 -1.1230
  928TIP3    H226980   3.324   0.944  19.081 -2.1317  0.6145  1.9055
  929TIP3   OH226981   3.588   3.939  18.719 -0.2035 -0.4377  0.2617
  929TIP3    H126982   3.683   3.945  18.730 -0.2895 -0.3747  1.0636
  929TIP3    H226983   3.573   3.853  18.681  0.1446 -0.6586  0.6172
  930TIP3   OH226984   6.349   1.198  17.002  0.3450  0.5276 -0.0760
  930TIP3    H126985   6.255   1.193  16.986  0.6606  0.5525 -2.1358
  930TIP3    H226986   6.382   1.111  16.980  0.7222  0.2262  1.5205
  931TIP3   OH226987   4.968   0.122  17.729 -0.1232  0.6826  0.3086
  931TIP3    H126988   4.931   0.042  17.767 -0.0358  0.3888 -0.2170
  931TIP3    H226989   4.991   0.098  17.640 -0.8419  1.5289 -0.1155
  932TIP3   OH226990   4.212   4.164  19.509  0.0772 -0.3176 -0.3066
  932TIP3    H126991   4.171   4.233  19.457 -0.1006 -0.9572 -1.0219
  932TIP3    H226992   4.141   4.105  19.532  0.5744 -1.4643 -1.6021
  933TIP3   OH226993   0.529   4.353  19.930  0.6534 -0.0947  0.0700
  933TIP3    H126994   0.578   4.293  19.874  1.7232  0.7592  0.0760
  933TIP3    H226995   0.480   4.295  19.990 -1.5556 -1.0992 -2.4995
  934TIP3   OH226996   1.047   0.983  19.483  0.2091  0.7950  0.5054
  934TIP3    H126997   1.088   1.040  19.548  0.4066  1.1037  0.1096
  934TIP3    H226998   1.059   0.895  19.518 -0.2004  0.9936  1.1816
  935TIP3   OH226999   5.559   0.268  16.563 -0.7588  0.0610  0.0213
  935TIP3    H127000   5.610   0.193  16.592 -2.6164 -1.7278 -1.1156
  935TIP3    H227001   5.583   0.280  16.471 -1.4807 -0.0566 -0.1944
  936TIP3   OH227002   0.914   0.092  19.395  0.1036 -0.0135 -0.4688
  936TIP3    H127003   0.942   0.048  19.475 -0.2356  0.6757  0.0398
  936TIP3    H227004   0.860   0.027  19.350 -1.9905  0.4560  1.1993
  937TIP3   OH227005   2.501   3.261  18.811 -0.1096 -0.3398  0.3957
  937TIP3    H127006   2.446   3.183  18.805  1.1888 -1.1437 -2.2926
  937TIP3    H227007   2.584   3.229  18.846  0.1580 -0.0186  0.0596
  938TIP3   OH227008   0.288   3.934  18.573 -0.4697 -0.1489 -0.3879
  938TIP3    H127009   0.265   4.000  18.638 -1.0158  0.0760 -0.7963
  938TIP3    H227010   0.208   3.923  18.521 -0.6806 -1.7827  0.2211
  939TIP3   OH227011   5.263   1.741  19.302 -0.3898 -0.3628 -0.8122
  939TIP3    H127012   5.248   1.721  19.394 -1.4077  0.9556 -0.6688
  939TIP3    H227013   5.242   1.660  19.256  0.6899 -1.2123  0.1341
  940TIP3   OH227014   1.166   1.273  20.362  0.7638  0.3066 -0.4846
  940TIP3    H127015   1.111   1.200  20.392 -1.2067  1.0386 -2.1274
  940TIP3    H227016   1.104   1.341  20.337  2.3883  1.0523 -2.7730
  941TIP3   OH227017   0.928   0.953  18.813  0.2819  0.0489 -0.0056
  941TIP3    H127018   0.873   0.904  18.753 -0.2422  1.0737 -0.3920
  941TIP3    H227019   0.867   1.004  18.866  0.7170 -1.0216  1.5922
  942TIP3   OH227020   3.452   1.881  19.468 -0.1415 -0.0297 -0.2749
  942TIP3    H127021   3.463   1.800  19.417 -1.4782  0.0059 -0.6825
  942TIP3    H227022   3.423   1.851  19.554 -2.2630  0.0121 -0.9132
  943TIP3   OH227023   5.804   0.844  18.936  0.0396 -0.4366 -0.1115
  943TIP3    H127024   5.733   0.779  18.937 -1.6905  1.3700 -0.0916
  943TIP3    H227025   5.804   0.881  19.024 -0.2771  0.8707 -0.6347
  944TIP3   OH227026   4.431   5.429  19.151  1.1572 -0.5071  0.0469
  944TIP3    H127027   4.437   5.397  19.241 -0.8372 -2.1909 -0.3242
  944TIP3    H227028   4.349   5.479  19.148  1.6824  0.3532 -0.6208
  945TIP3   OH227029   3.326   1.569  18.217  0.2383 -0.0072  0.3216
  945TIP3    H127030   3.398   1.632  18.216  0.2760 -0.0417 -0.7430
  945TIP3    H227031   3.369   1.484  18.223  0.1450  0.0716  3.0365
  946TIP3   OH227032   2.339   2.629  17.888 -0.3034 -0.0675  0.5908
  946TIP3    H127033   2.363   2.551  17.937  1.3340  0.0266 -0.0111
  946TIP3    H227034   2.247   2.616  17.865 -0.0253 -1.8627  0.4167
  947TIP3   OH227035   4.847   0.027  16.916  0.0820  0.1009 -0.1506
  947TIP3    H127036   4.830   0.113  16.952  1.6389 -0.8246  3.1813
  947TIP3    H227037   4.940   0.029  16.891  0.4056 -0.8464  0.8804
  948TIP3   OH227038   1.315   4.270  17.802 -0.4423  0.2696 -0.2394
  948TIP3    H127039   1.302   4.359  17.769 -0.9598  0.1769 -0.2953
  948TIP3    H227040   1.232   4.248  17.843 -0.3579 -0.2413 -0.3455
  949TIP3   OH227041   1.666   5.836  18.117  0.1177  0.3763 -0.0489
  949TIP3    H127042   1.596   5.823  18.181  1.8858  1.2087  2.1895
  949TIP3    H227043   1.703   5.748  18.104 -0.3873  0.1681 -0.0848
  950TIP3   OH227044   3.254   1.809  17.242  0.3791  0.0393  0.1704
  950TIP3    H127045   3.213   1.782  17.160  0.5470  0.3651 -0.0245
  950TIP3    H227046   3.344   1.775  17.236 -0.1078 -1.5235  1.0127
  951TIP3   OH227047   2.858   1.062  18.714 -0.1188 -0.2346  0.1451
  951TIP3    H127048   2.767   1.091  18.707  0.5086  2.1680  0.9984
  951TIP3    H227049   2.910   1.140  18.694  1.7170 -0.6966  2.6376
  952TIP3   OH227050   1.406   0.581  16.553 -0.8359 -0.8744 -0.5367
  952TIP3    H127051   1.352   0.505  16.574  0.7997 -2.0824 -0.5266
  952TIP3    H227052   1.354   0.656  16.582 -3.3259 -1.8197 -2.2368
  953TIP3   OH227053   4.523   2.424  19.271 -0.4361  0.1735 -0.2206
  953TIP3    H127054   4.538   2.466  19.356  2.7358 -1.8984  0.4220
  953TIP3    H227055   4.440   2.377  19.281 -0.4499  0.5002  1.5016
  954TIP3   OH227056   0.567   0.482  19.310 -0.4316  0.5345  0.2357
  954TIP3    H127057   0.547   0.398  19.351  1.1194  0.0499  0.0934
  954TIP3    H227058   0.601   0.536  19.381  1.5682 -0.0619 -0.1956
  955TIP3   OH227059   0.241   3.406  18.973 -0.1513 -0.2744 -1.0132
  955TIP3    H127060   0.172   3.387  18.909 -0.5388 -1.7786 -0.1851
  955TIP3    H227061   0.223   3.496  19.001 -1.3486 -0.3952 -1.3434
  956TIP3   OH227062   4.080   5.095  19.103 -0.3534 -0.5298  0.1002
  956TIP3    H127063   4.018   5.137  19.043 -0.4425  0.9281  1.1759
  956TIP3    H227064   4.164   5.098  19.057 -0.4862  0.2332 -0.1051
  957TIP3   OH227065   1.936   2.948  18.164  0.1421 -0.5839  0.4724
  957TIP3    H127066   1.945   2.929  18.071 -0.7875  1.4754 -0.0982
  957TIP3    H227067   1.859   2.897  18.191 -0.5447  0.0113 -0.2928
  958TIP3   OH227068   1.633   0.229  19.678 -0.2835  0.1732 -0.4389
  958TIP3    H127069   1.710   0.192  19.633 -0.3974  0.2717 -0.7153
  958TIP3    H227070   1.649   0.211  19.771 -0.5955 -1.0715 -0.6046
  959TIP3   OH227071   5.057   2.110  19.350 -0.0529 -0.5520 -0.0261
  959TIP3    H127072   5.112   2.077  19.421  1.3924  1.2167 -0.2484
  959TIP3    H227073   4.996   2.170  19.393 -0.8612 -1.3937  0.0247
  960TIP3   OH227074   6.659   3.255  18.932  0.1980  0.1258  0.0597
  960TIP3    H127075   6.698   3.171  18.955  0.7714  0.5640  0.7481
  960TIP3    H227076   6.666   3.307  19.013  3.5798  2.2598 -1.3800
  961TIP3   OH227077   2.048   3.218  17.276 -0.2080  0.1057  0.1625
  961TIP3    H127078   2.024   3.270  17.199  0.6344 -0.4748 -0.5165
  961TIP3    H227079   1.977   3.232  17.338 -1.5249 -0.3856 -1.1860
  962TIP3   OH227080   3.286   1.869  17.554  0.2059 -0.4678 -0.3104
  962TIP3    H127081   3.249   1.956  17.571 -0.4107 -0.8425  0.3412
  962TIP3    H227082   3.279   1.857  17.459  0.7819  0.4006 -0.4695
  963TIP3   OH227083   1.000   4.418  18.908  0.1255 -0.0130 -0.0717
  963TIP3    H127084   0.923   4.475  18.915  0.1375  0.2082 -1.5266
  963TIP3    H227085   0.984   4.350  18.974 -0.0627  1.4334  1.4607
  964TIP3   OH227086   2.579   2.853  19.523 -0.1193  0.7869  0.4438
  964TIP3    H127087   2.505   2.798  19.550  0.0346  0.1878 -0.3162
  964TIP3    H227088   2.649   2.831  19.585 -0.1333  0.3034  0.2894
  965TIP3   OH227089   2.233   0.640  17.853 -0.1118  0.7031  0.1054
  965TIP3    H127090   2.160   0.582  17.829  0.1011  0.0701  0.9229
  965TIP3    H227091   2.298   0.626  17.784  1.0706 -2.1282  1.6306
  966TIP3   OH227092   0.430   1.242  17.571 -0.5318  0.7463 -0.1941
  966TIP3    H127093   0.506   1.201  17.612  0.4976  0.0857 -2.6055
  966TIP3    H227094   0.358   1.226  17.632  0.7797 -0.6593  1.0530
  967TIP3   OH227095   6.335   4.946  17.277  0.3784  0.0761  0.0352
  967TIP3    H127096   6.382   4.930  17.195 -0.5308  2.8105 -1.1408
  967TIP3    H227097   6.383   5.017  17.319  0.1501 -0.5056  1.3083
  968TIP3   OH227098   4.740   3.837  20.017 -0.0000  0.0724  0.0404
  968TIP3    H127099   4.699   3.867  19.935 -0.3852 -1.7392 -0.4606
  968TIP3    H227100   4.805   3.905  20.036 -0.1221  0.7146 -1.5783
  969TIP3   OH227101   2.269   1.341  17.261 -0.4717 -0.3045 -0.0197
  969TIP3    H127102   2.201   1.325  17.196 -0.7039 -0.1952  0.1940
  969TIP3    H227103   2.290   1.254  17.296  0.1528 -0.4456 -0.7348
  970TIP3   OH227104   4.600   5.078  17.312 -0.1502 -0.2319  0.5089
  970TIP3    H127105   4.540   5.146  17.281 -0.1852 -0.3611  0.2843
  970TIP3    H227106   4.687   5.108  17.286 -0.3559 -1.4003 -1.7829
  971TIP3   OH227107   4.819   1.575  20.132  0.2115 -0.2403  0.0107
  971TIP3    H127108   4.844   1.651  20.185 -1.2906  0.7099 -0.5712
  971TIP3    H227109   4.895   1.558  20.077  0.2629  1.4149 -0.4702
  972TIP3   OH227110   1.462   4.527  17.622  0.4867  0.3413  0.5153
  972TIP3    H127111   1.437   4.511  17.531  1.4984  0.2669  0.2366
  972TIP3    H227112   1.379   4.538  17.669 -0.0497  0.0101 -0.3468
  973TIP3   OH227113   1.991   3.536  19.007  0.0059  0.6074  0.3543
  973TIP3    H127114   1.961   3.538  18.916 -0.6420  3.0547  0.5683
  973TIP3    H227115   2.080   3.571  19.004  0.8473 -1.3729  0.4461
  974TIP3   OH227116   6.024   5.399  19.810 -0.0730  0.4204  0.1091
  974TIP3    H127117   6.071   5.481  19.794 -1.2033  1.1577  0.4987
  974TIP3    H227118   5.968   5.417  19.885 -1.1771 -0.3539 -0.5049
  975TIP3   OH227119   3.943   0.181  19.163  0.0710  0.1898 -0.0454
  975TIP3    H127120   3.875   0.200  19.228  0.0577  0.2642 -0.0826
  975TIP3    H227121   4.004   0.122  19.209  0.7172  1.2128  0.4367
  976TIP3   OH227122   3.735   2.335  19.388 -0.0153  0.0905  0.6514
  976TIP3    H127123   3.652   2.291  19.406 -0.3475  1.1442  1.8874
  976TIP3    H227124   3.783   2.274  19.332 -1.7703 -0.3789 -0.4393
  977TIP3   OH227125   0.458   0.971  17.444 -0.6054  0.3493 -0.0920
  977TIP3    H127126   0.479   0.887  17.401  1.5239  0.2461  0.9757
  977TIP3    H227127   0.482   1.037  17.379 -1.7918  0.1626 -0.7421
  978TIP3   OH227128   2.284   4.828  17.287  0.0815  0.4207 -0.5199
  978TIP3    H127129   2.253   4.902  17.339 -0.0794 -0.6767  1.0454
  978TIP3    H227130   2.359   4.794  17.336 -0.8083 -1.3941 -0.2998
  979TIP3   OH227131   4.110   5.552  19.531 -0.0111 -0.6434  0.0097
  979TIP3    H127132   4.106   5.647  19.522 -1.2365 -0.6740  0.1253
  979TIP3    H227133   4.042   5.530  19.594  1.6323 -1.4282  1.6210
  980TIP3   OH227134   6.282   6.450  17.018 -0.6170 -0.0347 -0.6113
  980TIP3    H127135   6.309   6.461  16.927 -1.4416  4.4866 -0.5464
  980TIP3    H227136   6.354   6.488  17.069 -0.3531 -2.1361  0.6722
  981TIP3   OH227137   6.433   0.933  18.932 -0.4126  0.0115  0.0591
  981TIP3    H127138   6.444   0.919  18.838 -1.6537 -1.4513  0.0964
  981TIP3    H227139   6.495   1.003  18.953  2.0230 -1.5721 -1.3175
  982TIP3   OH227140   0.482   0.851  17.019  0.3459 -0.1536 -0.1898
  982TIP3    H127141   0.504   0.862  16.926  0.9965 -0.0069 -0.0220
  982TIP3    H227142   0.403   0.904  17.031 -0.1348 -0.7102 -0.8088
  983TIP3   OH227143   2.843   2.778  19.224  0.0104  0.1265 -0.5728
  983TIP3    H127144   2.926   2.764  19.178  1.0441  0.3508  1.0986
  983TIP3    H227145   2.863   2.846  19.289 -1.6887  0.6898 -0.5872
  984TIP3   OH227146   2.233   0.802  20.212 -0.4561 -0.3310 -0.5761
  984TIP3    H127147   2.186   0.768  20.136 -1.4387  0.4823 -0.3635
  984TIP3    H227148   2.207   0.744  20.284  1.2476 -1.7130 -0.9996
  985TIP3   OH227149   4.851   5.059  19.969  0.1758 -0.0654 -0.1708
  985TIP3    H127150   4.934   5.014  19.955 -0.6716 -1.5946 -0.5508
  985TIP3    H227151   4.854   5.134  19.908  1.3579  0.0547  0.0095
  986TIP3   OH227152   3.653   1.146  18.641  0.0776  0.3198  0.4330
  986TIP3    H127153   3.708   1.068  18.634  0.0048  0.3554 -0.8375
  986TIP3    H227154   3.596   1.129  18.716  0.4532 -0.5959  0.5212
  987TIP3   OH227155   6.216   6.164  17.698 -0.2177  0.4052  0.3979
  987TIP3    H127156   6.142   6.168  17.759  1.0408 -0.5527  2.1135
  987TIP3    H227157   6.248   6.074  17.706  0.1167  0.3086 -1.5971
  988TIP3   OH227158   1.541   2.504  18.808 -0.1687  0.2159 -0.2394
  988TIP3    H127159   1.546   2.547  18.723  0.1312  2.9568  1.0662
  988TIP3    H227160   1.537   2.575  18.871 -0.9288 -1.7180  2.0526
  989TIP3   OH227161   2.980   5.301  18.809  0.2383  0.4539 -0.0233
  989TIP3    H127162   2.965   5.393  18.789 -0.4056  0.7269  1.5962
  989TIP3    H227163   3.057   5.277  18.756  0.3034  1.8528 -0.6014
  990TIP3   OH227164   4.858   2.184  18.377  0.0122  0.4063  0.0027
  990TIP3    H127165   4.882   2.199  18.286  2.0182  0.5662  0.4924
  990TIP3    H227166   4.864   2.089  18.388  1.6725  0.5165  0.3800
  991TIP3   OH227167   5.267   5.420  17.550 -0.4981 -0.1354 -0.3273
  991TIP3    H127168   5.180   5.408  17.589  0.6629  1.2462  3.0708
  991TIP3    H227169   5.313   5.338  17.569 -0.2153  0.2093  0.5792
  992TIP3   OH227170   2.033   6.185  17.741 -0.7771  0.1948 -0.3190
  992TIP3    H127171   2.070   6.242  17.809  1.5451  0.7055 -1.8770
  992TIP3    H227172   2.086   6.105  17.746 -1.9336 -0.5751 -0.2115
  993TIP3   OH227173   4.412   3.637  19.468 -0.4768 -0.4748  0.6603
  993TIP3    H127174   4.499   3.638  19.428 -0.9960  1.8455 -0.5521
  993TIP3    H227175   4.425   3.669  19.557 -0.2332  1.1729  0.0562
  994TIP3   OH227176   3.550   4.716  17.534 -0.2320 -0.4396  0.0096
  994TIP3    H127177   3.582   4.750  17.450 -0.2576 -1.1682 -0.3012
  994TIP3    H227178   3.575   4.624  17.534 -0.3778 -0.4878  0.7359
  995TIP3   OH227179   3.645   5.257  19.594 -0.0581 -0.3075 -0.6689
  995TIP3    H127180   3.622   5.340  19.552  0.9011 -0.5475 -1.7079
  995TIP3    H227181   3.739   5.265  19.612 -0.1760 -0.7651  0.1824
  996TIP3   OH227182   6.556   5.966  18.071  0.3312 -0.4600  0.1395
  996TIP3    H127183   6.635   6.020  18.063 -0.8695  1.6931  1.7124
  996TIP3    H227184   6.487   6.018  18.028 -1.3034  0.3832  3.4671
  997TIP3   OH227185   6.080   3.843  18.095 -0.1130  0.2896  0.1743
  997TIP3    H127186   5.985   3.835  18.094 -0.1863  1.1056 -0.6103
  997TIP3    H227187   6.097   3.935  18.079  0.8240  0.0516 -0.3000
  998TIP3   OH227188   0.449   0.734  17.261 -0.0321 -0.6034  0.4505
  998TIP3    H127189   0.385   0.672  17.227  0.6970 -2.1809  1.7892
  998TIP3    H227190   0.484   0.777  17.184 -2.3952  0.0360 -0.3488
  999TIP3   OH227191   3.269   3.071  18.861  0.1305  0.6421 -0.0569
  999TIP3    H127192   3.319   3.046  18.784 -0.1412  1.3569 -0.4832
  999TIP3    H227193   3.178   3.057  18.835  0.0288  1.0919  0.0546
 1000TIP3   OH227194   0.163   5.333  18.932  0.4639  0.7438 -0.5331
 1000TIP3    H127195   0.134   5.241  18.927  0.3222  0.8549 -1.9273
 1000TIP3    H227196   0.149   5.368  18.844  0.8751  2.0091 -0.1147
 1001TIP3   OH227197   1.035   4.687  17.876 -0.0515 -0.1345  0.0358
 1001TIP3    H127198   0.973   4.749  17.914 -0.1730  0.5026 -1.1357
 1001TIP3    H227199   1.113   4.740  17.856  0.5916 -0.7675  0.7805
 1002TIP3   OH227200   5.602   5.548  19.799 -0.0001  0.0880  0.2236
 1002TIP3    H127201   5.519   5.528  19.756 -0.1159 -0.7369  0.8000
 1002TIP3    H227202   5.586   5.530  19.892  1.2623 -1.6336  0.1548
 1003TIP3   OH227203   4.176   6.218  18.599  0.5815  0.3965  0.1456
 1003TIP3    H127204   4.107   6.152  18.594 -0.0682  1.1690 -1.9200
 1003TIP3    H227205   4.147   6.276  18.669  0.4948 -0.7297  1.0885
 1004TIP3   OH227206   1.312   3.289  20.238  0.4079  0.2714 -0.3538
 1004TIP3    H127207   1.350   3.250  20.159 -0.0786 -1.3317  0.1719
 1004TIP3    H227208   1.352   3.241  20.310 -1.3345 -0.3411  0.2612
 1005TIP3   OH227209   1.797   0.720  18.552  0.0753  0.0989 -0.2401
 1005TIP3    H127210   1.703   0.728  18.535  0.2747  2.3283 -0.5707
 1005TIP3    H227211   1.831   0.809  18.543  2.4563 -0.8344 -1.4869
 1006TIP3   OH227212   3.292   2.600  17.513 -0.2170  0.3528  0.0502
 1006TIP3    H127213   3.209   2.553  17.520  0.5584 -0.9004  1.3449
 1006TIP3    H227214   3.348   2.543  17.460  0.5152  0.1077  1.0639
 1007TIP3   OH227215   5.694   2.195  20.159  0.0693 -0.3131 -0.0486
 1007TIP3    H127216   5.608   2.223  20.188  0.3231 -0.6886  1.1506
 1007TIP3    H227217   5.682   2.104  20.131  0.0252 -0.2905 -0.1005
 1008TIP3   OH227218   4.759   5.983  17.719  0.3586 -0.2837  0.4190
 1008TIP3    H127219   4.844   5.942  17.733  0.0600 -1.1861 -0.2429
 1008TIP3    H227220   4.777   6.077  17.716  1.4338 -0.4938 -0.3531
 1009TIP3   OH227221   5.002   0.581  18.372  0.5000 -0.3696 -0.1845
 1009TIP3    H127222   4.983   0.497  18.414  1.3637 -0.1404  0.6819
 1009TIP3    H227223   5.074   0.561  18.312  1.2051 -0.1113  0.5607
 1010TIP3   OH227224   2.913   4.158  20.205 -0.2111 -0.6831 -0.3274
 1010TIP3    H127225   2.955   4.106  20.274 -0.8929  0.4985  1.0339
 1010TIP3    H227226   2.877   4.094  20.144 -0.3005 -1.7883  0.8557
 1011TIP3   OH227227   3.284   6.182  20.254  0.4537  0.4203 -0.0361
 1011TIP3    H127228   3.199   6.141  20.266 -2.6304  6.3235  2.6623
 1011TIP3    H227229   3.337   6.148  20.327 -1.7055  0.7089  1.7836
 1012TIP3   OH227230   3.785   1.965  18.260  0.3425  0.6621 -0.2658
 1012TIP3    H127231   3.821   1.962  18.349  1.1566  2.1077 -0.5172
 1012TIP3    H227232   3.750   1.877  18.246  1.4906 -0.0305  0.9507
 1013TIP3   OH227233   2.575   3.705  20.159 -0.6874  0.0278 -0.1036
 1013TIP3    H127234   2.601   3.671  20.073  1.2227  1.7120 -0.2651
 1013TIP3    H227235   2.637   3.666  20.220 -0.8063  0.3427  0.2241
 1014TIP3   OH227236   2.369   0.345  18.706  0.1460  0.0429  0.3432
 1014TIP3    H127237   2.441   0.298  18.663  0.0770 -0.0669  0.3488
 1014TIP3    H227238   2.412   0.393  18.777  0.2355  0.0915  0.2588
 1015TIP3   OH227239   1.519   4.040  16.974 -0.1807 -0.5678 -0.0868
 1015TIP3    H127240   1.427   4.019  16.960 -0.2687  0.2284 -0.7563
 1015TIP3    H227241   1.542   4.099  16.903  0.5142  0.2385  0.7725
 1016TIP3   OH227242   4.846   3.786  17.868  0.2377 -0.0508 -0.0395
 1016TIP3    H127243   4.883   3.777  17.955  0.4756 -1.3438 -0.2458
 1016TIP3    H227244   4.816   3.698  17.846 -1.0777  0.5373 -0.7151
 1017TIP3   OH227245   3.085   4.636  17.827  0.5109 -0.1585  0.7258
 1017TIP3    H127246   3.129   4.585  17.895  0.0699 -1.1866  0.2678
 1017TIP3    H227247   3.096   4.583  17.748 -1.7775 -0.6048  0.6539
 1018TIP3   OH227248   0.389   2.146  17.911  0.0137  0.0792 -0.3558
 1018TIP3    H127249   0.435   2.155  17.828  0.5328 -0.6609 -0.1572
 1018TIP3    H227250   0.379   2.052  17.924 -0.1128  0.1835  0.3818
 1019TIP3   OH227251   4.278   2.718  19.359  0.2183  0.3237  0.7772
 1019TIP3    H127252   4.217   2.649  19.333 -0.1549  0.2660  1.7826
 1019TIP3    H227253   4.323   2.741  19.278 -0.9746  0.2161  0.0556
 1020TIP3   OH227254   4.375   5.620  20.141  0.6397  0.3768  0.2313
 1020TIP3    H127255   4.408   5.707  20.163 -2.2006  1.6836 -0.2793
 1020TIP3    H227256   4.280   5.629  20.142  0.2550 -2.2627 -1.6336
 1021TIP3   OH227257   2.192   3.898  18.090 -0.1786 -0.5397  0.0166
 1021TIP3    H127258   2.228   3.827  18.143 -0.2731 -0.0422  0.7527
 1021TIP3    H227259   2.114   3.860  18.049 -0.4840 -0.7240  0.7648
 1022TIP3   OH227260   3.164   1.423  17.401  0.2746 -0.1387 -0.0121
 1022TIP3    H127261   3.102   1.350  17.401 -0.5846  0.5605  0.7998
 1022TIP3    H227262   3.176   1.444  17.494  2.0015 -0.4584 -0.1303
 1023TIP3   OH227263   3.891   1.929  18.515  0.4672  0.3402  0.4422
 1023TIP3    H127264   3.815   1.943  18.571 -0.7220  0.3160 -1.0995
 1023TIP3    H227265   3.966   1.939  18.574 -0.7163 -0.1958  2.1302
 1024TIP3   OH227266   5.023   0.566  17.203  0.0962 -0.0871 -0.0418
 1024TIP3    H127267   4.945   0.616  17.180 -0.8581 -1.4879  0.0418
 1024TIP3    H227268   5.072   0.559  17.121  0.3775  1.1772  0.0006
 1025TIP3   OH227269   4.079   5.775  18.976 -0.1464 -0.5783 -0.2643
 1025TIP3    H127270   4.161   5.803  19.017 -0.9838  0.6057  0.6355
 1025TIP3    H227271   4.016   5.844  18.997 -1.4376 -1.5665 -0.7673
 1026TIP3   OH227272   2.956   1.547  17.223  0.1495  0.5089  0.1280
 1026TIP3    H127273   3.001   1.544  17.307 -0.7945 -1.8650  0.6201
 1026TIP3    H227274   3.023   1.526  17.159  0.3930  0.0618  0.5270
 1027TIP3   OH227275   2.296   4.987  19.110  0.5704 -0.2150 -0.2370
 1027TIP3    H127276   2.284   5.079  19.088 -0.0738 -0.3333 -0.3955
 1027TIP3    H227277   2.354   4.988  19.185 -1.5459  0.4782  1.4973
 1028TIP3   OH227278   3.093   0.933  18.481  0.0943  0.1935  0.0099
 1028TIP3    H127279   3.085   0.842  18.508 -0.7179 -0.0536 -0.9989
 1028TIP3    H227280   3.172   0.935  18.426 -0.5864 -0.1946 -1.0195
 1029TIP3   OH227281   4.431   1.517  17.821 -0.2451 -0.1653 -0.1826
 1029TIP3    H127282   4.397   1.605  17.839  1.9389  0.4317  1.4379
 1029TIP3    H227283   4.433   1.474  17.906  2.5637 -0.2678 -0.2195
 1030TIP3   OH227284   5.070   3.220  17.940  0.3269 -0.2481  0.1996
 1030TIP3    H127285   5.096   3.293  17.885  1.3212  0.1705  1.1981
 1030TIP3    H227286   5.066   3.256  18.028  1.3700 -1.4931  0.7984
 1031TIP3   OH227287   2.321   2.607  18.715  0.1308  0.5661  0.1592
 1031TIP3    H127288   2.296   2.516  18.698 -2.0642  1.4134 -1.6502
 1031TIP3    H227289   2.362   2.636  18.633  2.1229  0.8773  1.1943
 1032TIP3   OH227290   5.546   3.017  20.267  0.2727 -0.0487  0.1860
 1032TIP3    H127291   5.496   3.084  20.313 -0.1483  0.7019 -1.2839
 1032TIP3    H227292   5.637   3.032  20.292  0.1355  0.8223  0.1965
 1033TIP3   OH227293   5.463   5.694  18.709  0.1406 -0.9727 -0.3175
 1033TIP3    H127294   5.399   5.751  18.664 -1.1921 -0.9693  1.4917
 1033TIP3    H227295   5.543   5.746  18.710 -0.4665  0.0212 -0.5594
 1034TIP3   OH227296   0.585   5.326  19.147 -0.3645  0.0155  0.3147
 1034TIP3    H127297   0.674   5.350  19.123 -0.5640  1.0235  0.5667
 1034TIP3    H227298   0.534   5.336  19.067 -0.5286  0.8834  0.5154
 1035TIP3   OH227299   0.471   2.778  19.650 -0.1887  0.4017  0.1570
 1035TIP3    H127300   0.403   2.841  19.626 -0.6885  0.3099  1.2612
 1035TIP3    H227301   0.486   2.794  19.744 -3.0434 -3.5464  1.5451
 1036TIP3   OH227302   0.257   4.545  17.610 -0.0405  0.0635  0.3690
 1036TIP3    H127303   0.323   4.484  17.643  1.1941  2.0184  1.7357
 1036TIP3    H227304   0.174   4.498  17.618  0.9156 -1.5779  0.9571
 1037TIP3   OH227305   6.493   4.017  17.444  0.0535 -0.4496 -0.2268
 1037TIP3    H127306   6.507   3.927  17.417  0.5398 -0.1023 -1.1716
 1037TIP3    H227307   6.436   4.011  17.521 -1.0307 -1.4756 -1.0889
 1038TIP3   OH227308   4.158   0.892  18.758 -0.8068  0.1459  0.2110
 1038TIP3    H127309   4.210   0.965  18.791  0.3040  0.1646 -1.4651
 1038TIP3    H227310   4.068   0.914  18.782 -0.1866  0.5357  2.4170
 1039TIP3   OH227311   3.987   0.336  17.736  0.4376 -0.5298 -0.0483
 1039TIP3    H127312   3.913   0.310  17.792 -0.5492  0.2298 -0.9679
 1039TIP3    H227313   3.994   0.265  17.672  1.0478 -1.0019  0.5275
 1040TIP3   OH227314   3.017   6.106  20.215 -0.4003 -0.7638  0.1357
 1040TIP3    H127315   3.047   6.066  20.133  0.4297  0.9162 -0.4224
 1040TIP3    H227316   2.922   6.108  20.207 -0.2921  0.1821 -1.1963
 1041TIP3   OH227317   1.824   4.874  18.123 -0.4256  0.6078  0.1795
 1041TIP3    H127318   1.786   4.833  18.201 -0.2695  1.6597  0.8424
 1041TIP3    H227319   1.841   4.965  18.150 -0.7991  1.1294 -1.2305
 1042TIP3   OH227320   0.184   0.154  18.221  0.0015  0.0059 -0.3096
 1042TIP3    H127321   0.102   0.138  18.269 -0.6576  1.7522 -0.7801
 1042TIP3    H227322   0.157   0.203  18.143  1.5657  1.1996 -0.1423
 1043TIP3   OH227323   5.689   4.666  18.990 -0.2616 -0.2102  0.4581
 1043TIP3    H127324   5.696   4.695  18.899 -0.5901 -0.4032  0.3725
 1043TIP3    H227325   5.699   4.746  19.041 -1.1463  0.0561  0.2223
 1044TIP3   OH227326   3.824   3.336  19.084  0.2952 -0.7882 -0.2748
 1044TIP3    H127327   3.910   3.298  19.105  1.2987  1.6856  0.5116
 1044TIP3    H227328   3.790   3.367  19.168  0.1403  1.1075 -0.9891
 1045TIP3   OH227329   5.678   0.907  16.800 -0.4938  0.0278  0.2370
 1045TIP3    H127330   5.709   0.842  16.863 -1.6057 -1.3957 -0.6142
 1045TIP3    H227331   5.673   0.859  16.717 -2.4519  0.8605 -0.1947
 1046TIP3   OH227332   5.898   6.312  18.994  0.1544  0.1520 -0.5857
 1046TIP3    H127333   5.938   6.226  19.001  1.6359  0.9208  1.5593
 1046TIP3    H227334   5.957   6.361  18.937  0.1281  0.1446 -0.6184
 1047TIP3   OH227335   5.740   5.907  19.551 -0.2302  0.0536 -0.4052
 1047TIP3    H127336   5.768   5.998  19.566  0.6173 -0.5369  2.2491
 1047TIP3    H227337   5.805   5.872  19.490 -0.5171  1.1800 -1.3962
 1048TIP3   OH227338   1.227   5.748  18.462  0.3884  0.3181  0.5400
 1048TIP3    H127339   1.198   5.774  18.549  0.0017 -0.8873  0.7950
 1048TIP3    H227340   1.209   5.654  18.458  1.1970  0.1874 -0.5257
 1049TIP3   OH227341   6.274   0.365  17.158 -0.1533 -0.0565 -0.4493
 1049TIP3    H127342   6.186   0.399  17.144  0.0835  1.3327  1.1403
 1049TIP3    H227343   6.331   0.427  17.112  0.1055  0.2369  0.2498
 1050TIP3   OH227344   4.550   3.591  17.983 -0.1945  0.0456  0.1848
 1050TIP3    H127345   4.525   3.500  17.999  0.4893  0.0389  1.2459
 1050TIP3    H227346   4.523   3.638  18.062  0.0216  0.6555 -0.0952
 1051TIP3   OH227347   3.134   6.407  17.723 -0.0461 -0.8130 -0.0856
 1051TIP3    H127348   3.175   6.486  17.689  0.3581  0.6756  3.4109
 1051TIP3    H227349   3.044   6.412  17.693  0.9773 -1.5310 -3.7108
 1052TIP3   OH227350   3.661   5.727  19.257 -0.4213 -0.1340 -0.0056
 1052TIP3    H127351   3.642   5.799  19.318 -1.9184 -0.2532 -0.2961
 1052TIP3    H227352   3.624   5.756  19.174 -0.0741 -0.7902 -0.3978
 1053TIP3   OH227353   3.086   2.711  19.095 -0.1272 -0.1129 -0.1262
 1053TIP3    H127354   3.166   2.668  19.066  1.6022  3.0388 -0.5344
 1053TIP3    H227355   3.116   2.787  19.145 -2.7855  1.9230 -1.3377
 1054TIP3   OH227356   4.097   4.417  18.523 -0.4176  0.8047 -0.4236
 1054TIP3    H127357   4.118   4.449  18.611  0.7457  0.2950 -0.4938
 1054TIP3    H227358   4.111   4.492  18.466  0.8952  0.5827 -0.4146
 1055TIP3   OH227359   5.310   3.173  18.398 -0.7544 -0.4786  0.2606
 1055TIP3    H127360   5.306   3.078  18.413 -0.4891 -0.3766  1.0223
 1055TIP3    H227361   5.230   3.207  18.439 -0.7813 -0.3570  0.1078
 1056TIP3   OH227362   3.534   0.799  18.715 -0.2689  0.5892  0.2126
 1056TIP3    H127363   3.492   0.761  18.791 -0.6820 -0.5196 -0.5392
 1056TIP3    H227364   3.550   0.890  18.738  1.7354 -0.2324  2.5166
 1057TIP3   OH227365   3.267   2.297  20.525 -0.4571  0.0479  0.3150
 1057TIP3    H127366   3.326   2.364  20.489 -1.0713 -0.5096 -1.8897
 1057TIP3    H227367   3.323   2.222  20.541  0.0770  0.7582  1.9414
 1058TIP3   OH227368   2.465   6.570  18.794 -0.1201  0.0197 -0.1462
 1058TIP3    H127369   2.406   6.642  18.813 -0.5445 -0.2267 -0.4998
 1058TIP3    H227370   2.448   6.548  18.703  0.3076 -0.2466 -0.1658
 1059TIP3   OH227371   2.132   0.764  18.345 -0.0399 -0.1137 -0.0457
 1059TIP3    H127372   2.079   0.686  18.356  1.5725 -1.1872  0.3969
 1059TIP3    H227373   2.185   0.747  18.267 -0.3843  0.9747 -0.5442
 1060TIP3   OH227374   4.740   4.874  17.034  0.2773 -0.2756 -0.1382
 1060TIP3    H127375   4.704   4.962  17.044  0.8647 -0.0901  0.4075
 1060TIP3    H227376   4.667   4.815  17.051 -0.4442  0.0965 -1.7481
 1061TIP3   OH227377   1.157   5.590  19.439  0.0462  0.4553  0.9953
 1061TIP3    H127378   1.108   5.663  19.402 -1.0218  0.5885  2.6132
 1061TIP3    H227379   1.103   5.513  19.420  1.7206 -0.2170 -1.7841
 1062TIP3   OH227380   0.313   3.529  18.671  0.2703 -0.2291  0.2778
 1062TIP3    H127381   0.339   3.439  18.688  2.3916  0.3657  0.4992
 1062TIP3    H227382   0.235   3.542  18.725 -0.3077 -2.0169 -0.0573
 1063TIP3   OH227383   3.791   5.795  19.898 -0.2596 -0.0843 -0.3422
 1063TIP3    H127384   3.777   5.890  19.894 -0.9993 -0.1633  0.1027
 1063TIP3    H227385   3.703   5.759  19.910 -0.0759 -0.8804 -1.2602
 1064TIP3   OH227386   4.272   2.023  19.113 -0.0268  0.3774  0.6247
 1064TIP3    H127387   4.310   2.047  19.028  0.6196  0.1733  0.8531
 1064TIP3    H227388   4.220   1.945  19.094 -0.3431  0.6620  0.3097
 1065TIP3   OH227389   5.348   2.252  18.320 -0.3008 -0.2684  0.1015
 1065TIP3    H127390   5.383   2.244  18.408 -0.4474 -3.4714 -0.0020
 1065TIP3    H227391   5.292   2.329  18.323  0.5326  0.3310  2.4692
 1066TIP3   OH227392   4.885   6.010  19.539  0.1030  0.0743  0.1200
 1066TIP3    H127393   4.925   6.092  19.513 -0.9358  0.9819  1.2734
 1066TIP3    H227394   4.955   5.945  19.530  0.9646  1.0871 -0.7026
 1067TIP3   OH227395   0.619   0.345  17.176  0.3142  0.5207 -0.2121
 1067TIP3    H127396   0.709   0.367  17.149  1.0862 -2.2051 -0.1696
 1067TIP3    H227397   0.628   0.263  17.225 -2.3959 -1.1208 -2.1626
 1068TIP3   OH227398   1.999   2.656  17.632 -0.1720 -0.4464  0.1891
 1068TIP3    H127399   2.053   2.735  17.619  0.0841 -0.4659  1.0492
 1068TIP3    H227400   1.929   2.685  17.690 -0.4784 -0.6877 -0.0611
 1069TIP3   OH227401   2.709   2.628  17.624  0.5160 -0.0208  0.6018
 1069TIP3    H127402   2.651   2.561  17.661  0.3515  0.9570  2.2459
 1069TIP3    H227403   2.740   2.590  17.542  0.6671 -2.2307  1.5937
 1070TIP3   OH227404   0.541   1.173  17.265  0.9220 -0.3475  0.6402
 1070TIP3    H127405   0.472   1.194  17.201  0.9309 -2.6869 -0.2295
 1070TIP3    H227406   0.552   1.253  17.315 -0.5047  0.9540 -1.0004
 1071TIP3   OH227407   6.368   4.786  19.395 -0.0121  0.0291 -0.5660
 1071TIP3    H127408   6.411   4.847  19.455 -0.8559 -1.5492  1.7474
 1071TIP3    H227409   6.304   4.840  19.348  0.0847  1.1434  0.5382
 1072TIP3   OH227410   0.665   6.638  17.428  0.0746 -0.0275 -0.0551
 1072TIP3    H127411   0.695   6.713  17.377  0.4913 -0.3323 -0.2747
 1072TIP3    H227412   0.745   6.589  17.447 -0.1394 -0.1781  0.4728
 1073TIP3   OH227413   6.126   4.840  17.789 -0.2757 -0.2843  0.2630
 1073TIP3    H127414   6.195   4.888  17.744 -0.5785  0.1365  0.2425
 1073TIP3    H227415   6.108   4.765  17.733 -0.0863 -0.1983  0.0900
 1074TIP3   OH227416   4.497   6.352  19.246 -0.1849 -0.0656  0.4824
 1074TIP3    H127417   4.541   6.271  19.272  0.1455 -0.0054  0.1198
 1074TIP3    H227418   4.479   6.341  19.153 -0.4108  0.1554  0.4977
 1075TIP3   OH227419   0.884   2.726  20.192  0.1253  0.1788 -0.2414
 1075TIP3    H127420   0.961   2.703  20.244  0.0464  1.4110  0.4782
 1075TIP3    H227421   0.887   2.822  20.188 -0.9487  0.1938 -0.8581
 1076TIP3   OH227422   1.223   5.870  19.631  0.1254 -0.8491  0.3740
 1076TIP3    H127423   1.267   5.794  19.670  0.4812 -0.3575  0.9482
 1076TIP3    H227424   1.281   5.897  19.560 -0.6331 -1.8811 -0.6756
 1077TIP3   OH227425   6.265   2.573  17.451 -0.3697 -0.1202 -0.1611
 1077TIP3    H127426   6.356   2.595  17.430 -0.2742  0.2499  0.6098
 1077TIP3    H227427   6.225   2.658  17.472 -0.6908 -0.3777  0.2673
 1078TIP3   OH227428   6.318   4.763  18.826  0.0242 -0.2936  0.4358
 1078TIP3    H127429   6.233   4.786  18.789  0.4210 -1.6590 -1.4524
 1078TIP3    H227430   6.300   4.747  18.919 -1.6472  0.0791  0.2126
 1079TIP3   OH227431   2.364   6.282  18.461 -0.4791 -0.3700  0.0512
 1079TIP3    H127432   2.371   6.376  18.443 -2.0646 -0.4486 -1.1540
 1079TIP3    H227433   2.329   6.244  18.381 -0.6898 -1.8755  0.8231
 1080TIP3   OH227434   4.779   4.847  17.798  0.6109 -0.3081  0.5350
 1080TIP3    H127435   4.776   4.794  17.718 -1.0982  0.2757  0.1665
 1080TIP3    H227436   4.820   4.930  17.770 -0.8342  0.2603 -0.0140
 1081TIP3   OH227437   6.265   4.102  18.745 -0.4860  0.1413 -0.1593
 1081TIP3    H127438   6.181   4.066  18.716  0.0575 -1.6647  0.3761
 1081TIP3    H227439   6.326   4.028  18.742  0.7361  1.0435  0.9017
 1082TIP3   OH227440   5.725   1.003  17.469 -0.0154  0.4674 -0.3352
 1082TIP3    H127441   5.673   0.924  17.453  0.0244 -0.0854  1.9929
 1082TIP3    H227442   5.671   1.075  17.434 -0.2764 -0.4890 -2.0187
 1083TIP3   OH227443   2.721   1.020  19.808 -0.0257  0.6500 -0.0981
 1083TIP3    H127444   2.805   0.976  19.793 -0.4478 -0.2170 -0.0062
 1083TIP3    H227445   2.709   1.016  19.902 -0.3477  0.4302 -0.1492
 1084TIP3   OH227446   5.824   5.614  19.240 -0.1009  0.4892  0.5668
 1084TIP3    H127447   5.762   5.578  19.304 -0.5986  2.0109  0.9810
 1084TIP3    H227448   5.769   5.645  19.168  0.1432  1.9678  0.9950
 1085TIP3   OH227449   6.402   0.163  17.312  0.0566 -0.2717  0.0013
 1085TIP3    H127450   6.362   0.209  17.238  1.3496  1.3103  0.2439
 1085TIP3    H227451   6.439   0.232  17.367  1.9147 -1.5803  0.4875
 1086TIP3   OH227452   1.332   3.221  19.575  0.2891 -0.0350 -0.0267
 1086TIP3    H127453   1.388   3.156  19.532  0.3537 -0.5392  0.7861
 1086TIP3    H227454   1.377   3.239  19.658  0.1406  0.8684 -0.1336
 1087TIP3   OH227455   0.030   3.574  17.628  0.2208 -0.1253  0.5174
 1087TIP3    H127456   0.014   3.553  17.536 -1.4149  1.5269  0.3418
 1087TIP3    H227457   0.066   3.663  17.626 -0.2376  0.0986  1.4652
 1088TIP3   OH227458   5.383   4.879  18.705 -0.3554 -0.2202  0.2597
 1088TIP3    H127459   5.413   4.952  18.651  0.4075  1.4698  2.7985
 1088TIP3    H227460   5.463   4.837  18.735 -0.7129 -0.3238  1.0948
 1089TIP3   OH227461   5.916   1.728  20.158 -0.5923 -0.2731  0.1625
 1089TIP3    H127462   5.876   1.711  20.073 -1.8441 -2.6201  1.1181
 1089TIP3    H227463   5.843   1.723  20.220  0.6166 -0.8003  1.5993
 1090TIP3   OH227464   4.694   4.714  19.214  0.3091  0.3682 -0.2841
 1090TIP3    H127465   4.759   4.745  19.277 -0.0319 -1.4974  1.0713
 1090TIP3    H227466   4.612   4.711  19.264 -0.3935  0.6587 -1.3756
 1091TIP3   OH227467   5.548   6.234  16.921  0.4911  0.2810 -0.2823
 1091TIP3    H127468   5.512   6.321  16.902  0.9453  0.4562 -0.3600
 1091TIP3    H227469   5.473   6.175  16.916  0.0516  0.7684  0.4890
 1092TIP3   OH227470   1.238   1.063  17.884 -0.3688 -0.0101  0.2872
 1092TIP3    H127471   1.162   1.007  17.892  0.1838 -0.6461  1.3159
 1092TIP3    H227472   1.313   1.004  17.893  0.2337  0.7301  0.2569
 1093TIP3   OH227473   5.094   3.055  19.016 -0.6092 -0.4144  0.6475
 1093TIP3    H127474   5.136   3.121  19.071  1.5524 -1.3781  0.2447
 1093TIP3    H227475   5.047   3.106  18.950 -0.9006  0.7201  1.6888
 1094TIP3   OH227476   6.285   6.405  19.659  0.4782  0.3583 -0.5368
 1094TIP3    H127477   6.283   6.483  19.604 -0.7388  0.4166 -0.4409
 1094TIP3    H227478   6.270   6.438  19.748 -1.9818 -0.1046 -0.7001
 1095TIP3   OH227479   0.763   6.514  16.503  0.4185 -0.2348  0.3722
 1095TIP3    H127480   0.674   6.536  16.475  0.3174 -1.0907  0.0033
 1095TIP3    H227481   0.809   6.598  16.506 -0.2400  0.1422 -0.0148
 1096TIP3   OH227482   5.232   1.420  20.045  0.0085  0.3412  0.2357
 1096TIP3    H127483   5.297   1.381  20.104 -0.7962 -0.8148  0.3939
 1096TIP3    H227484   5.263   1.397  19.957 -0.4866 -0.7613  0.3266
 1097TIP3   OH227485   2.508   5.707  16.669  0.3986  0.3967 -0.2421
 1097TIP3    H127486   2.600   5.729  16.654  0.1799  1.5873  0.0495
 1097TIP3    H227487   2.459   5.773  16.620 -0.3043  1.3657  1.6568
 1098TIP3   OH227488   5.625   0.268  16.322 -0.3395 -0.2828 -0.5517
 1098TIP3    H127489   5.560   0.207  16.288 -0.1813  0.5918 -2.5991
 1098TIP3    H227490   5.700   0.260  16.262  0.1132  1.0990 -0.2127
 1099TIP3   OH227491   0.279   2.265  19.749  0.1711  0.6901  0.3466
 1099TIP3    H127492   0.363   2.311  19.753  1.3124 -1.3205  1.2488
 1099TIP3    H227493   0.239   2.294  19.667  2.4668  0.5514 -0.9114
 1100TIP3   OH227494   4.783   0.250  20.359  0.1400  0.0304  0.0156
 1100TIP3    H127495   4.799   0.164  20.320 -4.3754 -0.5832 -0.9350
 1100TIP3    H227496   4.773   0.233  20.453 -0.4862 -0.4498 -0.1363
 1101TIP3   OH227497   2.531   3.430  20.530  0.1627 -0.1833  0.2062
 1101TIP3    H127498   2.501   3.519  20.549 -0.4907 -0.0129 -1.4515
 1101TIP3    H227499   2.559   3.395  20.615  0.1678  1.4956  0.9383
 1102TIP3   OH227500   2.034   2.973  20.004  0.3153  0.9798 -0.2969
 1102TIP3    H127501   2.064   2.923  19.928  0.9387  1.2484 -0.2299
 1102TIP3    H227502   1.944   2.998  19.982  0.5997  1.3336 -1.0821
 1103TIP3   OH227503   4.980   0.816  19.974 -0.1728 -0.3258  0.9177
 1103TIP3    H127504   5.070   0.815  20.007 -0.3623 -1.8143  1.4996
 1103TIP3    H227505   4.949   0.905  19.991  0.6379 -0.2761  2.2879
 1104TIP3   OH227506   2.118   0.753  19.099  0.6468  0.3036  0.0259
 1104TIP3    H127507   2.145   0.697  19.172  1.6796  1.0246  0.2207
 1104TIP3    H227508   2.153   0.711  19.021  1.6273  0.7798  0.1950
 1105TIP3   OH227509   5.643   2.921  18.432 -0.0395  0.1336  0.3907
 1105TIP3    H127510   5.578   2.934  18.500 -0.8396 -1.0922 -0.0910
 1105TIP3    H227511   5.598   2.943  18.351  1.0652  2.1104  0.2550
 1106TIP3   OH227512   2.768   5.276  19.312 -0.0009 -0.5494  0.3609
 1106TIP3    H127513   2.767   5.339  19.384  0.3079 -0.4473  0.2784
 1106TIP3    H227514   2.800   5.327  19.237  0.0986 -0.7655  0.2576
 1107TIP3   OH227515   2.334   5.865  19.703 -0.8963 -0.1440 -0.1365
 1107TIP3    H127516   2.275   5.936  19.678 -3.7020 -1.6692  1.6888
 1107TIP3    H227517   2.309   5.842  19.792  2.1818 -1.2738  0.5797
 1108TIP3   OH227518   2.142   3.180  19.603 -0.1504  0.0511  0.4708
 1108TIP3    H127519   2.173   3.196  19.514  0.7088  1.4480  0.9909
 1108TIP3    H227520   2.127   3.085  19.606  0.4362 -0.1224 -0.9525
 1109TIP3   OH227521   4.302   0.273  17.095 -0.2765 -0.6775  0.2213
 1109TIP3    H127522   4.373   0.335  17.114 -0.2788 -0.7044  0.3124
 1109TIP3    H227523   4.281   0.290  17.003 -2.1418  1.3597  0.9520
 1110TIP3   OH227524   3.605   2.254  18.166 -0.0978  0.5989  0.2389
 1110TIP3    H127525   3.622   2.183  18.229  1.5975  0.0966 -0.7338
 1110TIP3    H227526   3.652   2.329  18.202  1.1454  0.2260 -0.5325
 1111TIP3   OH227527   0.528   2.877  19.906 -0.0713  0.5953  0.1262
 1111TIP3    H127528   0.466   2.828  19.961  0.5137 -0.7490 -0.3766
 1111TIP3    H227529   0.503   2.969  19.918 -2.1424  0.0977 -0.0425
 1112TIP3   OH227530   1.153   1.679  20.071 -0.5920  0.1059  0.2851
 1112TIP3    H127531   1.091   1.614  20.103  0.9265 -2.2946 -1.3138
 1112TIP3    H227532   1.232   1.629  20.052 -0.6672  1.4056 -5.2026
 1113TIP3   OH227533   0.840   5.122  17.053 -0.2952 -0.4539 -0.2785
 1113TIP3    H127534   0.831   5.115  16.958 -0.6280 -1.7591 -0.1622
 1113TIP3    H227535   0.934   5.112  17.068  0.2960  3.1751 -0.6909
 1114TIP3   OH227536   0.804   0.801  16.847  0.4958  0.1646  0.1488
 1114TIP3    H127537   0.870   0.736  16.870  0.8358  0.4359 -0.0589
 1114TIP3    H227538   0.843   0.885  16.870 -0.3364  0.2439  1.3728
 1115TIP3   OH227539   2.280   1.608  19.012 -0.0486  0.1780 -0.0767
 1115TIP3    H127540   2.285   1.680  19.074  0.2295  0.6078 -0.5846
 1115TIP3    H227541   2.310   1.531  19.061 -1.3517  0.1950  0.7709
 1116TIP3   OH227542   5.099   4.292  20.004  0.1457  0.2242  0.5530
 1116TIP3    H127543   5.105   4.273  20.098  0.9189  0.6149  0.5937
 1116TIP3    H227544   5.183   4.332  19.983  0.0065  0.0703 -0.3281
 1117TIP3   OH227545   0.777   4.848  18.280  0.0588  0.0553  0.5628
 1117TIP3    H127546   0.742   4.935  18.261 -0.8390  0.1436  2.4764
 1117TIP3    H227547   0.843   4.863  18.348  1.2397 -0.5717 -0.3935
 1118TIP3   OH227548   1.085   0.832  18.089 -0.3520 -0.1334 -0.3457
 1118TIP3    H127549   1.021   0.808  18.156 -0.5448 -0.5598 -0.6774
 1118TIP3    H227550   1.098   0.752  18.039 -0.9046  0.4021 -1.3863
 1119TIP3   OH227551   4.322   6.113  19.549 -0.2291 -0.6195 -0.3184
 1119TIP3    H127552   4.340   6.205  19.530  1.0165 -0.2723  2.1560
 1119TIP3    H227553   4.276   6.115  19.633 -0.4281 -2.2513 -0.3592
 1120TIP3   OH227554   4.255   2.680  20.252 -0.4553 -0.2922 -0.1501
 1120TIP3    H127555   4.291   2.713  20.335  0.0680 -0.4890 -0.2967
 1120TIP3    H227556   4.183   2.624  20.278 -0.5387 -0.0467  0.1582
 1121TIP3   OH227557   3.481   6.101  17.618 -0.2958 -0.2237 -0.3695
 1121TIP3    H127558   3.445   6.157  17.686  0.0927  1.1775 -1.2885
 1121TIP3    H227559   3.480   6.013  17.656 -0.8990  0.3995  1.1003
 1122TIP3   OH227560   2.275   1.349  19.961 -0.1147  0.3181 -0.3342
 1122TIP3    H127561   2.209   1.411  19.989 -0.4368 -0.1982  0.0626
 1122TIP3    H227562   2.358   1.389  19.987 -0.3917 -0.0642  1.2292
 1123TIP3   OH227563   6.262   2.650  19.609 -0.4053  0.9462  0.1900
 1123TIP3    H127564   6.209   2.585  19.655  1.3511 -0.1510  0.7786
 1123TIP3    H227565   6.263   2.726  19.667  0.1652  0.2983  1.0467
 1124TIP3   OH227566   0.926   2.372  20.198 -0.5501  0.0383 -0.3909
 1124TIP3    H127567   0.990   2.301  20.203  0.3635  0.7394 -1.6956
 1124TIP3    H227568   0.957   2.428  20.128 -1.4392  1.5632  0.3833
 1125TIP3   OH227569   4.587   4.640  17.887  0.4184 -0.0092  0.0567
 1125TIP3    H127570   4.631   4.724  17.873 -0.7417  0.4338 -1.1074
 1125TIP3    H227571   4.557   4.642  17.977 -0.2234  1.1315 -0.1768
 1126TIP3   OH227572   4.691   5.904  17.475  0.3178  0.8679 -0.4401
 1126TIP3    H127573   4.675   5.812  17.452  0.8097  0.8490 -0.7195
 1126TIP3    H227574   4.722   5.901  17.565  0.0996  0.7823 -0.3657
 1127TIP3   OH227575   3.100   3.306  18.085  0.0837 -0.0784  1.0036
 1127TIP3    H127576   3.023   3.329  18.137 -0.2991 -3.1460  2.0101
 1127TIP3    H227577   3.175   3.323  18.143 -0.2443 -2.0180  2.0668
 1128TIP3   OH227578   1.127   0.347  19.206 -0.1953 -0.4458 -0.3438
 1128TIP3    H127579   1.083   0.381  19.128 -0.0202  0.4037 -0.0898
 1128TIP3    H227580   1.082   0.265  19.225 -1.0009 -0.1002 -0.6855
 1129TIP3   OH227581   6.053   4.796  17.314 -0.0231  0.4000 -1.0077
 1129TIP3    H127582   6.144   4.786  17.340  0.0747  3.0782 -0.0899
 1129TIP3    H227583   6.007   4.726  17.362  1.2136  0.5512  0.4668
 1130TIP3   OH227584   3.200   5.344  20.533 -0.2576  0.4076 -0.0122
 1130TIP3    H127585   3.195   5.345  20.629  0.2822  2.9959  0.0498
 1130TIP3    H227586   3.110   5.360  20.504 -0.2178  0.8189  0.0893
 1131TIP3   OH227587   4.534   5.553  16.775 -0.3710 -0.1838  0.3155
 1131TIP3    H127588   4.504   5.608  16.848  1.4869 -0.1159  1.0854
 1131TIP3    H227589   4.556   5.470  16.816 -0.3508 -0.5114 -0.3629
 1132TIP3   OH227590   3.128   6.558  20.013  0.1610  0.1624 -0.3345
 1132TIP3    H127591   3.095   6.515  20.092 -0.5556  1.0908 -0.1070
 1132TIP3    H227592   3.222   6.543  20.015 -0.1100 -1.7945 -0.5253
 1133TIP3   OH227593   2.649   4.959  18.665  0.3475  0.0708 -0.3251
 1133TIP3    H127594   2.666   4.866  18.652  2.0270  0.4916 -1.4108
 1133TIP3    H227595   2.735   4.997  18.680 -0.4126  1.3225  1.1344
 1134TIP3   OH227596   3.532   5.114  19.193 -0.4344 -0.2205 -0.0530
 1134TIP3    H127597   3.573   5.106  19.279 -1.4205  0.5338  0.5020
 1134TIP3    H227598   3.444   5.081  19.204 -0.6242  0.0364 -0.7313
 1135TIP3   OH227599   6.565   2.969  17.294  0.2433  0.0968  0.4459
 1135TIP3    H127600   6.530   2.932  17.213  1.7369  0.5314 -0.4371
 1135TIP3    H227601   6.583   2.893  17.349 -0.1060 -0.2408  0.1028
 1136TIP3   OH227602   1.945   0.130  19.338  0.0326  0.5341  0.5687
 1136TIP3    H127603   1.924   0.206  19.284  1.6552 -0.0255 -0.9625
 1136TIP3    H227604   2.040   0.120  19.330 -0.1839 -1.9737  0.2212
 1137TIP3   OH227605   4.360   4.007  19.853  0.1691  0.1259  0.3829
 1137TIP3    H127606   4.399   3.978  19.936 -0.0974  1.3771  0.9590
 1137TIP3    H227607   4.306   4.082  19.877 -1.4646 -0.6754 -0.6200
 1138TIP3   OH227608   3.493   6.552  17.073  0.2389 -0.0376  0.7966
 1138TIP3    H127609   3.431   6.571  17.002  1.1532 -1.4793 -0.4422
 1138TIP3    H227610   3.546   6.631  17.080  0.1702  0.1083 -0.1740
 1139TIP3   OH227611   4.586   1.361  19.875  0.2757  0.3287  0.4451
 1139TIP3    H127612   4.667   1.310  19.879 -0.2715 -0.5075  1.1724
 1139TIP3    H227613   4.521   1.306  19.919 -0.5448  1.2662  0.4264
 1140TIP3   OH227614   6.092   0.580  20.165  0.2123  0.4625 -0.0250
 1140TIP3    H127615   6.184   0.574  20.140 -0.1901  0.5666 -1.6119
 1140TIP3    H227616   6.079   0.504  20.223  1.3368  0.5896  0.4271
 1141TIP3   OH227617   6.031   1.702  18.763  0.4445  0.0982  0.2355
 1141TIP3    H127618   6.124   1.683  18.774  0.6984  0.7328 -0.7404
 1141TIP3    H227619   6.012   1.683  18.671 -0.9332 -2.1857  0.9236
 1142TIP3   OH227620   2.741   1.450  18.533 -0.6070  0.0624  0.2382
 1142TIP3    H127621   2.653   1.459  18.570 -0.7978  3.0273 -0.6401
 1142TIP3    H227622   2.726   1.438  18.439 -0.0543 -1.7686  0.3518
 1143TIP3   OH227623   5.273   3.329  17.035 -0.1386  0.1536  0.3866
 1143TIP3    H127624   5.240   3.256  16.984  1.5876 -0.8418  0.6318
 1143TIP3    H227625   5.260   3.406  16.979  0.0166 -0.6547 -0.7761
 1144TIP3   OH227626   2.992   5.880  19.324 -0.0626  0.0092  0.5942
 1144TIP3    H127627   3.059   5.909  19.263  0.2068 -1.2233  0.2806
 1144TIP3    H227628   2.910   5.911  19.287  0.2795  1.2341  0.8065
 1145TIP3   OH227629   3.735   2.650  17.570  0.3027  0.1810 -0.3233
 1145TIP3    H127630   3.717   2.591  17.497 -3.1822 -0.4632  0.8534
 1145TIP3    H227631   3.796   2.601  17.626  0.8217 -0.4747 -1.4300
 1146TIP3   OH227632   3.039   2.073  20.193  0.2505  0.1332  0.5514
 1146TIP3    H127633   2.994   1.990  20.176 -0.5968  0.4027  1.4047
 1146TIP3    H227634   3.016   2.128  20.119 -0.5591  0.1526  0.8089
 1147TIP3   OH227635   1.891   2.519  16.810  0.0565  0.3335  0.3437
 1147TIP3    H127636   1.810   2.471  16.826  0.1805 -0.1239 -0.3447
 1147TIP3    H227637   1.897   2.581  16.883  0.1654 -1.0467  1.5388
 1148TIP3   OH227638   4.300   5.287  17.803 -0.1838 -0.4735 -0.2246
 1148TIP3    H127639   4.362   5.235  17.855  0.7693 -0.0592 -0.9238
 1148TIP3    H227640   4.307   5.250  17.715  0.4033  0.7355 -0.7013
 1149TIP3   OH227641   1.444   0.079  19.135 -0.2643  0.0103 -0.2961
 1149TIP3    H127642   1.474   0.106  19.222  0.0733 -1.3060  0.0163
 1149TIP3    H227643   1.425   0.161  19.090 -0.8509  0.7096  1.1580
 1150TIP3   OH227644   4.019   0.375  20.028 -0.3726  0.2190  0.6042
 1150TIP3    H127645   4.098   0.363  19.975 -1.5949  1.7716 -1.7680
 1150TIP3    H227646   4.013   0.470  20.040 -2.0634  0.1800  0.3362
 1151TIP3   OH227647   4.471   4.450  17.728 -0.0750  1.0708 -0.0602
 1151TIP3    H127648   4.396   4.507  17.716 -0.5558  0.8328  1.6059
 1151TIP3    H227649   4.534   4.502  17.778  0.3017  0.7976 -0.2408
 1152TIP3   OH227650   5.433   0.500  19.669  0.5263  0.7217 -0.1191
 1152TIP3    H127651   5.337   0.508  19.671  0.5095  0.4560  1.2728
 1152TIP3    H227652   5.461   0.569  19.609 -0.5858  0.1961 -1.2863
 1153TIP3   OH227653   2.446   6.200  18.946 -0.3228 -0.0379 -0.2577
 1153TIP3    H127654   2.473   6.118  18.988 -0.3411  0.1843  0.1981
 1153TIP3    H227655   2.375   6.174  18.888 -1.6736 -0.0851  1.3286
 1154TIP3   OH227656   6.211   2.190  17.382  0.4392  0.0058  0.2253
 1154TIP3    H127657   6.137   2.231  17.427 -0.5086 -2.0479  0.6495
 1154TIP3    H227658   6.181   2.179  17.292  1.4842  2.0336 -0.4409
 1155TIP3   OH227659   3.377   5.417  17.856 -0.7665  0.3896  0.4484
 1155TIP3    H127660   3.392   5.393  17.765 -0.5665  1.6589  0.1166
 1155TIP3    H227661   3.464   5.417  17.896 -0.7585  0.5806  0.4338
 1156TIP3   OH227662   4.924   1.136  18.016  0.0689 -0.0139 -0.6011
 1156TIP3    H127663   4.889   1.139  18.105  0.8410 -1.8900 -0.1933
 1156TIP3    H227664   4.882   1.060  17.976 -1.0392  1.3697 -2.2407
 1157TIP3   OH227665   0.718   2.898  18.041  0.9781  0.0316 -0.0614
 1157TIP3    H127666   0.669   2.967  18.086  1.1068  0.7620 -0.9919
 1157TIP3    H227667   0.687   2.903  17.950  1.1191 -1.0330 -0.1849
 1158TIP3   OH227668   6.006   2.370  16.879  0.2928  0.2877 -0.2264
 1158TIP3    H127669   6.032   2.278  16.882 -1.1219 -0.1511 -0.8967
 1158TIP3    H227670   5.916   2.372  16.911  0.7150  1.6334  1.0019
 1159TIP3   OH227671   5.507   1.752  19.588 -0.0804  0.1075  0.3652
 1159TIP3    H127672   5.496   1.847  19.600  0.4046  0.2327 -0.1097
 1159TIP3    H227673   5.538   1.744  19.497  0.8224 -0.4287  0.7111
 1160TIP3   OH227674   1.956   5.869  20.359  0.2778 -0.3545 -0.3529
 1160TIP3    H127675   2.004   5.906  20.285 -0.2388 -1.8497 -1.4841
 1160TIP3    H227676   1.943   5.943  20.418  2.1387  0.5384 -0.9691
 1161TIP3   OH227677   0.768   1.847  17.472 -0.0701 -0.1393 -0.0401
 1161TIP3    H127678   0.717   1.822  17.396 -0.6086  0.2853  0.1736
 1161TIP3    H227679   0.809   1.766  17.501  0.1008 -0.3120 -0.7482
 1162TIP3   OH227680   0.749   3.909  18.811  0.3662 -0.0214 -0.3567
 1162TIP3    H127681   0.676   3.891  18.871 -1.5995  0.9125 -2.3469
 1162TIP3    H227682   0.814   3.843  18.834 -0.7278 -0.4054  2.0459
 1163TIP3   OH227683   2.685   1.794  19.411 -0.2746 -0.4764  0.0848
 1163TIP3    H127684   2.677   1.880  19.368 -2.8183 -1.2506 -1.1886
 1163TIP3    H227685   2.715   1.735  19.342  1.8213 -0.6231  1.0454
 1164TIP3   OH227686   2.930   5.636  19.176 -0.0984 -0.3036  0.1361
 1164TIP3    H127687   2.959   5.689  19.250 -0.3069  0.3605 -0.2533
 1164TIP3    H227688   2.915   5.699  19.105  1.1744 -1.0321 -0.8209
 1165TIP3   OH227689   5.558   0.582  16.732 -0.2097  0.0452  0.2569
 1165TIP3    H127690   5.537   0.587  16.639  1.1537 -1.1156 -0.1306
 1165TIP3    H227691   5.493   0.639  16.773  0.3942  2.1736 -1.5698
 1166TIP3   OH227692   3.058   4.568  20.072 -0.6765  0.3950  0.4080
 1166TIP3    H127693   3.074   4.648  20.122  0.3671  0.3317  0.2024
 1166TIP3    H227694   3.111   4.579  19.993  0.6283 -1.1116  1.0348
 1167TIP3   OH227695   4.868   3.540  18.124  0.2839 -0.2221 -0.7744
 1167TIP3    H127696   4.922   3.466  18.151 -0.5246 -0.3264  0.6681
 1167TIP3    H227697   4.782   3.522  18.162  0.1495  1.6051 -0.1030
 1168TIP3   OH227698   5.224   6.035  19.866 -0.3844  0.3799 -0.0861
 1168TIP3    H127699   5.186   5.951  19.841  0.8017 -0.0696 -0.4222
 1168TIP3    H227700   5.305   6.041  19.817 -0.7523  2.0283 -0.5486
 1169TIP3   OH227701   1.094   2.595  18.629 -0.3509  0.2515 -0.1244
 1169TIP3    H127702   1.088   2.650  18.551 -0.5214 -0.0514 -0.3317
 1169TIP3    H227703   1.080   2.506  18.596 -0.0514  0.0831  0.2006
 1170TIP3   OH227704   5.978   5.438  17.463 -0.4210 -0.1792 -0.0077
 1170TIP3    H127705   5.987   5.517  17.517 -0.1825 -0.6602  0.6791
 1170TIP3    H227706   5.995   5.467  17.374  0.1139  0.4598  0.2986
 1171TIP3   OH227707   2.278   5.579  20.074 -0.1719 -0.3324  0.3973
 1171TIP3    H127708   2.220   5.505  20.092  1.5249 -1.6649  0.6003
 1171TIP3    H227709   2.276   5.588  19.979  1.8014 -2.5714  0.0663
 1172TIP3   OH227710   0.087   6.423  18.548 -0.1834 -0.2110 -0.4570
 1172TIP3    H127711   0.026   6.376  18.491 -0.2918 -1.2834  0.5134
 1172TIP3    H227712   0.167   6.370  18.546 -0.0441 -0.0270  0.0587
 1173TIP3   OH227713   6.690   5.978  19.342 -0.6941 -0.0318 -0.6699
 1173TIP3    H127714   6.683   5.919  19.268 -0.3189 -0.4728 -0.3567
 1173TIP3    H227715   6.650   5.930  19.415 -0.0007 -0.0853 -0.3135
 1174TIP3   OH227716   6.482   4.465  17.124  0.2734 -0.2421 -0.0056
 1174TIP3    H127717   6.538   4.390  17.104  0.2490 -0.7690  1.7968
 1174TIP3    H227718   6.532   4.541  17.092  1.6809 -0.7652  0.8743
 1175TIP3   OH227719   3.435   4.526  19.045 -0.1650  0.0946  0.1076
 1175TIP3    H127720   3.414   4.618  19.025 -1.6409 -0.8895 -3.7985
 1175TIP3    H227721   3.524   4.514  19.012 -0.5774 -0.2181 -0.9322
 1176TIP3   OH227722   1.733   1.458  19.206 -0.1348  0.3047 -0.5414
 1176TIP3    H127723   1.762   1.374  19.239  1.8207  1.6224  1.3322
 1176TIP3    H227724   1.696   1.439  19.119 -0.3643 -2.5099  0.0977
 1177TIP3   OH227725   5.964   6.225  17.666  0.3386 -0.2734  0.6200
 1177TIP3    H127726   6.024   6.299  17.668  0.6909 -0.5335  2.9553
 1177TIP3    H227727   5.889   6.253  17.718 -0.9004 -0.5091 -0.9855
 1178TIP3   OH227728   4.480   5.735  19.570  0.2281 -0.1506  0.3173
 1178TIP3    H127729   4.406   5.751  19.628 -1.5140  0.5870 -1.9336
 1178TIP3    H227730   4.556   5.733  19.628 -1.2925  1.1553  2.5298
 1179TIP3   OH227731   1.248   3.767  20.105 -0.5376 -0.0108 -0.0959
 1179TIP3    H127732   1.171   3.811  20.139  0.2855  2.1116 -0.7800
 1179TIP3    H227733   1.274   3.819  20.029  0.7091 -1.5372 -0.7868
 1180TIP3   OH227734   2.306   0.607  17.295 -0.1323  0.3147 -0.3838
 1180TIP3    H127735   2.324   0.518  17.265  1.9774  1.1250 -1.7803
 1180TIP3    H227736   2.220   0.602  17.337 -1.5832 -1.7578 -3.2648
 1181TIP3   OH227737   4.862   6.252  17.685  0.4472 -0.1279  0.0843
 1181TIP3    H127738   4.950   6.266  17.718  0.7760 -1.3866 -0.1870
 1181TIP3    H227739   4.864   6.286  17.595  0.9914 -1.1267 -0.2973
 1182TIP3   OH227740   4.170   1.026  16.735  0.1820 -0.5202 -0.5440
 1182TIP3    H127741   4.136   0.966  16.668  0.0245 -1.2272  0.1567
 1182TIP3    H227742   4.201   1.102  16.685 -1.2147 -0.4216 -1.3045
 1183TIP3   OH227743   0.875   0.884  19.938 -0.3682 -0.2433  0.1045
 1183TIP3    H127744   0.867   0.914  19.848 -1.8165 -2.1461 -0.4618
 1183TIP3    H227745   0.806   0.931  19.985 -0.4311 -0.1861 -0.0447
 1184TIP3   OH227746   0.893   0.467  18.010  0.5430 -0.2483  0.0569
 1184TIP3    H127747   0.971   0.518  17.986  0.0131  0.3673 -0.4273
 1184TIP3    H227748   0.923   0.408  18.079  1.1577  0.8157  0.7367
 1185TIP3   OH227749   5.808   6.220  20.076  0.2360  0.0442 -0.5770
 1185TIP3    H127750   5.764   6.269  20.007 -1.0062 -0.5888 -0.2735
 1185TIP3    H227751   5.768   6.133  20.073  0.0930  0.0301  0.9750
 1186TIP3   OH227752   5.272   6.308  17.636  1.0578  0.0294 -0.1909
 1186TIP3    H127753   5.204   6.374  17.619  1.8130  0.6318 -0.9218
 1186TIP3    H227754   5.233   6.226  17.607 -0.8096 -0.3225  2.8237
 1187TIP3   OH227755   0.589   5.396  17.654  0.2635 -0.5306  0.6924
 1187TIP3    H127756   0.639   5.354  17.584 -0.0733  0.1357  0.0261
 1187TIP3    H227757   0.651   5.406  17.726  0.7960 -0.6484  0.2574
 1188TIP3   OH227758   4.697   6.200  19.822 -0.0056  0.6373 -0.1895
 1188TIP3    H127759   4.758   6.145  19.871  1.3550  0.7950 -1.5910
 1188TIP3    H227760   4.698   6.163  19.734  0.2211  2.3055 -0.9255
 1189TIP3   OH227761   1.443   0.766  16.867 -1.1125  0.0876  0.4193
 1189TIP3    H127762   1.512   0.833  16.876  0.4994 -1.4386  0.0519
 1189TIP3    H227763   1.386   0.799  16.798 -1.0693  1.6246  1.0613
 1190TIP3   OH227764   5.096   1.361  19.026  0.0016 -0.7131  0.1906
 1190TIP3    H127765   5.159   1.419  19.068 -1.6321  0.1105  1.6556
 1190TIP3    H227766   5.146   1.282  19.006  1.5982  0.0850  0.8310
 1191TIP3   OH227767   1.764   1.638  19.938 -0.2940 -0.1087  0.7989
 1191TIP3    H127768   1.683   1.610  19.894 -0.1680 -1.5835  1.4411
 1191TIP3    H227769   1.756   1.602  20.027  0.4419  0.9448  1.3103
 1192TIP3   OH227770   5.720   2.297  18.745  0.0713  0.2614 -0.0394
 1192TIP3    H127771   5.675   2.314  18.827  0.7479  3.2797 -0.1736
 1192TIP3    H227772   5.687   2.364  18.685  1.3955 -0.3080 -1.4827
 1193TIP3   OH227773   3.370   3.053  17.293  0.3106  0.2625 -0.6289
 1193TIP3    H127774   3.364   3.076  17.201 -0.8747  0.8658 -0.4099
 1193TIP3    H227775   3.348   3.133  17.340  0.0053 -0.2779  0.1788
 1194TIP3   OH227776   0.409   4.173  17.571  0.1905  0.5308 -0.5830
 1194TIP3    H127777   0.384   4.083  17.550  2.0007 -0.2573  0.4380
 1194TIP3    H227778   0.451   4.205  17.491 -0.1562  0.3719 -0.8340
 1195TIP3   OH227779   5.729   3.990  18.682 -0.5036 -0.6331  0.0777
 1195TIP3    H127780   5.758   3.899  18.690 -0.0819 -0.6719 -1.5404
 1195TIP3    H227781   5.729   4.024  18.771 -1.3847 -2.4297  0.8035
 1196TIP3   OH227782   5.873   5.281  18.298 -0.1195  0.0488 -0.2187
 1196TIP3    H127783   5.818   5.262  18.222 -1.3830 -0.4899  0.7849
 1196TIP3    H227784   5.871   5.377  18.306 -0.6966  0.0540 -0.3624
 1197TIP3   OH227785   5.451   3.688  20.141 -0.3260 -0.1701  0.0865
 1197TIP3    H127786   5.383   3.674  20.075 -1.6887  0.9737  1.1917
 1197TIP3    H227787   5.480   3.600  20.164 -0.3260 -0.6156 -1.4987
 1198TIP3   OH227788   5.755   0.094  18.822  0.2552 -0.3260  0.4275
 1198TIP3    H127789   5.774   0.187  18.813  0.5586 -0.2883  1.4267
 1198TIP3    H227790   5.832   0.057  18.866  0.9258 -1.3763 -1.4681
 1199TIP3   OH227791   1.806   5.889  18.485 -0.0933 -0.3836  0.7212
 1199TIP3    H127792   1.839   5.849  18.565 -1.5645 -0.4650  1.3167
 1199TIP3    H227793   1.715   5.859  18.478 -0.3349  0.5158 -0.3771
 1200TIP3   OH227794   5.490   1.464  18.078  0.3109 -0.1806  0.2057
 1200TIP3    H127795   5.402   1.482  18.045 -0.2781 -0.7622  1.3914
 1200TIP3    H227796   5.503   1.371  18.063  0.2896 -0.3185  0.9953
 1201TIP3   OH227797   0.272   3.489  19.544  0.2084  0.1513  0.1721
 1201TIP3    H127798   0.280   3.584  19.537  1.5694  0.0883  0.5395
 1201TIP3    H227799   0.184   3.470  19.512 -1.3082  1.8263  2.9254
 1202TIP3   OH227800   2.873   3.950  20.025 -0.0369  0.1715 -0.2223
 1202TIP3    H127801   2.895   3.860  20.000  0.6103  0.8325 -2.2125
 1202TIP3    H227802   2.812   3.979  19.956  0.3673  1.4999 -0.0282
 1203TIP3   OH227803   3.713   6.156  18.741 -0.0442  0.1497 -0.5154
 1203TIP3    H127804   3.791   6.111  18.709 -0.1707  0.3531 -1.1417
 1203TIP3    H227805   3.724   6.246  18.711 -1.1883 -0.1307 -1.9160
 1204TIP3   OH227806   0.131   5.184  19.451 -0.2327 -0.4168 -0.5041
 1204TIP3    H127807   0.076   5.259  19.430  0.6656  0.5103  0.3307
 1204TIP3    H227808   0.221   5.214  19.437  0.1486 -1.3477 -0.2144
 1205TIP3   OH227809   4.791   5.543  18.318 -0.0119 -0.2699 -0.7441
 1205TIP3    H127810   4.798   5.570  18.227  1.5964 -0.2414 -0.6362
 1205TIP3    H227811   4.881   5.530  18.347 -0.5375 -1.2448  0.5632
 1206TIP3   OH227812   0.889   2.539  17.201  0.3878  0.2104  0.4028
 1206TIP3    H127813   0.877   2.614  17.259 -1.2529 -0.0238  0.4364
 1206TIP3    H227814   0.918   2.577  17.118  1.3818  0.6789  0.9478
 1207TIP3   OH227815   5.475   3.131  18.821 -0.5170 -0.3093  0.7973
 1207TIP3    H127816   5.380   3.144  18.828 -0.2921  1.2666  1.2265
 1207TIP3    H227817   5.508   3.146  18.910  0.0682 -1.6156  0.8164
 1208TIP3   OH227818   1.189   5.025  18.603  0.0740 -0.1298  0.3025
 1208TIP3    H127819   1.220   4.953  18.659 -0.4306  1.2188  2.4639
 1208TIP3    H227820   1.205   5.104  18.656 -1.7873  1.1135 -0.8772
 1209TIP3   OH227821   5.393   4.850  17.933  0.4668 -0.7320  0.4180
 1209TIP3    H127822   5.442   4.798  17.996  0.3584 -1.0297  0.2561
 1209TIP3    H227823   5.301   4.831  17.951  0.3371  0.7367  1.5153
 1210TIP3   OH227824   0.971   5.400  18.056  0.4941 -0.8359 -0.2136
 1210TIP3    H127825   1.020   5.324  18.088 -0.4423 -1.2688  0.2117
 1210TIP3    H227826   0.964   5.458  18.132  0.0185 -0.9438 -0.1780
 1211TIP3   OH227827   6.489   3.849  19.547 -0.2848  0.1921  0.7515
 1211TIP3    H127828   6.452   3.936  19.553 -1.5587 -0.3054  0.4715
 1211TIP3    H227829   6.457   3.815  19.463 -0.0650 -0.6589  1.0013
 1212TIP3   OH227830   6.464   5.477  16.951 -0.2672  0.1261 -0.0002
 1212TIP3    H127831   6.414   5.454  16.873  0.8731  0.1331 -0.7458
 1212TIP3    H227832   6.540   5.525  16.918 -0.5678  1.5136  1.2331
 1213TIP3   OH227833   3.255   0.927  19.681  0.3125  0.0555  0.0610
 1213TIP3    H127834   3.242   0.869  19.607 -2.2331  0.9124 -0.2441
 1213TIP3    H227835   3.289   1.008  19.643 -0.8078  0.4270 -0.1821
 1214TIP3   OH227836   1.579   1.827  18.110 -0.2332 -0.2870  0.0247
 1214TIP3    H127837   1.525   1.840  18.188 -0.2338 -2.5264  0.4586
 1214TIP3    H227838   1.667   1.854  18.137 -0.5890  0.8081  0.1527
 1215TIP3   OH227839   6.662   5.516  17.766  0.5668  0.3782  0.3026
 1215TIP3    H127840   6.709   5.497  17.685  0.4601  2.1313 -0.1985
 1215TIP3    H227841   6.658   5.432  17.811  0.4489 -0.6881 -1.5962
 1216TIP3   OH227842   0.724   3.892  19.607 -0.1579 -0.2907 -0.3749
 1216TIP3    H127843   0.741   3.945  19.685 -1.6803  0.2924 -0.4009
 1216TIP3    H227844   0.768   3.939  19.536  1.3906 -0.9220  0.1430
 1217TIP3   OH227845   0.811   5.131  19.081 -0.3948  0.1102 -0.0640
 1217TIP3    H127846   0.725   5.090  19.083 -0.6026  0.4080 -1.4672
 1217TIP3    H227847   0.826   5.161  19.171 -1.1106 -1.2215  0.5205
 1218TIP3   OH227848   3.091   0.962  20.260 -0.0599  0.3095  0.2589
 1218TIP3    H127849   3.121   0.991  20.346 -1.0143  1.0895  0.3436
 1218TIP3    H227850   3.147   0.887  20.239  0.9033  0.7758  1.0725
 1219TIP3   OH227851   6.187   1.652  19.153  0.0903  0.0604 -0.0978
 1219TIP3    H127852   6.179   1.744  19.129 -1.9417  0.0121  0.1637
 1219TIP3    H227853   6.140   1.645  19.237 -0.1741 -1.2621 -0.3308
 1220TIP3   OH227854   6.495   5.221  17.545 -0.0304 -0.6684 -0.4826
 1220TIP3    H127855   6.509   5.226  17.639 -0.3607 -0.5235 -0.4384
 1220TIP3    H227856   6.400   5.213  17.535  0.1044 -2.1137 -0.7583
 1221TIP3   OH227857   1.236   4.264  20.161  0.9676 -0.0735 -0.0525
 1221TIP3    H127858   1.312   4.207  20.153  0.4175 -0.5884 -2.5081
 1221TIP3    H227859   1.269   4.350  20.134  1.2848  0.3466  1.5694
 1222TIP3   OH227860   2.338   2.947  17.380  0.6870  0.9299  0.0916
 1222TIP3    H127861   2.321   3.041  17.387  0.3195  0.9735 -1.1119
 1222TIP3    H227862   2.327   2.927  17.287 -0.9373 -0.6094  0.5337
 1223TIP3   OH227863   2.537   5.382  18.877  0.0499  0.1870 -0.2180
 1223TIP3    H127864   2.544   5.361  18.970 -0.7065 -1.9728 -0.5754
 1223TIP3    H227865   2.443   5.397  18.863 -0.2252 -1.8473 -0.9924
 1224TIP3   OH227866   0.486   4.131  20.077  0.6370 -0.1938 -0.4780
 1224TIP3    H127867   0.521   4.120  20.166  0.2597  0.7543 -0.1972
 1224TIP3    H227868   0.490   4.044  20.039  1.7790 -0.4199  0.1098
 1225TIP3   OH227869   6.439   3.319  19.204  0.0006  0.1628 -0.2428
 1225TIP3    H127870   6.374   3.273  19.259 -1.0055  1.8268  0.0142
 1225TIP3    H227871   6.475   3.387  19.261  2.1036 -0.7784 -0.3568
 1226TIP3   OH227872   3.281   1.835  20.370  0.4544 -0.1723 -0.0094
 1226TIP3    H127873   3.339   1.794  20.433  0.6626  0.0348 -0.0629
 1226TIP3    H227874   3.288   1.929  20.389  0.1361 -0.1454 -0.0134
 1227TIP3   OH227875   3.224   4.424  17.945 -0.0949 -0.0318 -0.0571
 1227TIP3    H127876   3.294   4.472  17.901 -1.2763  1.0227 -0.8419
 1227TIP3    H227877   3.228   4.336  17.908  0.6726  0.0774 -0.2437
 1228TIP3   OH227878   2.404   5.261  19.387 -0.1401 -0.3410 -0.1364
 1228TIP3    H127879   2.436   5.246  19.476 -0.5232  0.4973  0.1582
 1228TIP3    H227880   2.310   5.247  19.393 -0.0454 -1.2776 -0.6520
 1229TIP3   OH227881   3.515   0.588  20.162 -0.2974  0.7590  0.0898
 1229TIP3    H127882   3.479   0.506  20.127  1.3615  0.4034 -0.9128
 1229TIP3    H227883   3.520   0.573  20.257  2.4201 -1.4567 -0.2526
 1230TIP3   OH227884   6.490   1.096  19.437  0.1922 -0.5798  0.2658
 1230TIP3    H127885   6.415   1.089  19.496 -0.0808  1.5862  0.2718
 1230TIP3    H227886   6.557   1.142  19.489  0.3945  0.2389 -0.6856
 1231TIP3   OH227887   1.312   4.685  19.574 -0.2029  0.4079 -0.0727
 1231TIP3    H127888   1.289   4.620  19.507 -0.0197 -0.0874  0.3365
 1231TIP3    H227889   1.285   4.769  19.537 -0.3383  0.1091 -0.6586
 1232TIP3   OH227890   5.793   6.334  17.856  0.0210 -0.7508 -0.7980
 1232TIP3    H127891   5.743   6.354  17.934  1.0811 -1.6204  0.1510
 1232TIP3    H227892   5.789   6.414  17.803 -0.4555 -0.0331  0.2849
 1233TIP3   OH227893   2.663   5.895  18.951  0.2157 -0.2653 -0.1425
 1233TIP3    H127894   2.633   5.963  18.890  1.5330 -0.5008 -1.0721
 1233TIP3    H227895   2.649   5.813  18.904  1.0617 -0.4599 -0.0685
 1234TIP3   OH227896   1.667   4.656  20.369 -0.1258  0.5319 -0.0399
 1234TIP3    H127897   1.580   4.663  20.408 -0.6345  1.8156 -1.2979
 1234TIP3    H227898   1.714   4.594  20.425 -1.7051  0.1296  0.9063
 1235TIP3   OH227899   2.568   4.741  17.450 -0.6931  0.4374  0.2155
 1235TIP3    H127900   2.527   4.662  17.485  0.7822  0.2598  1.6581
 1235TIP3    H227901   2.661   4.732  17.471  0.3697  0.3898 -3.7231
 1236TIP3   OH227902   3.621   5.772  18.004 -0.5392 -0.5168  0.1733
 1236TIP3    H127903   3.552   5.715  18.037 -2.6105  0.7071 -1.7900
 1236TIP3    H227904   3.630   5.841  18.069 -1.1459 -0.7183  0.4721
 1237TIP3   OH227905   1.506   2.656  19.120  0.0391  0.1862  0.4938
 1237TIP3    H127906   1.481   2.565  19.137  2.5983 -0.9816 -1.3668
 1237TIP3    H227907   1.571   2.677  19.187 -0.9430  0.9114  1.2639
 1238TIP3   OH227908   6.627   2.340  18.354  0.3771  0.4246  0.1662
 1238TIP3    H127909   6.665   2.254  18.372  1.8813  0.5352 -1.9960
 1238TIP3    H227910   6.621   2.382  18.440 -0.0500 -1.6622  1.2312
 1239TIP3   OH227911   0.360   2.412  17.354  0.5421  0.3233  0.3328
 1239TIP3    H127912   0.331   2.334  17.400 -0.3230 -0.2566 -1.1243
 1239TIP3    H227913   0.455   2.412  17.365  0.3807  0.1485  1.9624
 1240TIP3   OH227914   3.579   1.542  20.319 -0.8884  0.0756 -0.0246
 1240TIP3    H127915   3.578   1.560  20.225 -1.1888 -1.3477 -0.3151
 1240TIP3    H227916   3.540   1.455  20.327  0.2123 -0.3291  1.2966
 1241TIP3   OH227917   3.299   5.466  19.325 -0.5047  0.3152  0.0503
 1241TIP3    H127918   3.237   5.484  19.395 -0.3863  0.6157  0.0794
 1241TIP3    H227919   3.382   5.447  19.370 -0.0683  1.9098 -0.0401
 1242TIP3   OH227920   2.962   0.579  17.424  0.0555 -0.5649  0.0937
 1242TIP3    H127921   2.973   0.547  17.514 -0.5758  0.6189  0.6213
 1242TIP3    H227922   3.034   0.539  17.375  0.1041 -1.6503  1.0041
 1243TIP3   OH227923   2.090   2.682  19.918  0.3850 -0.2655  0.1408
 1243TIP3    H127924   2.157   2.632  19.871 -0.8631 -0.1885 -1.7990
 1243TIP3    H227925   2.031   2.616  19.955 -0.9168 -0.3151 -1.9020
 1244TIP3   OH227926   6.065   2.232  20.445 -0.3382 -0.4785 -0.1529
 1244TIP3    H127927   6.147   2.213  20.490  1.1468  0.9511 -2.1231
 1244TIP3    H227928   6.034   2.146  20.417 -0.5768 -1.2515  2.2223
 1245TIP3   OH227929   2.169   0.629  18.859  0.3337 -0.3497 -0.2841
 1245TIP3    H127930   2.122   0.709  18.837  1.8131  0.4784 -0.5159
 1245TIP3    H227931   2.182   0.585  18.775  1.1221  0.0748 -0.3875
 1246TIP3   OH227932   5.675   0.022  19.298 -0.6972 -0.3232 -0.3848
 1246TIP3    H127933   5.688   0.115  19.313  0.8582 -0.8351  1.9833
 1246TIP3    H227934   5.732   0.001  19.224  0.3557  0.3113  0.2281
 1247TIP3   OH227935   3.161   3.822  19.417 -0.7268 -0.2035 -0.0945
 1247TIP3    H127936   3.209   3.783  19.490 -0.4371 -1.1766 -0.7714
 1247TIP3    H227937   3.209   3.901  19.396  0.4811 -1.0379 -0.6079
 1248TIP3   OH227938   4.221   6.527  20.298 -0.4041 -0.0353 -0.0414
 1248TIP3    H127939   4.249   6.538  20.389 -1.5983 -2.8284  0.7539
 1248TIP3    H227940   4.294   6.563  20.247  0.0809  2.0684  1.9645
 1249TIP3   OH227941   2.310   5.253  20.300 -0.4133  0.2269 -0.1533
 1249TIP3    H127942   2.351   5.180  20.346 -0.1405 -0.3825 -1.3032
 1249TIP3    H227943   2.381   5.294  20.251 -1.0564 -0.5796 -1.8314
 1250TIP3   OH227944   3.078   3.040  18.023 -0.6027  0.0179 -0.4629
 1250TIP3    H127945   3.098   3.123  18.067 -0.7760  0.4314 -1.1566
 1250TIP3    H227946   3.110   3.052  17.934 -0.9684 -0.5257 -0.6691
 1251TIP3   OH227947   0.421   2.360  19.325 -0.5182 -0.0389  0.2854
 1251TIP3    H127948   0.382   2.381  19.241 -1.0161  0.8742  0.7300
 1251TIP3    H227949   0.479   2.433  19.344 -1.3893  0.4136  1.3223
 1252TIP3   OH227950   1.055   0.520  17.560 -0.1257  0.0558  0.2216
 1252TIP3    H127951   1.086   0.608  17.538  0.0108  0.1046  0.6045
 1252TIP3    H227952   1.128   0.479  17.606  0.4569 -0.8802 -1.4362
 1253TIP3   OH227953   1.700   4.340  17.250 -0.1484 -0.0248  0.2021
 1253TIP3    H127954   1.785   4.383  17.246 -0.7548  1.6346  2.8331
 1253TIP3    H227955   1.638   4.405  17.219 -0.5666 -0.9871 -1.0583
 1254TIP3   OH227956   2.986   5.280  20.148 -0.3767 -0.6991 -1.0161
 1254TIP3    H127957   2.990   5.363  20.102 -1.4548  0.0401  0.1906
 1254TIP3    H227958   3.055   5.227  20.107  2.1041  1.6166 -0.1568
 1255TIP3   OH227959   2.112   5.798  18.541  0.3878 -0.2612  0.2233
 1255TIP3    H127960   2.053   5.759  18.605  1.3528 -0.4080  1.0479
 1255TIP3    H227961   2.095   5.892  18.547 -0.0969 -0.3345  0.0950
 1256TIP3   OH227962   0.745   6.346  17.593 -0.4520 -0.0204  1.0807
 1256TIP3    H127963   0.682   6.379  17.656 -3.0117 -1.7340 -0.3535
 1256TIP3    H227964   0.692   6.298  17.529  2.1908 -0.3075 -1.1137
 1257TIP3   OH227965   3.322   2.071  18.332  0.4604  0.2426 -0.5822
 1257TIP3    H127966   3.310   2.155  18.287  0.3093  1.4963  1.6703
 1257TIP3    H227967   3.330   2.094  18.424  1.3326 -2.1743  0.0170
 1258TIP3   OH227968   0.768   1.314  19.298  0.3552 -0.1503 -0.6140
 1258TIP3    H127969   0.851   1.326  19.345  0.5567  0.5160 -1.1168
 1258TIP3    H227970   0.724   1.398  19.308 -0.8818 -0.9177  0.7929
 1259TIP3   OH227971   5.719   0.284  18.475 -0.2148  0.3814 -0.0270
 1259TIP3    H127972   5.801   0.247  18.443  0.0945  0.8852  0.1714
 1259TIP3    H227973   5.726   0.282  18.570 -0.7183 -0.1946  0.0049
 1260TIP3   OH227974   2.317   1.777  17.953  0.6237 -0.4325 -0.2793
 1260TIP3    H127975   2.277   1.709  17.900  1.0713 -1.5450  0.7622
 1260TIP3    H227976   2.261   1.781  18.031  1.1646 -0.2994  0.1019
 1261TIP3   OH227977   1.410   4.490  16.899 -0.0497  0.5137  0.6121
 1261TIP3    H127978   1.341   4.433  16.933 -1.0040  0.2325 -1.6185
 1261TIP3    H227979   1.480   4.430  16.872 -1.1769  0.2233 -2.0171
 1262TIP3   OH227980   4.359   1.075  17.733  0.2212 -0.0195 -0.2132
 1262TIP3    H127981   4.448   1.107  17.745  1.2535 -2.4579 -0.7563
 1262TIP3    H227982   4.343   1.084  17.639 -0.4860  1.2257  0.0037
 1263TIP3   OH227983   3.607   4.585  18.629  0.2437  0.2777 -0.3492
 1263TIP3    H127984   3.673   4.633  18.679 -0.8864  0.8917  0.6101
 1263TIP3    H227985   3.524   4.614  18.667 -0.4984 -2.0900 -0.0592
 1264TIP3   OH227986   6.283   3.173  18.010  0.3350 -0.6106 -0.5919
 1264TIP3    H127987   6.251   3.095  17.965 -1.6275 -0.1670 -0.0827
 1264TIP3    H227988   6.243   3.168  18.097 -0.8280  1.5169 -0.9340
 1265TIP3   OH227989   3.156   3.959  20.064 -0.0966 -0.6470 -0.3761
 1265TIP3    H127990   3.069   3.983  20.031  0.5889  0.2828 -1.5767
 1265TIP3    H227991   3.138   3.906  20.141 -1.7310  1.0670  0.5080
 1266TIP3   OH227992   1.019   6.179  20.021  0.1701  0.5639  0.1762
 1266TIP3    H127993   0.954   6.140  20.079 -1.5744  1.2869 -1.1689
 1266TIP3    H227994   1.061   6.105  19.977 -0.1320  0.0990  0.6659
 1267TIP3   OH227995   5.201   0.634  18.134 -0.0851 -0.0853  0.1160
 1267TIP3    H127996   5.208   0.555  18.081 -1.4901  0.5502 -1.0931
 1267TIP3    H227997   5.242   0.611  18.217  0.7836 -1.6164 -0.6994
 1268TIP3   OH227998   5.722   0.834  20.011 -0.1981 -0.2562  0.6377
 1268TIP3    H127999   5.684   0.919  20.036  0.0600 -0.4167  1.6445
 1268TIP3    H228000   5.814   0.843  20.033  0.0140 -0.4834 -0.1382
 1269TIP3   OH228001   3.300   1.603  18.518 -0.8319 -0.4281  0.1000
 1269TIP3    H128002   3.215   1.616  18.558 -1.3464 -0.5948 -0.8930
 1269TIP3    H228003   3.281   1.592  18.425  0.2986 -0.1756 -0.1816
 1270TIP3   OH228004   1.664   6.164  19.528 -0.2447 -0.0860  0.1167
 1270TIP3    H128005   1.600   6.229  19.557 -0.1594 -0.0003  0.1087
 1270TIP3    H228006   1.749   6.202  19.549 -0.1519  0.3189 -0.9526
 1271TIP3   OH228007   3.292   3.032  20.136  0.1209  0.0260  0.2229
 1271TIP3    H128008   3.387   3.036  20.149 -0.1277  0.6649  2.1764
 1271TIP3    H228009   3.275   3.098  20.068  1.0860 -0.2131 -0.2655
 1272TIP3   OH228010   1.979   4.244  19.635  0.0674 -0.0969 -0.4703
 1272TIP3    H128011   1.897   4.256  19.684 -0.1782 -2.7422 -0.0575
 1272TIP3    H228012   2.034   4.318  19.661 -2.0031  1.5291 -0.4413
 1273TIP3   OH228013   5.982   0.839  19.579  0.0158  0.1989  0.0741
 1273TIP3    H128014   5.989   0.901  19.507 -0.2980 -0.6708 -0.7333
 1273TIP3    H228015   6.029   0.762  19.548 -1.8606 -0.9476 -0.0857
 1274TIP3   OH228016   0.622   5.967  19.040 -0.3530  0.5200  0.0761
 1274TIP3    H128017   0.639   6.000  19.128  0.4065 -3.7053  1.7442
 1274TIP3    H228018   0.537   5.924  19.047  0.3385 -1.0700 -0.8325
 1275TIP3   OH228019   3.783   4.409  18.750  0.7266  0.0729  0.3994
 1275TIP3    H128020   3.702   4.449  18.719 -0.6450 -1.1998  2.0837
 1275TIP3    H228021   3.847   4.479  18.748 -0.9423  1.6998  0.9423
 1276TIP3   OH228022   5.497   5.601  17.691  0.4225 -0.2930  0.3299
 1276TIP3    H128023   5.444   5.574  17.616  0.9851  1.9409 -1.0060
 1276TIP3    H228024   5.577   5.637  17.651  1.1333  0.1491  2.0537
 1277TIP3   OH228025   1.048   4.485  19.183  0.0862 -0.2342  0.0653
 1277TIP3    H128026   1.026   4.520  19.097 -2.1810  0.0752  0.6990
 1277TIP3    H228027   1.033   4.391  19.176  1.4751 -0.4398 -0.3031
 1278TIP3   OH228028   0.685   6.533  18.838  0.7806 -0.6235  0.2505
 1278TIP3    H128029   0.672   6.628  18.836 -0.7826 -0.7949  0.8098
 1278TIP3    H228030   0.614   6.498  18.784  1.6831 -1.4637 -0.4332
 1279TIP3   OH228031   4.217   4.208  19.980 -0.0954 -0.6496 -0.0933
 1279TIP3    H128032   4.163   4.202  20.059 -3.4266 -0.3779 -2.1291
 1279TIP3    H228033   4.249   4.298  19.980 -2.3864  0.2513 -0.2943
 1280TIP3   OH228034   5.349   3.404  17.471  0.1574 -0.2119  0.3634
 1280TIP3    H128035   5.431   3.436  17.509 -0.1053 -0.5527  1.2440
 1280TIP3    H228036   5.345   3.445  17.384  0.7948  0.5488  0.6804
 1281TIP3   OH228037   2.472   4.593  18.607 -0.0929 -0.2500 -0.0166
 1281TIP3    H128038   2.393   4.538  18.606 -1.1914  1.2011 -2.3214
 1281TIP3    H228039   2.442   4.677  18.640  0.1955  0.6086 -1.8086
 1282TIP3   OH228040   1.203   3.384  19.424  0.2281  0.2474  0.0866
 1282TIP3    H128041   1.163   3.417  19.505  0.3467 -0.3925  0.4141
 1282TIP3    H228042   1.271   3.324  19.454  1.6369  1.4955 -0.4626
 1283TIP3   OH228043   0.610   2.899  17.454 -0.3052  0.3181 -0.1908
 1283TIP3    H128044   0.633   2.846  17.378 -0.5324  1.0287 -0.7677
 1283TIP3    H228045   0.592   2.986  17.418 -1.7736  0.3277  0.4879
 1284TIP3   OH228046   6.439   6.608  17.209  0.3721  0.1210  0.2053
 1284TIP3    H128047   6.504   6.557  17.257 -0.6757 -0.3008  1.2201
 1284TIP3    H228048   6.445   6.696  17.247  1.1713  0.3878 -0.5332
 1285TIP3   OH228049   0.215   4.937  18.166 -0.3752  0.0135 -0.1030
 1285TIP3    H128050   0.229   5.017  18.116 -0.8825  0.0806 -0.1434
 1285TIP3    H228051   0.265   4.870  18.120  0.3239  0.3712  0.1166
 1286TIP3   OH228052   3.377   4.573  17.772  0.1266  0.1386  0.3107
 1286TIP3    H128053   3.315   4.624  17.720 -0.9021 -0.1664  1.1841
 1286TIP3    H228054   3.436   4.638  17.809  0.9857  0.3418 -1.3341
 1287TIP3   OH228055   0.062   5.687  20.045 -0.6618  0.4988 -0.1762
 1287TIP3    H128056  -0.020   5.727  20.019 -1.4782  0.3907  2.0202
 1287TIP3    H228057   0.037   5.608  20.094  0.7515  0.3247  0.3309
 1288TIP3   OH228058   1.471   5.851  19.918 -0.6043  0.0167 -0.4207
 1288TIP3    H128059   1.528   5.798  19.974  0.5072  0.8748 -0.7038
 1288TIP3    H228060   1.411   5.894  19.979 -0.2345 -0.0448 -0.0074
 1289TIP3   OH228061   3.188   1.615  19.879  0.2721  0.0162  0.2557
 1289TIP3    H128062   3.208   1.644  19.968  2.0059 -2.0498  0.6243
 1289TIP3    H228063   3.116   1.553  19.890 -0.5946  0.9313 -0.0298
 1290TIP3   OH228064   0.903   5.940  17.645 -0.2796  0.0161 -0.3509
 1290TIP3    H128065   0.811   5.955  17.669 -0.4158 -1.5501  0.1665
 1290TIP3    H228066   0.904   5.950  17.550 -0.7659  1.0379 -0.2739
 1291TIP3   OH228067   1.440   0.049  20.042  0.3843 -0.3278  0.0493
 1291TIP3    H128068   1.463  -0.012  20.112  0.9288  0.5769  0.6961
 1291TIP3    H228069   1.522   0.094  20.021  0.4668 -1.3506 -1.9785
 1292TIP3   OH228070   0.559   5.676  19.056 -0.1090  0.2226  0.1763
 1292TIP3    H128071   0.624   5.719  19.000 -0.4386  0.8987  0.2970
 1292TIP3    H228072   0.525   5.604  19.002  1.2589 -0.6151  0.3892
 1293TIP3   OH228073   1.543   3.004  19.556  0.6073  0.1362 -0.1613
 1293TIP3    H128074   1.610   3.058  19.515  1.3473 -0.2570  0.4965
 1293TIP3    H228075   1.553   3.021  19.650  0.1927 -0.3905 -0.0145
 1294TIP3   OH228076   1.924   5.087  17.009  0.0407 -0.3403 -0.3399
 1294TIP3    H128077   1.857   5.057  17.070 -0.4000  0.4729 -0.4070
 1294TIP3    H228078   2.000   5.030  17.026 -0.1867 -0.3380  0.7363
 1295TIP3   OH228079   1.859   3.673  20.187  0.2381  0.5206 -0.1499
 1295TIP3    H128080   1.906   3.618  20.124  1.1144  1.4460 -0.3389
 1295TIP3    H228081   1.906   3.661  20.269 -0.6680 -0.3819  0.2631
 1296TIP3   OH228082   5.530   0.851  19.310 -0.5814  0.0160  0.5690
 1296TIP3    H128083   5.492   0.836  19.223  1.3711 -1.6131 -0.0989
 1296TIP3    H228084   5.525   0.945  19.323 -0.6128  0.3429 -1.4888
 1297TIP3   OH228085   5.378   5.754  17.066 -0.0323 -0.0677 -0.3290
 1297TIP3    H128086   5.452   5.808  17.036  1.7875 -0.4970  2.9404
 1297TIP3    H228087   5.331   5.810  17.127 -0.5051 -0.8860  0.0719
 1298TIP3   OH228088   3.374   1.573  19.413  0.3114 -0.1214  0.7326
 1298TIP3    H128089   3.344   1.483  19.403 -0.5488  0.1646  0.6685
 1298TIP3    H228090   3.470   1.566  19.415  0.4462 -0.7547 -2.3051
 1299TIP3   OH228091   0.945   4.033  18.303  0.0753 -0.4909  0.5189
 1299TIP3    H128092   0.921   4.100  18.367 -0.3351 -0.0530 -0.0873
 1299TIP3    H228093   0.933   3.950  18.349 -0.0078 -0.1705  1.0764
 1300TIP3   OH228094   1.751   4.007  20.419  0.1106  0.0535 -0.0709
 1300TIP3    H128095   1.770   3.976  20.331  1.5350  0.6156  0.0141
 1300TIP3    H228096   1.803   3.950  20.477  1.1801  1.2732  0.2146
 1301TIP3   OH228097   3.765   0.652  18.655 -0.4385 -0.0357 -0.3950
 1301TIP3    H128098   3.731   0.623  18.740 -0.7243 -0.0771 -0.5214
 1301TIP3    H228099   3.696   0.709  18.619  0.2313  1.0257 -0.0338
 1302TIP3   OH228100   0.683   0.476  16.840  0.1933 -0.3949 -0.3187
 1302TIP3    H128101   0.769   0.492  16.878 -0.0518  0.7451 -0.1968
 1302TIP3    H228102   0.640   0.561  16.841 -0.6822 -0.8039 -1.0257
 1303TIP3   OH228103   3.379   6.569  19.177 -0.1212  0.3864  0.4950
 1303TIP3    H128104   3.452   6.570  19.115 -0.5119  1.4586  0.0115
 1303TIP3    H228105   3.420   6.575  19.263  0.4110 -0.6157  0.3255
 1304TIP3   OH228106   1.356   0.465  18.350  0.0629 -0.8149  0.0463
 1304TIP3    H128107   1.264   0.489  18.358  0.4355  1.0212 -0.6910
 1304TIP3    H228108   1.361   0.417  18.267  0.0028  0.4643 -0.7194
 1305TIP3   OH228109   6.687   5.703  17.476 -0.0682 -0.3529  0.1168
 1305TIP3    H128110   6.600   5.714  17.513  0.2403  1.7743  0.3100
 1305TIP3    H228111   6.721   5.624  17.519 -1.4683 -0.5943  0.8449
 1306TIP3   OH228112   1.044   3.923  20.201 -0.1150 -0.5481 -0.6956
 1306TIP3    H128113   1.049   3.992  20.267 -0.7738 -2.7227  1.8369
 1306TIP3    H228114   0.954   3.926  20.169  0.3087  0.7561 -1.8618
 1307TIP3   OH228115   0.325   6.017  18.913 -0.3307 -0.6644  0.1047
 1307TIP3    H128116   0.358   6.107  18.905  0.6807 -1.0834 -0.5837
 1307TIP3    H228117   0.241   6.018  18.866 -0.1391 -0.1733 -0.2362
 1308TIP3   OH228118   2.210   5.631  17.917 -0.4874  0.4009 -0.6463
 1308TIP3    H128119   2.287   5.657  17.968 -0.6011 -1.9096  0.8396
 1308TIP3    H228120   2.135   5.658  17.971 -0.6531 -0.1668 -0.5909
 1309TIP3   OH228121   0.076   2.375  18.905 -0.0355 -0.0110  0.0979
 1309TIP3    H128122   0.110   2.311  18.842  0.6018 -0.4449  0.8538
 1309TIP3    H228123   0.030   2.440  18.852 -0.2304 -0.8120 -0.7367
 1310TIP3   OH228124   3.176   0.930  16.850 -0.8140  0.0259 -0.6819
 1310TIP3    H128125   3.111   0.901  16.914  0.3165 -2.2863 -0.4782
 1310TIP3    H228126   3.218   1.005  16.891 -2.1660  0.4837 -0.0817
 1311TIP3   OH228127   0.020   3.445  17.097  0.2978  0.9245 -0.0711
 1311TIP3    H128128  -0.008   3.426  17.008  0.4425 -2.6551  0.5112
 1311TIP3    H228129   0.092   3.507  17.087 -0.1672  1.1635 -2.3676
 1312TIP3   OH228130   4.238   3.625  19.163 -0.1772 -0.2419  0.3483
 1312TIP3    H128131   4.309   3.562  19.177 -0.2716 -0.4458 -0.0457
 1312TIP3    H228132   4.158   3.573  19.172 -0.2911  0.0887  1.2729
 1313TIP3   OH228133   5.690   4.154  18.174 -0.2254  0.4349  0.1694
 1313TIP3    H128134   5.765   4.100  18.149  0.1079  1.0754 -0.2573
 1313TIP3    H228135   5.633   4.095  18.223  0.0144 -0.3573 -0.4775
 1314TIP3   OH228136   6.665   0.084  16.721  0.8696  0.4879 -0.1182
 1314TIP3    H128137   6.719   0.008  16.703  0.4869  0.0274  0.6171
 1314TIP3    H228138   6.632   0.112  16.635  1.8769  0.4895 -0.5108
 1315TIP3   OH228139   2.009   4.046  20.654 -0.2381  0.4792 -0.0109
 1315TIP3    H128140   1.979   4.115  20.595  0.4141  2.2969  1.6660
 1315TIP3    H228141   2.033   4.092  20.735  0.4861 -1.6952  1.1022
 1316TIP3   OH228142   1.845   5.989  19.736  0.5010 -0.2946  0.3858
 1316TIP3    H128143   1.833   5.894  19.733  0.1250 -0.2383  0.0316
 1316TIP3    H228144   1.760   6.023  19.764  0.2785  0.0114 -0.6315
 1317TIP3   OH228145   5.977   1.345  18.596 -0.2815  0.0437  0.2749
 1317TIP3    H128146   5.967   1.403  18.520 -0.2899  1.3441  1.2213
 1317TIP3    H228147   6.072   1.332  18.603 -0.3780 -3.4318 -2.2938
 1318TIP3   OH228148   1.712   4.373  19.820 -0.0497 -0.0393  0.1968
 1318TIP3    H128149   1.797   4.417  19.830 -0.2690  0.6504 -0.9100
 1318TIP3    H228150   1.661   4.430  19.763 -2.0448  0.6298  2.4747
 1319TIP3   OH228151   5.135   6.174  19.157  0.1359  0.4296 -0.0869
 1319TIP3    H128152   5.215   6.128  19.182  2.1357  2.5029 -2.1455
 1319TIP3    H228153   5.103   6.128  19.079  0.5302  0.8328 -0.4900
 1320TIP3   OH228154   0.766   5.166  19.891 -0.5115 -0.0493 -0.3156
 1320TIP3    H128155   0.852   5.128  19.878  0.1441  1.5384 -0.8755
 1320TIP3    H228156   0.707   5.113  19.837  0.4723  0.1155 -1.5756
 1321TIP3   OH228157   0.890   5.219  18.490  0.2955 -0.1284  0.5121
 1321TIP3    H128158   0.964   5.221  18.551  1.4171 -1.0321 -0.7625
 1321TIP3    H228159   0.814   5.205  18.546  1.3220 -1.2787  1.6935
 1322TIP3   OH228160   6.516   4.089  19.911 -0.5206 -0.2314 -0.4346
 1322TIP3    H128161   6.524   4.145  19.988 -1.1509  0.1181 -0.6115
 1322TIP3    H228162   6.554   4.141  19.839 -0.4536 -0.3186 -0.4620
 1323TIP3   OH228163   0.896   6.232  17.187  0.0195 -0.0771 -0.0715
 1323TIP3    H128164   0.804   6.205  17.177 -0.3758  1.3829 -0.8251
 1323TIP3    H228165   0.911   6.291  17.113  0.9001  1.4191  1.2265
 1324TIP3   OH228166   6.065   4.713  18.741 -0.0720  0.3429 -0.0842
 1324TIP3    H128167   6.075   4.620  18.760 -0.0173  0.3713  0.0285
 1324TIP3    H228168   5.980   4.720  18.699 -1.4268  0.6092  2.4608
 1325TIP3   OH228169   4.022   6.316  17.263  0.6365  0.6644 -0.4423
 1325TIP3    H128170   4.022   6.401  17.307 -2.0998  0.2462  0.5870
 1325TIP3    H228171   3.983   6.257  17.327  0.1930 -0.8300 -2.0330
 1326TIP3   OH228172   0.658   0.054  18.166 -0.2451  0.3735 -0.2821
 1326TIP3    H128173   0.577   0.031  18.211  0.0685  0.4654  0.3339
 1326TIP3    H228174   0.727   0.011  18.216  0.0693  0.0506 -0.9689
 1327TIP3   OH228175   3.413   4.655  20.111 -0.4148 -0.2049 -0.2164
 1327TIP3    H128176   3.367   4.732  20.144 -0.3196 -0.7342  1.2257
 1327TIP3    H228177   3.480   4.690  20.052 -0.9241  0.7425 -0.2441
 1328TIP3   OH228178   1.361   0.737  19.987 -0.0246  0.1035 -0.5595
 1328TIP3    H128179   1.341   0.771  19.900  1.7469 -0.1810 -1.1136
 1328TIP3    H228180   1.283   0.758  20.039 -1.3097 -0.1049 -2.2976
 1329TIP3   OH228181   1.395   2.772  19.832  0.4070  0.3034 -0.7270
 1329TIP3    H128182   1.402   2.677  19.817 -0.7926  0.0728  0.0908
 1329TIP3    H228183   1.301   2.790  19.827  0.3729  1.0191  1.5341
 1330TIP3   OH228184   0.805   5.672  19.874  0.4538 -0.5302 -0.0569
 1330TIP3    H128185   0.839   5.711  19.793  0.2550 -1.5929 -0.6609
 1330TIP3    H228186   0.883   5.645  19.922  0.5451 -1.5453 -0.7342
 1331TIP3   OH228187   5.550   0.030  16.872 -0.0874 -0.9539 -0.2267
 1331TIP3    H128188   5.621   0.022  16.809 -0.7414 -3.3227 -0.7934
 1331TIP3    H228189   5.483  -0.031  16.840 -1.8916  0.3206  0.9208
 1332TIP3   OH228190   5.455   3.899  19.526 -0.5407  0.7573 -0.4301
 1332TIP3    H128191   5.389   3.967  19.513  0.0937  1.2239 -1.3126
 1332TIP3    H228192   5.524   3.921  19.463 -1.0889 -1.6667 -2.0159
 1333TIP3   OH228193   4.822   5.983  19.948  0.2412 -0.0135  0.2517
 1333TIP3    H128194   4.839   5.965  20.040  2.8990  0.9301  0.0225
 1333TIP3    H228195   4.904   5.960  19.903 -1.1681 -1.0252 -1.9857
 1334TIP3   OH228196   2.149   5.044  17.421  0.2214 -0.3028 -0.0070
 1334TIP3    H128197   2.062   5.053  17.381  0.2318  0.7699  0.1953
 1334TIP3    H228198   2.131   5.017  17.511  0.0349  1.0863  0.3891
 1335TIP3   OH228199   4.186   1.767  17.669 -0.5004  0.0364  0.2730
 1335TIP3    H128200   4.118   1.709  17.701  1.6770 -1.8191  1.8812
 1335TIP3    H228201   4.241   1.784  17.746  2.5142 -0.9946 -1.5017
 1336TIP3   OH228202   4.447   2.798  18.931  0.0022 -0.5481  0.0020
 1336TIP3    H128203   4.504   2.735  18.887 -0.1191 -0.6070 -0.0710
 1336TIP3    H228204   4.461   2.880  18.884  0.3037 -0.4772  0.2199
 1337TIP3   OH228205   2.476   0.976  18.550 -0.1062 -0.5046 -0.4741
 1337TIP3    H128206   2.475   1.004  18.458 -0.0801  0.4670 -0.1857
 1337TIP3    H228207   2.473   0.880  18.545  0.8392 -0.5097 -1.5139
 1338TIP3   OH228208   6.223   3.597  19.676 -0.5935  0.1519 -0.0132
 1338TIP3    H128209   6.267   3.592  19.760  0.8633  1.4910 -0.6468
 1338TIP3    H228210   6.216   3.691  19.658 -3.1443 -0.0164 -0.2682
 1339TIP3   OH228211   1.453   3.299  18.741 -0.0946 -0.0115 -0.3055
 1339TIP3    H128212   1.477   3.237  18.672  0.5409  0.4560 -0.5126
 1339TIP3    H228213   1.397   3.248  18.800  2.1203 -1.4510  0.7070
 1340TIP3   OH228214   1.200   5.735  18.750 -0.1328 -0.4411  0.0147
 1340TIP3    H128215   1.122   5.689  18.781 -0.9471  0.5196 -0.5610
 1340TIP3    H228216   1.195   5.822  18.792  0.0983 -0.0290 -0.7923
 1341TIP3   OH228217   5.111   6.267  19.849 -0.0979 -0.1417 -0.2472
 1341TIP3    H128218   5.171   6.310  19.789  1.0756  0.2464  1.1356
 1341TIP3    H228219   5.148   6.179  19.862  0.3442  0.1742  0.7825
 1342TIP3   OH228220   0.045   3.038  18.372 -0.3494 -0.3053 -0.5663
 1342TIP3    H128221   0.129   2.992  18.376  0.4295  0.7285 -2.9266
 1342TIP3    H228222   0.003   3.006  18.292 -1.4228  0.4138 -0.3151
 1343TIP3   OH228223   6.121   5.650  19.752  0.1703 -0.2203 -0.5586
 1343TIP3    H128224   6.215   5.635  19.764  0.1752 -0.8204 -1.3040
 1343TIP3    H228225   6.115   5.737  19.713  0.3714  0.1267  0.1745
 1344TIP3   OH228226   1.162   4.975  18.204 -0.0059  0.0942 -0.2974
 1344TIP3    H128227   1.111   5.055  18.217  0.8049  0.4405  0.8855
 1344TIP3    H228228   1.098   4.905  18.215 -0.7278  0.5436 -1.3593
 1345TIP3   OH228229   0.494   4.284  18.829 -0.3443  0.7299  0.6940
 1345TIP3    H128230   0.567   4.308  18.773 -0.0576 -0.4385  0.5421
 1345TIP3    H228231   0.510   4.331  18.911  1.3435 -0.5716  1.1655
 1346TIP3   OH228232   3.304   6.053  19.809  0.0683 -0.1864  0.3839
 1346TIP3    H128233   3.315   6.131  19.864  1.2768  1.1385 -1.6138
 1346TIP3    H228234   3.209   6.036  19.810 -0.4956  2.4356 -0.5294
 1347TIP3   OH228235   6.614   4.069  17.824 -0.3230  0.1620  0.0318
 1347TIP3    H128236   6.703   4.084  17.793 -0.6975  0.4815 -0.8977
 1347TIP3    H228237   6.620   4.081  17.919  1.3468 -3.1832  0.4977
 1348TIP3   OH228238   5.985   2.134  19.302 -0.7256  0.1900  0.5190
 1348TIP3    H128239   6.022   2.222  19.313  1.7775 -0.7882  0.5703
 1348TIP3    H228240   5.935   2.138  19.221  1.5022  1.0344 -0.8874
 1349TIP3   OH228241   6.243   5.583  18.792 -0.4456  0.1881 -0.1433
 1349TIP3    H128242   6.328   5.595  18.751  0.3161  1.3653  1.6365
 1349TIP3    H228243   6.263   5.548  18.879 -1.9536 -1.6892 -0.4685
 1350TIP3   OH228244   1.983   6.025  17.225  0.5134  0.0648  0.3672
 1350TIP3    H128245   1.935   6.022  17.308 -0.1610 -0.7686 -0.0378
 1350TIP3    H228246   1.946   5.952  17.174  2.4450 -0.8265  0.1713
 1351TIP3   OH228247   5.332   0.326  18.825 -0.7764  0.3828  0.5422
 1351TIP3    H128248   5.383   0.252  18.857 -0.7373  0.4352  0.5994
 1351TIP3    H228249   5.255   0.329  18.883 -0.8685  0.2755  0.4263
 1352TIP3   OH228250   5.746   0.306  20.295 -0.0210  0.5115  0.1624
 1352TIP3    H128251   5.655   0.293  20.320  0.5751 -1.5056  1.5117
 1352TIP3    H228252   5.743   0.378  20.231 -2.4449  0.9478  0.6582
 1353TIP3   OH228253   5.260   0.025  19.171 -0.2233  0.1997 -0.0567
 1353TIP3    H128254   5.185   0.030  19.231  1.9150  1.2843  2.7917
 1353TIP3    H228255   5.245   0.095  19.108 -1.9446 -0.1123 -0.0510
 1354TIP3   OH228256   3.238   0.328  17.806 -0.3032  0.1018  0.2903
 1354TIP3    H128257   3.256   0.411  17.763 -3.1418  0.6012 -0.1544
 1354TIP3    H228258   3.197   0.274  17.738  0.0664 -1.0820  0.9710
 1355TIP3   OH228259   0.464   0.844  19.307  0.0856  0.1622  0.2312
 1355TIP3    H128260   0.525   0.881  19.370  1.1149 -1.9895  0.6010
 1355TIP3    H228261   0.391   0.906  19.305 -0.0095  0.3265  3.5481
 1356TIP3   OH228262   5.523   5.153  19.805  0.0633 -0.2639 -0.1761
 1356TIP3    H128263   5.552   5.063  19.789 -0.7832 -0.9763  1.9109
 1356TIP3    H228264   5.533   5.165  19.899  2.2683  2.6524 -0.6478
 1357TIP3   OH228265   0.525   1.903  18.047 -0.3651 -0.6209  0.1668
 1357TIP3    H128266   0.567   1.828  18.089  0.4625  0.5915  1.6171
 1357TIP3    H228267   0.571   1.979  18.083  0.5917  0.5337 -3.1798
 1358TIP3   OH228268   3.018   0.382  18.677 -0.0854 -0.2950 -0.0684
 1358TIP3    H128269   3.029   0.294  18.712 -2.2369 -0.4992  0.1798
 1358TIP3    H228270   2.948   0.421  18.729 -0.4187  0.9099 -1.3472
 1359TIP3   OH228271   4.748   4.316  16.749 -0.2549  0.0593  0.5739
 1359TIP3    H128272   4.668   4.357  16.717  0.8343  1.3375 -0.6404
 1359TIP3    H228273   4.757   4.350  16.839 -0.4500  0.8923  0.2901
 1360TIP3   OH228274   6.172   1.372  16.815  0.4033  0.1727 -0.7355
 1360TIP3    H128275   6.162   1.438  16.884  0.7111  0.2400 -0.7502
 1360TIP3    H228276   6.120   1.406  16.742  2.9898  2.0197 -1.8768
 1361TIP3   OH228277   3.722   6.036  18.159  0.1806 -0.1458  0.3707
 1361TIP3    H128278   3.745   5.953  18.201  2.0402  1.2236  2.3088
 1361TIP3    H228279   3.782   6.042  18.084  0.8180 -0.1033  0.8687
 1362TIP3   OH228280   4.453   4.195  19.402 -0.1911  0.3307 -0.1549
 1362TIP3    H128281   4.376   4.152  19.439 -0.6745  1.3448  0.0498
 1362TIP3    H228282   4.485   4.252  19.472  0.8718 -0.2201 -0.1746
 1363TIP3   OH228283   4.059   0.154  17.531  0.1218  0.1837 -0.0785
 1363TIP3    H128284   4.078   0.064  17.558 -1.1932 -0.3394 -0.7898
 1363TIP3    H228285   4.098   0.162  17.444 -0.2986  0.0849 -0.2801
 1364TIP3   OH228286   0.166   1.759  17.135  0.1493  0.0977 -0.3843
 1364TIP3    H128287   0.209   1.790  17.056  0.7766 -0.1238 -0.1361
 1364TIP3    H228288   0.155   1.837  17.189 -1.1289  0.4136 -1.0663
 1365TIP3   OH228289   3.850   0.662  17.976  0.1309 -0.0539 -0.2770
 1365TIP3    H128290   3.889   0.575  17.975  2.7055  0.9991 -0.7789
 1365TIP3    H228291   3.872   0.698  17.890  0.5658  1.6480  0.5081
 1366TIP3   OH228292   5.445   6.548  19.310 -0.3911  0.1201 -0.5089
 1366TIP3    H128293   5.422   6.623  19.255  1.4734  1.3411  0.3042
 1366TIP3    H228294   5.540   6.539  19.300 -0.6314 -2.6690 -1.2080
 1367TIP3   OH228295   5.394   1.470  17.754 -0.1026  0.6817  0.5177
 1367TIP3    H128296   5.472   1.459  17.699 -0.2585  1.0364  0.2272
 1367TIP3    H228297   5.359   1.381  17.762  0.3965  0.4979  0.7505
 1368TIP3   OH228298   6.568   0.729  19.577 -0.6499 -0.0740 -0.8660
 1368TIP3    H128299   6.483   0.735  19.622 -0.0278  0.2370  0.2914
 1368TIP3    H228300   6.627   0.693  19.642  0.2001  0.0832 -1.5435
 1369TIP3   OH228301   1.153   5.596  17.046 -0.0025 -0.1452 -0.1450
 1369TIP3    H128302   1.232   5.613  16.995  0.1154 -0.2187  0.0120
 1369TIP3    H228303   1.082   5.637  16.997  0.1645  0.1051 -0.1749
 1370TIP3   OH228304   5.302   4.131  17.287 -0.1498  0.5849 -0.3541
 1370TIP3    H128305   5.321   4.190  17.214 -0.6010  0.3602 -0.6587
 1370TIP3    H228306   5.388   4.110  17.323  0.1134  0.3995 -1.0623
 1371TIP3   OH228307   2.240   5.768  19.471 -0.2449 -0.1376  0.0148
 1371TIP3    H128308   2.272   5.758  19.561  1.5684  1.9839 -0.3094
 1371TIP3    H228309   2.317   5.754  19.416 -1.3506 -1.5204 -1.2641
 1372TIP3   OH228310   6.089   6.570  17.303  0.1605 -0.0371 -0.2027
 1372TIP3    H128311   6.094   6.514  17.225 -0.0938 -1.2923  0.6364
 1372TIP3    H228312   6.176   6.608  17.311  0.1349  0.2800 -1.2016
 1373TIP3   OH228313   0.342   0.373  17.868 -0.1638 -0.1186 -0.6785
 1373TIP3    H128314   0.313   0.446  17.922  0.0745  1.2307 -2.2821
 1373TIP3    H228315   0.405   0.326  17.922 -2.8125 -1.2175  1.6802
 1374TIP3   OH228316   0.753   3.629  19.772 -1.0215  0.4166 -0.1889
 1374TIP3    H128317   0.757   3.570  19.848 -2.3211 -0.5207 -0.8072
 1374TIP3    H228318   0.838   3.673  19.771 -0.9860  0.4781  1.8252
 1375TIP3   OH228319   2.766   2.837  19.705 -0.1723 -0.1157  0.5152
 1375TIP3    H128320   2.747   2.883  19.787 -1.8762 -0.4514  0.3367
 1375TIP3    H228321   2.819   2.761  19.732 -0.4277 -0.0397  1.2585
 1376TIP3   OH228322   5.034   4.073  18.016 -0.2544 -0.4196 -0.3317
 1376TIP3    H128323   5.077   3.991  18.041  0.3947 -1.7532 -4.9024
 1376TIP3    H228324   4.942   4.049  18.005  0.2685 -1.3494 -3.8191
 1377TIP3   OH228325   4.058   0.505  19.375 -0.3295 -0.5829  0.5661
 1377TIP3    H128326   4.035   0.596  19.358 -0.0826 -0.7452 -0.7957
 1377TIP3    H228327   3.974   0.459  19.378 -0.4552 -0.3133  1.2905
 1378TIP3   OH228328   0.679   0.667  20.130  0.1719 -0.3451 -0.0373
 1378TIP3    H128329   0.628   0.590  20.107  1.7057 -0.7585 -2.4912
 1378TIP3    H228330   0.763   0.654  20.086  1.3818  1.5842  1.5326
 1379TIP3   OH228331   5.307   4.864  19.335 -0.3704  0.3674  0.5186
 1379TIP3    H128332   5.305   4.803  19.262 -2.0190  0.6025  0.3336
 1379TIP3    H228333   5.384   4.919  19.318  0.8866 -1.3253  0.4693
 1380TIP3   OH228334   4.816   5.610  18.067  0.0148  0.4294  0.2492
 1380TIP3    H128335   4.866   5.692  18.067 -1.3387  1.2828  0.9354
 1380TIP3    H228336   4.798   5.592  17.975 -1.1209  1.8163  0.1893
 1381TIP3   OH228337   5.489   1.028  19.983  0.0976  0.1945  0.0408
 1381TIP3    H128338   5.478   1.035  19.888 -1.3987  0.0300  0.1751
 1381TIP3    H228339   5.442   1.103  20.018  0.7399  0.3187  0.6517
 1382TIP3   OH228340   4.226   6.458  18.844 -0.2580  0.0043 -0.3775
 1382TIP3    H128341   4.138   6.476  18.810 -1.9223 -0.2650  3.3354
 1382TIP3    H228342   4.278   6.533  18.815 -1.5421  0.0543 -2.8988
 1383TIP3   OH228343   4.128   5.118  19.884  0.2986  0.0697  0.2444
 1383TIP3    H128344   4.128   5.138  19.791  2.0729 -0.8651 -0.0004
 1383TIP3    H228345   4.112   5.024  19.889 -1.0938  0.3068  0.9950
 1384TIP3   OH228346   2.947   1.984  17.558 -0.1659  0.7834  0.5095
 1384TIP3    H128347   2.981   2.006  17.645 -3.3961  2.2119  1.5715
 1384TIP3    H228348   2.952   2.066  17.509 -0.5476  0.6051  0.1706
 1385TIP3   OH228349   3.989   3.551  19.007 -0.5413 -0.5129  0.5943
 1385TIP3    H128350   3.917   3.489  19.017 -0.8949 -0.0283  1.1215
 1385TIP3    H228351   3.954   3.634  19.039  0.1891 -0.2260  0.6749
 1386TIP3   OH228352   0.165   6.568  16.664  0.4856 -0.0829 -0.4767
 1386TIP3    H128353   0.142   6.479  16.690 -2.1534  0.6054 -0.0780
 1386TIP3    H228354   0.193   6.560  16.572 -0.3143 -1.2574 -0.6404
 1387TIP3   OH228355   3.022   4.130  18.104  0.3610 -0.1623  0.2423
 1387TIP3    H128356   2.970   4.115  18.184 -0.7816 -0.4788 -0.5376
 1387TIP3    H228357   3.006   4.222  18.082  0.6705 -0.0777  0.3601
 1388TIP3   OH228358   5.115   2.285  16.684 -0.2474 -0.4618  0.1408
 1388TIP3    H128359   5.081   2.350  16.622 -3.3690 -0.3269  1.8223
 1388TIP3    H228360   5.186   2.331  16.729  0.5031  0.2353 -1.6465
 1389TIP3   OH228361   0.819   5.891  19.325  0.5171  0.0396 -0.5061
 1389TIP3    H128362   0.738   5.942  19.321  0.7154  0.2815 -1.7663
 1389TIP3    H228363   0.874   5.939  19.387  0.8823  1.6845 -2.0013
 1390TIP3   OH228364   0.588   6.241  18.165  1.0847  0.6447  0.6554
 1390TIP3    H128365   0.677   6.236  18.130  1.8631  3.5066  1.9477
 1390TIP3    H228366   0.599   6.231  18.259  0.3725  3.0507  1.0513
 1391TIP3   OH228367   6.208   0.436  16.313  0.2979  0.4748 -0.0120
 1391TIP3    H128368   6.265   0.372  16.354 -0.3714 -0.1641 -0.0714
 1391TIP3    H228369   6.226   0.427  16.219 -2.6377 -2.5326 -0.4779
 1392TIP3   OH228370   3.937   2.404  19.843  0.1560 -0.4775 -0.1680
 1392TIP3    H128371   3.881   2.470  19.884 -0.6501 -2.2377  1.7594
 1392TIP3    H228372   3.877   2.352  19.789  0.3954 -0.8262 -0.1018
 1393TIP3   OH228373   6.412   0.815  17.963  0.1203 -0.0827  0.7120
 1393TIP3    H128374   6.506   0.805  17.978  0.3859  1.8026  0.4748
 1393TIP3    H228375   6.405   0.859  17.879 -0.9562  0.5338  1.1007
 1394TIP3   OH228376   2.934   1.298  18.961  0.3615  0.2682 -0.0890
 1394TIP3    H128377   2.918   1.287  18.867  0.5829  3.0137 -0.5504
 1394TIP3    H228378   2.878   1.233  19.003 -0.7775 -0.1319 -2.0842
 1395TIP3   OH228379   2.088   1.434  16.594  0.4934 -0.4549 -0.1670
 1395TIP3    H128380   2.118   1.518  16.630 -1.2338  0.5546 -0.9830
 1395TIP3    H228381   2.119   1.435  16.503  1.7282 -1.3962  0.2097
 1396TIP3   OH228382   0.452   2.639  17.817 -0.0860 -0.0103 -0.3589
 1396TIP3    H128383   0.420   2.567  17.763  1.1948 -1.3342  0.5761
 1396TIP3    H228384   0.402   2.634  17.898 -0.5010  0.6342 -0.5625
 1397TIP3   OH228385   3.968   6.534  19.149 -0.5572 -0.3674  0.0677
 1397TIP3    H128386   4.021   6.560  19.073 -0.3627  1.3651  0.7528
 1397TIP3    H228387   4.025   6.474  19.197 -1.5418 -3.4609 -2.2816
 1398TIP3   OH228388   5.196   3.958  17.637 -0.6531 -0.1297 -0.3726
 1398TIP3    H128389   5.103   3.971  17.620 -0.7400 -0.0239  0.1631
 1398TIP3    H228390   5.227   4.043  17.667 -0.4057 -0.1968 -0.4321
 1399TIP3   OH228391   5.667   5.292  18.555 -0.3315  0.2112  0.1673
 1399TIP3    H128392   5.652   5.324  18.466 -1.4106 -0.3206  0.1448
 1399TIP3    H228393   5.641   5.364  18.612  0.4221  0.5769  0.0710
 1400TIP3   OH228394   0.842   2.009  20.301 -0.4313 -0.2994  0.0188
 1400TIP3    H128395   0.752   1.985  20.278 -0.3665 -1.6552  1.0582
 1400TIP3    H228396   0.833   2.089  20.353 -0.9747 -0.0614 -0.4315
 1401TIP3   OH228397   5.558   0.985  17.862 -0.2128 -0.1919  0.5380
 1401TIP3    H128398   5.538   0.904  17.910 -0.9996 -0.4051 -0.1233
 1401TIP3    H228399   5.631   0.961  17.805  0.5625 -0.0042  1.4403
 1402TIP3   OH228400   6.035   0.180  17.280  0.4268  0.0092  0.1818
 1402TIP3    H128401   6.082   0.200  17.199 -2.2934 -0.5468 -1.6754
 1402TIP3    H228402   6.020   0.086  17.277  0.7142 -0.0950  1.6021
 1403TIP3   OH228403   4.247   4.803  17.465 -0.2366  0.1778  0.3304
 1403TIP3    H128404   4.178   4.869  17.478  0.6237  0.9678  1.0148
 1403TIP3    H228405   4.294   4.832  17.387 -0.5394 -0.2400 -0.0087
 1404TIP3   OH228406   3.542   0.492  19.458 -0.1066  0.1551 -0.1727
 1404TIP3    H128407   3.486   0.432  19.410  0.0127 -1.0491  1.1314
 1404TIP3    H228408   3.503   0.497  19.546  1.0539  0.3338  0.3600
 1405TIP3   OH228409   1.140   1.207  19.970  0.0841 -0.1936 -0.4095
 1405TIP3    H128410   1.175   1.145  20.034 -2.3739 -2.2534 -0.8700
 1405TIP3    H228411   1.165   1.171  19.885  1.1537  1.1256 -0.6780
 1406TIP3   OH228412   2.810   3.126  19.135  0.0169  0.7779  0.3338
 1406TIP3    H128413   2.762   3.047  19.112 -1.6700  1.7239  0.3980
 1406TIP3    H228414   2.835   3.164  19.051 -1.4033  1.4488  0.1819
 1407TIP3   OH228415   3.466   3.848  19.322  0.0005 -0.0195 -0.1256
 1407TIP3    H128416   3.427   3.935  19.331  0.2237 -0.0545  1.3890
 1407TIP3    H228417   3.434   3.799  19.397  0.8491 -0.8748 -0.2964
 1408TIP3   OH228418   3.902   3.721  19.185 -0.3946  0.4976  0.2585
 1408TIP3    H128419   3.823   3.672  19.207 -0.3304 -0.6420 -1.8461
 1408TIP3    H228420   3.870   3.807  19.157 -0.8843  0.1362 -0.3218
 1409TIP3   OH228421   2.475   6.080  20.149  0.4441  0.3651  0.5189
 1409TIP3    H128422   2.404   6.145  20.149 -0.4884 -0.5921  2.0041
 1409TIP3    H228423   2.532   6.107  20.077 -0.6361  2.0283  0.2261
 1410TIP3   OH228424   6.088   5.334  18.680 -0.3736 -0.0881  0.1769
 1410TIP3    H128425   6.157   5.289  18.630  0.3942  0.7633  0.4384
 1410TIP3    H228426   6.136   5.395  18.736 -1.4019  1.3676 -0.4937
 1411TIP3   OH228427   0.915   6.019  19.554 -0.0095 -0.1016  0.4858
 1411TIP3    H128428   0.844   6.082  19.565 -0.5462 -0.5274 -0.4858
 1411TIP3    H228429   0.995   6.073  19.558 -0.3720  0.4038  1.3534
 1412TIP3   OH228430   6.645   2.238  17.449 -0.3316  0.1811 -0.0403
 1412TIP3    H128431   6.634   2.325  17.487 -0.3212 -0.2187  0.8900
 1412TIP3    H228432   6.693   2.188  17.515 -1.3562 -0.8764 -0.0659
 1413TIP3   OH228433   6.597   6.493  16.579  0.2987  0.1663 -0.1685
 1413TIP3    H128434   6.567   6.581  16.600  1.0560  0.5283 -0.5834
 1413TIP3    H228435   6.606   6.493  16.483  0.9945 -0.1333 -0.1097
 1414TIP3   OH228436   6.371   4.315  18.599 -0.3476  0.5713  0.0349
 1414TIP3    H128437   6.346   4.267  18.679 -0.2477 -0.3899 -0.4904
 1414TIP3    H228438   6.376   4.406  18.627  1.0678  0.1060  1.5002
 1415TIP3   OH228439   1.921   3.433  19.397 -0.7512 -0.1128 -0.0954
 1415TIP3    H128440   1.872   3.488  19.336 -0.1041  0.1266 -0.4139
 1415TIP3    H228441   1.967   3.495  19.454  1.9738 -0.1807 -2.0253
 1416TIP3   OH228442   5.295   5.924  18.274  0.2479  0.0483 -0.0872
 1416TIP3    H128443   5.376   5.881  18.246 -1.0200 -1.0196 -2.4069
 1416TIP3    H228444   5.268   5.976  18.199 -1.6092 -0.2126  0.3431
 1417TIP3   OH228445   2.503   0.989  18.104  1.0657 -0.1346 -0.2190
 1417TIP3    H128446   2.462   1.075  18.113  1.1398 -0.1680  0.5226
 1417TIP3    H228447   2.570   0.987  18.173  3.5231  0.5584 -2.4424
 1418TIP3   OH228448   6.579   6.261  16.789 -0.0470  0.2769  0.1218
 1418TIP3    H128449   6.663   6.294  16.818 -0.1945  1.1647 -0.4279
 1418TIP3    H228450   6.588   6.252  16.694 -0.6163  0.5071  0.0438
 1419TIP3   OH228451   5.725   1.941  20.131  0.3969  0.3630 -0.2562
 1419TIP3    H128452   5.774   1.908  20.056 -0.0966  0.7668 -0.7688
 1419TIP3    H228453   5.705   1.863  20.183 -1.7789 -0.4013 -2.0538
 1420TIP3   OH228454   6.657   5.809  19.566  0.3205 -0.4124  0.2627
 1420TIP3    H128455   6.748   5.803  19.593 -0.1863 -1.4645  1.9179
 1420TIP3    H228456   6.625   5.719  19.571 -1.0224  0.0580  0.5525
 1421TIP3   OH228457   2.251   0.009  20.308  0.4199 -0.2249 -0.2418
 1421TIP3    H128458   2.219   0.071  20.242 -0.2995  0.6497  0.9096
 1421TIP3    H228459   2.286   0.064  20.378  0.3297 -1.1279  0.5300
 1422TIP3   OH228460   4.547   5.369  18.473  0.1387 -0.0128 -0.3358
 1422TIP3    H128461   4.561   5.290  18.421  0.1501  0.4919 -1.1077
 1422TIP3    H228462   4.612   5.432  18.441 -0.2273  0.4930 -0.1049
 1423TIP3   OH228463   3.186   4.195  18.520 -0.1563  0.4309 -0.5652
 1423TIP3    H128464   3.196   4.270  18.578  1.4324  0.1658 -0.4616
 1423TIP3    H228465   3.230   4.123  18.565  0.9906  0.1825 -1.9988
 1424TIP3   OH228466   6.285   4.465  18.034 -0.1783 -0.4389  0.5105
 1424TIP3    H128467   6.275   4.394  17.971  0.4237 -0.0596 -0.0196
 1424TIP3    H228468   6.271   4.424  18.120  0.9511 -1.3732  0.2711
 1425TIP3   OH228469   2.030   2.043  20.311  0.2866  0.4758 -0.3159
 1425TIP3    H128470   2.067   1.959  20.286  0.2465  0.4800 -0.3877
 1425TIP3    H228471   2.105   2.094  20.342  0.0312 -0.3203  1.7800
 1426TIP3   OH228472   4.858   4.444  20.031  0.0939  0.0328 -0.6455
 1426TIP3    H128473   4.892   4.515  19.977  1.6336  1.6709  2.2098
 1426TIP3    H228474   4.919   4.372  20.017  1.0397  0.7641 -0.4306
 1427TIP3   OH228475   4.110   3.829  18.999 -0.1824 -0.0224 -0.3072
 1427TIP3    H128476   4.072   3.791  18.920  0.4173  0.6511 -0.9394
 1427TIP3    H228477   4.137   3.754  19.052  0.7804 -0.4955 -1.4258
 1428TIP3   OH228478   3.275   4.063  19.357 -0.2658  0.2550  0.2808
 1428TIP3    H128479   3.196   4.101  19.319 -0.0034 -0.0448 -0.6066
 1428TIP3    H228480   3.338   4.135  19.359  0.0304  0.0550 -0.8108
 1429TIP3   OH228481   2.500   5.494  19.813 -0.2690 -0.0854  0.0136
 1429TIP3    H128482   2.434   5.558  19.788 -0.2373 -0.0664 -0.0240
 1429TIP3    H228483   2.529   5.456  19.730  1.2505  1.3742 -0.1752
 1430TIP3   OH228484   5.841   3.202  19.586  0.3884 -0.6181 -0.1554
 1430TIP3    H128485   5.827   3.119  19.541  1.0632 -0.8115 -0.0244
 1430TIP3    H228486   5.923   3.190  19.634 -2.0083 -1.7149  4.1640
 1431TIP3   OH228487   0.047   1.886  20.011  0.4532 -0.3141  0.4337
 1431TIP3    H128488   0.048   1.904  20.105 -1.0345  0.9916  0.2462
 1431TIP3    H228489   0.077   1.968  19.971 -1.7244  0.1980 -0.2941
 1432TIP3   OH228490   6.436   4.006  18.993 -0.0614  0.3971  0.1985
 1432TIP3    H128491   6.455   3.955  18.914  0.1899 -1.0623  1.1606
 1432TIP3    H228492   6.450   4.097  18.967 -1.2495  0.0620 -1.7913
 1433TIP3   OH228493   3.942   1.691  17.529 -0.0669 -0.1173 -0.6630
 1433TIP3    H128494   3.976   1.636  17.458  0.9705 -0.8181  0.3398
 1433TIP3    H228495   3.887   1.633  17.580 -0.0264  0.1274 -0.3410
 1434TIP3   OH228496   5.024   1.985  18.018  0.7841 -0.2681 -0.0521
 1434TIP3    H128497   5.081   1.946  18.084  0.0983  0.3148  0.9160
 1434TIP3    H228498   5.069   2.064  17.991  0.5601  0.0692  0.5384
 1435TIP3   OH228499   3.270   5.844  19.627  0.8878 -0.5275  0.1095
 1435TIP3    H128500   3.187   5.892  19.625 -0.0925 -2.0701  1.2707
 1435TIP3    H228501   3.311   5.870  19.709  1.2861 -0.2285 -0.1781
 1436TIP3   OH228502   2.319   0.095  18.795 -0.1202 -0.1572  0.2108
 1436TIP3    H128503   2.357   0.180  18.774 -1.1207  0.0668 -0.7881
 1436TIP3    H228504   2.277   0.067  18.713 -0.3770 -1.2974  0.7200
 1437TIP3   OH228505   3.745   5.861  19.573 -0.5798 -0.5128  0.3075
 1437TIP3    H128506   3.755   5.938  19.629 -0.7342 -0.6909  0.5812
 1437TIP3    H228507   3.655   5.832  19.587 -1.8476  1.4628 -2.6497
 1438TIP3   OH228508   3.687   4.913  19.057  0.0145  0.5092  0.5326
 1438TIP3    H128509   3.613   4.972  19.068  0.4074  0.7613  2.1853
 1438TIP3    H228510   3.753   4.947  19.117  0.4399 -1.2914  1.1421
 1439TIP3   OH228511   0.982   6.573  17.489  0.1635 -0.5118 -0.0788
 1439TIP3    H128512   0.955   6.650  17.538 -1.0586 -1.6966  1.2337
 1439TIP3    H228513   1.065   6.597  17.448  0.3790  1.1082  1.2216
 1440TIP3   OH228514   4.048   5.751  19.867 -0.0196  0.0462 -0.1781
 1440TIP3    H128515   4.075   5.679  19.924 -0.4134  0.7265  0.9215
 1440TIP3    H228516   3.953   5.757  19.880  0.1132  1.3256  0.4955
 1441TIP3   OH228517   2.468   4.267  20.253 -0.8141  0.1504 -0.8813
 1441TIP3    H128518   2.494   4.176  20.240  0.7888  0.4479 -0.0158
 1441TIP3    H228519   2.550   4.316  20.253 -1.5043  1.3851  0.3451
 1442TIP3   OH228520   3.580   3.436  18.550 -0.2720  0.0544 -0.1026
 1442TIP3    H128521   3.514   3.391  18.498  0.9898 -0.6946 -1.1003
 1442TIP3    H228522   3.601   3.376  18.621  1.1234 -0.8374 -1.2108
 1443TIP3   OH228523   5.687   2.744  19.695  0.0516 -0.6090 -0.7960
 1443TIP3    H128524   5.602   2.761  19.735  0.2781  1.9292 -1.2431
 1443TIP3    H228525   5.740   2.707  19.766 -1.2819 -1.9153 -0.4345
 1444TIP3   OH228526   1.903   4.323  20.425  0.5085  0.1501 -0.6297
 1444TIP3    H128527   1.847   4.249  20.403 -0.7225  0.7655  0.3588
 1444TIP3    H228528   1.907   4.375  20.344  1.0710 -0.7639 -1.2125
 1445TIP3   OH228529   1.066   1.899  18.664  0.0093  0.3736  0.1142
 1445TIP3    H128530   0.996   1.916  18.728 -1.9290  0.0924 -1.8108
 1445TIP3    H228531   1.146   1.898  18.716 -1.5598 -0.9816  2.7308
 1446TIP3   OH228532   5.368   4.166  18.916  0.1827  0.2306  0.4120
 1446TIP3    H128533   5.274   4.167  18.898  0.6615  1.2997 -2.4688
 1446TIP3    H228534   5.378   4.218  18.996 -1.4991  1.9090 -0.4156
 1447TIP3   OH228535   1.003   6.488  18.742  0.2406 -0.7275  0.0773
 1447TIP3    H128536   1.038   6.577  18.745 -0.4491 -0.2519 -2.8136
 1447TIP3    H228537   0.916   6.494  18.779  0.6757 -0.4995  1.0886
 1448TIP3   OH228538   5.839   2.779  16.844 -0.3962 -0.0128  0.3578
 1448TIP3    H128539   5.782   2.830  16.786 -0.0959  2.1253  1.8390
 1448TIP3    H228540   5.783   2.708  16.875 -2.0835  1.5674  1.1421
 1449TIP3   OH228541   2.495   0.819  19.853  0.1616 -0.2616  0.0223
 1449TIP3    H128542   2.556   0.884  19.818 -1.5872  1.2008 -0.4805
 1449TIP3    H228543   2.551   0.748  19.885  2.1243  1.1494 -0.0867
 1450TIP3   OH228544   6.279   0.907  18.198 -0.8965 -0.5992  0.0601
 1450TIP3    H128545   6.299   0.877  18.109 -1.5127 -0.8198 -0.0049
 1450TIP3    H228546   6.233   0.833  18.238  0.2597 -0.9023  0.9018
 1451TIP3   OH228547   0.984   3.060  17.340  0.3030  0.6762  0.1445
 1451TIP3    H128548   0.891   3.069  17.321  0.3763  1.4391  0.1114
 1451TIP3    H228549   1.026   3.060  17.254  0.4236  1.5351  0.1940
 1452TIP3   OH228550   1.197   4.527  17.700  0.6468 -0.1604  0.3474
 1452TIP3    H128551   1.127   4.515  17.636  1.3409  0.1584 -0.4835
 1452TIP3    H228552   1.151   4.540  17.783 -0.2570 -1.0723  0.0126
 1453TIP3   OH228553   5.264   1.208  17.716  0.3587 -0.7611 -0.1294
 1453TIP3    H128554   5.221   1.159  17.786 -0.2546  0.2124  0.2053
 1453TIP3    H228555   5.250   1.156  17.638 -0.8665 -0.7998  0.1001
 1454TIP3   OH228556   2.453   6.534  20.141  0.4328  0.4068  0.6311
 1454TIP3    H128557   2.446   6.594  20.067 -0.6902  0.1818  0.5262
 1454TIP3    H228558   2.436   6.589  20.218  0.3608  0.4094  0.6130
 1455TIP3   OH228559   4.930   0.333  19.232 -0.2487  0.1556 -0.3052
 1455TIP3    H128560   4.877   0.407  19.203 -1.4536 -0.3561  0.5395
 1455TIP3    H228561   4.869   0.275  19.278  0.5360 -1.6398 -1.3860
 1456TIP3   OH228562   5.855   4.490  19.136 -0.1189  0.1308  0.4950
 1456TIP3    H128563   5.896   4.406  19.112  1.5994  1.0655  0.0052
 1456TIP3    H228564   5.830   4.529  19.053 -0.7439  0.2070  0.7125
 1457TIP3   OH228565   3.250   0.653  19.966  0.3228  0.8178 -0.2054
 1457TIP3    H128566   3.297   0.611  20.037 -0.9538 -1.4938 -0.6188
 1457TIP3    H228567   3.269   0.746  19.976  1.1957  0.4436  2.3721
 1458TIP3   OH228568   5.977   1.271  16.040  0.5268  0.4547 -0.6876
 1458TIP3    H128569   6.067   1.304  16.037  1.0018 -0.6509  0.2294
 1458TIP3    H228570   5.970   1.230  16.127 -0.0808 -1.5531 -1.6113
 1459TIP3   OH228571   2.425   3.686  20.589  0.4604 -0.0486 -0.2312
 1459TIP3    H128572   2.444   3.747  20.662  1.2920  0.1982 -0.6409
 1459TIP3    H228573   2.381   3.740  20.524  0.7017 -0.0086 -0.3639
 1460TIP3   OH228574   2.245   4.830  18.056 -0.2407  0.4047 -0.6402
 1460TIP3    H128575   2.167   4.820  18.002 -0.4846  0.8375 -0.3731
 1460TIP3    H228576   2.292   4.747  18.047  0.4031  0.9269 -2.6027
 1461TIP3   OH228577   5.005   5.721  17.619  0.7381  0.1138  0.1887
 1461TIP3    H128578   5.005   5.747  17.527 -0.1519  0.6393  0.3263
 1461TIP3    H228579   4.993   5.626  17.617  0.6104  0.1390 -0.2397
 1462TIP3   OH228580   1.854   0.974  17.339 -0.0106 -0.5344 -0.1524
 1462TIP3    H128581   1.866   0.917  17.263  0.0054 -0.9553  0.1605
 1462TIP3    H228582   1.760   0.983  17.348 -0.0092  1.2928 -1.5173
 1463TIP3   OH228583   5.542   6.359  17.566  0.2884  0.8525 -0.0360
 1463TIP3    H128584   5.554   6.264  17.562  0.0469  0.7517  1.2607
 1463TIP3    H228585   5.452   6.370  17.595 -0.1204  1.5161 -1.4688
 1464TIP3   OH228586   3.137   6.229  19.322 -0.3566  0.0348 -0.8789
 1464TIP3    H128587   3.213   6.174  19.341 -0.3285  0.3615  0.0197
 1464TIP3    H228588   3.167   6.289  19.254  0.4545  0.6812  0.0233
 1465TIP3   OH228589   2.010   3.167  17.726 -0.4971 -0.1365  0.6372
 1465TIP3    H128590   2.103   3.166  17.703 -0.9323 -0.0755 -1.2490
 1465TIP3    H228591   1.979   3.252  17.696 -1.0680  0.0942  1.7998
 1466TIP3   OH228592   5.769   5.527  18.240 -0.0314  0.0536  0.3366
 1466TIP3    H128593   5.794   5.529  18.147 -1.4142 -0.1487 -0.0533
 1466TIP3    H228594   5.760   5.619  18.264 -0.4756  0.0919  0.0379
 1467TIP3   OH228595   2.602   1.266  19.783  0.1743  0.4438  0.4340
 1467TIP3    H128596   2.526   1.212  19.759  0.0447  0.9910 -0.4112
 1467TIP3    H228597   2.674   1.204  19.788 -0.3057 -0.0764  1.1824
 1468TIP3   OH228598   2.648   0.246  18.707  0.2387 -0.2045  0.6832
 1468TIP3    H128599   2.662   0.269  18.615  1.8158 -1.7407  0.4933
 1468TIP3    H228600   2.711   0.299  18.755  1.6392 -1.6704  0.5408
 1469TIP3   OH228601   4.736   1.131  18.251  0.0592  0.5250 -0.0335
 1469TIP3    H128602   4.741   1.206  18.310  0.6335  0.1422  0.4212
 1469TIP3    H228603   4.713   1.057  18.308  1.2994  0.0231 -0.1555
 1470TIP3   OH228604   2.480   2.029  17.818  0.4298  0.6535  0.2895
 1470TIP3    H128605   2.473   1.938  17.845 -0.2982  0.9388  1.1425
 1470TIP3    H228606   2.526   2.027  17.735  0.1340 -0.5191  0.1447
 1471TIP3   OH228607   6.590   3.188  20.019 -0.9836 -0.3282  0.1273
 1471TIP3    H128608   6.623   3.143  20.097 -1.2465 -0.2586  0.2829
 1471TIP3    H228609   6.500   3.211  20.042 -2.0429 -2.7634 -1.2168
 1472TIP3   OH228610   2.290   6.295  20.081 -0.5483 -0.0120  0.1514
 1472TIP3    H128611   2.365   6.354  20.093  0.2008 -0.6103 -1.3040
 1472TIP3    H228612   2.241   6.334  20.008 -1.7665  0.4510  1.1843
 1473TIP3   OH228613   3.562   4.445  20.205  0.4735  0.4064  0.0871
 1473TIP3    H128614   3.625   4.500  20.251  0.5413 -0.7417  1.4598
 1473TIP3    H228615   3.489   4.504  20.184 -0.1790  0.7594  2.9332
 1474TIP3   OH228616   5.635   4.052  19.352 -0.0281  0.5553  0.1227
 1474TIP3    H128617   5.700   4.079  19.418  0.4448  1.1524 -0.5717
 1474TIP3    H228618   5.583   4.131  19.336 -0.9581  0.0798  0.6808
 1475TIP3   OH228619   0.260   2.154  19.164  0.0526  0.3211 -0.0990
 1475TIP3    H128620   0.287   2.234  19.121 -0.4709  0.0516 -0.9539
 1475TIP3    H228621   0.236   2.095  19.093  0.6340 -0.6771  0.5016
 1476TIP3   OH228622   2.690   3.664  17.150 -0.3392  0.3271  0.2171
 1476TIP3    H128623   2.784   3.653  17.154 -0.3601  0.3179  0.7744
 1476TIP3    H228624   2.656   3.580  17.119 -0.2415 -0.0419  1.0797
 1477TIP3   OH228625   1.180   3.660  18.717  0.7651 -0.6100  0.5252
 1477TIP3    H128626   1.116   3.612  18.664 -0.8100 -1.6396  3.1452
 1477TIP3    H228627   1.262   3.613  18.703  0.0218 -1.8948  0.2852
 1478TIP3   OH228628   3.888   5.540  19.336 -0.4491  0.1079  0.4203
 1478TIP3    H128629   3.840   5.614  19.298 -0.7913 -0.2390  0.1667
 1478TIP3    H228630   3.897   5.564  19.429 -0.8029  0.3429  0.3995
 1479TIP3   OH228631   5.292   0.970  19.729  0.3079 -0.0273 -0.5557
 1479TIP3    H128632   5.262   0.922  19.652 -0.9742  0.8209 -0.6106
 1479TIP3    H228633   5.230   1.042  19.739  2.8071  2.4212 -1.2117
 1480TIP3   OH228634   0.045   0.417  18.248 -0.3703  0.1079  0.1468
 1480TIP3    H128635   0.072   0.344  18.305  0.0500  0.4576  0.3977
 1480TIP3    H228636  -0.048   0.401  18.232 -0.3236 -0.3900  0.3449
 1481TIP3   OH228637   5.312   1.997  19.897 -0.4239  1.0239  0.6317
 1481TIP3    H128638   5.310   1.915  19.945 -2.7367  0.1729 -0.7807
 1481TIP3    H228639   5.221   2.016  19.877  0.2438  2.7195 -1.1118
 1482TIP3   OH228640   5.144   0.004  18.198  0.4391 -0.0145  0.4758
 1482TIP3    H128641   5.147   0.080  18.257  0.4950 -0.4985  1.1121
 1482TIP3    H228642   5.053  -0.027  18.205  0.9130 -1.2164  1.8171
 1483TIP3   OH228643   2.799   1.329  20.073  0.2371  0.0435 -0.5245
 1483TIP3    H128644   2.817   1.340  20.166 -1.4429  1.1391 -0.2710
 1483TIP3    H228645   2.810   1.236  20.056  1.9720  0.0389  0.4185
 1484TIP3   OH228646   4.468   1.483  18.301  0.3839 -0.0858 -0.1033
 1484TIP3    H128647   4.452   1.506  18.393  0.8319  1.2708 -0.3448
 1484TIP3    H228648   4.561   1.502  18.288 -0.0365  1.3949 -1.2783
 1485TIP3   OH228649   5.623   1.898  17.784 -0.0995  0.8005  0.7390
 1485TIP3    H128650   5.714   1.897  17.812  0.1164  0.8785  0.0580
 1485TIP3    H228651   5.604   1.990  17.765 -0.2136  0.7399  0.5539
 1486TIP3   OH228652   2.024   5.102  19.088  0.2017  0.2980 -0.5583
 1486TIP3    H128653   2.079   5.141  19.020 -1.4161 -0.6471 -2.5242
 1486TIP3    H228654   1.944   5.154  19.087 -1.5787 -2.2511 -2.5003
 1487TIP3   OH228655   0.395   5.082  18.355 -0.1509  0.1580  0.4176
 1487TIP3    H128656   0.349   5.117  18.431 -0.9613  1.3331 -0.5736
 1487TIP3    H228657   0.338   5.013  18.322  0.0079 -0.0824  0.6470
 1488TIP3   OH228658   6.548   2.581  17.841 -0.4552 -0.0260  0.0057
 1488TIP3    H128659   6.479   2.646  17.825  0.3374  1.5573  2.4440
 1488TIP3    H228660   6.557   2.579  17.936  2.0294 -1.0852 -0.1893
 1489TIP3   OH228661   0.116   4.627  17.983 -0.0746  0.3193  0.4267
 1489TIP3    H128662   0.094   4.636  18.075  0.9481 -1.0180  0.8473
 1489TIP3    H228663   0.077   4.543  17.957 -1.4677  1.2724 -0.7437
 1490TIP3   OH228664   2.763   0.837  18.837 -0.6058 -0.0081 -0.4294
 1490TIP3    H128665   2.745   0.928  18.814  0.6046  0.0360 -1.2787
 1490TIP3    H228666   2.677   0.800  18.854 -1.4039  0.5879 -2.7698
 1491TIP3   OH228667   0.848   0.799  17.612 -0.3035 -0.5175 -0.5895
 1491TIP3    H128668   0.832   0.705  17.614 -2.6350 -0.2154 -1.4669
 1491TIP3    H228669   0.943   0.807  17.609 -0.0198 -2.8020  0.1827
 1492TIP3   OH228670   5.770   5.624  17.844 -0.0723 -0.0825  0.1557
 1492TIP3    H128671   5.855   5.581  17.845  0.5623  1.1082  1.2750
 1492TIP3    H228672   5.707   5.553  17.849  0.9287 -0.9281  2.6435
 1493TIP3   OH228673   5.028   4.012  18.359  0.0560 -0.2615  0.0162
 1493TIP3    H128674   5.105   3.959  18.338 -0.1729 -0.7664  0.4116
 1493TIP3    H228675   5.059   4.076  18.423  0.3030 -0.0120 -0.3533
 1494TIP3   OH228676   2.641   2.292  17.442  0.3906  0.0960  0.2070
 1494TIP3    H128677   2.577   2.255  17.503  1.3258  0.2723  1.3294
 1494TIP3    H228678   2.640   2.232  17.367  0.4309 -1.0810  1.1205
 1495TIP3   OH228679   2.532   3.298  18.524  0.1608  0.3610 -0.0886
 1495TIP3    H128680   2.608   3.243  18.541 -0.4812 -0.5436 -0.0498
 1495TIP3    H228681   2.510   3.335  18.609  0.2537  0.2202 -0.0026
 1496TIP3   OH228682   2.804   2.540  20.406  0.1761  0.6732  0.5634
 1496TIP3    H128683   2.820   2.605  20.474 -0.5122 -2.2519  3.8649
 1496TIP3    H228684   2.725   2.570  20.361  0.7375  2.8123  0.9348
 1497TIP3   OH228685   1.825   5.190  18.737 -0.2490  1.2110  0.0620
 1497TIP3    H128686   1.878   5.233  18.670  0.2815  0.4396 -0.0240
 1497TIP3    H228687   1.784   5.116  18.691  0.8998  0.0784  0.7885
 1498TIP3   OH228688   0.610   3.454  17.137  0.1103  0.3955 -0.6483
 1498TIP3    H128689   0.650   3.521  17.192  0.1328 -0.1839  0.0556
 1498TIP3    H228690   0.681   3.426  17.079  0.7606 -0.6226  0.5878
 1499TIP3   OH228691   5.119   6.634  16.880 -0.1062  0.0551 -0.3278
 1499TIP3    H128692   5.147   6.564  16.820  0.0653  0.1180 -0.3206
 1499TIP3    H228693   5.182   6.630  16.952  1.1124  1.4735 -1.2465
 1500TIP3   OH228694   2.044   4.783  18.568 -0.6121  0.3167  0.4075
 1500TIP3    H128695   2.081   4.870  18.583 -0.3354  0.0727  1.1825
 1500TIP3    H228696   2.105   4.723  18.611 -2.9853  0.0465  3.8445
 1501TIP3   OH228697   0.483   3.724  18.633 -0.0900 -0.4375 -0.6633
 1501TIP3    H128698   0.433   3.793  18.588  1.0166 -0.0862 -1.3948
 1501TIP3    H228699   0.417   3.660  18.660 -0.9747  0.2003 -1.2720
 1502TIP3   OH228700   1.380   4.427  17.378  0.7196 -0.1726  0.5431
 1502TIP3    H128701   1.379   4.500  17.315 -0.4974 -0.6379 -0.0149
 1502TIP3    H228702   1.319   4.363  17.342 -1.4519  0.2907  3.0523
 1503TIP3   OH228703   3.990   1.216  18.965 -0.5476  0.0291  0.2008
 1503TIP3    H128704   3.944   1.246  19.043 -1.2049  0.0525 -0.1924
 1503TIP3    H228705   3.934   1.244  18.892 -0.2082 -0.4701 -0.2514
 1504TIP3   OH228706   2.712   4.664  18.686  0.1138  0.1064 -0.0339
 1504TIP3    H128707   2.694   4.634  18.775  1.0415 -1.8511 -0.4577
 1504TIP3    H228708   2.630   4.648  18.639  0.1184 -0.3169  0.0986
 1505TIP3   OH228709   5.491   4.128  19.714 -0.1479 -0.7333 -0.0409
 1505TIP3    H128710   5.458   4.062  19.776  0.7170 -0.8888  0.2746
 1505TIP3    H228711   5.552   4.079  19.659 -0.5667 -0.4906 -0.7208
 1506TIP3   OH228712   2.649   5.617  18.928 -0.6408  0.0010 -0.8080
 1506TIP3    H128713   2.590   5.546  18.904 -0.7331  0.0448 -0.7123
 1506TIP3    H228714   2.693   5.586  19.007 -1.3574  0.4208 -0.2198
 1507TIP3   OH228715   6.184   6.266  18.649 -0.0327 -0.3573  0.6645
 1507TIP3    H128716   6.242   6.232  18.581  0.0072 -0.0066  0.5217
 1507TIP3    H228717   6.176   6.194  18.712  1.0918 -0.1816  1.0331
 1508TIP3   OH228718   4.487   2.433  17.126  0.2769  0.2504 -0.4259
 1508TIP3    H128719   4.564   2.465  17.079 -0.5502 -0.0629 -2.0615
 1508TIP3    H228720   4.434   2.511  17.140  0.0413  0.1975 -0.9801
 1509TIP3   OH228721   6.387   2.281  19.669  0.8265 -0.1701  0.0220
 1509TIP3    H128722   6.319   2.347  19.683  1.0313  0.5321 -2.0092
 1509TIP3    H228723   6.378   2.221  19.744 -1.6269  0.2244  0.1204
 1510TIP3   OH228724   0.906   5.880  16.974 -0.5632  0.4516  0.0326
 1510TIP3    H128725   0.931   5.946  16.909  1.4100  1.1757  1.4317
 1510TIP3    H228726   0.909   5.797  16.926 -0.3529  1.0914 -1.0879
 1511TIP3   OH228727   0.881   2.170  19.633  0.1522  0.2827 -0.1996
 1511TIP3    H128728   0.859   2.132  19.548 -0.2751  2.4758 -1.1484
 1511TIP3    H228729   0.927   2.100  19.680  1.4835 -0.6343 -2.6877
 1512TIP3   OH228730   5.499   6.514  17.892  0.3407  0.2985  0.4543
 1512TIP3    H128731   5.566   6.562  17.843  0.8622  0.8753  1.6857
 1512TIP3    H228732   5.548   6.468  17.960 -0.4624  0.3185  1.0617
 1513TIP3   OH228733   5.285   0.132  17.999 -0.0212 -0.0198 -0.3727
 1513TIP3    H128734   5.226   0.106  18.070 -1.4866 -0.2962 -1.6419
 1513TIP3    H228735   5.272   0.065  17.932 -0.0595  1.2234 -1.6473
 1514TIP3   OH228736   3.051   0.079  17.925 -0.2405  0.0098 -0.2392
 1514TIP3    H128737   3.140   0.104  17.951  0.6657 -2.1987 -0.9615
 1514TIP3    H228738   3.043   0.110  17.835 -0.9529  1.8320  0.3887
 1515TIP3   OH228739   1.974   0.669  19.767  0.3168  0.5147  0.0901
 1515TIP3    H128740   1.982   0.742  19.707  0.1721 -1.5209 -2.5985
 1515TIP3    H228741   1.884   0.639  19.757  1.1358 -1.7851 -1.1779
 1516TIP3   OH228742   0.849   4.293  17.107 -0.0470  0.3483 -0.1357
 1516TIP3    H128743   0.877   4.384  17.105 -0.3189  0.4261 -0.9583
 1516TIP3    H228744   0.832   4.271  17.015 -0.2962 -0.4334  0.0852
 1517TIP3   OH228745   0.058   1.261  16.929  0.6271 -0.0182 -0.2068
 1517TIP3    H128746   0.006   1.340  16.917 -0.0425 -0.1974  1.3194
 1517TIP3    H228747   0.122   1.264  16.858 -0.3276  1.1145 -1.0665
 1518TIP3   OH228748   6.304   1.414  17.462  0.1922 -0.9554  0.3514
 1518TIP3    H128749   6.210   1.395  17.471 -0.0208 -0.6190 -0.9675
 1518TIP3    H228750   6.319   1.487  17.521 -0.5698 -0.4540 -0.0505
 1519TIP3   OH228751   4.356   3.580  17.583  0.1616  0.0791  0.0321
 1519TIP3    H128752   4.398   3.517  17.525 -0.2362  0.0970 -0.2788
 1519TIP3    H228753   4.429   3.624  17.628  0.4636 -0.0471 -0.3315
 1520TIP3   OH228754   6.530   0.493  19.826  0.5416  0.2333  0.0236
 1520TIP3    H128755   6.622   0.513  19.813  0.5463  0.9868  1.0750
 1520TIP3    H228756   6.524   0.399  19.810  1.3351  0.3127 -0.8243
 1521TIP3   OH228757   0.612   3.861  17.465 -0.3920  0.3614  0.4767
 1521TIP3    H128758   0.680   3.836  17.402  0.1209 -0.5569  1.3675
 1521TIP3    H228759   0.636   3.949  17.493  0.2324  0.1807  0.5162
 1522TIP3   OH228760   6.661   1.135  18.281  0.2955 -0.0826 -0.3310
 1522TIP3    H128761   6.637   1.225  18.259 -2.3617  0.4819  3.7901
 1522TIP3    H228762   6.579   1.087  18.276  1.2502 -1.7828 -0.2398
 1523TIP3   OH228763   0.704   2.834  18.429 -0.0648  0.2984  0.1594
 1523TIP3    H128764   0.734   2.918  18.395  1.6124  0.2281  1.3807
 1523TIP3    H228765   0.631   2.856  18.487 -0.1662  0.8267 -0.1673
 1524TIP3   OH228766   1.072   1.362  18.247 -0.1455  0.5959  0.1179
 1524TIP3    H128767   1.072   1.274  18.210 -0.6838  1.0657 -1.0768
 1524TIP3    H228768   1.151   1.403  18.210  1.0030  0.1466  1.9460
 1525TIP3   OH228769   6.473   1.203  17.877 -0.3265 -0.4089  0.3820
 1525TIP3    H128770   6.552   1.151  17.861  1.2939  1.8942  0.4656
 1525TIP3    H228771   6.425   1.200  17.794  0.8781 -0.1510 -0.3327
 1526TIP3   OH228772   3.047   4.799  20.196  0.2344  0.1320 -0.1615
 1526TIP3    H128773   3.099   4.869  20.235  0.0315  1.1493 -1.6098
 1526TIP3    H228774   2.961   4.838  20.182 -0.0060 -0.5378 -0.6097
 1527TIP3   OH228775   2.672   0.593  19.980 -0.1153 -0.3842  0.0650
 1527TIP3    H128776   2.682   0.543  19.899  1.6416  0.5532 -0.3490
 1527TIP3    H228777   2.603   0.547  20.028 -1.6507 -0.6014 -2.2137
 1528TIP3   OH228778   6.542   2.085  17.260 -0.0478 -0.2979 -0.5569
 1528TIP3    H128779   6.551   1.991  17.276  0.1073 -0.4383 -1.4333
 1528TIP3    H228780   6.570   2.126  17.342  0.7835 -0.9855 -0.4834
 1529TIP3   OH228781   3.300   5.759  18.476  0.1125  0.6198 -0.3038
 1529TIP3    H128782   3.351   5.836  18.450 -0.8165  1.2809 -0.1954
 1529TIP3    H228783   3.321   5.693  18.411 -0.3467  1.4937 -1.3607
 1530TIP3   OH228784   3.728   1.601  17.910  0.0933  0.3320  0.1218
 1530TIP3    H128785   3.652   1.656  17.929  0.9797  2.2188 -1.4222
 1530TIP3    H228786   3.772   1.590  17.994 -0.5979  1.2014  0.6144
 1531TIP3   OH228787   6.611   3.479  18.031  0.2410 -0.3656  0.2613
 1531TIP3    H128788   6.536   3.471  18.089 -0.4046  0.4970 -0.4332
 1531TIP3    H228789   6.573   3.489  17.943  1.1462  0.3091 -0.0714
 1532TIP3   OH228790   2.749   6.663  20.089  0.3416  0.3456  0.0940
 1532TIP3    H128791   2.658   6.677  20.059  0.3074  1.4033  0.6503
 1532TIP3    H228792   2.798   6.648  20.008 -0.2726  0.0979 -0.2428
 1533TIP3   OH228793   2.693   0.628  17.615  0.1922 -0.4061  0.1513
 1533TIP3    H128794   2.767   0.688  17.626  0.6889 -1.0285  0.2763
 1533TIP3    H228795   2.727   0.558  17.559 -0.4705 -0.4265 -0.2438
 1534TIP3   OH228796   1.150   5.947  18.909  0.0248 -0.3787 -0.1879
 1534TIP3    H128797   1.083   5.964  18.975 -1.9940 -2.2607 -1.6288
 1534TIP3    H228798   1.140   6.019  18.847 -0.3026 -0.3505 -0.1069
 1535TIP3   OH228799   6.179   3.294  18.254  0.3135  0.0255 -0.0566
 1535TIP3    H128800   6.089   3.320  18.274  0.7400  0.2660  1.7309
 1535TIP3    H228801   6.229   3.375  18.255  1.1416 -0.4095  2.6674
 1536TIP3   OH228802   3.448   3.110  18.481 -0.2275 -0.4076  0.2232
 1536TIP3    H128803   3.424   3.038  18.539 -2.1667 -0.4767 -0.5991
 1536TIP3    H228804   3.441   3.073  18.393 -0.5439  0.5832 -0.1769
 1537TIP3   OH228805   6.034   3.304  19.358  0.7188 -0.1766  0.0937
 1537TIP3    H128806   6.002   3.277  19.444 -0.1633  1.1042  0.2006
 1537TIP3    H228807   6.093   3.234  19.331  1.6844 -0.2102  2.1087
 1538TIP3   OH228808   2.475   0.525  20.153  0.2166  0.3409  0.4387
 1538TIP3    H128809   2.388   0.527  20.192 -0.0764 -1.1743 -0.0879
 1538TIP3    H228810   2.533   0.555  20.223 -0.5487 -0.1767  1.3202
 1539TIP3   OH228811   4.594   6.445  19.717 -0.2114  0.1443  0.7636
 1539TIP3    H128812   4.524   6.403  19.668  1.7187 -0.3232 -1.7858
 1539TIP3    H228813   4.637   6.373  19.764  0.1694  0.0207  0.2244
 1540TIP3   OH228814   4.530   3.548  20.041  0.0332 -0.4420 -0.4370
 1540TIP3    H128815   4.493   3.592  19.964 -2.2918  0.2961  0.9991
 1540TIP3    H228816   4.581   3.475  20.005 -3.1863 -1.8002 -2.6712
 1541TIP3   OH228817   5.843   5.438  20.003  0.3515 -0.2032  0.6920
 1541TIP3    H128818   5.748   5.427  20.016  0.4665 -0.5600  1.2406
 1541TIP3    H228819   5.881   5.421  20.089  0.9214 -0.0814  0.4667
 1542TIP3   OH228820   5.720   3.480  20.251 -0.2337 -0.3652 -0.2373
 1542TIP3    H128821   5.770   3.560  20.231  1.4844 -1.3314  0.0315
 1542TIP3    H228822   5.682   3.454  20.167  0.8760 -0.3633 -0.7562
 1543TIP3   OH228823   0.702   2.647  17.616 -0.1033  0.3721 -0.2527
 1543TIP3    H128824   0.715   2.588  17.689  1.2936  1.0184  0.0506
 1543TIP3    H228825   0.663   2.726  17.655  0.1669  0.5246 -0.2934
 1544TIP3   OH228826   3.396   0.155  18.910  0.6880  0.0047  0.5439
 1544TIP3    H128827   3.336   0.105  18.855  1.6361  0.0218 -0.5545
 1544TIP3    H228828   3.482   0.120  18.889  1.2883  1.4798  0.4159
 1545TIP3   OH228829   3.261   5.445  20.199 -0.1058  0.1164  0.7533
 1545TIP3    H128830   3.330   5.428  20.135  0.9424  0.6349  1.7103
 1545TIP3    H228831   3.307   5.450  20.283 -1.3699  0.0583  1.4721
 1546TIP3   OH228832   6.112   1.379  19.686 -0.8092  0.3190 -0.1565
 1546TIP3    H128833   6.158   1.462  19.701 -0.0223  0.0162 -0.7874
 1546TIP3    H228834   6.058   1.396  19.608 -0.1358  0.0443 -0.6870
 1547TIP3   OH228835   3.852   0.616  20.120  0.1125  0.0473 -0.5885
 1547TIP3    H128836   3.935   0.649  20.154  0.3640 -1.2569  0.1161
 1547TIP3    H228837   3.822   0.553  20.185 -0.0791 -1.4915 -2.1076
 1548TIP3   OH228838   1.361   5.922  17.914  0.3547  0.4445  1.1591
 1548TIP3    H128839   1.300   5.990  17.943  0.3845  0.8056  0.3873
 1548TIP3    H228840   1.342   5.910  17.821  0.4502 -0.5023  1.2474
 1549TIP3   OH228841   0.819   1.610  19.235  0.1012  0.0089 -0.3810
 1549TIP3    H128842   0.834   1.691  19.187 -0.2562 -0.4770 -1.3430
 1549TIP3    H228843   0.905   1.569  19.240  0.1710  0.1419 -0.4671
 1550TIP3   OH228844   6.111   5.444  18.190 -0.0551 -0.1059  0.0666
 1550TIP3    H128845   6.058   5.464  18.267  0.0280  1.5409 -0.2604
 1550TIP3    H228846   6.116   5.348  18.188  1.3796 -0.2064  3.0618
 1551TIP3   OH228847   4.342   0.007  18.768  0.6587 -0.0120 -0.6388
 1551TIP3    H128848   4.347   0.092  18.724 -0.2266 -0.1707 -1.0496
 1551TIP3    H228849   4.296   0.026  18.850 -0.9437 -0.3586 -1.4330
 1552TIP3   OH228850   6.292   2.400  16.719  0.0981 -0.3658 -0.3133
 1552TIP3    H128851   6.314   2.308  16.707  1.1834 -0.2358  0.4774
 1552TIP3    H228852   6.207   2.411  16.676 -0.1531 -1.7803 -0.2152
 1553TIP3   OH228853   5.799   6.485  19.556 -0.1437  0.2060 -0.3884
 1553TIP3    H128854   5.717   6.437  19.566  0.1817 -0.7708 -2.1263
 1553TIP3    H228855   5.866   6.424  19.584  0.0823  0.5843 -0.1024
 1554TIP3   OH228856   3.897   5.746  17.973 -0.4061  0.1370 -0.2523
 1554TIP3    H128857   3.899   5.829  17.926  1.5866 -0.2618 -0.9618
 1554TIP3    H228858   3.809   5.742  18.011 -0.4066  2.7877  0.2219
 1555TIP3   OH228859   0.674   3.246  17.657 -0.8553  0.3394  0.4822
 1555TIP3    H128860   0.735   3.254  17.729  2.3197 -1.7372 -1.7283
 1555TIP3    H228861   0.691   3.323  17.602  1.0100 -0.9537 -0.8706
 1556TIP3   OH228862   0.660   2.439  17.895 -0.5253 -0.5200  0.4703
 1556TIP3    H128863   0.750   2.461  17.920  0.0726 -1.2602 -0.8955
 1556TIP3    H228864   0.607   2.510  17.931  0.8905  1.2295 -0.6761
 1557TIP3   OH228865   6.544   5.738  18.330  0.0902 -0.4518 -0.0732
 1557TIP3    H128866   6.466   5.779  18.368 -0.0742  0.4315 -1.3026
 1557TIP3    H228867   6.540   5.761  18.237  1.9752 -0.1269 -0.1068
 1558TIP3   OH228868   6.271   1.376  18.290 -0.6773 -0.1939  0.8137
 1558TIP3    H128869   6.292   1.390  18.382 -0.6239  0.3679  0.7203
 1558TIP3    H228870   6.212   1.300  18.290 -1.8048  0.6505  1.4597
 1559TIP3   OH228871   0.053   3.771  20.097  0.3505 -0.7643  0.0242
 1559TIP3    H128872   0.147   3.783  20.114  0.0753  0.9442  0.6233
 1559TIP3    H228873   0.036   3.679  20.117  1.6730 -0.7996  1.1531
 1560TIP3   OH228874   0.887   1.274  19.849  0.2763  0.3131  0.4613
 1560TIP3    H128875   0.859   1.347  19.904 -0.7754  2.3763 -2.5626
 1560TIP3    H228876   0.983   1.276  19.853  0.2522  1.6640  0.7279
 1561TIP3   OH228877   0.309   5.150  18.608  0.2676 -0.1904 -0.4525
 1561TIP3    H128878   0.217   5.171  18.617  0.4132  0.8353 -1.2278
 1561TIP3    H228879   0.334   5.112  18.692 -0.2413  1.8701  0.6884
 1562TIP3   OH228880   4.489   5.351  18.735  0.0380 -0.6346 -0.4707
 1562TIP3    H128881   4.570   5.353  18.786 -0.8570  0.9834  0.9681
 1562TIP3    H228882   4.518   5.349  18.643  1.7124  0.5459 -0.0078
 1563TIP3   OH228883   2.152   4.922  17.669 -0.4444 -0.1411  0.2439
 1563TIP3    H128884   2.178   4.840  17.711  0.7385  0.0817 -0.0015
 1563TIP3    H228885   2.159   4.988  17.738 -1.1917 -0.2033  0.3868
 1564TIP3   OH228886   4.251   3.051  18.787  0.0945  0.3687  0.0266
 1564TIP3    H128887   4.204   3.003  18.719 -0.1448  0.2801  0.2518
 1564TIP3    H228888   4.319   3.099  18.740  0.6449 -0.5551 -0.1492
 1565TIP3   OH228889   5.101   1.810  20.250  0.4652 -0.4933  0.8431
 1565TIP3    H128890   5.121   1.902  20.234  1.9024 -0.9381 -0.0529
 1565TIP3    H228891   5.013   1.811  20.287 -0.5621  1.0583 -1.4511
 1566TIP3   OH228892   4.272   0.267  19.882  0.4849  0.1729  0.0380
 1566TIP3    H128893   4.290   0.332  19.815 -1.0241 -0.4817 -1.0505
 1566TIP3    H228894   4.297   0.184  19.843  2.0946  0.0151  1.2963
 1567TIP3   OH228895   4.012   6.284  17.962 -0.4436 -0.4615  0.1623
 1567TIP3    H128896   4.023   6.379  17.968  2.4260 -0.7301  0.6527
 1567TIP3    H228897   4.088   6.249  18.007 -0.7006 -3.0048 -1.2305
 1568TIP3   OH228898   1.523   5.841  18.434 -0.2189  0.6344 -0.1457
 1568TIP3    H128899   1.543   5.756  18.395  1.6568  0.7275  0.5208
 1568TIP3    H228900   1.430   5.836  18.456  0.2124 -1.9446  1.5096
 1569TIP3   OH228901   0.030   3.163  20.263  0.0194 -0.4554 -0.1689
 1569TIP3    H128902  -0.030   3.160  20.338  0.4822 -3.4032  0.2253
 1569TIP3    H228903   0.117   3.147  20.302  0.9734  2.4502 -0.8775
 1570TIP3   OH228904   4.640   1.426  19.612 -0.2686  0.3560 -0.5496
 1570TIP3    H128905   4.734   1.437  19.628 -0.2277  1.0427 -1.2150
 1570TIP3    H228906   4.604   1.401  19.697  0.7004 -1.2031 -0.5628
 1571TIP3   OH228907   3.170   1.802  19.474  0.3397 -0.0632 -0.0486
 1571TIP3    H128908   3.245   1.747  19.452  0.5217  0.4081 -0.6417
 1571TIP3    H228909   3.101   1.740  19.497  1.6761 -0.4867  3.3040
 1572TIP3   OH228910   5.089   4.048  19.878  0.2240  0.0869  0.0811
 1572TIP3    H128911   5.069   4.139  19.903 -0.3873 -0.2777  0.9710
 1572TIP3    H228912   5.070   3.997  19.957  1.0094 -0.7671 -0.2657
 1573TIP3   OH228913   0.954   1.964  19.807 -0.0010 -0.1839  0.1423
 1573TIP3    H128914   0.929   1.879  19.770 -0.1098  0.2194 -0.7280
 1573TIP3    H228915   1.016   1.942  19.876  0.1029 -0.9613 -0.1841
 1574TIP3   OH228916   3.589   3.949  17.557 -0.5555 -0.2100  0.0057
 1574TIP3    H128917   3.574   3.879  17.493  0.2528 -1.7155  1.3906
 1574TIP3    H228918   3.667   3.920  17.605 -0.4205  1.4888  0.8687
 1575TIP3   OH228919   1.815   1.568  17.149 -0.2130 -0.4790 -0.0401
 1575TIP3    H128920   1.750   1.636  17.130 -1.7428 -1.5585  1.0381
 1575TIP3    H228921   1.899   1.607  17.124 -0.8879  2.2180  1.4348
 1576TIP3   OH228922   5.239   1.478  18.693  0.3507 -0.0888  0.8542
 1576TIP3    H128923   5.334   1.487  18.703  0.2871  1.8893  0.2737
 1576TIP3    H228924   5.205   1.565  18.715 -1.1512 -0.2215 -0.7303
 1577TIP3   OH228925   6.428   1.952  18.951  0.3514  0.4677  0.7869
 1577TIP3    H128926   6.359   1.921  19.010  1.5174 -0.9610  1.4759
 1577TIP3    H228927   6.509   1.918  18.990  1.0351 -3.2384 -3.1283
 1578TIP3   OH228928   1.040   2.183  16.819 -0.0576 -0.1611  0.1968
 1578TIP3    H128929   1.109   2.155  16.878  0.0949 -1.8164 -0.7185
 1578TIP3    H228930   1.075   2.263  16.778  0.2254  0.4539  1.5768
 1579TIP3   OH228931   0.845   3.318  18.834 -0.4241  1.1090 -0.1327
 1579TIP3    H128932   0.761   3.360  18.817 -1.2481 -0.5407 -0.3920
 1579TIP3    H228933   0.827   3.258  18.907  0.4555  0.5743 -0.3435
 1580TIP3   OH228934   2.266   4.528  20.307 -0.3738 -0.3370  0.2167
 1580TIP3    H128935   2.306   4.613  20.288 -0.2920 -0.5013 -0.3573
 1580TIP3    H228936   2.339   4.467  20.312 -0.4880 -0.5001 -0.0705
 1581TIP3   OH228937   6.150   3.330  16.830  0.5513 -0.1043 -0.4830
 1581TIP3    H128938   6.067   3.282  16.841  0.2870 -0.1571 -2.3929
 1581TIP3    H228939   6.123   3.419  16.811  0.9037 -0.1857 -1.4156
 1582TIP3   OH228940   0.936   6.453  17.822 -0.8976 -0.9071 -0.1295
 1582TIP3    H128941   0.856   6.493  17.855 -0.0841  0.6166  0.1005
 1582TIP3    H228942   0.981   6.420  17.900 -0.5602 -0.3200 -0.0681
 1583TIP3   OH228943   1.000   6.620  19.622  0.0252  0.1838  0.3284
 1583TIP3    H128944   0.980   6.527  19.613 -1.0722  0.4999 -0.7942
 1583TIP3    H228945   1.094   6.626  19.606 -0.2341 -0.4935 -1.8480
 1584TIP3   OH228946   4.556   5.275  19.581 -0.2316  0.4609 -0.3467
 1584TIP3    H128947   4.521   5.363  19.564 -2.2164 -0.4394 -1.2588
 1584TIP3    H228948   4.536   5.260  19.674  1.0902  1.3345  0.1173
 1585TIP3   OH228949   3.773   3.936  19.063 -0.0060  0.2313 -0.0577
 1585TIP3    H128950   3.823   3.986  18.999 -2.2392  1.4831 -0.9271
 1585TIP3    H228951   3.716   3.880  19.010 -2.1714  1.5618  0.7578
 1586TIP3   OH228952   0.124   2.815  17.819  0.6652 -0.2191  0.4432
 1586TIP3    H128953   0.085   2.737  17.779  1.0102 -0.7617  1.1491
 1586TIP3    H228954   0.087   2.818  17.907 -1.1765  1.7504 -0.3076
 1587TIP3   OH228955   3.943   2.081  18.066 -0.0095 -0.1221  0.9224
 1587TIP3    H128956   3.895   2.083  17.983  1.3320 -3.2450 -0.0706
 1587TIP3    H228957   3.875   2.067  18.133 -0.8218 -0.7442 -0.0115
 1588TIP3   OH228958   3.022   1.242  19.318  0.0585  0.6749 -0.6022
 1588TIP3    H128959   3.054   1.289  19.395 -1.2730  0.4853  0.0992
 1588TIP3    H228960   2.929   1.265  19.312 -0.2095 -0.4744 -1.2871
 1589TIP3   OH228961   1.248   3.922  18.852 -0.5060  0.2128 -0.4825
 1589TIP3    H128962   1.320   3.918  18.915  0.1783 -0.0784 -1.2701
 1589TIP3    H228963   1.259   3.845  18.797 -1.9861 -0.3643 -0.0400
 1590TIP3   OH228964   5.894   1.143  18.815  0.6230  0.1874 -0.0572
 1590TIP3    H128965   5.907   1.191  18.733  1.9396 -1.7747 -1.0772
 1590TIP3    H228966   5.799   1.125  18.817  0.3258  1.6203 -0.3226
 1591TIP3   OH228967   5.700   5.913  17.203 -0.5630 -0.5216 -0.1635
 1591TIP3    H128968   5.665   5.908  17.114 -0.2755 -0.7562 -0.2619
 1591TIP3    H228969   5.741   5.828  17.218  1.8703  0.4746 -0.8153
 1592TIP3   OH228970   6.496   6.232  18.719 -0.5226 -0.7396 -0.2726
 1592TIP3    H128971   6.453   6.296  18.777  1.1122 -1.2787  1.6713
 1592TIP3    H228972   6.587   6.233  18.747  0.0859 -1.9833 -2.0574
 1593TIP3   OH228973   4.525   6.668  18.097  0.3587 -0.5086 -0.7631
 1593TIP3    H128974   4.439   6.685  18.136  0.3894  0.3151 -1.0376
 1593TIP3    H228975   4.586   6.712  18.156  0.5409 -0.5436 -0.9278
 1594TIP3   OH228976   5.930   4.553  18.475  0.4328  0.0668  0.3281
 1594TIP3    H128977   6.018   4.522  18.455  0.5980  0.6833  0.0713
 1594TIP3    H228978   5.907   4.608  18.400 -0.6788 -1.0919 -0.2172
 1595TIP3   OH228979   5.045   6.422  17.377  0.2735 -0.0682 -0.6039
 1595TIP3    H128980   5.063   6.453  17.466  0.9733 -1.0833 -0.3759
 1595TIP3    H228981   5.041   6.502  17.325 -0.5008  0.5652  0.3912
 1596TIP3   OH228982   4.664   2.761  17.564 -0.3347 -0.3297 -0.1570
 1596TIP3    H128983   4.740   2.705  17.551 -0.8178 -1.1540  0.4263
 1596TIP3    H228984   4.616   2.757  17.481  0.0195 -0.1734 -0.3694
 1597TIP3   OH228985   3.180   3.267  19.561 -0.1934  0.0396 -0.3624
 1597TIP3    H128986   3.140   3.183  19.583 -2.2981  1.8986  4.1300
 1597TIP3    H228987   3.126   3.301  19.490 -3.2753 -0.0171  1.7461
 1598TIP3   OH228988   2.744   1.617  18.037  0.5561 -0.0453 -0.0260
 1598TIP3    H128989   2.790   1.537  18.063  1.8956  1.1778  1.5783
 1598TIP3    H228990   2.655   1.605  18.071  0.5185 -1.1393 -0.4635
 1599TIP3   OH228991   2.253   0.456  19.878 -0.1555 -0.3338 -0.1146
 1599TIP3    H128992   2.196   0.393  19.922 -1.9723  0.9520 -0.5201
 1599TIP3    H228993   2.268   0.524  19.943 -0.0114 -0.1200 -0.3698
 1600TIP3   OH228994   6.122   0.883  19.814 -0.0346  0.6458 -0.2128
 1600TIP3    H128995   6.086   0.846  19.895 -0.5041  1.6561  0.0464
 1600TIP3    H228996   6.068   0.846  19.744  0.3210 -0.1653 -0.0715
 1601TIP3   OH228997   5.932   1.415  20.077 -0.4521 -0.3052  0.5622
 1601TIP3    H128998   5.962   1.338  20.028 -0.8257 -1.3406  1.8776
 1601TIP3    H228999   5.839   1.421  20.058 -0.0827  0.9884 -1.0128
 1602TIP3   OH229000   1.768   0.170  17.693 -0.0461  0.8815 -0.4793
 1602TIP3    H129001   1.776   0.074  17.694  0.0223  0.8912  0.1531
 1602TIP3    H229002   1.757   0.194  17.785  0.0973  1.4965 -0.6199
 1603TIP3   OH229003   5.862   6.302  19.259 -0.1212 -0.2176  0.1743
 1603TIP3    H129004   5.872   6.322  19.166  0.2161 -0.5400  0.1394
 1603TIP3    H229005   5.935   6.347  19.302 -1.3215  1.4938  0.5314
 1604TIP3   OH229006   4.107   2.581  20.006 -0.5622 -0.2287 -0.1110
 1604TIP3    H129007   4.092   2.486  20.011 -1.4721 -0.0410  1.3555
 1604TIP3    H229008   4.162   2.601  20.082 -1.3384  0.5724  0.2593
 1605TIP3   OH229009   5.332   4.165  18.179 -0.0529 -0.3062  0.2148
 1605TIP3    H129010   5.241   4.174  18.208 -0.2704 -0.5617 -0.3742
 1605TIP3    H229011   5.384   4.189  18.256 -0.6158  0.2911  0.4149
 1606TIP3   OH229012   0.123   5.939  17.562  0.5862  0.2507  0.3967
 1606TIP3    H129013   0.122   5.844  17.577 -0.4868 -0.2672 -2.4188
 1606TIP3    H229014   0.050   5.972  17.613 -1.3845 -1.0258 -1.4502
 1607TIP3   OH229015   0.807   3.710  20.067  0.5761 -0.0608  0.4586
 1607TIP3    H129016   0.882   3.664  20.029  0.1740 -0.1736 -0.2101
 1607TIP3    H229017   0.809   3.687  20.160  0.6281 -1.0766  0.2116
 1608TIP3   OH229018   3.477   0.918  17.182 -0.4796 -0.3131 -0.4031
 1608TIP3    H129019   3.426   0.957  17.111  1.2513  1.5185 -0.7471
 1608TIP3    H229020   3.444   0.960  17.262  0.3293  0.7824 -0.6152
 1609TIP3   OH229021   3.017   4.097  18.802 -0.8556  0.6949 -0.3024
 1609TIP3    H129022   3.074   4.147  18.860 -0.8668  0.8903 -0.4580
 1609TIP3    H229023   3.059   4.011  18.795 -2.4630 -0.4905  2.5335
 1610TIP3   OH229024   0.876   3.436  19.270 -0.3497 -0.0969 -0.3020
 1610TIP3    H129025   0.855   3.504  19.334 -0.3973 -0.1999 -0.2069
 1610TIP3    H229026   0.881   3.482  19.187  1.0760  0.2854 -0.0403
 1611TIP3   OH229027   5.728   2.450  17.288  0.2557  0.2506  0.0604
 1611TIP3    H129028   5.802   2.507  17.307  0.0080  0.2116  1.1768
 1611TIP3    H229029   5.704   2.471  17.198  1.7135  0.1469 -0.3733
 1612TIP3   OH229030   5.261   0.806  19.959 -0.2039 -0.0543  0.2128
 1612TIP3    H129031   5.264   0.859  19.880  0.9983  0.0624  0.3243
 1612TIP3    H229032   5.315   0.854  20.022  0.4271 -1.1061  0.4942
 1613TIP3   OH229033   5.599   4.051  18.454 -0.0703 -0.3825  0.2476
 1613TIP3    H129034   5.596   3.960  18.424 -0.8876 -0.3409  0.1936
 1613TIP3    H229035   5.673   4.053  18.515  0.6413 -0.8237 -0.5854
 1614TIP3   OH229036   5.529   5.652  17.395  0.2539 -0.1399 -0.1195
 1614TIP3    H129037   5.607   5.682  17.442  0.2220 -0.1415 -0.0637
 1614TIP3    H229038   5.550   5.564  17.365  0.1833 -0.2356  0.1102
 1615TIP3   OH229039   1.939   1.777  18.363 -0.0466 -0.2486 -0.2288
 1615TIP3    H129040   1.895   1.861  18.376 -2.4248 -1.5688  0.9780
 1615TIP3    H229041   1.877   1.712  18.396  2.4588 -2.3898  0.6348
 1616TIP3   OH229042   1.614   4.672  20.098 -0.6179 -0.1363  0.3294
 1616TIP3    H129043   1.649   4.655  20.186  2.8947 -1.4572 -1.1755
 1616TIP3    H229044   1.663   4.749  20.067 -0.1710 -1.0314 -1.2760
 1617TIP3   OH229045   1.375   2.437  19.175 -0.4291  0.1159 -0.1569
 1617TIP3    H129046   1.393   2.350  19.141  0.9471 -0.0376  0.8675
 1617TIP3    H229047   1.279   2.441  19.183 -0.6485 -0.5411 -2.0852
 1618TIP3   OH229048   4.479   1.709  19.695 -0.4724  0.3380  0.7609
 1618TIP3    H129049   4.524   1.701  19.779 -2.8109 -2.5463  1.9317
 1618TIP3    H229050   4.503   1.629  19.647 -0.7002  1.0106 -0.5181
 1619TIP3   OH229051   4.177   5.916  19.384 -0.3921  0.2280  0.3388
 1619TIP3    H129052   4.233   5.973  19.437  1.0132 -1.2012  0.4701
 1619TIP3    H229053   4.108   5.888  19.445 -0.1921  0.5283  0.7114
 1620TIP3   OH229054   1.065   5.030  17.949  0.1102 -0.7426 -0.3414
 1620TIP3    H129055   0.975   5.046  17.977  0.1799 -1.8551  0.6345
 1620TIP3    H229056   1.116   5.033  18.029  1.1823  1.1171 -1.0295
 1621TIP3   OH229057   0.487   2.001  17.478 -0.2391  0.1386  0.3722
 1621TIP3    H129058   0.527   1.964  17.400 -1.0558  0.6028 -0.2811
 1621TIP3    H229059   0.472   1.925  17.535  0.2296 -0.2211  0.0307
 1622TIP3   OH229060   1.427   2.151  16.629 -0.3541 -0.0387  0.1090
 1622TIP3    H129061   1.342   2.111  16.610  1.1918 -3.3718 -0.5061
 1622TIP3    H229062   1.491   2.083  16.609  2.5898  2.6141 -0.3578
 1623TIP3   OH229063   0.156   5.467  19.473  0.0292 -0.7846 -0.1159
 1623TIP3    H129064   0.191   5.526  19.540 -0.1354  1.0422 -1.5433
 1623TIP3    H229065   0.161   5.518  19.392  0.9111 -3.1799 -1.6595
 1624TIP3   OH229066   1.296   2.800  17.860 -0.3879 -0.3444  0.2477
 1624TIP3    H129067   1.334   2.740  17.924 -0.5210  1.0696  1.7094
 1624TIP3    H229068   1.202   2.796  17.875 -0.3468  0.8169  0.9483
 1625TIP3   OH229069   5.606   3.578  17.186 -0.3955 -0.4159 -0.3975
 1625TIP3    H129070   5.602   3.493  17.228 -2.1352 -1.7547 -2.9572
 1625TIP3    H229071   5.681   3.572  17.127 -0.2592 -0.0177 -0.2644
 1626TIP3   OH229072   2.290   6.587  19.371 -0.5315 -0.4261 -0.4754
 1626TIP3    H129073   2.306   6.548  19.285 -0.1432 -1.3213 -0.0013
 1626TIP3    H229074   2.314   6.519  19.433  0.9964  0.8437  0.3942
 1627TIP3   OH229075   0.500   1.916  16.231 -0.2300  0.1444  0.4970
 1627TIP3    H129076   0.581   1.939  16.186 -0.5739 -0.0919 -0.2627
 1627TIP3    H229077   0.526   1.903  16.322  0.5933  0.0322  0.2562
 1628TIP3   OH229078   6.021   1.210  19.906  0.0242 -0.3417  0.0195
 1628TIP3    H129079   6.029   1.263  19.827  1.6019 -0.1292  0.2730
 1628TIP3    H229080   6.003   1.122  19.875 -1.1064  0.0386 -0.4767
 1629TIP3   OH229081   2.991   6.414  20.212 -0.2423 -0.2229 -0.1152
 1629TIP3    H129082   2.895   6.413  20.212 -0.3300 -1.9183  2.1172
 1629TIP3    H229083   3.015   6.321  20.218  1.5075  0.2232  0.2482
 1630TIP3   OH229084   4.753   5.280  18.834 -0.0848  0.0233 -0.2610
 1630TIP3    H129085   4.823   5.308  18.775 -0.9739  0.6538 -1.0414
 1630TIP3    H229086   4.759   5.184  18.835  0.8495  0.0678 -0.2167
 1631TIP3   OH229087   0.363   6.317  18.456  0.2702 -0.8611  0.0852
 1631TIP3    H129088   0.302   6.249  18.427 -0.3018 -0.1097 -0.5006
 1631TIP3    H229089   0.371   6.376  18.381  0.6515 -0.2018  0.6364
 1632TIP3   OH229090   1.457   2.461  19.462  0.1296 -0.7468 -0.0184
 1632TIP3    H129091   1.433   2.424  19.377 -1.7279 -0.9752  0.5642
 1632TIP3    H229092   1.426   2.551  19.458 -0.1699 -0.8267  0.4953
 1633TIP3   OH229093   3.856   2.419  18.859 -0.4686 -0.4008 -0.3473
 1633TIP3    H129094   3.912   2.434  18.936  0.7157 -1.2670 -1.0100
 1633TIP3    H229095   3.771   2.455  18.884  0.3831  1.0243  0.6807
 1634TIP3   OH229096   0.819   6.676  19.827 -0.2756  0.5827 -0.3191
 1634TIP3    H129097   0.884   6.696  19.760  0.3363  0.5392  0.2510
 1634TIP3    H229098   0.804   6.582  19.819  0.7495  0.3313  0.4211
 1635TIP3   OH229099   1.824   1.170  19.244  0.2877 -0.0802  0.0613
 1635TIP3    H129100   1.757   1.168  19.313  0.1270 -0.7913 -0.1079
 1635TIP3    H229101   1.774   1.164  19.163  0.5956 -1.4549 -0.0405
 1636TIP3   OH229102   5.030   0.567  17.738 -0.6915 -0.6396 -0.2351
 1636TIP3    H129103   5.111   0.523  17.762 -0.1011  0.8037  0.5232
 1636TIP3    H229104   4.961   0.512  17.775  0.0062 -1.0310  0.5213
 1637TIP3   OH229105   0.908   4.004  16.934 -0.2576 -0.1379  0.7917
 1637TIP3    H129106   0.847   3.931  16.928 -1.1136  0.3947  2.3584
 1637TIP3    H229107   0.881   4.064  16.865 -0.9264 -0.3327  0.8741
 1638TIP3   OH229108   3.634   1.997  18.598  0.1767 -0.8171  0.2648
 1638TIP3    H129109   3.645   2.086  18.564 -0.6372  0.0381  2.0870
 1638TIP3    H229110   3.589   1.949  18.528 -2.6836  1.2235  0.5398
 1639TIP3   OH229111   3.302   3.470  17.696  0.1860 -0.3665  0.3057
 1639TIP3    H129112   3.317   3.502  17.607  2.0614 -0.5906  0.5096
 1639TIP3    H229113   3.276   3.548  17.745  0.3894  0.0050 -0.1633
 1640TIP3   OH229114   6.292   4.769  19.774 -0.2136  0.0893 -0.3058
 1640TIP3    H129115   6.214   4.766  19.719 -0.2247  0.0198 -0.2854
 1640TIP3    H229116   6.346   4.839  19.736 -1.2006  1.5605  0.8762
 1641TIP3   OH229117   1.339   4.272  18.681  0.2723 -0.3326 -0.0784
 1641TIP3    H129118   1.249   4.302  18.671  0.2056 -0.0891  1.1432
 1641TIP3    H229119   1.342   4.232  18.768  1.0287 -1.4989 -0.6092
 1642TIP3   OH229120   1.991   4.264  18.255  0.2481  0.1948 -0.1232
 1642TIP3    H129121   1.971   4.353  18.224  2.1843  1.5584  2.1782
 1642TIP3    H229122   2.058   4.232  18.194  0.7753  1.0345 -0.0113
 1643TIP3   OH229123   0.437   1.044  20.057  0.4324 -0.2048 -0.1007
 1643TIP3    H129124   0.469   1.134  20.049  1.0409 -0.4772 -0.8023
 1643TIP3    H229125   0.512   0.994  20.090  0.1935 -0.5159 -0.0181
 1644TIP3   OH229126   2.689   4.740  20.446 -0.0515  0.2085  0.1619
 1644TIP3    H129127   2.761   4.802  20.456 -0.7785  0.7557  2.4998
 1644TIP3    H229128   2.732   4.655  20.435  0.9345  0.8252 -0.9533
 1645TIP3   OH229129   4.670   1.517  19.333 -0.0023 -0.0097 -0.2274
 1645TIP3    H129130   4.682   1.454  19.404 -0.4669 -0.2106 -0.3260
 1645TIP3    H229131   4.707   1.599  19.367  0.5869 -0.3303 -0.0950
 1646TIP3   OH229132   0.473   3.801  17.908  0.6629 -0.1453 -0.1015
 1646TIP3    H129133   0.534   3.874  17.900 -0.5924  0.8816 -0.5919
 1646TIP3    H229134   0.407   3.831  17.971  0.7130 -1.2981  0.5437
 1647TIP3   OH229135   5.219   6.441  18.333  0.4297  0.0620 -0.1741
 1647TIP3    H129136   5.229   6.535  18.316 -1.4427  0.6347  1.5873
 1647TIP3    H229137   5.169   6.409  18.258 -0.9432  0.9756  0.2999
 1648TIP3   OH229138   0.189   1.894  15.932 -0.2942 -0.3879 -0.2786
 1648TIP3    H129139   0.238   1.944  15.866  0.1432  2.4371  1.9625
 1648TIP3    H229140   0.098   1.918  15.916 -0.2495 -0.1865 -0.2377
 1649TIP3   OH229141   1.704   4.481  17.748  0.0047 -0.9491  0.4120
 1649TIP3    H129142   1.611   4.477  17.727 -0.3314 -2.0253  1.9446
 1649TIP3    H229143   1.740   4.399  17.711  0.5721 -0.0987 -1.0219
 1650TIP3   OH229144   3.639   1.108  16.650 -0.2271  0.3563 -0.0790
 1650TIP3    H129145   3.625   1.013  16.646  0.7196  0.1609  0.7174
 1650TIP3    H229146   3.555   1.143  16.682 -1.0199 -0.0518 -1.6354
 1651TIP3   OH229147   0.782   1.558  19.526 -0.6878  0.0094  0.2624
 1651TIP3    H129148   0.841   1.484  19.510  1.6096  1.9252 -0.7581
 1651TIP3    H229149   0.761   1.591  19.439 -0.8442  1.1864  0.7334
 1652TIP3   OH229150   6.268   5.618  18.471  0.2707  0.3737  0.7666
 1652TIP3    H129151   6.230   5.672  18.540 -0.1833  1.0658 -0.0093
 1652TIP3    H229152   6.216   5.638  18.393  0.8817 -0.2574  0.1785
 1653TIP3   OH229153   3.291   4.014  17.613 -0.0709  0.1969  0.3950
 1653TIP3    H129154   3.245   3.932  17.595  0.4291  0.1850 -0.9197
 1653TIP3    H229155   3.366   4.013  17.553 -0.6376  2.1023 -0.3803
 1654TIP3   OH229156   5.013   0.989  18.411 -0.0762 -0.2781  0.1280
 1654TIP3    H129157   4.985   0.953  18.495 -0.0478  0.3937  0.4277
 1654TIP3    H229158   4.957   0.944  18.347  0.6157 -1.5755  0.3851
 1655TIP3   OH229159   5.662   0.188  17.533  0.4869 -0.5821 -0.2064
 1655TIP3    H129160   5.642   0.113  17.478  1.1686 -0.0052 -1.2841
 1655TIP3    H229161   5.592   0.251  17.514  1.6950  0.3506 -1.8910
 1656TIP3   OH229162   0.101   0.090  18.817  0.1477  0.0935 -0.0455
 1656TIP3    H129163   0.067   0.049  18.896  0.2569  0.0891 -0.0010
 1656TIP3    H229164   0.101   0.184  18.838  1.2257  0.0138  0.3668
 1657TIP3   OH229165   1.183   3.592  18.036  0.0436 -0.5382  0.0824
 1657TIP3    H129166   1.167   3.504  18.002 -0.5024 -0.6822  0.6724
 1657TIP3    H229167   1.111   3.644  18.000 -0.2541 -0.5839  0.5921
 1658TIP3   OH229168   3.368   4.247  18.313  0.3805 -0.4058 -0.0215
 1658TIP3    H129169   3.433   4.251  18.384  0.3535  0.4701 -0.0411
 1658TIP3    H229170   3.289   4.285  18.351 -0.5576 -2.6372  0.4292
 1659TIP3   OH229171   1.388   4.677  19.169 -0.0206  0.3440  0.5278
 1659TIP3    H129172   1.436   4.646  19.092  0.4862  0.9659  0.5916
 1659TIP3    H229173   1.367   4.768  19.148 -0.3119  0.3661  0.9220
 1660TIP3   OH229174   5.445   2.088  20.371  0.4261  0.4029  0.7144
 1660TIP3    H129175   5.399   2.012  20.408 -1.0139  0.0797 -1.5347
 1660TIP3    H229176   5.536   2.076  20.398  0.0926 -1.6931  1.1027
 1661TIP3   OH229177   0.135   5.964  17.054 -0.3111 -0.4040  0.4080
 1661TIP3    H129178   0.172   6.044  17.017 -1.0957 -0.8467 -1.4572
 1661TIP3    H229179   0.053   5.951  17.007 -0.8677 -1.5807  1.6385
 1662TIP3   OH229180   6.620   0.631  18.874 -0.3624 -0.1091  0.5036
 1662TIP3    H129181   6.569   0.632  18.955  0.5272  1.3869  1.0788
 1662TIP3    H229182   6.554   0.633  18.804 -1.1283 -1.2008  1.1605
 1663TIP3   OH229183   2.364   1.371  19.144  0.1189  0.0434  0.1686
 1663TIP3    H129184   2.399   1.325  19.220 -0.8607 -1.3608 -0.1862
 1663TIP3    H229185   2.272   1.348  19.142 -0.2657  1.5060 -0.4488
 1664TIP3   OH229186   6.490   5.210  19.296 -0.7403 -0.6651 -0.2019
 1664TIP3    H129187   6.400   5.244  19.299 -0.1198  0.9836  0.7729
 1664TIP3    H229188   6.495   5.164  19.213 -2.2440 -0.0786 -0.6538
 1665TIP3   OH229189   4.341   5.858  18.028 -0.2718  0.2471 -0.2118
 1665TIP3    H129190   4.409   5.797  17.999 -1.0306 -0.6545 -0.1685
 1665TIP3    H229191   4.311   5.822  18.111  0.1816  1.4421  0.4849
 1666TIP3   OH229192   2.863   4.747  19.196  0.2743 -0.3918  0.6382
 1666TIP3    H129193   2.845   4.759  19.102  1.9295  0.0654  0.3512
 1666TIP3    H229194   2.776   4.748  19.237 -0.3885  1.5394 -0.6500
 1667TIP3   OH229195   4.083   5.025  17.463 -0.5213  0.2164 -0.4287
 1667TIP3    H129196   3.990   5.039  17.443 -0.8190 -3.7637 -2.8668
 1667TIP3    H229197   4.128   5.093  17.411 -1.9626  1.6523  0.1020
 1668TIP3   OH229198   4.000   5.932  16.654 -0.6673 -0.4958 -0.2598
 1668TIP3    H129199   4.071   5.966  16.599  0.0412  0.4606  1.1849
 1668TIP3    H229200   3.922   5.980  16.625 -0.5212 -0.7478 -1.1016
 1669TIP3   OH229201   4.771   4.651  17.580 -0.4870  0.6668 -0.2437
 1669TIP3    H129202   4.678   4.674  17.576 -1.0514 -1.4514 -0.5542
 1669TIP3    H229203   4.812   4.702  17.510 -1.8313 -0.0741 -1.6139
 1670TIP3   OH229204   5.662   6.471  19.008 -0.3164 -0.0135  0.0984
 1670TIP3    H129205   5.725   6.399  19.007 -0.0215  0.2348  0.5128
 1670TIP3    H229206   5.715   6.549  19.024 -0.6209  0.3168 -0.4672
 1671TIP3   OH229207   1.731   3.958  18.201 -0.2840 -0.1030 -0.2057
 1671TIP3    H129208   1.780   3.993  18.275 -1.3519  0.1033  0.4141
 1671TIP3    H229209   1.799   3.933  18.138  0.5836  1.3523  0.0922
 1672TIP3   OH229210   3.904   1.133  17.671 -0.2576  0.2660  0.2778
 1672TIP3    H129211   3.911   1.191  17.747 -2.1098 -0.2341  0.8851
 1672TIP3    H229212   3.818   1.153  17.634 -1.3443 -2.6273  1.0034
 1673TIP3   OH229213   6.236   3.767  17.536  0.2485  0.2146  0.2900
 1673TIP3    H129214   6.169   3.811  17.587  0.1310  1.9065 -1.1888
 1673TIP3    H229215   6.202   3.766  17.447  0.1815 -3.1707  0.2530
 1674TIP3   OH229216   0.433   3.138  19.907 -0.1130 -0.4586 -0.2300
 1674TIP3    H129217   0.424   3.100  19.819 -1.5605 -0.2965 -0.1807
 1674TIP3    H229218   0.345   3.131  19.945 -0.0626  1.5583  0.3478
 1675TIP3   OH229219   0.018   1.026  19.235  0.2661 -0.2489  0.1670
 1675TIP3    H129220   0.096   1.003  19.285  0.0500 -1.0415  0.1494
 1675TIP3    H229221  -0.046   1.052  19.301  1.1705  2.4575  0.0855
 1676TIP3   OH229222   3.597   0.997  17.844 -0.2510 -0.8017  0.1655
 1676TIP3    H129223   3.607   1.091  17.830 -0.3528 -0.5906  1.3934
 1676TIP3    H229224   3.537   0.969  17.775 -0.4033  0.0834 -0.0744
 1677TIP3   OH229225   2.658   2.378  16.448  0.2942 -0.2611  0.4801
 1677TIP3    H129226   2.597   2.452  16.449  1.8509  1.1224  2.2765
 1677TIP3    H229227   2.745   2.419  16.440  1.0738 -2.1380 -1.8098
 1678TIP3   OH229228   3.855   4.053  17.617  0.0337  0.1401 -0.5918
 1678TIP3    H129229   3.924   4.118  17.625  2.1817 -2.0267 -0.2862
 1678TIP3    H229230   3.850   4.033  17.524 -1.5078  1.5430 -0.8597
 1679TIP3   OH229231   4.607   0.333  17.820 -0.2776  0.3040  0.3143
 1679TIP3    H129232   4.555   0.410  17.843  0.6207  0.6631  1.2351
 1679TIP3    H229233   4.576   0.264  17.878 -0.8258  0.0655 -0.2520
 1680TIP3   OH229234   2.147   1.283  18.924  0.4229 -0.5975  1.0598
 1680TIP3    H129235   2.128   1.190  18.922 -0.7518 -0.4513 -2.9491
 1680TIP3    H229236   2.066   1.324  18.955 -0.0982 -0.8099  0.0152
 1681TIP3   OH229237   5.094   6.529  17.636  0.0486  0.0737  0.0210
 1681TIP3    H129238   5.016   6.534  17.690  0.1182 -1.5686  0.3473
 1681TIP3    H229239   5.165   6.556  17.693  0.1464 -1.8223  0.8741
 1682TIP3   OH229240   4.755   5.672  18.556 -0.5247  0.5795 -0.3971
 1682TIP3    H129241   4.748   5.632  18.469 -2.0661 -1.7952  0.7107
 1682TIP3    H229242   4.830   5.731  18.550  0.7389 -1.1306 -2.7176
 1683TIP3   OH229243   4.665   2.853  18.390 -0.5216  0.1769  0.0562
 1683TIP3    H129244   4.589   2.901  18.357 -1.0073 -0.7062 -0.1244
 1683TIP3    H229245   4.695   2.801  18.316  0.0351  0.2350  0.2378
 1684TIP3   OH229246   0.680   0.312  18.381 -0.0073 -0.3447  0.5596
 1684TIP3    H129247   0.660   0.318  18.474  0.8939  2.7720  0.6744
 1684TIP3    H229248   0.594   0.315  18.337 -0.3387  0.4029  1.2469
 1685TIP3   OH229249   4.195   1.079  18.294 -0.0297 -0.0906 -0.0788
 1685TIP3    H129250   4.271   1.137  18.287 -1.7972  2.2566 -0.9095
 1685TIP3    H229251   4.232   0.994  18.319  2.8954  0.8296 -0.9195
 1686TIP3   OH229252   0.768   2.013  20.016  0.4303  0.6004 -0.0656
 1686TIP3    H129253   0.828   2.004  19.943  1.5260  1.1840  0.7271
 1686TIP3    H229254   0.812   1.970  20.089 -0.1289  1.0125  0.5259
 1687TIP3   OH229255   5.115   4.809  16.799  0.0684  0.5443 -0.1168
 1687TIP3    H129256   5.078   4.773  16.880 -2.2190 -1.0314 -1.7456
 1687TIP3    H229257   5.106   4.904  16.809 -2.8492  0.3100  0.3987
 1688TIP3   OH229258   6.262   5.862  19.410 -0.1161 -1.0679  0.0711
 1688TIP3    H129259   6.195   5.901  19.467 -0.8003 -0.5012 -1.0950
 1688TIP3    H229260   6.334   5.925  19.411 -0.8508 -0.1810 -1.0872
 1689TIP3   OH229261   6.622   6.323  18.352  0.0076  0.5045  0.4182
 1689TIP3    H129262   6.534   6.354  18.373  0.2373  1.0051  0.6650
 1689TIP3    H229263   6.640   6.361  18.266  0.3442  1.1909  0.7825
 1690TIP3   OH229264   2.928   6.666  19.854  0.4151 -0.3941  0.1084
 1690TIP3    H129265   2.925   6.600  19.784  1.5792  0.9044 -1.2217
 1690TIP3    H229266   2.999   6.636  19.911  0.3821 -0.7293 -0.0220
 1691TIP3   OH229267   6.032   5.515  17.910 -0.7258 -0.2241 -0.5969
 1691TIP3    H129268   6.003   5.424  17.913  0.2771 -0.5658 -0.8928
 1691TIP3    H229269   6.097   5.522  17.980 -0.7290  0.2405 -0.6367
 1692TIP3   OH229270   3.836   4.664  18.363 -0.1064 -0.2917  0.0259
 1692TIP3    H129271   3.928   4.645  18.348  0.0721  0.6071 -0.0924
 1692TIP3    H229272   3.794   4.578  18.371  0.2532 -0.8411 -2.8622
 1693TIP3   OH229273   5.467   0.297  16.838  0.4354 -0.0782 -0.4020
 1693TIP3    H129274   5.472   0.317  16.745  0.1379 -1.2715 -0.6992
 1693TIP3    H229275   5.491   0.204  16.844 -1.1754 -0.4938  0.4764
 1694TIP3   OH229276   5.435   5.120  18.561  0.2506  0.0425  0.1862
 1694TIP3    H129277   5.405   5.090  18.475  0.5965 -0.0788  0.1055
 1694TIP3    H229278   5.483   5.201  18.542 -1.9634  1.5241  0.5674
 1695TIP3   OH229279   2.105   6.321  17.965 -0.5677  0.5016 -0.2263
 1695TIP3    H129280   2.069   6.333  18.053  0.3255 -1.1842  0.4187
 1695TIP3    H229281   2.150   6.403  17.946 -0.8517  0.9282  0.8567
 1696TIP3   OH229282   3.979   0.503  18.355  0.0828 -0.1552  0.1133
 1696TIP3    H129283   3.986   0.571  18.422 -0.0156 -0.5475  0.5221
 1696TIP3    H229284   4.012   0.545  18.275  0.3589  0.2590  0.4399
 1697TIP3   OH229285   0.077   6.129  18.027 -0.0115 -0.2393  0.1268
 1697TIP3    H129286   0.047   6.153  17.939 -0.4026  2.0303  0.8029
 1697TIP3    H229287   0.172   6.128  18.020 -0.0316  0.1358 -0.2740
 1698TIP3   OH229288   5.026   1.376  17.653 -0.2395  0.3907 -0.8042
 1698TIP3    H129289   5.013   1.369  17.747 -0.3470  0.3202 -0.8237
 1698TIP3    H229290   5.110   1.333  17.636 -0.4377  0.0049 -0.8008
 1699TIP3   OH229291   0.370   3.902  17.622  0.3421 -0.1853 -0.0649
 1699TIP3    H129292   0.407   3.872  17.705 -0.7155 -1.5231 -0.0466
 1699TIP3    H229293   0.423   3.858  17.555  0.4518 -0.0211 -0.0865
 1700TIP3   OH229294   6.481   3.749  17.409 -0.5176 -0.0567  0.1419
 1700TIP3    H129295   6.392   3.737  17.443 -1.3853  1.5251 -1.4604
 1700TIP3    H229296   6.523   3.664  17.423 -2.2020 -0.7831  1.0945
 1701TIP3   OH229297   0.259   2.688  19.416 -0.1031 -0.3748 -0.0704
 1701TIP3    H129298   0.311   2.691  19.336  0.6384 -0.2606  0.4111
 1701TIP3    H229299   0.283   2.605  19.458  1.7483  0.8364  1.4838
 1702TIP3   OH229300   5.611   3.477  17.532  0.1756  0.0780  0.4823
 1702TIP3    H129301   5.640   3.448  17.446 -0.2755 -0.6247  0.5665
 1702TIP3    H229302   5.652   3.416  17.594  0.2050  0.3567  0.7420
 1703TIP3   OH229303   3.348   2.309  19.064  0.5700  0.5263 -0.3778
 1703TIP3    H129304   3.364   2.291  19.157 -0.2025 -1.6645 -0.6238
 1703TIP3    H229305   3.263   2.352  19.062  0.4895  0.3845 -0.0923
 1704TIP3   OH229306   3.941   6.672  20.070  0.0972 -0.5729 -0.7510
 1704TIP3    H129307   3.980   6.727  20.137  0.0106 -0.1156 -1.0738
 1704TIP3    H229308   3.990   6.693  19.990 -1.8150  1.2268 -1.5424
 1705TIP3   OH229309   6.120   1.832  17.957  0.3440 -0.9189 -0.2508
 1705TIP3    H129310   6.115   1.749  18.005 -0.1761 -0.4050  0.6032
 1705TIP3    H229311   6.042   1.832  17.901  1.1227 -1.6688 -1.3795
 1706TIP3   OH229312   0.101   0.111  17.750  0.2618  1.3522 -0.0822
 1706TIP3    H129313   0.191   0.105  17.782  1.3693  3.6349 -2.4195
 1706TIP3    H229314   0.069   0.020  17.752  1.7604  0.7436  2.8239
 1707TIP3   OH229315   2.170   6.117  19.443  0.2801 -0.6179 -0.6150
 1707TIP3    H129316   2.106   6.048  19.463  1.6637 -2.0970 -1.0962
 1707TIP3    H229317   2.183   6.111  19.349  1.9292 -1.0845 -0.3796
 1708TIP3   OH229318   6.066   2.345  19.061 -0.8806  0.3260  0.1718
 1708TIP3    H129319   6.124   2.343  19.137 -0.5015  0.3889 -0.1121
 1708TIP3    H229320   6.099   2.417  19.008 -0.4767 -0.3825 -0.5637
 1709TIP3   OH229321   5.307   1.792  20.076 -0.2858  0.0327  0.2982
 1709TIP3    H129322   5.224   1.785  20.030 -0.6685  1.5523  0.7003
 1709TIP3    H229323   5.283   1.816  20.166  0.5810  0.9645  0.3024
 1710TIP3   OH229324   2.898   3.125  17.580  0.1921  0.3800 -0.0101
 1710TIP3    H129325   2.917   3.099  17.670  0.0656  0.1150 -0.0597
 1710TIP3    H229326   2.862   3.046  17.539  0.6700  0.3697 -0.4223
 1711TIP3   OH229327   1.904   2.957  17.489  0.2376 -0.8254 -0.1847
 1711TIP3    H129328   1.974   2.927  17.547  0.2208 -1.7140 -0.6094
 1711TIP3    H229329   1.936   2.936  17.401  0.7074  1.4054 -0.6019
 1712TIP3   OH229330   0.883   3.055  18.690 -0.4171 -0.3607 -0.2013
 1712TIP3    H129331   0.884   2.973  18.740 -0.8258 -0.3106 -0.1087
 1712TIP3    H229332   0.836   3.117  18.746  1.3735  0.4416  0.4878
 1713TIP3   OH229333   6.377   2.440  16.152  0.1196 -0.5007 -0.4394
 1713TIP3    H129334   6.335   2.502  16.212  1.1214  0.4842 -0.7289
 1713TIP3    H229335   6.378   2.357  16.201  1.1559  0.3393  1.0669
 1714TIP3   OH229336   3.968   4.217  19.806 -0.4866  0.4304 -0.1315
 1714TIP3    H129337   3.963   4.142  19.748 -0.6666  1.5449 -1.6242
 1714TIP3    H229338   4.043   4.199  19.862  1.0693  0.2299 -2.1506
 1715TIP3   OH229339   1.970   2.236  19.482  0.2177  0.2972  0.1502
 1715TIP3    H129340   1.927   2.206  19.401  0.8465 -1.8184  0.5358
 1715TIP3    H229341   1.919   2.312  19.509 -0.2811  0.7961 -1.9829
 1716TIP3   OH229342   4.316   5.788  19.786 -0.3762 -0.2609 -0.6370
 1716TIP3    H129343   4.223   5.786  19.808 -0.5785  1.2991 -1.2198
 1716TIP3    H229344   4.357   5.836  19.858 -0.0433 -0.8089 -0.4590
 1717TIP3   OH229345   5.108   2.086  20.234 -0.7708 -0.0134 -0.8040
 1717TIP3    H129346   5.030   2.131  20.201 -0.5164  0.7143 -0.4412
 1717TIP3    H229347   5.170   2.157  20.253 -1.0324 -0.3455  1.5710
 1718TIP3   OH229348   2.405   1.634  19.373 -0.6749 -1.0550 -0.0836
 1718TIP3    H129349   2.484   1.684  19.392 -0.1144 -1.2712 -1.7450
 1718TIP3    H229350   2.436   1.545  19.355 -1.2422 -1.0655 -1.0701
 1719TIP3   OH229351   2.044   2.902  19.717  0.3120 -0.9519 -0.1960
 1719TIP3    H129352   2.063   2.816  19.754 -1.2704 -1.9524 -1.5297
 1719TIP3    H229353   2.004   2.883  19.632 -1.0511  1.0648 -0.0872
 1720TIP3   OH229354   2.433   2.850  19.789 -0.3758  0.2874  0.2921
 1720TIP3    H129355   2.365   2.853  19.721 -0.0036  1.1696 -0.0498
 1720TIP3    H229356   2.472   2.763  19.779 -0.9914  0.0279  0.0401
 1721TIP3   OH229357   5.846   2.200  19.063  0.3997  0.1057 -0.0798
 1721TIP3    H129358   5.776   2.249  19.105  0.3008 -0.6788  0.6879
 1721TIP3    H229359   5.919   2.262  19.059 -0.4196  1.0389 -1.1966
 1722TIP3   OH229360   1.187   6.414  19.989 -0.8333 -0.0856 -0.0057
 1722TIP3    H129361   1.143   6.450  19.912  0.3374  1.1118 -0.1380
 1722TIP3    H229362   1.130   6.342  20.017 -2.4393  0.8663 -0.6663
 1723TIP3   OH229363   3.236   2.266  18.172 -0.0420 -0.4851  0.3293
 1723TIP3    H129364   3.319   2.310  18.190  0.2391 -0.7077 -0.4070
 1723TIP3    H229365   3.252   2.214  18.094 -0.8025 -0.7398  0.3312
 1724TIP3   OH229366   0.888   5.942  20.103 -0.2382 -0.3396 -0.3956
 1724TIP3    H129367   0.871   5.966  20.194  0.4176  0.0725 -0.3803
 1724TIP3    H229368   0.894   5.847  20.104  2.5239 -0.2407  0.5011
 1725TIP3   OH229369   1.293   0.605  17.013  0.0633  0.3864  0.5064
 1725TIP3    H129370   1.323   0.591  17.103  1.0549  0.8065  0.2552
 1725TIP3    H229371   1.365   0.652  16.971 -0.6237  0.6907 -0.3553
 1726TIP3   OH229372   4.849   3.293  18.434  0.3412  0.0089 -0.0706
 1726TIP3    H129373   4.825   3.270  18.344  1.0560 -0.9138 -0.0513
 1726TIP3    H229374   4.767   3.318  18.476 -0.0862 -0.0978 -0.8256
 1727TIP3   OH229375   5.028   0.340  20.180  0.3767  0.6066 -0.3017
 1727TIP3    H129376   4.964   0.400  20.219 -0.3643  1.9060 -3.1723
 1727TIP3    H229377   5.071   0.393  20.113  1.6920 -1.3616 -1.0939
 1728TIP3   OH229378   0.454   6.217  19.887  0.4358 -1.0131 -0.5382
 1728TIP3    H129379   0.432   6.195  19.796  1.3409 -0.6328 -0.8586
 1728TIP3    H229380   0.532   6.165  19.906  1.5625  0.5392 -0.7267
 1729TIP3   OH229381   5.817   3.954  17.816 -0.7021 -0.2845 -0.1572
 1729TIP3    H129382   5.858   4.032  17.852  0.9993 -1.2324  0.0522
 1729TIP3    H229383   5.796   3.977  17.726  0.8443  0.0577 -0.4551
 1730TIP3   OH229384   0.133   5.434  17.554  0.0528 -0.3583  0.0131
 1730TIP3    H129385   0.207   5.472  17.602 -0.9028  3.2002 -1.0135
 1730TIP3    H229386   0.166   5.350  17.523  3.4757  0.7581  0.1468
 1731TIP3   OH229387   6.231   4.262  18.981 -0.2041  0.0756  1.2234
 1731TIP3    H129388   6.322   4.293  18.974 -1.1624  2.7678 -1.7422
 1731TIP3    H229389   6.222   4.201  18.908 -0.4825 -1.2268  2.3167
 1732TIP3   OH229390   6.196   0.046  19.784 -0.4017  0.2680  0.0796
 1732TIP3    H129391   6.268   0.073  19.840 -0.0741 -0.7480  0.1598
 1732TIP3    H229392   6.223   0.073  19.696  0.4172 -0.7533  0.0029
 1733TIP3   OH229393   0.468   6.405  18.707  0.0079  0.0517 -0.5837
 1733TIP3    H129394   0.481   6.314  18.730 -1.0694  0.0993  0.3130
 1733TIP3    H229395   0.456   6.405  18.612 -0.3982 -0.8038 -0.5378
 1734TIP3   OH229396   4.686   5.354  16.889  0.0397 -0.5139  0.5363
 1734TIP3    H129397   4.743   5.305  16.829  0.6257 -0.0695  0.7210
 1734TIP3    H229398   4.746   5.392  16.953 -0.2581  1.3977 -0.2547
 1735TIP3   OH229399   2.770   3.925  19.762 -0.1022  0.0953 -0.2091
 1735TIP3    H129400   2.775   4.017  19.788 -1.1310  0.3470 -0.8619
 1735TIP3    H229401   2.839   3.915  19.696  1.1493 -0.0468  1.0612
 1736TIP3   OH229402   4.170   5.496  19.223 -0.0639  0.1061 -0.0457
 1736TIP3    H129403   4.116   5.536  19.291  0.6766  0.3867  0.3926
 1736TIP3    H229404   4.112   5.488  19.147 -0.1643  2.3068 -0.2528
 1737TIP3   OH229405   6.543   0.761  20.169  0.1456  0.3599 -0.1913
 1737TIP3    H129406   6.504   0.813  20.099 -0.0588  1.6419  0.8364
 1737TIP3    H229407   6.579   0.826  20.230 -1.2260 -0.6264  1.7704
 1738TIP3   OH229408   0.258   5.154  18.021  0.1733 -0.0573 -0.0894
 1738TIP3    H129409   0.321   5.176  17.952 -0.3252  0.0754 -0.5065
 1738TIP3    H229410   0.219   5.238  18.045 -0.0217 -0.1736 -0.0045
 1739TIP3   OH229411   4.883   5.127  17.253  0.3428  0.1517  0.3126
 1739TIP3    H129412   4.915   5.150  17.165 -2.2353 -1.4968 -1.1684
 1739TIP3    H229413   4.950   5.068  17.287  1.3406  0.7305 -0.5593
 1740TIP3   OH229414   0.929   0.005  17.002 -0.3889 -0.3247 -0.0169
 1740TIP3    H129415   0.854   0.024  16.946 -0.5176  0.7922  0.5092
 1740TIP3    H229416   1.004   0.044  16.956 -0.4685  0.4442  0.4860
 1741TIP3   OH229417   2.514   3.259  17.819 -0.6694  0.6660 -0.3155
 1741TIP3    H129418   2.563   3.272  17.738 -1.3532  2.5608 -0.4641
 1741TIP3    H229419   2.580   3.267  17.888 -0.3907  0.8515 -0.5992
 1742TIP3   OH229420   3.425   0.397  18.270 -0.3232 -0.3642  0.0608
 1742TIP3    H129421   3.367   0.390  18.194 -1.4763 -2.6668  1.0577
 1742TIP3    H229422   3.506   0.434  18.235 -1.4156  0.2954 -1.9277
 1743TIP3   OH229423   0.360   5.570  17.633  0.3697 -0.0331  0.3093
 1743TIP3    H129424   0.450   5.551  17.658  0.7808  0.0015 -1.0368
 1743TIP3    H229425   0.367   5.638  17.566 -0.8132  1.6391  1.7896
 1744TIP3   OH229426   4.384   3.685  18.210  0.1479  0.6591 -0.1487
 1744TIP3    H129427   4.434   3.760  18.239 -2.7118  2.1835  1.2802
 1744TIP3    H229428   4.320   3.720  18.148 -1.3463 -0.5186  0.6414
 1745TIP3   OH229429   1.448   3.566  18.680 -0.0901 -0.2059  0.4333
 1745TIP3    H129430   1.540   3.576  18.703 -0.1762 -0.9511  1.1371
 1745TIP3    H229431   1.427   3.475  18.701 -1.0675  0.0377  0.5782
 1746TIP3   OH229432   5.277   2.195  19.114  0.0015  0.8739  0.2308
 1746TIP3    H129433   5.211   2.236  19.059 -0.0879  1.9276  1.1031
 1746TIP3    H229434   5.236   2.188  19.200 -0.7383 -2.8854 -0.2537
 1747TIP3   OH229435   1.711   1.396  18.949 -0.2092 -0.1989 -0.2795
 1747TIP3    H129436   1.680   1.354  18.869 -0.3139 -0.8869  0.1155
 1747TIP3    H229437   1.804   1.413  18.934 -0.5729  1.2208 -1.1973
 1748TIP3   OH229438   5.658   2.450  18.510  0.1606 -0.2898  0.1956
 1748TIP3    H129439   5.602   2.477  18.437 -0.6833 -2.3174  0.0229
 1748TIP3    H229440   5.731   2.403  18.469  0.1283 -0.7037  0.5955
 1749TIP3   OH229441   0.752   4.491  19.936 -0.1478 -0.2591  0.1103
 1749TIP3    H129442   0.679   4.437  19.967  0.3963 -2.3318 -1.8847
 1749TIP3    H229443   0.766   4.462  19.846  1.5036  1.9020 -0.4016
 1750TIP3   OH229444   0.587   4.640  18.306 -0.4396  0.5971  0.1831
 1750TIP3    H129445   0.649   4.711  18.319  1.9937 -1.2437 -0.5595
 1750TIP3    H229446   0.599   4.612  18.215 -0.5050 -1.4142  0.7276
 1751TIP3   OH229447   2.016   3.014  19.081  0.1757 -0.2072  0.1932
 1751TIP3    H129448   1.969   3.083  19.127  0.4154  0.3698 -0.4224
 1751TIP3    H229449   2.108   3.034  19.095  0.2607  0.5120 -1.3219
 1752TIP3   OH229450   0.588   4.091  17.885  0.7014 -0.2524 -0.1827
 1752TIP3    H129451   0.564   4.090  17.792 -1.1747 -1.8975  0.2673
 1752TIP3    H229452   0.619   4.180  17.900 -0.4064  0.5102 -2.0256
 1753TIP3   OH229453   0.341   1.241  16.272  0.0791  0.1688 -0.1319
 1753TIP3    H129454   0.362   1.261  16.181  0.0306  0.4654 -0.0773
 1753TIP3    H229455   0.270   1.300  16.294  3.3974  3.9561  1.7097
 1754TIP3   OH229456   1.935   5.923  19.479  0.8094  0.0304  0.0055
 1754TIP3    H129457   1.882   5.845  19.462  1.0165 -0.2879  0.7747
 1754TIP3    H229458   1.902   5.957  19.562 -0.4888  1.8165 -1.1577
 1755TIP3   OH229459   6.582   0.727  16.639 -0.1444  0.4317 -0.0916
 1755TIP3    H129460   6.500   0.744  16.685 -0.1534  0.2718 -0.0469
 1755TIP3    H229461   6.573   0.773  16.556 -0.7993 -0.6314 -0.6302
 1756TIP3   OH229462   5.273   1.197  18.661  0.9471 -0.3514  0.3403
 1756TIP3    H129463   5.256   1.159  18.575 -1.5806 -0.4113  0.8013
 1756TIP3    H229464   5.257   1.291  18.649 -1.7508 -0.6315  1.1983
 1757TIP3   OH229465   1.900   5.154  19.537 -0.6973  0.3726  0.4267
 1757TIP3    H129466   1.879   5.218  19.605 -0.0393  1.4259 -0.3275
 1757TIP3    H229467   1.995   5.159  19.527 -0.7831  0.2891 -0.6010
 1758TIP3   OH229468   1.941   2.737  19.087 -0.1853  0.1662  0.3092
 1758TIP3    H129469   1.874   2.734  19.019  1.5505 -0.7805 -1.4592
 1758TIP3    H229470   1.964   2.830  19.093  1.3110  0.0742 -2.2550
 1759TIP3   OH229471   5.726   6.472  18.426  0.4771  0.1231 -0.3624
 1759TIP3    H129472   5.774   6.535  18.371  1.0700 -0.7484 -0.8738
 1759TIP3    H229473   5.709   6.520  18.507  2.0995  0.5360 -0.2215
 1760TIP3   OH229474   0.064   3.328  18.524 -0.6941  0.4772  0.2357
 1760TIP3    H129475   0.121   3.253  18.507  0.6953  1.2771  1.1299
 1760TIP3    H229476   0.078   3.386  18.449 -0.6717  0.4851  0.2462
 1761TIP3   OH229477   4.069   5.681  16.597  0.4359 -0.2922 -0.2505
 1761TIP3    H129478   4.160   5.712  16.601  0.1952  0.4699 -0.3990
 1761TIP3    H229479   4.017   5.756  16.626 -0.0059 -1.6761  2.8492
 1762TIP3   OH229480   1.265   6.670  18.095  0.1650  0.4666  0.3744
 1762TIP3    H129481   1.355   6.680  18.064  1.1191  0.1561  2.8193
 1762TIP3    H229482   1.271   6.682  18.190 -2.4490  0.8314  0.5595
 1763TIP3   OH229483   6.526   1.654  18.204 -0.0874 -0.3909 -0.1766
 1763TIP3    H129484   6.539   1.662  18.109 -0.1773  0.1309 -0.1438
 1763TIP3    H229485   6.445   1.700  18.222 -0.1603 -0.6377  0.1324
 1764TIP3   OH229486   2.072   5.441  17.768 -0.1802 -0.0122  0.3416
 1764TIP3    H129487   2.118   5.499  17.828 -0.9172  1.0518 -0.0915
 1764TIP3    H229488   1.984   5.434  17.804 -0.9837  1.5618 -1.1694
 1765TIP3   OH229489   6.196   2.453  19.803  0.7285 -0.4914 -0.5800
 1765TIP3    H129490   6.218   2.421  19.891 -0.0850 -1.4019 -0.6886
 1765TIP3    H229491   6.101   2.459  19.803  0.7169 -0.5906 -1.4296
 1766TIP3   OH229492   0.167   1.977  17.616  0.1393  0.5052  0.4658
 1766TIP3    H129493   0.178   1.882  17.621  1.7264  0.6485  0.0933
 1766TIP3    H229494   0.104   1.997  17.685 -1.0149 -0.9245 -0.1279
 1767TIP3   OH229495   3.608   0.850  19.879  0.0051  0.1285 -0.5403
 1767TIP3    H129496   3.687   0.807  19.846  1.2540  2.0787 -0.2732
 1767TIP3    H229497   3.615   0.842  19.974 -1.2110 -1.4585 -0.5470
 1768TIP3   OH229498   4.184   5.186  18.728  0.1124 -0.6600 -0.4113
 1768TIP3    H129499   4.276   5.171  18.751 -0.2722 -1.3718  0.7289
 1768TIP3    H229500   4.170   5.133  18.649  0.2947 -1.7796  0.2858
 1769TIP3   OH229501   0.876   6.550  18.305  0.2650 -0.3178  0.1796
 1769TIP3    H129502   0.872   6.461  18.270 -2.1842  0.0517 -0.6325
 1769TIP3    H229503   0.801   6.557  18.363  0.1063  1.3955 -0.1809
 1770TIP3   OH229504   0.579   0.926  16.762 -0.1160  0.6371  0.2964
 1770TIP3    H129505   0.591   1.021  16.763  0.9286  0.5148  1.2455
 1770TIP3    H229506   0.657   0.891  16.804  0.2544 -0.7464 -1.4098
 1771TIP3   OH229507   1.005   5.113  20.245  0.4589 -0.1147  0.3515
 1771TIP3    H129508   0.973   5.176  20.181  0.9072 -1.3758 -1.1667
 1771TIP3    H229509   0.927   5.082  20.290  0.2948  2.1209  1.7729
 1772TIP3   OH229510   5.215   1.689  19.589 -0.4435  0.4023 -0.0407
 1772TIP3    H129511   5.179   1.710  19.675 -1.3436 -2.3385  0.3577
 1772TIP3    H229512   5.307   1.714  19.595 -0.8427  1.7671  1.1006
 1773TIP3   OH229513   0.221   2.952  19.538  0.3083  0.1124  0.5079
 1773TIP3    H129514   0.151   3.011  19.510  0.8818  0.7871  0.4785
 1773TIP3    H229515   0.205   2.871  19.489 -0.7633  0.0664  0.9085
 1774TIP3   OH229516   2.242   5.908  17.286  0.4464 -0.1658  0.3341
 1774TIP3    H129517   2.267   5.891  17.196 -0.8515 -0.2728 -0.0238
 1774TIP3    H229518   2.147   5.917  17.284  0.3119 -0.8618  1.7947
 1775TIP3   OH229519   1.887   0.667  20.188 -0.0326  0.1008  0.7716
 1775TIP3    H129520   1.794   0.654  20.170  0.3631 -0.2496 -1.2734
 1775TIP3    H229521   1.901   0.626  20.273 -1.4178 -1.3710  0.3448
 1776TIP3   OH229522   1.118   1.558  17.729 -0.6234 -0.5841  0.3412
 1776TIP3    H129523   1.101   1.489  17.792  0.4971 -0.1317  1.1735
 1776TIP3    H229524   1.157   1.514  17.653 -0.2481 -0.9214  0.7259
 1777TIP3   OH229525   5.296   3.496  19.046 -0.0118  0.2466  0.7282
 1777TIP3    H129526   5.337   3.562  18.990 -2.6054  0.6333 -0.9088
 1777TIP3    H229527   5.309   3.528  19.135  1.8216  1.0933  0.2028
 1778TIP3   OH229528   4.831   4.378  18.047  0.7065  0.1394 -0.0707
 1778TIP3    H129529   4.837   4.465  18.007  0.3876  0.4922  0.6419
 1778TIP3    H229530   4.854   4.318  17.976 -1.8713  0.6134 -1.4332
 1779TIP3   OH229531   2.016   2.227  18.750 -0.0048  0.1588 -0.3223
 1779TIP3    H129532   2.048   2.142  18.779  0.9493  0.5348 -0.2348
 1779TIP3    H229533   2.093   2.270  18.713 -0.5901  0.7845 -0.8351
 1780TIP3   OH229534   3.201   1.410  18.756  0.2511 -0.5595 -0.1113
 1780TIP3    H129535   3.132   1.345  18.758 -0.8697  0.5318  2.9715
 1780TIP3    H229536   3.159   1.490  18.724  0.4255 -0.2524  0.4016
 1781TIP3   OH229537   3.367   1.088  20.404  0.1037  0.1371  0.1449
 1781TIP3    H129538   3.395   1.081  20.496 -0.0271 -2.0601  0.0873
 1781TIP3    H229539   3.382   1.000  20.369  0.3802  1.0078 -2.0218
 1782TIP3   OH229540   6.546   2.479  18.119  0.0091  0.1020  0.2241
 1782TIP3    H129541   6.591   2.427  18.185 -1.8477 -1.1548  0.5887
 1782TIP3    H229542   6.554   2.570  18.150  2.4212 -0.0324  0.1155
 1783TIP3   OH229543   4.882   3.119  20.126 -0.7729  0.4592  0.1714
 1783TIP3    H129544   4.946   3.163  20.070  0.0439 -1.4291 -0.4507
 1783TIP3    H229545   4.876   3.031  20.090 -1.8532 -0.1504  1.7789
 1784TIP3   OH229546   5.149   4.171  19.207 -0.4881  0.5617  0.5753
 1784TIP3    H129547   5.056   4.160  19.226 -1.2954 -0.7183 -3.1589
 1784TIP3    H229548   5.158   4.263  19.182 -0.8392  0.6335  0.7153
 1785TIP3   OH229549   3.026   2.549  17.518  0.0499  0.0062 -0.4084
 1785TIP3    H129550   3.016   2.464  17.561 -2.5913  1.3217  1.9046
 1785TIP3    H229551   2.965   2.545  17.444 -0.3130 -0.0208 -0.1123
 1786TIP3   OH229552   3.727   3.686  19.909  0.2517  0.0020  0.1834
 1786TIP3    H129553   3.759   3.597  19.923 -2.4225 -1.4882 -2.1755
 1786TIP3    H229554   3.784   3.722  19.841  0.1596 -0.6102 -0.2195
 1787TIP3   OH229555   3.954   0.875  17.632 -0.7357  0.1976  0.1060
 1787TIP3    H129556   3.905   0.954  17.657 -0.5004  0.4199 -0.1353
 1787TIP3    H229557   3.915   0.847  17.550 -3.1862 -1.9498  1.8323
 1788TIP3   OH229558   4.765   4.391  17.666  0.9361  0.5503 -0.5663
 1788TIP3    H129559   4.670   4.384  17.660  0.6655  0.4849  2.3190
 1788TIP3    H229560   4.783   4.484  17.659  0.4291  0.7644  0.6911
 1789TIP3   OH229561   5.514   3.973  19.107  0.5957 -0.2361  0.2020
 1789TIP3    H129562   5.556   4.028  19.041  1.0369 -0.9612 -0.1346
 1789TIP3    H229563   5.555   3.999  19.190 -0.8052  1.5126  0.3850
 1790TIP3   OH229564   2.512   0.378  19.158 -0.7404  0.3583  0.4889
 1790TIP3    H129565   2.531   0.451  19.216 -1.2685  0.0090  1.1074
 1790TIP3    H229566   2.484   0.420  19.076  1.0955  0.8623  0.0789
 1791TIP3   OH229567   4.017   5.801  19.585  0.6285 -0.0325  0.6123
 1791TIP3    H129568   4.032   5.777  19.676  1.0994 -1.7386  0.1271
 1791TIP3    H229569   3.934   5.847  19.586  0.7688  0.2433  1.9388
 1792TIP3   OH229570   0.339   4.052  19.527  0.0624 -0.2709 -0.4940
 1792TIP3    H129571   0.420   4.075  19.482  0.7866  0.1267  0.9436
 1792TIP3    H229572   0.309   4.135  19.565 -1.0585 -0.4058 -1.0737
 1793TIP3   OH229573   1.089   3.974  17.124  0.0244 -0.5701 -0.2141
 1793TIP3    H129574   1.022   3.997  17.059 -0.6546 -2.1210 -0.1074
 1793TIP3    H229575   1.050   3.902  17.174 -0.4612  1.9665  3.4951
 1794TIP3   OH229576   4.139   0.582  18.742 -0.5474 -0.1262 -0.5164
 1794TIP3    H129577   4.226   0.614  18.721 -0.1815 -0.5762  0.2362
 1794TIP3    H229578   4.091   0.584  18.660  0.7214 -1.5809 -1.3427
 1795TIP3   OH229579   2.942   2.131  19.305 -0.2252  0.6346 -0.5816
 1795TIP3    H129580   2.999   2.099  19.234  0.1322  1.9594 -0.9294
 1795TIP3    H229581   2.972   2.221  19.320 -1.6479  1.0559 -0.1477
 1796TIP3   OH229582   1.746   5.853  17.262 -0.4036  0.1624 -0.3210
 1796TIP3    H129583   1.693   5.915  17.212  0.6200  1.0801 -0.2828
 1796TIP3    H229584   1.785   5.796  17.196 -0.7866  0.0018 -0.4095
 1797TIP3   OH229585   4.232   0.892  19.878  0.2562  0.2765  0.4237
 1797TIP3    H129586   4.147   0.926  19.851  1.0875  2.7913  0.6274
 1797TIP3    H229587   4.294   0.928  19.814  1.2528 -1.0062  0.6195
 1798TIP3   OH229588   3.858   4.898  18.544  0.2322 -0.4049  0.0692
 1798TIP3    H129589   3.797   4.972  18.542  1.2705  0.5035  0.5978
 1798TIP3    H229590   3.851   4.859  18.457  1.3024  1.7365 -1.0674
 1799TIP3   OH229591   3.099   0.849  17.179 -0.5940  0.3094 -0.1084
 1799TIP3    H129592   3.153   0.773  17.155 -0.4649  0.1198  0.7711
 1799TIP3    H229593   3.161   0.919  17.197 -0.5769 -0.1071  1.6064
 1800TIP3   OH229594   6.257   5.442  19.531 -0.1629  0.2370  0.7399
 1800TIP3    H129595   6.169   5.455  19.566 -0.5793 -0.3058 -0.0851
 1800TIP3    H229596   6.310   5.511  19.572 -1.3967  1.8961 -0.3502
 1801TIP3   OH229597   4.241   0.557  18.460  0.0665 -0.2612  0.1461
 1801TIP3    H129598   4.172   0.553  18.393  1.1389 -0.5983 -0.9631
 1801TIP3    H229599   4.297   0.482  18.442  0.8973  0.1749  0.8532
 1802TIP3   OH229600   5.934   1.418  18.322  0.1657 -0.5575  0.1844
 1802TIP3    H129601   5.905   1.477  18.253  0.0016  0.1824  0.8774
 1802TIP3    H229602   5.962   1.339  18.275  0.8673  0.2427 -0.7998
 1803TIP3   OH229603   6.501   4.948  18.910 -0.1420  0.0575  0.4186
 1803TIP3    H129604   6.448   4.887  18.860  0.4108 -1.1471  1.2537
 1803TIP3    H229605   6.482   5.034  18.871 -1.3518 -0.5574 -0.4176
 1804TIP3   OH229606   3.116   1.366  18.402  0.0065 -0.5003  0.1676
 1804TIP3    H129607   3.193   1.322  18.438  1.0380 -0.5391 -1.9355
 1804TIP3    H229608   3.080   1.304  18.339 -0.6433  0.2794 -0.2469
 1805TIP3   OH229609   0.986   0.835  17.082 -0.0315 -0.5620  0.8388
 1805TIP3    H129610   1.074   0.825  17.120 -0.0174  1.2339  1.3363
 1805TIP3    H229611   0.930   0.783  17.139  0.7094 -2.0123  0.3267
 1806TIP3   OH229612   0.902   0.771  18.271  0.2309 -0.3348 -0.3984
 1806TIP3    H129613   0.877   0.697  18.327  1.2535 -0.1901  0.2835
 1806TIP3    H229614   0.871   0.848  18.319 -0.5824 -0.2886 -0.9701
 1807TIP3   OH229615   3.036   5.998  19.773  0.7069 -0.4115 -0.1815
 1807TIP3    H129616   2.989   5.960  19.848 -1.4801  2.6535  0.2278
 1807TIP3    H229617   2.975   5.987  19.699  0.6710  0.8609 -0.3607
 1808TIP3   OH229618   1.299   5.058  16.852  0.6091 -0.3590  0.2804
 1808TIP3    H129619   1.317   4.967  16.826 -0.5390 -0.7862  0.8900
 1808TIP3    H229620   1.343   5.111  16.785 -0.6527 -1.3975 -1.4703
 1809TIP3   OH229621   4.889   3.020  18.527  0.4493  0.6000 -0.0063
 1809TIP3    H129622   4.842   2.955  18.475  0.7651  1.2912 -1.1780
 1809TIP3    H229623   4.865   3.104  18.489  0.3523  1.1709  1.2480
 1810TIP3   OH229624   3.234   3.611  18.251 -0.0837 -0.6664  0.0531
 1810TIP3    H129625   3.154   3.646  18.212 -0.3729 -0.1463  1.0906
 1810TIP3    H229626   3.302   3.671  18.222 -0.0680 -1.0341 -0.7205
 1811TIP3   OH229627   1.278   3.934  19.849  0.1014 -0.4642 -0.0826
 1811TIP3    H129628   1.234   4.004  19.801 -1.1519  0.1274  1.8202
 1811TIP3    H229629   1.329   3.887  19.782 -2.8358 -0.7324 -2.3290
 1812TIP3   OH229630   0.199   2.338  18.390  0.3073  0.0424 -0.1997
 1812TIP3    H129631   0.276   2.317  18.337  0.8425  1.1443  0.1074
 1812TIP3    H229632   0.132   2.365  18.327 -0.1252 -1.7202 -0.5363
 1813TIP3   OH229633   5.227   0.936  18.190  0.5753 -0.1958  0.2013
 1813TIP3    H129634   5.247   0.949  18.098 -1.5105 -2.1299 -0.6143
 1813TIP3    H229635   5.132   0.928  18.193  0.5692  0.0384  2.5704
 1814TIP3   OH229636   1.680   0.587  16.813 -0.3145 -0.2627  0.1117
 1814TIP3    H129637   1.589   0.577  16.838  0.0295 -1.3066  1.0126
 1814TIP3    H229638   1.679   0.655  16.745 -1.5116  1.2643  1.5673
 1815TIP3   OH229639   2.026   4.389  17.991 -0.1748 -0.0894 -0.0459
 1815TIP3    H129640   2.049   4.349  17.906  0.3132 -2.8125  1.2516
 1815TIP3    H229641   2.086   4.462  18.000 -1.2930  1.2810 -2.7112
 1816TIP3   OH229642   1.835   4.701  18.738 -0.3438 -0.1459 -0.4002
 1816TIP3    H129643   1.895   4.757  18.689  0.0002 -0.9519 -0.9179
 1816TIP3    H229644   1.813   4.630  18.677 -2.1374  0.3341 -0.3624
 1817TIP3   OH229645   6.211   4.606  18.400  0.2391 -0.2915  0.0747
 1817TIP3    H129646   6.286   4.599  18.458 -0.2143  0.4853  0.7875
 1817TIP3    H229647   6.205   4.700  18.381 -1.4536 -0.1010  1.2920
 1818TIP3   OH229648   3.621   2.768  18.816 -0.2156 -0.3773  0.1617
 1818TIP3    H129649   3.715   2.748  18.808 -0.4963 -1.4996 -0.7154
 1818TIP3    H229650   3.611   2.805  18.903  0.9216 -1.0454  0.5979
 1819TIP3   OH229651   2.985   6.070  18.101 -0.0560 -0.3384 -0.0565
 1819TIP3    H129652   2.999   6.100  18.191  0.2455  0.4126 -0.3531
 1819TIP3    H229653   3.064   6.094  18.055 -1.6897  2.9027 -1.4698
 1820TIP3   OH229654   4.356   4.314  18.427  0.3151 -0.4439 -0.4443
 1820TIP3    H129655   4.264   4.291  18.444 -0.3347  1.7074 -0.7413
 1820TIP3    H229656   4.401   4.229  18.421 -1.5555 -1.5429  0.1472
 1821TIP3   OH229657   0.893   4.532  17.664  0.1285 -0.2870 -0.2786
 1821TIP3    H129658   0.942   4.528  17.582  0.6948  0.5552  0.0083
 1821TIP3    H229659   0.937   4.600  17.716  0.9527 -2.0537  1.4922
 1822TIP3   OH229660   5.001   4.535  19.798 -0.6576 -0.3609 -0.0101
 1822TIP3    H129661   5.029   4.447  19.772 -1.3736 -0.3324 -0.8997
 1822TIP3    H229662   4.945   4.565  19.727 -3.1654 -0.5055  1.7590
 1823TIP3   OH229663   4.701   2.761  17.153 -0.0624 -0.0397 -0.6743
 1823TIP3    H129664   4.650   2.748  17.233  0.2780 -0.6051 -0.5452
 1823TIP3    H229665   4.746   2.844  17.166  0.2817 -0.3046 -0.1153
 1824TIP3   OH229666   0.549   2.053  19.157 -0.4848  0.1549  0.4030
 1824TIP3    H129667   0.545   1.967  19.115  0.2309  0.2162  0.1960
 1824TIP3    H229668   0.468   2.058  19.207 -0.6804 -0.5147  0.1760
 1825TIP3   OH229669   4.380   3.968  19.588 -0.0370  0.2801 -0.6122
 1825TIP3    H129670   4.323   4.043  19.579  0.5525  0.8299  0.1362
 1825TIP3    H229671   4.403   3.965  19.681  1.2117  0.1304 -0.8992
 1826TIP3   OH229672   3.559   4.836  19.972 -0.0940  0.0220  0.0830
 1826TIP3    H129673   3.583   4.864  19.884 -1.9939  0.2389 -0.4059
 1826TIP3    H229674   3.643   4.818  20.015  0.9190  0.9512 -1.4062
 1827TIP3   OH229675   0.128   2.238  17.228 -0.1160 -0.1927 -0.0535
 1827TIP3    H129676   0.158   2.325  17.203  0.4367 -0.2832  0.2831
 1827TIP3    H229677   0.050   2.253  17.281  0.7578  0.1818  1.1855
 1828TIP3   OH229678   4.604   0.830  19.605  0.0287  0.2631 -0.3843
 1828TIP3    H129679   4.610   0.925  19.594 -0.1253  0.3686  0.3624
 1828TIP3    H229680   4.544   0.801  19.537 -0.3876  0.7872 -0.2449
 1829TIP3   OH229681   0.223   1.680  19.824 -0.7465 -0.5589  0.2309
 1829TIP3    H129682   0.235   1.774  19.806 -0.4612 -0.7585 -0.6885
 1829TIP3    H229683   0.162   1.650  19.755 -0.1511 -1.2229 -0.0167
 1830TIP3   OH229684   2.631   2.328  18.456 -0.4120 -0.3107  0.2947
 1830TIP3    H129685   2.693   2.362  18.520 -1.7640  0.9008  1.0260
 1830TIP3    H229686   2.623   2.235  18.478  0.3879 -0.2696  0.8170
 1831TIP3   OH229687   3.558   0.664  18.305  0.1136 -0.6790 -0.2143
 1831TIP3    H129688   3.576   0.752  18.338 -1.4362  0.6760 -2.6409
 1831TIP3    H229689   3.491   0.630  18.364  0.3927 -0.0426  0.4824
 1832TIP3   OH229690   2.538   6.090  19.316 -0.3381  0.0245 -0.7234
 1832TIP3    H129691   2.468   6.029  19.290 -0.1496  0.7077 -2.9951
 1832TIP3    H229692   2.619   6.042  19.300 -0.1917 -0.5292  1.3117
 1833TIP3   OH229693   6.132   4.695  18.086  0.2489 -0.4250  0.1701
 1833TIP3    H129694   6.152   4.738  18.003 -3.0172 -0.2701 -0.6797
 1833TIP3    H229695   6.181   4.613  18.083  1.8613  0.5261 -0.9014
 1834TIP3   OH229696   2.100   6.278  16.899 -0.4810 -0.1156 -0.2146
 1834TIP3    H129697   2.054   6.319  16.826 -1.3197  0.0862  0.4155
 1834TIP3    H229698   2.163   6.344  16.928 -3.2913  1.7506  2.2180
 1835TIP3   OH229699   2.749   5.572  20.216 -0.1842 -0.1204  0.2043
 1835TIP3    H129700   2.828   5.590  20.165  0.5446  0.6645  1.5713
 1835TIP3    H229701   2.768   5.605  20.303 -1.4459 -1.3331  0.9858
 1836TIP3   OH229702   1.946   3.896  19.148 -0.5872  0.2172  0.1210
 1836TIP3    H129703   1.881   3.914  19.080  0.0663  1.8029 -0.1515
 1836TIP3    H229704   2.029   3.925  19.109 -0.0689  0.3759  1.2950
 1837TIP3   OH229705   3.570   5.456  17.543 -0.5174  0.4256 -0.3976
 1837TIP3    H129706   3.523   5.529  17.583 -0.3244  1.0756 -1.3518
 1837TIP3    H229707   3.601   5.489  17.460  1.1949 -0.1632 -0.0233
 1838TIP3   OH229708   1.014   1.575  17.334  0.1084 -0.0556 -0.3026
 1838TIP3    H129709   1.051   1.592  17.247  1.6565  0.6838  0.4492
 1838TIP3    H229710   1.072   1.623  17.393 -1.1075 -0.2903  1.1124
 1839TIP3   OH229711   5.117   3.802  19.487  0.1937 -0.1050  0.1284
 1839TIP3    H129712   5.060   3.859  19.539  0.8518  0.0799  0.6538
 1839TIP3    H229713   5.166   3.861  19.430 -0.3167 -0.2861 -0.5148
 1840TIP3   OH229714   0.396   5.155  19.949  0.0114 -0.4776 -0.3758
 1840TIP3    H129715   0.390   5.124  19.859  0.0880 -0.2991 -0.4431
 1840TIP3    H229716   0.351   5.239  19.949  0.7312 -0.0849 -0.4364
 1841TIP3   OH229717   5.810   3.809  18.033  0.6933 -0.7613  0.1436
 1841TIP3    H129718   5.716   3.821  18.051  1.0318  1.0928  0.8689
 1841TIP3    H229719   5.820   3.834  17.941  0.4323 -1.2772 -0.0280
 1842TIP3   OH229720   6.034   0.643  17.978  0.9120  0.1701  0.0662
 1842TIP3    H129721   6.116   0.629  18.024  1.6392  0.8256 -1.0053
 1842TIP3    H229722   6.018   0.737  17.984 -0.3107 -0.0661  1.1414
 1843TIP3   OH229723   1.843   6.495  16.415  0.0398 -0.3222 -0.5044
 1843TIP3    H129724   1.923   6.444  16.407 -0.0025 -0.3703 -0.6186
 1843TIP3    H229725   1.849   6.536  16.501 -0.5046 -1.5340  0.1360
 1844TIP3   OH229726   4.739   2.685  19.373 -0.0205 -0.0444  0.2483
 1844TIP3    H129727   4.799   2.695  19.447  1.4128 -1.5774 -0.6369
 1844TIP3    H229728   4.660   2.646  19.411 -0.3923  1.7178  1.3839
 1845TIP3   OH229729   1.835   4.088  17.372  0.7453 -0.3402  0.5251
 1845TIP3    H129730   1.774   4.156  17.342  0.1206  1.3150  4.8724
 1845TIP3    H229731   1.922   4.123  17.351  0.3738  0.1702 -0.2406
 1846TIP3   OH229732   1.077   6.289  17.387 -0.0031  0.4989  0.4037
 1846TIP3    H129733   1.120   6.365  17.347  0.4134  0.3084  0.4815
 1846TIP3    H229734   0.998   6.276  17.335 -0.0313  0.9299  0.3323
 1847TIP3   OH229735   0.641   5.940  17.804  0.4690 -0.4735  0.1624
 1847TIP3    H129736   0.653   5.852  17.769 -2.2025 -0.4785 -1.0225
 1847TIP3    H229737   0.546   5.955  17.799  0.5207  1.4519  2.8934
 1848TIP3   OH229738   1.139   6.403  18.009  0.3136  0.6619 -0.1167
 1848TIP3    H129739   1.165   6.465  18.077  1.0492 -2.5539  2.8299
 1848TIP3    H229740   1.221   6.382  17.963 -0.1613  2.7325 -2.0659
 1849TIP3   OH229741   2.501   6.272  17.572  0.5270  0.1497  0.5194
 1849TIP3    H129742   2.460   6.222  17.501 -1.1611  1.6398  0.3656
 1849TIP3    H229743   2.593   6.244  17.572  0.1143 -1.3396 -0.9279
 1850TIP3   OH229744   2.627   2.959  17.055  0.1634  0.0410 -0.6889
 1850TIP3    H129745   2.593   2.871  17.071 -2.2218  1.0465  0.1085
 1850TIP3    H229746   2.614   3.005  17.137 -0.0184  1.5846 -1.5529
 1851TIP3   OH229747   2.970   2.607  19.699  0.2592  0.3707  0.4619
 1851TIP3    H129748   2.905   2.538  19.687  0.4364  0.2227  0.3565
 1851TIP3    H229749   2.980   2.614  19.794  0.2786  0.2184  0.4703
 1852TIP3   OH229750   6.429   2.835  19.084 -0.5549 -0.1185 -0.4891
 1852TIP3    H129751   6.474   2.795  19.158 -0.5990  0.0045 -0.3954
 1852TIP3    H229752   6.336   2.829  19.106 -0.6026 -0.7024 -0.8491
 1853TIP3   OH229753   1.376   0.305  19.826  0.0080  0.1297  0.2336
 1853TIP3    H129754   1.377   0.314  19.921 -0.6507 -2.5177  0.5723
 1853TIP3    H229755   1.467   0.290  19.802  0.0052 -0.5375  0.6257
 1854TIP3   OH229756   6.480   3.546  19.424 -0.4784  0.0984 -0.1604
 1854TIP3    H129757   6.560   3.493  19.432 -0.9044 -0.7211 -1.1202
 1854TIP3    H229758   6.412   3.494  19.467 -0.5776  0.6131  0.3076
 1855TIP3   OH229759   1.332   4.683  17.253  0.1558  0.1352  0.4298
 1855TIP3    H129760   1.376   4.767  17.269  1.4306 -0.5181  0.4961
 1855TIP3    H229761   1.249   4.707  17.212  0.9111  1.4006 -0.4375
 1856TIP3   OH229762   1.619   0.896  17.192  0.5075  0.1664  0.4998
 1856TIP3    H129763   1.565   0.930  17.120  0.1470  0.2875  0.8264
 1856TIP3    H229764   1.660   0.818  17.156 -0.8930 -0.6573  0.6497
 1857TIP3   OH229765   5.719   2.982  19.446  0.3662  0.6245  0.0393
 1857TIP3    H129766   5.700   2.994  19.353  0.7984  1.8426  0.0908
 1857TIP3    H229767   5.709   2.888  19.460 -0.2219  0.4921 -1.1169
 1858TIP3   OH229768   1.932   5.501  18.381 -0.2918 -0.0471 -0.0759
 1858TIP3    H129769   2.002   5.561  18.410  0.2046 -0.8381  0.4178
 1858TIP3    H229770   1.958   5.474  18.293 -0.7132  0.7436 -0.4522
 1859TIP3   OH229771   6.632   5.362  17.348 -0.0214  0.6206  0.8931
 1859TIP3    H129772   6.592   5.293  17.401  0.8678  1.0284  2.1164
 1859TIP3    H229773   6.651   5.433  17.409  0.2156  1.4732 -0.1268
 1860TIP3   OH229774   5.137   2.928  20.191  0.2546 -0.3587  0.1025
 1860TIP3    H129775   5.048   2.913  20.159 -1.3375 -0.8745  4.1981
 1860TIP3    H229776   5.141   3.022  20.206  0.2502 -0.3851  0.2689
 1861TIP3   OH229777   2.982   2.760  20.316 -0.2383  0.0320 -0.9499
 1861TIP3    H129778   2.889   2.757  20.339 -0.7016 -0.6126 -2.7747
 1861TIP3    H229779   2.990   2.834  20.256  0.4406  0.0745 -0.8198
 1862TIP3   OH229780   6.354   5.062  18.250  0.3178 -0.4831 -0.5150
 1862TIP3    H129781   6.297   4.985  18.262 -1.0222  0.5294 -0.0818
 1862TIP3    H229782   6.443   5.027  18.254 -0.1981 -1.7922  1.5404
 1863TIP3   OH229783   0.751   0.776  18.712 -0.3185 -0.1973 -0.2474
 1863TIP3    H129784   0.666   0.745  18.742 -0.8031  1.3726  0.0938
 1863TIP3    H229785   0.741   0.787  18.617 -0.4646 -0.1583 -0.2296
 1864TIP3   OH229786   5.584   0.534  19.319 -0.3358  0.3010 -0.0286
 1864TIP3    H129787   5.512   0.560  19.262  0.5438  3.2881  0.0586
 1864TIP3    H229788   5.571   0.586  19.399 -0.3533 -2.2268  1.7505
 1865TIP3   OH229789   2.174   3.801  19.865  0.0705 -0.2643  0.0040
 1865TIP3    H129790   2.093   3.795  19.916  0.1756  0.3995  0.2540
 1865TIP3    H229791   2.235   3.743  19.911  0.1510  0.2935  0.6179
 1866TIP3   OH229792   0.729   3.835  19.231  0.2487  0.1674 -0.2199
 1866TIP3    H129793   0.659   3.813  19.293  0.2642 -1.8557 -0.8446
 1866TIP3    H229794   0.777   3.906  19.274 -1.6816  1.0708  0.5829
 1867TIP3   OH229795   3.842   4.979  19.583 -0.2202  0.7192  0.7353
 1867TIP3    H129796   3.838   5.075  19.581 -0.4945  0.7020 -0.6347
 1867TIP3    H229797   3.934   4.959  19.567 -0.4016  0.7511 -0.4140
 1868TIP3   OH229798   6.265   4.892  16.768  0.0762 -0.1193 -0.2503
 1868TIP3    H129799   6.358   4.867  16.771 -0.0607 -0.5648  1.8340
 1868TIP3    H229800   6.265   4.986  16.789  0.0064 -0.4216  1.2444
 1869TIP3   OH229801   2.619   3.487  18.360 -0.1813  0.7344 -0.1141
 1869TIP3    H129802   2.586   3.414  18.412 -0.7610  3.0166  2.9812
 1869TIP3    H229803   2.569   3.483  18.278 -0.5811 -1.9335  0.1893
 1870TIP3   OH229804   1.426   1.093  16.840  0.0403  0.3955 -0.3713
 1870TIP3    H129805   1.466   1.062  16.759  0.1260  0.7663 -0.4752
 1870TIP3    H229806   1.379   1.172  16.814 -1.9883 -0.8063 -0.5424
 1871TIP3   OH229807   5.327   3.597  17.267 -0.1424 -0.4641 -0.5251
 1871TIP3    H129808   5.413   3.595  17.223  0.6585 -0.4869  0.9799
 1871TIP3    H229809   5.331   3.674  17.324 -0.1710 -1.8021  1.3602
 1872TIP3   OH229810   1.577   5.250  20.272 -0.5228  0.0885 -0.2567
 1872TIP3    H129811   1.657   5.197  20.273  1.3096  2.5995 -0.9176
 1872TIP3    H229812   1.533   5.227  20.190  0.1115 -0.5825 -0.4169
 1873TIP3   OH229813   3.459   2.204  18.826 -0.5360  0.2802 -0.5851
 1873TIP3    H129814   3.481   2.124  18.873  3.0746  1.3094 -0.2129
 1873TIP3    H229815   3.400   2.251  18.885  1.0392 -0.0714  1.3855
 1874TIP3   OH229816   3.835   3.561  18.680 -0.1767  0.0179  0.7188
 1874TIP3    H129817   3.772   3.529  18.745 -1.1896 -2.3700 -1.2769
 1874TIP3    H229818   3.890   3.485  18.660 -0.7586  0.2281 -2.1149
 1875TIP3   OH229819   4.393   6.640  20.099 -0.4387  0.2115 -0.7813
 1875TIP3    H129820   4.457   6.600  20.039  0.4145 -0.8424  0.7630
 1875TIP3    H229821   4.392   6.732  20.074  2.4001  0.4671 -0.3094
 1876TIP3   OH229822   2.557   2.439  17.781  0.1060  0.0698 -1.2319
 1876TIP3    H129823   2.534   2.525  17.817  1.2594  1.6004 -3.8519
 1876TIP3    H229824   2.478   2.386  17.792 -0.3755  1.1459  1.1985
 1877TIP3   OH229825   3.834   1.852  18.904 -0.4029 -0.0895  0.0792
 1877TIP3    H129826   3.834   1.946  18.887 -1.0666 -0.3270 -1.3892
 1877TIP3    H229827   3.822   1.812  18.818 -1.2016 -1.4891  0.8033
 1878TIP3   OH229828   1.876   0.346  17.535  0.5404 -0.4503 -0.0615
 1878TIP3    H129829   1.869   0.263  17.581  1.2271 -0.3444  0.2490
 1878TIP3    H229830   1.916   0.406  17.599  0.9684 -0.1504 -0.5963
 1879TIP3   OH229831   6.069   2.751  18.939 -0.6939 -0.1626  0.7421
 1879TIP3    H129832   6.108   2.674  18.897 -1.7972 -0.1889 -0.3031
 1879TIP3    H229833   6.010   2.715  19.005 -1.5509 -0.2670 -0.0490
 1880TIP3   OH229834   2.314   1.304  16.935  0.3780 -0.0202  0.0193
 1880TIP3    H129835   2.222   1.310  16.960 -0.0137  0.9777 -1.5388
 1880TIP3    H229836   2.320   1.222  16.886  0.2483  0.0443 -0.1078
 1881TIP3   OH229837   5.106   2.362  20.537 -0.5857  0.0131 -0.1011
 1881TIP3    H129838   5.184   2.397  20.579  0.7847 -1.7013 -1.0911
 1881TIP3    H229839   5.136   2.330  20.452 -2.1065 -1.7795 -0.0356
 1882TIP3   OH229840   5.388   2.496  19.283 -0.3746  0.3103  0.2484
 1882TIP3    H129841   5.331   2.495  19.206 -1.1686  1.1483  0.8052
 1882TIP3    H229842   5.429   2.582  19.282  0.9783 -0.3072 -0.1881
 1883TIP3   OH229843   4.403   5.477  19.506 -0.2096 -0.2346 -0.4023
 1883TIP3    H129844   4.453   5.558  19.500 -0.5119  0.0233  0.5068
 1883TIP3    H229845   4.312   5.504  19.494 -0.4264 -0.2649  1.0701
 1884TIP3   OH229846   1.992   0.797  17.180 -0.2195 -0.4156 -0.7253
 1884TIP3    H129847   1.926   0.764  17.118 -0.4964 -0.3264 -0.4828
 1884TIP3    H229848   2.039   0.719  17.207 -0.4762 -0.5335 -0.6138
 1885TIP3   OH229849   3.114   6.000  17.656  0.1045  0.2789  0.5294
 1885TIP3    H129850   3.075   5.975  17.740  0.6020  0.1758  0.7334
 1885TIP3    H229851   3.051   6.061  17.618 -0.0313  0.4868  1.0749
 1886TIP3   OH229852   3.146   5.140  18.634 -0.2660  0.3160  0.3044
 1886TIP3    H129853   3.217   5.098  18.682  0.3810  0.5551 -0.4280
 1886TIP3    H229854   3.173   5.135  18.542 -0.1141  2.4510  0.1943
 1887TIP3   OH229855   3.841   5.550  19.650 -0.1496  1.0764 -0.0947
 1887TIP3    H129856   3.756   5.507  19.646 -0.1394  1.0357  0.1029
 1887TIP3    H229857   3.824   5.636  19.688 -0.2890  1.5692 -1.2279
 1888TIP3   OH229858   5.753   5.782  18.335 -0.4370 -0.2121  0.0533
 1888TIP3    H129859   5.747   5.850  18.402  0.2695  0.8559 -0.9166
 1888TIP3    H229860   5.683   5.803  18.273 -0.0788 -0.2129 -0.3635
 1889TIP3   OH229861   6.131   5.108  18.948  0.6549  0.2036 -0.3297
 1889TIP3    H129862   6.049   5.059  18.942  0.7170  0.1722 -0.9394
 1889TIP3    H229863   6.133   5.162  18.869  1.3861 -0.0518 -0.4927
 1890TIP3   OH229864   1.993   3.635  19.576  0.4471  0.2409 -0.1660
 1890TIP3    H129865   2.065   3.698  19.579  0.7480 -0.0938  2.2844
 1890TIP3    H229866   1.915   3.687  19.592  0.4674  0.2657 -0.1455
 1891TIP3   OH229867   4.917   3.054  18.815 -0.2328  0.5351 -0.1492
 1891TIP3    H129868   4.909   3.048  18.719  0.5917 -3.6427 -0.1642
 1891TIP3    H229869   4.853   2.991  18.847  0.9714  0.2884  1.9114
 1892TIP3   OH229870   1.712   2.889  18.751  0.3819  0.4715  0.6381
 1892TIP3    H129871   1.665   2.934  18.821 -0.5256  0.0850  0.2924
 1892TIP3    H229872   1.804   2.911  18.766  0.2980 -0.1354  2.3447
 1893TIP3   OH229873   4.926   2.190  19.575  0.2228  0.3382  0.3713
 1893TIP3    H129874   4.954   2.113  19.623  1.4194  0.9542  0.7136
 1893TIP3    H229875   4.832   2.197  19.592 -0.0966 -1.5473 -0.4341
 1894TIP3   OH229876   2.147   3.264  18.046 -0.0974 -0.7879 -0.4263
 1894TIP3    H129877   2.188   3.298  17.967  0.3553 -1.1639 -0.3591
 1894TIP3    H229878   2.194   3.308  18.118 -1.4264  0.6103 -0.3644
 1895TIP3   OH229879   0.381   2.249  18.230  0.9533 -0.0476  0.4716
 1895TIP3    H129880   0.343   2.259  18.142  1.2677 -0.3498  0.2991
 1895TIP3    H229881   0.462   2.199  18.215  0.7318 -0.5767  0.9962
 1896TIP3   OH229882   6.012   4.170  19.740  0.1170  0.2229  1.0576
 1896TIP3    H129883   6.056   4.205  19.817 -0.6501 -0.3261  1.7670
 1896TIP3    H229884   6.034   4.232  19.670  0.2436  1.1330  1.8707
 1897TIP3   OH229885   3.134   1.421  17.728  0.2556  0.1884 -0.4138
 1897TIP3    H129886   3.163   1.509  17.704 -0.5071  0.3363 -0.8149
 1897TIP3    H229887   3.172   1.406  17.815  1.9197  0.1726 -1.1158
 1898TIP3   OH229888   4.696   1.626  19.025  0.2503  0.6729 -0.4173
 1898TIP3    H129889   4.667   1.717  19.015  0.0924  0.5905 -0.7254
 1898TIP3    H229890   4.673   1.604  19.115 -0.3187  0.7300 -0.5443
 1899TIP3   OH229891   5.992   0.679  16.887  0.5099 -0.2263  0.6381
 1899TIP3    H129892   6.050   0.646  16.956  1.4252 -0.9743 -0.4456
 1899TIP3    H229893   6.032   0.762  16.861 -0.5433  0.6968  1.8338
 1900TIP3   OH229894   3.767   6.227  18.354  0.0771  0.3235  0.1481
 1900TIP3    H129895   3.751   6.164  18.283  0.5200  2.2972 -1.8225
 1900TIP3    H229896   3.684   6.231  18.401 -0.1881 -1.1393 -0.1412
 1901TIP3   OH229897   0.195   0.336  19.864 -0.3766  0.0792  0.1325
 1901TIP3    H129898   0.259   0.393  19.822 -0.4942  0.7558  0.8584
 1901TIP3    H229899   0.126   0.326  19.799 -0.6976  1.3643  0.2628
 1902TIP3   OH229900   4.896   3.971  17.642  0.7531  0.2219 -0.3069
 1902TIP3    H129901   4.893   3.921  17.723  1.7461 -1.6833 -1.3820
 1902TIP3    H229902   4.853   3.915  17.577  2.0722  0.6336 -1.5956
 1903TIP3   OH229903   3.346   2.648  18.904 -0.3978  0.3955 -0.2283
 1903TIP3    H129904   3.267   2.628  18.852 -0.4479 -0.3889  0.1293
 1903TIP3    H229905   3.419   2.624  18.847 -0.4507 -0.3418  0.0051
 1904TIP3   OH229906   4.687   4.891  18.988 -0.3045 -0.3674 -0.1870
 1904TIP3    H129907   4.664   4.841  19.066  0.3684  1.4527  1.2450
 1904TIP3    H229908   4.603   4.912  18.947 -0.5969 -3.0488 -1.1640
 1905TIP3   OH229909   3.983   2.826  19.892  0.0461  0.7418  0.1186
 1905TIP3    H129910   3.916   2.820  19.961  1.4104 -0.6658  1.4133
 1905TIP3    H229911   4.038   2.748  19.906  1.4779  1.4311 -1.3982
 1906TIP3   OH229912   5.811   2.735  17.457 -0.1361 -0.0349  0.3461
 1906TIP3    H129913   5.731   2.787  17.446 -0.2104 -0.0476  0.8327
 1906TIP3    H229914   5.796   2.684  17.536  0.3943  0.0363  0.4956
 1907TIP3   OH229915   1.275   2.804  18.735  0.1066 -0.2467 -0.3100
 1907TIP3    H129916   1.359   2.777  18.698  0.0006 -1.1920  0.1183
 1907TIP3    H229917   1.210   2.753  18.687 -0.1617 -0.0929 -0.1131
 1908TIP3   OH229918   1.412   5.214  19.073 -0.0348 -0.1599  0.1664
 1908TIP3    H129919   1.453   5.211  18.987  2.3215  1.1836  1.1487
 1908TIP3    H229920   1.449   5.138  19.119 -1.2029 -0.8088  0.0705
 1909TIP3   OH229921   2.677   1.914  17.580 -0.6850  0.0264 -0.4918
 1909TIP3    H129922   2.652   1.899  17.489  0.2622 -0.8148 -0.6301
 1909TIP3    H229923   2.768   1.942  17.576 -0.8808  0.8038  0.1502
 1910TIP3   OH229924   5.516   2.525  18.916  0.0340 -0.0634  0.3805
 1910TIP3    H129925   5.440   2.533  18.858 -1.1247  0.6711  1.9297
 1910TIP3    H229926   5.536   2.431  18.916 -1.6561 -0.4669  0.8540
 1911TIP3   OH229927   3.286   0.652  17.045  0.5546 -0.2735  0.2287
 1911TIP3    H129928   3.210   0.643  16.988  0.9978 -1.3891 -0.2139
 1911TIP3    H229929   3.351   0.698  16.992  0.3318  0.3383  0.4768
 1912TIP3   OH229930   2.242   1.563  17.748 -0.3248 -0.5780 -0.2080
 1912TIP3    H129931   2.311   1.610  17.701 -0.3290  1.0924  1.3681
 1912TIP3    H229932   2.226   1.485  17.694  0.8129  0.3907 -2.0657
 1913TIP3   OH229933   3.777   4.700  20.056  0.1390  0.3856  0.3909
 1913TIP3    H129934   3.868   4.717  20.031 -0.0408 -0.8615 -1.2370
 1913TIP3    H229935   3.750   4.626  20.002 -2.1686  1.3479  0.0912
 1914TIP3   OH229936   0.333   0.680  19.941 -0.2511  0.0352  0.1589
 1914TIP3    H129937   0.369   0.604  19.988 -0.5667 -0.1892  0.0430
 1914TIP3    H229938   0.398   0.749  19.954  0.5431 -0.5474 -0.5783
 1915TIP3   OH229939   1.909   3.264  20.190 -0.9139  0.5693  0.3293
 1915TIP3    H129940   2.002   3.288  20.182 -0.4537 -0.8803  1.0205
 1915TIP3    H229941   1.878   3.259  20.100  0.4832 -1.7703 -0.0986
 1916TIP3   OH229942   5.755   3.394  19.939  0.2437  0.4414  0.3404
 1916TIP3    H129943   5.786   3.481  19.913 -0.2591  0.8265  0.9799
 1916TIP3    H229944   5.834   3.346  19.964  0.4805  0.8912  0.4730
 1917TIP3   OH229945   5.068   1.203  19.830 -0.1992 -0.2314  0.3135
 1917TIP3    H129946   5.103   1.290  19.814  1.7028 -1.1045 -0.6151
 1917TIP3    H229947   4.986   1.218  19.876 -2.0848  2.2332 -3.3506
 1918TIP3   OH229948   3.383   0.668  18.930 -0.1821  0.0472  0.6510
 1918TIP3    H129949   3.360   0.582  18.966  0.7537  0.1093  1.4469
 1918TIP3    H229950   3.299   0.708  18.908 -0.6159 -1.1438  0.0779
 1919TIP3   OH229951   4.540   4.845  19.765 -0.6085 -0.2074  0.2397
 1919TIP3    H129952   4.594   4.891  19.701 -1.3077  1.3716  0.7411
 1919TIP3    H229953   4.582   4.863  19.849  0.8771 -3.0694  0.2461
 1920TIP3   OH229954   2.190   5.878  19.211  0.4499  0.0568 -0.1325
 1920TIP3    H129955   2.178   5.845  19.299  2.9780 -1.3565 -0.2014
 1920TIP3    H229956   2.179   5.802  19.154  0.9753  0.4727 -0.8250
 1921TIP3   OH229957   3.322   1.237  19.704  0.0018 -0.4187  0.0913
 1921TIP3    H129958   3.231   1.245  19.679  0.3312  0.3726 -0.9137
 1921TIP3    H229959   3.370   1.234  19.622  0.9499  0.1729  0.6009
 1922TIP3   OH229960   6.164   4.874  18.315  0.1635 -0.6196  0.2646
 1922TIP3    H129961   6.140   4.834  18.232 -2.7084 -1.2934  1.3048
 1922TIP3    H229962   6.083   4.874  18.366  1.1290  2.3180  2.0571
 1923TIP3   OH229963   3.415   4.630  19.484 -0.0212  0.2695  0.1371
 1923TIP3    H129964   3.351   4.581  19.433 -1.7752  1.5786  0.9749
 1923TIP3    H229965   3.420   4.715  19.439  0.4552  0.4911  0.6047
 1924TIP3   OH229966   0.528   5.568  18.785  0.1728 -0.3725 -0.3221
 1924TIP3    H129967   0.580   5.566  18.705 -1.1610 -1.0615 -1.2304
 1924TIP3    H229968   0.482   5.652  18.782  2.3656  0.9653  1.2977
 1925TIP3   OH229969   2.596   0.457  17.846 -0.2127 -0.4388 -0.2536
 1925TIP3    H129970   2.507   0.424  17.841  0.0159 -1.0628 -0.2462
 1925TIP3    H229971   2.627   0.458  17.755 -0.3486  0.1294 -0.2989
 1926TIP3   OH229972   0.285   1.121  18.229  0.2536 -0.1308 -0.0225
 1926TIP3    H129973   0.243   1.058  18.288 -1.4651  0.4845 -0.5015
 1926TIP3    H229974   0.268   1.207  18.269 -0.4307  0.2499 -1.0841
 1927TIP3   OH229975   5.353   5.748  19.133 -0.5198 -0.1752  0.2753
 1927TIP3    H129976   5.332   5.670  19.082 -1.6095  0.4285 -0.2415
 1927TIP3    H229977   5.350   5.820  19.070  0.7527  0.2686  0.6897
 1928TIP3   OH229978   3.964   1.644  18.584  0.0435 -0.3297 -0.1528
 1928TIP3    H129979   4.037   1.642  18.646  0.4036 -1.1356 -0.5836
 1928TIP3    H229980   3.956   1.736  18.558 -1.3619  0.3942  2.5145
 1929TIP3   OH229981   6.320   1.178  17.648  0.0670  0.1191 -0.3741
 1929TIP3    H129982   6.349   1.115  17.583 -2.0175 -0.2398 -1.0214
 1929TIP3    H229983   6.298   1.257  17.598 -2.1273 -0.3573 -0.2443
 1930TIP3   OH229984   1.929   1.769  17.517 -0.2625  0.3218  0.0740
 1930TIP3    H129985   1.948   1.703  17.450 -2.0653 -0.6634  0.4667
 1930TIP3    H229986   1.991   1.750  17.587 -0.4953 -0.7237  0.0165
 1931TIP3   OH229987   2.437   2.324  19.610 -0.6052 -0.0374 -0.3934
 1931TIP3    H129988   2.449   2.246  19.556  0.6147 -0.6286  0.6733
 1931TIP3    H229989   2.467   2.298  19.697 -0.3870  1.5528  0.0432
 1932TIP3   OH229990   0.976   1.337  19.499  0.0396 -0.8219 -0.4544
 1932TIP3    H129991   1.027   1.308  19.575 -1.4659 -0.2347  0.8481
 1932TIP3    H229992   1.041   1.364  19.435  1.3757 -1.6806  0.4880
 1933TIP3   OH229993   6.321   4.191  17.282 -0.1002  0.3207  0.3923
 1933TIP3    H129994   6.227   4.201  17.297 -0.3549 -0.6070 -0.4506
 1933TIP3    H229995   6.342   4.107  17.323  0.4372  0.7105  0.9098
 1934TIP3   OH229996   2.332   3.017  18.773 -0.1354  0.4813 -0.3197
 1934TIP3    H129997   2.265   3.083  18.755  0.4371  1.1312 -0.0970
 1934TIP3    H229998   2.283   2.942  18.809 -0.6664  1.2179  0.5301
 1935TIP3   OH229999   1.141   1.934  20.015 -0.1317 -0.2731  0.6098
 1935TIP3    H130000   1.225   1.943  19.971 -0.0034  1.2444  1.1117
 1935TIP3    H230001   1.133   1.841  20.034  0.1312 -0.8874 -1.9444
 1936TIP3   OH230002   5.684   2.443  19.179  0.6414  0.0153  0.0020
 1936TIP3    H130003   5.650   2.402  19.259  0.4998 -0.1349 -0.1352
 1936TIP3    H230004   5.613   2.502  19.151  0.2695 -0.6978 -0.5781
 1937TIP3   OH230005   0.580   4.990  17.372 -0.8121 -0.2054  0.3773
 1937TIP3    H130006   0.611   5.070  17.414  0.9146 -0.7287  0.1611
 1937TIP3    H230007   0.525   5.021  17.300 -0.6148  0.7726  0.6319
 1938TIP3   OH230008   4.059   0.426  19.053 -0.1303  0.5992  0.1641
 1938TIP3    H130009   4.032   0.344  19.013  1.2611  0.8797 -1.4592
 1938TIP3    H230010   4.061   0.408  19.147 -1.4475 -0.7056 -0.0323
 1939TIP3   OH230011   6.512   4.176  18.351 -0.7173 -0.2924 -0.2576
 1939TIP3    H130012   6.504   4.082  18.367  0.9130 -0.2609  0.9675
 1939TIP3    H230013   6.479   4.217  18.430  0.2339  0.0951 -0.0468
 1940TIP3   OH230014   3.268   2.562  18.147  0.1483 -0.1271 -0.0909
 1940TIP3    H130015   3.239   2.506  18.075  0.8858  1.3637 -1.6223
 1940TIP3    H230016   3.226   2.646  18.131  0.9251  0.4560  0.7990
 1941TIP3   OH230017   1.606   5.305  19.548 -0.0059  0.5695  0.0513
 1941TIP3    H130018   1.686   5.343  19.585 -0.2715 -0.7661  2.1884
 1941TIP3    H230019   1.583   5.234  19.609 -1.5709 -0.5601 -1.7370
 1942TIP3   OH230020   6.433   1.929  20.007  0.0270  0.0712  0.0368
 1942TIP3    H130021   6.476   1.849  20.038  0.5546  0.3419  0.0207
 1942TIP3    H230022   6.358   1.898  19.956  0.6888 -0.4407 -0.6550
 1943TIP3   OH230023   6.567   5.945  16.892  0.2135  0.0145 -0.4285
 1943TIP3    H130024   6.519   5.864  16.906  1.6310 -1.0262 -1.2350
 1943TIP3    H230025   6.566   5.958  16.797  0.2496  0.7806 -0.3317
 1944TIP3   OH230026   0.267   6.618  19.236 -0.0597  0.2317 -0.2350
 1944TIP3    H130027   0.298   6.708  19.247 -0.2639  0.6588 -2.6512
 1944TIP3    H230028   0.334   6.577  19.181 -0.1148 -1.0505  0.6054
 1945TIP3   OH230029   4.656   1.633  19.877 -0.3317 -0.0299  0.0289
 1945TIP3    H130030   4.678   1.625  19.970 -1.3135  2.2072  0.5243
 1945TIP3    H230031   4.645   1.543  19.847  0.5376 -0.8283  1.9409
 1946TIP3   OH230032   5.227   3.232  19.184 -1.6453 -0.0710  0.0928
 1946TIP3    H130033   5.228   3.294  19.258  0.3533 -1.3177  1.2010
 1946TIP3    H230034   5.257   3.285  19.110  0.5886  0.2819  1.1339
 1947TIP3   OH230035   4.815   0.465  18.675 -0.4485 -0.2539  0.1444
 1947TIP3    H130036   4.796   0.430  18.762  1.0179 -1.0265  0.1865
 1947TIP3    H230037   4.910   0.480  18.676 -0.7784  2.3809 -0.3800
 1948TIP3   OH230038   2.802   4.191  19.824 -0.2172  0.0680 -0.3290
 1948TIP3    H130039   2.714   4.186  19.862  0.0092 -0.6755  0.1295
 1948TIP3    H230040   2.829   4.282  19.838 -0.3263 -0.0658  0.8944
 1949TIP3   OH230041   0.185   2.955  19.162 -0.0294 -0.0984 -0.1252
 1949TIP3    H130042   0.195   2.969  19.256 -2.0184 -2.7601  0.5848
 1949TIP3    H230043   0.099   2.992  19.141  0.9531  1.7156 -1.2772
 1950TIP3   OH230044   6.575   0.344  18.615  0.1532 -0.5292 -0.0972
 1950TIP3    H130045   6.526   0.351  18.697 -1.2917  0.2986 -0.9821
 1950TIP3    H230046   6.544   0.261  18.576 -0.9670  0.2135 -0.8701
 1951TIP3   OH230047   6.224   1.437  18.610  0.3563  0.1531 -0.2210
 1951TIP3    H130048   6.314   1.452  18.580  0.4803 -1.7534 -0.9416
 1951TIP3    H230049   6.187   1.525  18.621  2.4088  0.9910  0.4658
 1952TIP3   OH230050   3.825   5.037  20.013  0.6436 -0.1206 -0.4713
 1952TIP3    H130051   3.750   5.046  20.071  1.3841  1.5783  0.2828
 1952TIP3    H230052   3.877   4.965  20.051  0.5991  0.2901  0.3739
 1953TIP3   OH230053   5.266   0.553  17.502 -0.3084  0.3941 -0.7582
 1953TIP3    H130054   5.306   0.627  17.549  0.6710  0.4007 -1.5721
 1953TIP3    H230055   5.237   0.494  17.571 -1.4042  1.6666 -0.0721
 1954TIP3   OH230056   4.221   1.432  18.990  0.6750  0.0061 -0.0759
 1954TIP3    H130057   4.192   1.346  18.961  0.0816  0.0829  0.2640
 1954TIP3    H230058   4.263   1.417  19.074  1.6264 -0.1008 -0.5575
 1955TIP3   OH230059   3.705   0.095  17.600  0.9161 -0.6004 -0.8568
 1955TIP3    H130060   3.645   0.101  17.525 -0.3853 -2.9113 -0.1053
 1955TIP3    H230061   3.724   0.002  17.608  0.8809 -0.4565  1.7668
 1956TIP3   OH230062   0.097   0.650  19.752 -0.0216 -0.3849  0.0716
 1956TIP3    H130063   0.151   0.665  19.830  0.4249 -0.2677 -0.2576
 1956TIP3    H230064   0.160   0.633  19.682 -0.3849  0.5172 -0.4837
 1957TIP3   OH230065   1.186   4.924  19.098 -0.4185 -0.3947  0.3646
 1957TIP3    H130066   1.135   4.875  19.161  0.9639  0.8040  2.5408
 1957TIP3    H230067   1.197   5.011  19.137  1.6112 -0.0067 -0.8728
 1958TIP3   OH230068   3.067   4.888  17.921  0.2074  0.0748 -0.2959
 1958TIP3    H130069   3.020   4.874  18.003  1.8360 -1.6045  0.4230
 1958TIP3    H230070   3.078   4.801  17.884 -0.5045  0.7947 -2.3739
 1959TIP3   OH230071   1.622   1.871  19.734  0.8161  0.1153  0.5485
 1959TIP3    H130072   1.658   1.947  19.687  0.7062 -0.9253 -1.3442
 1959TIP3    H230073   1.683   1.800  19.716 -0.0862 -0.7083  0.6357
 1960TIP3   OH230074   6.365   5.128  17.912  0.4336 -0.4348 -0.0430
 1960TIP3    H130075   6.397   5.045  17.947 -0.0617 -0.5821  0.0677
 1960TIP3    H230076   6.281   5.142  17.956  0.3300 -0.0683 -0.3497
 1961TIP3   OH230077   1.488   4.081  17.954 -0.0535 -0.2874 -0.2355
 1961TIP3    H130078   1.431   4.139  17.904 -1.3604 -0.1774  1.2920
 1961TIP3    H230079   1.437   4.001  17.966 -1.2528  0.8389  3.6377
 1962TIP3   OH230080   3.967   6.116  19.642  0.3498 -0.1029  0.0641
 1962TIP3    H130081   3.981   6.180  19.712  4.1338  0.3113 -0.8287
 1962TIP3    H230082   4.031   6.047  19.659  0.8301 -0.3908 -2.4890
 1963TIP3   OH230083   0.904   5.389  18.991 -0.2637  0.0773  0.7001
 1963TIP3    H130084   0.995   5.357  18.989 -0.6988 -1.3885 -2.6857
 1963TIP3    H230085   0.851   5.309  18.988 -1.6105  0.9569  0.5008
 1964TIP3   OH230086   4.745   6.453  17.115  0.2189 -0.6333  0.0263
 1964TIP3    H130087   4.689   6.396  17.062  1.5519 -0.7486 -1.3616
 1964TIP3    H230088   4.812   6.393  17.150  0.5809 -0.2071  0.0660
 1965TIP3   OH230089   4.881   2.596  17.490 -0.4046  0.3464 -0.3688
 1965TIP3    H130090   4.824   2.545  17.431 -0.2477  1.7388 -1.7736
 1965TIP3    H230091   4.934   2.530  17.535  0.1397 -0.7202 -2.4902
 1966TIP3   OH230092   0.791   3.487  17.444 -0.0955  0.4212 -0.1652
 1966TIP3    H130093   0.758   3.530  17.523 -1.5544 -0.7494 -0.0924
 1966TIP3    H230094   0.742   3.528  17.372  0.1785  0.4640 -0.3317
 1967TIP3   OH230095   0.681   2.734  17.237 -0.6138 -0.0392  0.0273
 1967TIP3    H130096   0.747   2.694  17.181 -1.9230 -3.6815  0.7787
 1967TIP3    H230097   0.598   2.696  17.207 -2.1232  2.5673  0.6181
 1968TIP3   OH230098   6.677   5.686  17.130  0.1936  0.0239  0.1354
 1968TIP3    H130099   6.737   5.760  17.129 -1.1661  1.1671 -1.0261
 1968TIP3    H230100   6.701   5.634  17.054 -0.0665  0.2952 -0.1328
 1969TIP3   OH230101   1.360   2.152  19.064  0.7266 -0.1882  0.1724
 1969TIP3    H130102   1.264   2.150  19.055  0.7838 -2.8372 -0.7059
 1969TIP3    H230103   1.377   2.102  19.144  1.4034 -1.2238 -0.5929
 1970TIP3   OH230104   1.060   4.308  17.868 -0.2797  0.0352 -0.4107
 1970TIP3    H130105   1.045   4.308  17.962 -0.3480 -0.9102 -0.4087
 1970TIP3    H230106   0.975   4.330  17.830 -0.5945 -0.9067 -0.2780
 1971TIP3   OH230107   1.457   2.517  19.740  0.3802  0.3253  0.4472
 1971TIP3    H130108   1.487   2.428  19.759  0.1857 -0.0330 -0.8134
 1971TIP3    H230109   1.438   2.516  19.646  0.8699  1.8464  0.3035
 1972TIP3   OH230110   5.954   4.162  20.037 -0.0485 -0.0320 -0.1461
 1972TIP3    H130111   5.997   4.082  20.065  0.7085 -0.1316 -1.4712
 1972TIP3    H230112   5.921   4.142  19.949 -1.1399  0.6602  0.0849
 1973TIP3   OH230113   1.159   5.862  19.261 -0.0123  0.1626 -0.0447
 1973TIP3    H130114   1.231   5.811  19.223 -0.3136 -0.0822 -0.2935
 1973TIP3    H230115   1.081   5.810  19.242 -0.3967  1.0114 -0.8479
 1974TIP3   OH230116   5.255   5.984  17.170  0.3256  0.0579 -0.4685
 1974TIP3    H130117   5.255   6.079  17.158 -0.6601  0.3023  1.2109
 1974TIP3    H230118   5.166   5.956  17.149  0.5827 -0.4856 -0.8587
 1975TIP3   OH230119   5.275   0.371  16.319  0.4744 -0.6258 -0.2841
 1975TIP3    H130120   5.249   0.438  16.255  2.0414  0.3945  0.0876
 1975TIP3    H230121   5.209   0.302  16.310 -0.8248  0.6717 -1.1415
 1976TIP3   OH230122   0.867   1.765  18.228  0.1431  0.2959 -0.2336
 1976TIP3    H130123   0.904   1.810  18.152 -0.2205  0.1828 -0.4795
 1976TIP3    H230124   0.933   1.775  18.296  0.3362  0.6712 -0.4702
 1977TIP3   OH230125   0.377   3.207  19.538  0.0386 -0.6096  0.3769
 1977TIP3    H130126   0.316   3.153  19.588  0.3414  0.0219  1.4641
 1977TIP3    H230127   0.341   3.295  19.543  0.5709 -0.3812  0.2777
 1978TIP3   OH230128   5.108   0.529  19.982 -0.6135  0.3719 -0.0783
 1978TIP3    H130129   5.152   0.614  19.982 -1.2341  0.7062 -0.7674
 1978TIP3    H230130   5.054   0.530  19.903  0.5954 -1.3047 -0.9924
 1979TIP3   OH230131   1.320   2.217  19.582 -0.1835 -0.2348  0.5145
 1979TIP3    H130132   1.374   2.140  19.599 -0.3127 -0.9653 -2.0214
 1979TIP3    H230133   1.383   2.286  19.563 -0.0605 -0.8325 -1.4314
 1980TIP3   OH230134   1.670   5.946  18.856 -0.3436  0.6080 -0.3056
 1980TIP3    H130135   1.617   5.921  18.781  0.0485  0.2917 -0.4874
 1980TIP3    H230136   1.610   5.944  18.930 -1.0637  2.2875 -0.8024
 1981TIP3   OH230137   5.715   2.124  19.772  1.2274  0.6858  0.1859
 1981TIP3    H130138   5.793   2.154  19.819  2.3600 -2.0593  0.2688
 1981TIP3    H230139   5.745   2.112  19.682  1.2100 -1.2322  0.3996
 1982TIP3   OH230140   3.672   0.285  19.058  0.1057 -0.5152  0.8490
 1982TIP3    H130141   3.767   0.284  19.045 -0.1493  0.6362 -1.7006
 1982TIP3    H230142   3.660   0.331  19.141  1.7177  3.1679 -0.7635
 1983TIP3   OH230143   1.158   0.834  18.992 -0.1225  0.2957 -0.1433
 1983TIP3    H130144   1.074   0.828  19.039 -0.1619  1.0365 -0.1017
 1983TIP3    H230145   1.134   0.855  18.902  0.0328  0.9078 -0.0431
 1984TIP3   OH230146   6.397   2.141  19.415  0.1772  0.1312  0.1021
 1984TIP3    H130147   6.404   2.228  19.375  0.1677  0.0198 -0.1450
 1984TIP3    H230148   6.356   2.157  19.500 -2.2204  0.0910 -0.9615
 1985TIP3   OH230149   1.678   2.692  19.678  0.3476 -0.5872  0.5923
 1985TIP3    H130150   1.696   2.747  19.755 -0.7425 -0.0837  0.4922
 1985TIP3    H230151   1.594   2.650  19.698  0.1611 -0.6105 -0.2396
 1986TIP3   OH230152   2.656   0.902  20.095 -0.0241 -0.4121  0.2052
 1986TIP3    H130153   2.570   0.919  20.136 -0.4872  1.3223 -1.3463
 1986TIP3    H230154   2.654   0.809  20.072 -0.9718 -0.6952  1.3248
 1987TIP3   OH230155   1.263   2.873  18.149 -0.2291 -0.0122  0.1376
 1987TIP3    H130156   1.220   2.958  18.150 -0.1960  0.0296  2.1230
 1987TIP3    H230157   1.192   2.810  18.138 -0.1608  0.2498 -2.3632
 1988TIP3   OH230158   4.636   4.916  19.413  0.1142 -0.0334  0.4971
 1988TIP3    H130159   4.628   4.955  19.500 -0.7151 -0.9712  0.8537
 1988TIP3    H230160   4.731   4.913  19.397  0.2427  1.0623  0.9280
 1989TIP3   OH230161   6.425   2.715  16.288 -0.2698  0.3156  0.5976
 1989TIP3    H130162   6.387   2.803  16.298 -0.2695  0.3413  0.3871
 1989TIP3    H230163   6.367   2.658  16.338 -0.0154  0.5002  1.1102
 1990TIP3   OH230164   1.293   1.927  18.812  0.5493 -0.1415  0.4919
 1990TIP3    H130165   1.388   1.918  18.799  0.8296  0.1043  2.1230
 1990TIP3    H230166   1.277   2.021  18.808  0.5140 -0.1219  1.0285
 1991TIP3   OH230167   4.765   2.730  18.618 -0.1242 -0.8201  0.3504
 1991TIP3    H130168   4.688   2.695  18.662 -1.4037  1.1195 -0.1986
 1991TIP3    H230169   4.729   2.782  18.546  1.6250  1.2475  0.8822
 1992TIP3   OH230170   2.098   4.596  17.494  0.0134  0.3033 -0.0126
 1992TIP3    H130171   2.080   4.684  17.461 -1.9312 -0.2997 -0.6819
 1992TIP3    H230172   2.179   4.570  17.451  0.4659  1.6360 -0.0237
 1993TIP3   OH230173   6.307   0.223  17.955  0.1305  0.5359  0.2211
 1993TIP3    H130174   6.278   0.285  18.022 -2.3805  0.1131 -0.3658
 1993TIP3    H230175   6.360   0.160  18.003 -1.8079  0.0877  1.9607
 1994TIP3   OH230176   4.478   2.594  19.490 -0.0899  0.8077  0.2580
 1994TIP3    H130177   4.395   2.623  19.452 -1.0315  0.5936  2.0435
 1994TIP3    H230178   4.453   2.530  19.556  1.6470 -0.6159 -0.3847
 1995TIP3   OH230179   0.125   6.240  19.392  0.5333 -0.0037  0.0991
 1995TIP3    H130180   0.203   6.189  19.373  0.8672  0.6133 -0.2067
 1995TIP3    H230181   0.066   6.178  19.435  0.5376 -0.9210 -1.1481
 1996TIP3   OH230182   0.994   0.631  18.672 -0.4610  0.0665 -0.0334
 1996TIP3    H130183   1.020   0.547  18.710 -0.6703 -0.7348 -1.6037
 1996TIP3    H230184   0.932   0.667  18.736  1.9672  0.5624  2.2211
 1997TIP3   OH230185   1.801   1.985  19.338  0.2430 -0.5425  0.1151
 1997TIP3    H130186   1.788   1.897  19.372  0.5298 -0.1642  1.2338
 1997TIP3    H230187   1.822   1.972  19.245 -0.5013 -1.5903  0.0844
 1998TIP3   OH230188   2.466   2.168  17.592  0.4948  0.1350  0.3872
 1998TIP3    H130189   2.436   2.152  17.681  1.2003 -1.3316  0.3960
 1998TIP3    H230190   2.422   2.102  17.539  1.3395 -0.0631 -0.0847
 1999TIP3   OH230191   3.960   6.506  18.803  0.0068  0.3110  0.2681
 1999TIP3    H130192   3.908   6.530  18.726 -3.9791  0.4339  2.7250
 1999TIP3    H230193   3.970   6.587  18.852  1.8292  0.0847  0.3448
 2000TIP3   OH230194   4.867   6.221  17.158  0.1970 -0.2987  0.0159
 2000TIP3    H130195   4.916   6.181  17.229  0.2034  0.2144  0.3039
 2000TIP3    H230196   4.781   6.178  17.162 -0.5204  1.1894  1.6777
 2001TIP3   OH230197   2.462   4.087  18.957 -0.5511  0.3067  0.1382
 2001TIP3    H130198   2.501   4.174  18.965 -1.8794  1.3010 -2.7637
 2001TIP3    H230199   2.525   4.037  18.905 -0.0772 -0.3277  1.2775
 2002TIP3   OH230200   5.158   0.998  19.312 -0.0082 -0.1865  0.5235
 2002TIP3    H130201   5.067   0.995  19.343  0.2792 -2.7531  1.2696
 2002TIP3    H230202   5.193   0.911  19.330  3.0749  1.1293  1.5929
 2003TIP3   OH230203   3.897   3.096  19.246  0.3770  0.3810 -0.1568
 2003TIP3    H130204   3.975   3.044  19.261 -0.7480 -1.0821  0.9798
 2003TIP3    H230205   3.852   3.051  19.174  0.2016  0.7475 -0.2782
 2004TIP3   OH230206   4.342   1.113  18.010 -0.3147  0.0136 -0.4899
 2004TIP3    H130207   4.435   1.114  18.032 -0.1639  0.5536 -1.1381
 2004TIP3    H230208   4.339   1.089  17.917 -0.7351  1.3483 -0.8472
 2005TIP3   OH230209   2.850   3.897  17.659  0.0621 -0.3299  0.1673
 2005TIP3    H130210   2.918   3.831  17.673  0.1620  0.0568  1.7154
 2005TIP3    H230211   2.894   3.981  17.673 -0.7868 -0.0875  1.6722
 2006TIP3   OH230212   6.263   6.629  19.500 -0.0182  0.1675  0.0898
 2006TIP3    H130213   6.265   6.724  19.490 -0.2694  0.2079  0.4095
 2006TIP3    H230214   6.343   6.598  19.457  0.6630  0.6193  1.0021
 2007TIP3   OH230215   5.658   3.537  18.444 -0.0155 -0.1370 -0.1305
 2007TIP3    H130216   5.610   3.601  18.391 -1.6991 -1.0672  0.1929
 2007TIP3    H230217   5.736   3.517  18.392 -1.4853 -0.8675 -2.2152
 2008TIP3   OH230218   4.807   1.961  17.855 -0.4922  0.2804  0.4246
 2008TIP3    H130219   4.743   2.016  17.900 -0.9270  0.5619 -0.5290
 2008TIP3    H230220   4.876   1.946  17.921 -2.0507 -0.9853  1.8557
 2009TIP3   OH230221   1.627   6.640  18.709  0.1270  0.1787  1.0188
 2009TIP3    H130222   1.709   6.627  18.757  1.0291  1.4532 -0.1289
 2009TIP3    H230223   1.571   6.568  18.738  1.7161 -0.8355  1.6773
 2010TIP3   OH230224   5.966   0.852  18.445  0.0070  0.1534 -0.2777
 2010TIP3    H130225   6.037   0.803  18.404  0.3637  0.2397  0.2377
 2010TIP3    H230226   5.960   0.816  18.533  1.4343  2.1959  0.7179
 2011TIP3   OH230227   1.368   2.118  18.189 -0.0140 -0.4727 -0.0392
 2011TIP3    H130228   1.375   2.124  18.094 -0.2247 -1.0274 -0.0931
 2011TIP3    H230229   1.453   2.083  18.217 -0.6045 -2.1591 -0.2138
 2012TIP3   OH230230   4.744   2.869  18.927  0.0554 -0.2473  0.2222
 2012TIP3    H130231   4.694   2.834  19.000 -2.7544  1.2117 -0.8613
 2012TIP3    H230232   4.678   2.895  18.862  2.2863  0.7635 -1.8192
 2013TIP3   OH230233   2.581   0.506  19.737  0.8977 -0.0755 -0.1983
 2013TIP3    H130234   2.626   0.449  19.675 -0.4250 -0.5755 -0.7506
 2013TIP3    H230235   2.519   0.556  19.683  0.0215 -0.2143  0.6449
 2014TIP3   OH230236   0.018   3.089  19.398 -0.5635  0.0112 -0.3083
 2014TIP3    H130237  -0.042   3.059  19.330 -0.8017  1.0037 -0.5535
 2014TIP3    H230238  -0.038   3.099  19.476 -0.5460  0.1016 -0.3074
 2015TIP3   OH230239   0.106   6.510  17.710  0.1843  0.1531  0.0934
 2015TIP3    H130240   0.106   6.464  17.626 -0.1705  1.2995 -0.5525
 2015TIP3    H230241   0.159   6.454  17.768  0.9557 -0.3353 -1.0575
 2016TIP3   OH230242   0.716   2.364  20.371 -0.0478  0.5357 -0.0379
 2016TIP3    H130243   0.798   2.361  20.322 -0.7997  1.0245 -1.3526
 2016TIP3    H230244   0.716   2.450  20.414  1.6500 -0.7102  2.7664
 2017TIP3   OH230245   1.034   0.550  16.874 -0.3119 -0.0898 -0.0915
 2017TIP3    H130246   1.116   0.571  16.919 -0.7427  2.6864 -0.4504
 2017TIP3    H230247   0.978   0.516  16.943  1.1167 -2.2907  0.1205
 2018TIP3   OH230248   2.616   6.277  18.070 -0.2430  0.2061 -0.1624
 2018TIP3    H130249   2.546   6.341  18.053  0.9383  1.5294 -0.2259
 2018TIP3    H230250   2.624   6.275  18.165 -2.3280 -2.2025  0.0732
 2019TIP3   OH230251   4.031   1.426  18.366 -0.5449 -0.0560  0.3120
 2019TIP3    H130252   4.037   1.353  18.428  1.0870  1.0678  1.5710
 2019TIP3    H230253   3.971   1.488  18.408 -0.0187  0.3770  0.4464
 2020TIP3   OH230254   2.502   0.097  18.024  0.2219 -0.2763 -0.1235
 2020TIP3    H130255   2.545   0.181  18.039  0.2065 -0.4168  0.7594
 2020TIP3    H230256   2.454   0.108  17.942  1.9451 -0.1100 -1.1498
 2021TIP3   OH230257   2.442   3.110  18.286 -0.6783  0.9243  0.0082
 2021TIP3    H130258   2.434   3.163  18.366  0.3916  1.1765 -0.0291
 2021TIP3    H230259   2.352   3.087  18.263 -0.9758 -0.5111  2.1990
 2022TIP3   OH230260   2.048   3.636  17.994  0.0551  0.2354  0.5188
 2022TIP3    H130261   1.991   3.571  17.952  0.7970 -0.1366  0.0772
 2022TIP3    H230262   2.032   3.625  18.088  2.0398 -2.3694  0.6360
 2023TIP3   OH230263   5.484   3.679  17.634  0.5209 -0.3665  0.0892
 2023TIP3    H130264   5.530   3.626  17.569 -2.0708 -0.2110 -2.0331
 2023TIP3    H230265   5.532   3.762  17.637  0.9608 -0.5547 -1.3281
 2024TIP3   OH230266   0.718   4.047  18.493  0.0895 -0.0752  0.2527
 2024TIP3    H130267   0.759   4.131  18.474  1.5858 -0.8038  0.0806
 2024TIP3    H230268   0.664   4.064  18.570  0.0006  1.1408 -0.0551
 2025TIP3   OH230269   1.988   1.753  17.048  0.5149 -0.0688  0.1678
 2025TIP3    H130270   2.057   1.747  16.981  1.7615 -0.1755  1.4182
 2025TIP3    H230271   1.921   1.808  17.008  0.2173 -1.8371 -1.9903
 2026TIP3   OH230272   2.330   3.644  17.535 -0.1123 -0.1355  0.0061
 2026TIP3    H130273   2.310   3.572  17.595 -1.4606  0.4508  0.2942
 2026TIP3    H230274   2.422   3.665  17.552 -0.2461 -0.5165  1.2931
 2027TIP3   OH230275   6.486   6.528  19.386 -0.2272  0.5266  0.3636
 2027TIP3    H130276   6.579   6.507  19.388 -0.3349 -0.2875 -1.2546
 2027TIP3    H230277   6.449   6.467  19.322 -2.1142 -0.0397  1.8973
 2028TIP3   OH230278   3.348   6.019  19.423 -0.0227 -0.1816 -0.5793
 2028TIP3    H130279   3.302   5.946  19.464  0.5545 -0.1018  0.2135
 2028TIP3    H230280   3.408   5.978  19.361 -1.4546 -0.2754 -1.9760
 2029TIP3   OH230281   5.549   2.139  19.219  0.4005 -0.1086 -0.1837
 2029TIP3    H130282   5.592   2.195  19.284 -0.3185  0.6808 -0.3672
 2029TIP3    H230283   5.455   2.156  19.233  0.2362  1.4930 -2.6187
 2030TIP3   OH230284   4.181   6.586  17.477 -0.1988 -0.0316  0.0455
 2030TIP3    H130285   4.194   6.497  17.509 -1.6924  0.8399  3.6190
 2030TIP3    H230286   4.101   6.582  17.426  0.3499 -0.8948 -0.7793
 2031TIP3   OH230287   3.317   0.341  17.406  0.4132 -0.2827 -0.2519
 2031TIP3    H130288   3.295   0.418  17.458  0.8347 -0.0938 -0.3539
 2031TIP3    H230289   3.267   0.350  17.326  0.2526 -0.2527 -0.1496
 2032TIP3   OH230290   3.575   0.601  18.035  0.0313 -0.0940 -0.1751
 2032TIP3    H130291   3.547   0.607  18.127  0.8808 -1.7718  0.2495
 2032TIP3    H230292   3.670   0.610  18.039  0.1431 -0.8859 -0.7810
 2033TIP3   OH230293   1.693   5.993  17.024 -0.3319  0.5101 -0.0156
 2033TIP3    H130294   1.665   5.917  16.972 -3.5620  1.1954  0.5131
 2033TIP3    H230295   1.643   6.066  16.989 -0.1874  1.6247  1.9565
 2034TIP3   OH230296   1.801   6.515  20.330 -0.3171 -0.1537  0.4145
 2034TIP3    H130297   1.893   6.511  20.305 -0.8602 -1.7512 -1.6707
 2034TIP3    H230298   1.790   6.442  20.391 -0.2285 -0.0465  0.5576
 2035TIP3   OH230299   2.812   6.579  17.099  0.0034 -0.1888  0.0801
 2035TIP3    H130300   2.818   6.615  17.010  3.8451  0.4981  0.4293
 2035TIP3    H230301   2.838   6.487  17.090  0.5632 -0.0765  0.4762
 2036TIP3   OH230302   0.218   4.244  18.797  0.1877 -0.1355 -0.1817
 2036TIP3    H130303   0.185   4.218  18.883  2.1197 -1.4843  0.2281
 2036TIP3    H230304   0.311   4.262  18.812  0.1396  1.6019 -1.6303
 2037TIP3   OH230305   4.407   4.821  19.106 -0.0735  0.1244  0.0051
 2037TIP3    H130306   4.388   4.824  19.200 -1.3184  0.9471 -0.2426
 2037TIP3    H230307   4.376   4.906  19.073 -0.8844 -0.6701 -1.3616
 2038TIP3   OH230308   0.247   4.768  16.900  0.4844 -0.2281 -0.1955
 2038TIP3    H130309   0.173   4.786  16.959  1.2046  2.0164  0.1510
 2038TIP3    H230310   0.218   4.801  16.815  0.9783  0.5050 -0.0960
 2039TIP3   OH230311   6.046   6.524  19.336 -0.0414  0.1416 -0.3799
 2039TIP3    H130312   6.110   6.542  19.406  0.2165  1.6236 -0.9476
 2039TIP3    H230313   5.972   6.581  19.357 -0.1283  0.2957 -1.0852
 2040TIP3   OH230314   1.119   2.813  19.633  0.3613  0.1507  0.3152
 2040TIP3    H130315   1.116   2.908  19.642  1.4641  0.0412  2.5896
 2040TIP3    H230316   1.027   2.785  19.637  0.1310  1.0053  1.8210
 2041TIP3   OH230317   4.731   1.683  17.712 -0.2029  0.2301  0.1458
 2041TIP3    H130318   4.786   1.687  17.791 -0.4259  1.9844  0.2429
 2041TIP3    H230319   4.734   1.591  17.686  2.2626  0.1337  0.5280
 2042TIP3   OH230320   5.774   2.057  18.324 -0.0247  0.0425  0.0891
 2042TIP3    H130321   5.724   2.079  18.403  0.0304  1.6490 -0.2809
 2042TIP3    H230322   5.812   1.971  18.342 -0.2784  0.2390  1.6780
 2043TIP3   OH230323   4.354   5.818  19.166  0.1772 -0.4584  0.3446
 2043TIP3    H130324   4.316   5.838  19.251 -0.5930 -1.5590  0.2904
 2043TIP3    H230325   4.449   5.817  19.181  0.0655 -0.2131  1.0804
 2044TIP3   OH230326   2.511   4.219  19.295  0.1469  0.1358 -0.1228
 2044TIP3    H130327   2.579   4.161  19.261 -0.0136 -1.0537  1.4504
 2044TIP3    H230328   2.444   4.160  19.329 -1.2157  1.2800 -0.7229
 2045TIP3   OH230329   1.175   0.942  18.711 -0.1774 -0.2092  0.0531
 2045TIP3    H130330   1.084   0.952  18.739 -0.5286  0.5232 -1.2372
 2045TIP3    H230331   1.202   1.031  18.688  0.2938 -0.6627 -1.2167
 2046TIP3   OH230332   1.809   2.069  17.281  0.0008 -0.3316 -0.6495
 2046TIP3    H130333   1.811   1.974  17.296 -0.8416 -0.4210 -1.0388
 2046TIP3    H230334   1.766   2.104  17.359  2.1247 -0.0361  0.4547
 2047TIP3   OH230335   1.097   1.214  17.305  0.0629  0.2920  0.3216
 2047TIP3    H130336   1.084   1.151  17.234 -2.4722  1.0752 -0.0242
 2047TIP3    H230337   1.009   1.228  17.341  0.7196  2.7107  1.1724
 2048TIP3   OH230338   4.842   1.423  16.793  0.0035 -0.4447  0.0987
 2048TIP3    H130339   4.852   1.513  16.824 -1.2515  0.2219 -1.3144
 2048TIP3    H230340   4.916   1.376  16.832  0.6152  1.1573  0.9648
 2049TIP3   OH230341   3.967   1.523  16.943  0.1630  0.1729  0.5348
 2049TIP3    H130342   4.008   1.505  17.027 -1.3383 -1.3115  0.9890
 2049TIP3    H230343   4.004   1.458  16.883 -2.1494 -1.8737  1.1887
 2050TIP3   OH230344   4.827   5.286  19.796 -0.6868  0.0741 -0.1394
 2050TIP3    H130345   4.879   5.296  19.716 -0.6870 -0.2430 -0.1814
 2050TIP3    H230346   4.738   5.308  19.770 -0.5861  0.5618 -0.0801
 2051TIP3   OH230347   5.611   6.103  17.546 -0.1365 -0.8796 -0.7806
 2051TIP3    H130348   5.549   6.030  17.546 -1.3653  0.1131 -0.6210
 2051TIP3    H230349   5.640   6.110  17.456 -0.7719 -0.9600 -0.9995
 2052TIP3   OH230350   2.171   4.970  17.060 -0.3644  0.1538 -0.3607
 2052TIP3    H130351   2.175   4.913  17.136  1.1537  1.6466  0.7690
 2052TIP3    H230352   2.256   5.015  17.059 -0.7448  0.9701 -2.3241
 2053TIP3   OH230353   1.531   5.540  20.274  0.2477  0.0958  0.1091
 2053TIP3    H130354   1.601   5.553  20.338 -1.4101  1.3317  1.7856
 2053TIP3    H230355   1.529   5.445  20.261  3.4801  0.1003 -1.5801
 2054TIP3   OH230356   2.770   1.868  17.846 -0.3788 -0.0724 -0.0001
 2054TIP3    H130357   2.706   1.880  17.777 -2.5042  1.1317  2.0437
 2054TIP3    H230358   2.816   1.952  17.851 -0.6053  0.0335  0.3726
 2055TIP3   OH230359   0.425   3.137  19.234 -0.2087  0.0171  0.3302
 2055TIP3    H130360   0.494   3.166  19.293  0.7083 -0.2958 -0.5499
 2055TIP3    H230361   0.419   3.042  19.248  1.8928 -0.5584 -1.8756
 2056TIP3   OH230362   0.342   1.384  18.314 -0.2221 -0.1867 -0.1836
 2056TIP3    H130363   0.366   1.468  18.355 -1.1959  0.0342 -0.0457
 2056TIP3    H230364   0.425   1.346  18.287  0.4050 -0.0216  1.4013
 2057TIP3   OH230365   1.894   6.451  18.447 -0.0360 -0.2907 -0.0966
 2057TIP3    H130366   1.950   6.466  18.523 -0.6312  0.2861  0.2367
 2057TIP3    H230367   1.831   6.385  18.477 -1.3463  1.1575  0.5078
 2058TIP3   OH230368   3.055   1.346  19.645  0.0965 -0.0080 -0.4865
 2058TIP3    H130369   3.036   1.384  19.731  1.2334  0.0793 -0.2560
 2058TIP3    H230370   2.983   1.285  19.630 -0.8721  1.0119 -0.1227
 2059TIP3   OH230371   1.128   3.033  19.373  0.5840  0.0076 -0.2715
 2059TIP3    H130372   1.216   3.064  19.352  0.5430  1.2763  1.2713
 2059TIP3    H230373   1.090   3.103  19.425 -1.1283 -0.8041 -0.3837
 2060TIP3   OH230374   2.950   3.635  20.247  0.5972  0.0045 -0.1392
 2060TIP3    H130375   2.919   3.686  20.172  0.5213 -1.4592 -1.1581
 2060TIP3    H230376   2.870   3.613  20.295  0.1394 -2.0317 -1.6428
 2061TIP3   OH230377   6.671   3.736  19.278  0.6404 -0.3057  0.0973
 2061TIP3    H130378   6.680   3.817  19.329 -0.5118  0.7879 -1.3269
 2061TIP3    H230379   6.583   3.705  19.299  0.0492  0.3006 -1.3433
 2062TIP3   OH230380   2.143   5.046  18.667 -0.0415  0.0956  0.1363
 2062TIP3    H130381   2.126   5.110  18.736  0.9955 -0.4338  0.9079
 2062TIP3    H230382   2.083   5.071  18.596  0.4554  2.0303  0.3356
 2063TIP3   OH230383   3.945   4.708  17.734  0.3279 -1.1382 -0.0200
 2063TIP3    H130384   3.944   4.638  17.669 -1.2444 -1.9549  0.8076
 2063TIP3    H230385   3.890   4.777  17.697 -0.3635 -1.4997  0.3179
 2064TIP3   OH230386   4.758   1.332  18.436  0.8276 -0.6169  0.3212
 2064TIP3    H130387   4.670   1.310  18.467  0.0763 -0.2493 -1.4403
 2064TIP3    H230388   4.756   1.427  18.425  0.7765 -0.7961 -1.5567
 2065TIP3   OH230389   4.212   6.105  18.040  0.1163  0.2254  0.5108
 2065TIP3    H130390   4.250   6.125  18.125  0.0915 -1.5918  0.9981
 2065TIP3    H230391   4.243   6.017  18.020 -0.0291  0.5476 -1.2861
 2066TIP3   OH230392   4.315   6.422  18.082 -0.3855 -0.1945 -0.0064
 2066TIP3    H130393   4.378   6.382  18.142 -1.9682 -2.1849  0.4323
 2066TIP3    H230394   4.280   6.497  18.131 -0.5127 -0.8577  0.9436
 2067TIP3   OH230395   3.332   5.973  18.203  0.0702  0.2965  0.3806
 2067TIP3    H130396   3.333   6.038  18.132 -0.5982  0.6824  0.7182
 2067TIP3    H230397   3.258   5.915  18.181 -0.2528  0.5272  0.8610
 2068TIP3   OH230398   1.724   3.790  18.693  0.1076 -0.2606 -0.0576
 2068TIP3    H130399   1.753   3.700  18.711  1.3077 -0.1930 -1.4085
 2068TIP3    H230400   1.754   3.841  18.769  0.4067 -0.8241  0.2106
 2069TIP3   OH230401   3.575   3.417  19.344 -0.1379  0.1796  0.0337
 2069TIP3    H130402   3.604   3.495  19.298  1.6279 -1.2595 -1.4109
 2069TIP3    H230403   3.653   3.384  19.387 -1.4160  0.6183  2.9307
 2070TIP3   OH230404   1.036   1.165  17.619  0.5029 -0.3950 -0.0516
 2070TIP3    H130405   1.060   1.083  17.662  1.6993 -0.9815 -1.7626
 2070TIP3    H230406   0.987   1.138  17.541  2.3041  0.3795 -1.5260
 2071TIP3   OH230407   5.807   6.013  19.235  0.0299  0.3335 -0.0238
 2071TIP3    H130408   5.824   6.097  19.276  0.4030  0.3710 -0.2494
 2071TIP3    H230409   5.734   6.030  19.176 -0.2803  0.3595  0.3615
 2072TIP3   OH230410   1.526   0.680  18.483 -0.4371 -0.1205 -0.2485
 2072TIP3    H130411   1.487   0.611  18.429  0.3000 -2.6694  2.1996
 2072TIP3    H230412   1.463   0.694  18.554  0.6363 -0.4185  0.8142
 2073TIP3   OH230413   2.429   0.719  17.680 -0.2313 -0.2744  0.0998
 2073TIP3    H130414   2.515   0.678  17.674 -0.2602 -0.4872  0.9701
 2073TIP3    H230415   2.447   0.812  17.695 -0.1665  0.0128 -1.5657
 2074TIP3   OH230416   0.435   4.940  17.890 -0.5825 -0.0769  0.5374
 2074TIP3    H130417   0.436   4.932  17.795 -1.0950  0.8143  0.4392
 2074TIP3    H230418   0.478   5.024  17.907  0.6878 -0.8246  1.1818
 2075TIP3   OH230419   4.790   4.413  19.395  0.4188  0.2740 -0.1586
 2075TIP3    H130420   4.700   4.445  19.386  0.2589  0.2192  1.0423
 2075TIP3    H230421   4.843   4.492  19.406  0.6797  0.3718 -1.9052
 2076TIP3   OH230422   4.247   6.249  20.190 -0.4382  0.3805 -0.2485
 2076TIP3    H130423   4.271   6.333  20.227  1.0618  0.8348 -2.0716
 2076TIP3    H230424   4.330   6.214  20.155 -1.4592 -0.6217 -1.8051
 2077TIP3   OH230425   1.436   5.399  18.741  0.2079 -0.2601  0.2785
 2077TIP3    H130426   1.397   5.393  18.654 -0.6902 -1.8999  0.7386
 2077TIP3    H230427   1.459   5.491  18.752 -0.6880  0.1720 -1.2504
 2078TIP3   OH230428   5.138   2.189  17.753 -0.2077 -0.0234  0.4202
 2078TIP3    H130429   5.209   2.149  17.703 -0.6856  0.2890 -0.5320
 2078TIP3    H230430   5.182   2.240  17.821  0.4167 -1.9376  1.5180
 2079TIP3   OH230431   4.191   5.224  19.339 -0.7172 -0.2396  0.1938
 2079TIP3    H130432   4.158   5.188  19.257  0.4481  0.0732 -0.4337
 2079TIP3    H230433   4.186   5.319  19.327  0.1366 -0.1890  0.1834
 2080TIP3   OH230434   5.439   6.295  18.696  0.1123 -0.1664  0.1262
 2080TIP3    H130435   5.432   6.388  18.713  1.6435  0.2546 -1.2058
 2080TIP3    H230436   5.419   6.286  18.603  0.5659 -1.0649  0.0993
 2081TIP3   OH230437   0.284   3.290  17.490 -0.0256  0.0028  0.0117
 2081TIP3    H130438   0.296   3.338  17.409  0.9130  1.2971  0.8684
 2081TIP3    H230439   0.324   3.345  17.557  1.2092 -2.0186  1.0497
 2082TIP3   OH230440   6.300   3.622  19.028  0.3586  0.1095  0.3535
 2082TIP3    H130441   6.243   3.553  19.064 -0.6714  1.4391  1.4419
 2082TIP3    H230442   6.241   3.697  19.018  1.7934  1.3387  0.8662
 2083TIP3   OH230443   0.371   4.526  19.443  0.2066 -0.4904 -0.6703
 2083TIP3    H130444   0.458   4.499  19.414  0.1685 -0.8396 -0.4706
 2083TIP3    H230445   0.385   4.607  19.491  0.4425 -0.6199 -0.5169
 2084TIP3   OH230446   4.277   2.474  18.954 -0.0422  0.5773 -0.8751
 2084TIP3    H130447   4.363   2.464  18.994 -0.3141  0.5069 -0.3039
 2084TIP3    H230448   4.287   2.437  18.866  0.0443 -1.0737 -0.2033
 2085TIP3   OH230449   5.498   4.523  18.535 -0.1032  0.7193 -0.2637
 2085TIP3    H130450   5.534   4.580  18.467 -1.1239  0.3416 -1.1460
 2085TIP3    H230451   5.572   4.470  18.564  0.6168  1.7327 -0.2007
 2086TIP3   OH230452   5.066   5.357  19.932  0.0755  0.5108 -0.6487
 2086TIP3    H130453   4.983   5.380  19.891 -0.2970  1.2330  0.4489
 2086TIP3    H230454   5.104   5.441  19.958  1.3543  0.2090 -1.4944
 2087TIP3   OH230455   2.719   2.792  20.467  0.6212 -0.2441 -0.4524
 2087TIP3    H130456   2.713   2.886  20.450  0.3145 -0.4409 -1.5070
 2087TIP3    H230457   2.650   2.774  20.531 -0.0180  0.0838 -1.0348
 2088TIP3   OH230458   5.528   3.176  17.630  0.1798  0.2672  0.2524
 2088TIP3    H130459   5.516   3.189  17.536 -1.3831  0.4294  0.4540
 2088TIP3    H230460   5.618   3.204  17.646 -0.2571  2.5298 -0.7896
 2089TIP3   OH230461   0.689   6.560  17.946  0.4720 -0.0159 -0.2021
 2089TIP3    H130462   0.653   6.548  18.034  0.8209 -1.7298 -0.2537
 2089TIP3    H230463   0.679   6.654  17.928 -3.4650 -0.2588 -0.0115
 2090TIP3   OH230464   5.997   5.661  18.373  0.0055  0.0686 -0.6145
 2090TIP3    H130465   5.999   5.643  18.467  0.7044  0.4429 -0.5576
 2090TIP3    H230466   5.906   5.687  18.356 -0.4688 -1.2609 -0.2908
 2091TIP3   OH230467   0.083   1.338  16.497 -0.7737 -0.3456  0.6601
 2091TIP3    H130468   0.009   1.396  16.475 -1.0510 -0.6884  0.6782
 2091TIP3    H230469   0.054   1.251  16.470 -0.8007 -0.6475  1.6338
 2092TIP3   OH230470   6.431   6.250  19.913  0.1594 -0.0291 -0.2326
 2092TIP3    H130471   6.427   6.268  19.819  1.8352  0.2285 -0.2835
 2092TIP3    H230472   6.403   6.332  19.954  1.8848  0.7487 -0.5187
 2093TIP3   OH230473   4.083   6.462  19.759  0.2290  0.2284  0.4989
 2093TIP3    H130474   4.090   6.556  19.774  0.8152  0.0857  1.1896
 2093TIP3    H230475   3.992   6.448  19.734  0.1761  0.9982  0.2557
 2094TIP3   OH230476   1.910   2.426  17.156  0.3242  0.3567  0.3015
 2094TIP3    H130477   1.879   2.461  17.240  0.8969  0.7567  0.3546
 2094TIP3    H230478   1.949   2.501  17.112  1.6838 -0.2218  0.4587
 2095TIP3   OH230479   1.203   3.649  18.320  0.0223  0.5450 -0.0207
 2095TIP3    H130480   1.182   3.626  18.229 -0.7258  2.0329 -0.2552
 2095TIP3    H230481   1.198   3.566  18.367 -1.7787  0.0652 -0.9600
 2096TIP3   OH230482   2.679   0.523  18.281  0.5951  0.2623  0.2776
 2096TIP3    H130483   2.763   0.555  18.314 -0.0747  1.7569  0.5831
 2096TIP3    H230484   2.628   0.601  18.262 -0.3829 -0.6079 -0.8693
 2097TIP3   OH230485   2.040   0.174  18.121 -0.2953 -0.1594 -0.0374
 2097TIP3    H130486   2.062   0.094  18.169 -1.8641  0.0856  1.1818
 2097TIP3    H230487   1.950   0.194  18.147 -0.8279  0.6396 -2.2459
 2098TIP3   OH230488   5.236   1.061  17.157 -0.0070  0.4875 -0.2689
 2098TIP3    H130489   5.226   0.995  17.089  1.1248  0.9947 -0.9419
 2098TIP3    H230490   5.162   1.044  17.216 -0.2335 -0.8215 -0.8747
 2099TIP3   OH230491   4.709   0.876  19.217  0.6641 -0.5489  0.0087
 2099TIP3    H130492   4.637   0.937  19.232  1.6663  0.9572 -1.0547
 2099TIP3    H230493   4.774   0.899  19.283  0.3520 -1.7063  0.7657
 2100TIP3   OH230494   2.551   3.756  19.679 -0.4464  0.0506  0.5184
 2100TIP3    H130495   2.607   3.816  19.728 -0.1380  0.4829 -0.3347
 2100TIP3    H230496   2.475   3.742  19.735  0.5788 -0.6818  1.7752
 2101TIP3   OH230497   4.597   3.772  19.114 -0.3625  0.0816 -1.0070
 2101TIP3    H130498   4.567   3.687  19.146 -0.0406 -0.1155 -1.2268
 2101TIP3    H230499   4.614   3.759  19.021  0.5276  0.1457 -0.8673
 2102TIP3   OH230500   4.038   4.807  19.215  0.0008  0.2434  0.6217
 2102TIP3    H130501   4.006   4.750  19.285 -0.3117  0.4865  0.6798
 2102TIP3    H230502   4.094   4.871  19.260 -2.6727  2.3717  1.1643
 2103TIP3   OH230503   3.175   5.418  19.568  0.3270 -0.1851  0.2030
 2103TIP3    H130504   3.091   5.414  19.614 -0.3665  1.6558 -0.7817
 2103TIP3    H230505   3.236   5.454  19.632 -0.0949  0.2060  0.3967
 2104TIP3   OH230506   2.399   1.291  18.854  0.0462  0.0312  0.0712
 2104TIP3    H130507   2.433   1.340  18.929  1.0915  0.4984 -0.6912
 2104TIP3    H230508   2.304   1.295  18.864  0.1597  0.7951  0.9211
 2105TIP3   OH230509   5.574   1.013  16.247 -0.6307 -0.1093 -0.1764
 2105TIP3    H130510   5.665   0.984  16.260 -0.8144 -0.0347  1.3406
 2105TIP3    H230511   5.521   0.944  16.287 -1.2909 -0.4018 -1.4845
 2106TIP3   OH230512   3.624   5.420  19.979 -0.5534  0.4143 -0.3848
 2106TIP3    H130513   3.589   5.341  20.018 -1.3065  1.0946  0.3338
 2106TIP3    H230514   3.688   5.388  19.914 -1.9432 -0.8212 -1.2090
 2107TIP3   OH230515   1.371   6.689  17.736 -0.1438 -0.5276  0.9887
 2107TIP3    H130516   1.381   6.667  17.829  0.9752 -1.3066  0.7026
 2107TIP3    H230517   1.278   6.679  17.719 -0.3340 -0.5554  1.9861
 2108TIP3   OH230518   5.276   5.222  18.152 -0.3568 -0.4411  0.2795
 2108TIP3    H130519   5.328   5.302  18.160 -1.0902  0.3324 -2.0861
 2108TIP3    H230520   5.194   5.242  18.198  0.4081 -0.8049  1.8965
 2109TIP3   OH230521   3.215   3.772  17.581 -0.0458  0.0808 -0.4060
 2109TIP3    H130522   3.127   3.745  17.608 -0.4203  0.3545 -1.2908
 2109TIP3    H230523   3.249   3.698  17.532 -0.0547  0.2268 -0.6373
 2110TIP3   OH230524   2.369   4.865  18.312  0.3320 -0.2281 -0.4169
 2110TIP3    H130525   2.416   4.947  18.296  1.3224 -1.0456 -1.9237
 2110TIP3    H230526   2.306   4.859  18.241 -0.0074 -0.5923 -0.0874
 2111TIP3   OH230527   3.112   0.376  16.945 -0.4750 -0.0681 -0.1861
 2111TIP3    H130528   3.071   0.462  16.948  1.2267  0.7715  0.2886
 2111TIP3    H230529   3.193   0.390  16.896  0.3802 -1.1281  0.8693
 2112TIP3   OH230530   1.796   5.082  20.259  0.7517 -0.3090 -0.1687
 2112TIP3    H130531   1.770   5.059  20.348  0.5200  0.2162 -0.0928
 2112TIP3    H230532   1.880   5.128  20.270  0.1893  0.7438 -0.0972
 2113TIP3   OH230533   6.535   1.400  17.058 -0.0273 -0.0106  0.4721
 2113TIP3    H130534   6.461   1.341  17.040  0.8978 -0.5247 -1.9436
 2113TIP3    H230535   6.605   1.343  17.090  0.5927 -0.1333 -1.0548
 2114TIP3   OH230536   4.281   2.512  18.119  0.0273  0.5164  0.1508
 2114TIP3    H130537   4.265   2.604  18.101  0.0340  0.3903 -0.5433
 2114TIP3    H230538   4.200   2.468  18.092  0.9427  0.0356 -2.0232
 2115TIP3   OH230539   1.113   5.511  16.182 -0.7337  0.6053  0.2192
 2115TIP3    H130540   1.148   5.584  16.132  0.3425  1.4887  2.1695
 2115TIP3    H230541   1.186   5.482  16.237 -2.1877  0.5698  2.2461
 2116TIP3   OH230542   2.847   0.767  17.263 -0.4141  0.0266  0.3769
 2116TIP3    H130543   2.923   0.772  17.205 -0.3111  0.4827  0.5509
 2116TIP3    H230544   2.867   0.695  17.323 -0.9806 -1.1579 -0.8038
 2117TIP3   OH230545   1.873   2.378  18.377 -0.5201  0.4800 -0.4312
 2117TIP3    H130546   1.836   2.441  18.315 -1.3119  0.5935  0.1406
 2117TIP3    H230547   1.967   2.385  18.364 -0.5194  2.5389  0.3150
 2118TIP3   OH230548   0.130   4.748  18.646 -0.6783  0.4686 -0.1511
 2118TIP3    H130549   0.191   4.782  18.580  0.8670 -1.2200  0.3135
 2118TIP3    H230550   0.055   4.717  18.595 -0.4521  1.1188 -0.9050
 2119TIP3   OH230551   5.065   4.223  18.571  0.3314 -0.0758  0.2848
 2119TIP3    H130552   5.039   4.208  18.661  0.2523  0.3154  0.3277
 2119TIP3    H230553   5.146   4.274  18.578 -0.2544  0.9076  0.1325
 2120TIP3   OH230554   0.530   4.351  19.126  0.0523  0.3083 -0.4048
 2120TIP3    H130555   0.578   4.394  19.197 -0.3184 -0.1432  0.1296
 2120TIP3    H230556   0.438   4.374  19.143 -0.0776 -0.1295 -0.5118
 2121TIP3   OH230557   3.706   0.154  19.369 -0.2636 -0.0201  0.3709
 2121TIP3    H130558   3.721   0.060  19.358 -0.0853  0.0119  0.3370
 2121TIP3    H230559   3.617   0.167  19.338  0.6893  0.2974 -2.4894
 2122TIP3   OH230560   5.030   4.165  18.838  0.0205 -0.5886 -0.2562
 2122TIP3    H130561   4.981   4.196  18.914  1.8843 -0.7521  1.1047
 2122TIP3    H230562   5.040   4.071  18.853 -0.8967 -0.9108 -1.5245
 2123TIP3   OH230563   2.030   3.079  20.376 -0.1725  0.4467 -0.3365
 2123TIP3    H130564   1.976   3.145  20.331 -1.3857 -0.6789 -0.5811
 2123TIP3    H230565   1.968   3.031  20.432  0.8503  0.0825  0.5202
 2124TIP3   OH230566   1.829   2.341  17.932  0.4983 -0.6443  0.3457
 2124TIP3    H130567   1.749   2.381  17.898 -0.8021 -0.8755  2.8824
 2124TIP3    H230568   1.799   2.283  18.002  2.6951 -2.8435 -0.3744
 2125TIP3   OH230569   1.907   0.837  17.595 -0.3787  0.2338 -0.0871
 2125TIP3    H130570   1.869   0.881  17.519  0.9072 -0.8587 -1.4118
 2125TIP3    H230571   1.949   0.907  17.645 -0.3566  0.8224 -0.9170
 2126TIP3   OH230572   6.207   0.547  17.390  0.0181 -0.6959 -0.0267
 2126TIP3    H130573   6.272   0.481  17.363 -0.3016 -0.7922 -0.5693
 2126TIP3    H230574   6.192   0.528  17.483  0.3890 -0.9941 -0.0233
 2127TIP3   OH230575   3.376   3.879  20.250  0.0906 -0.4069  0.6276
 2127TIP3    H130576   3.361   3.969  20.220  1.1009 -0.2511  0.5376
 2127TIP3    H230577   3.418   3.836  20.175  1.6379 -0.3207  1.3945
 2128TIP3   OH230578   4.233   4.315  17.843 -0.1133  0.1227 -0.2500
 2128TIP3    H130579   4.246   4.410  17.847 -0.3591  0.1296  2.1695
 2128TIP3    H230580   4.321   4.279  17.839 -0.0383  0.4280 -2.0680
 2129TIP3   OH230581   0.265   0.983  17.689  0.3553 -0.3064 -0.2144
 2129TIP3    H130582   0.340   0.947  17.642  0.9650  0.7744 -0.1007
 2129TIP3    H230583   0.299   1.005  17.776 -0.3500 -0.7365  0.1900
 2130TIP3   OH230584   5.808   3.778  17.245 -0.7983  0.6508 -0.0658
 2130TIP3    H130585   5.874   3.726  17.291 -0.2470  0.9653 -0.4864
 2130TIP3    H230586   5.733   3.719  17.235 -1.3875  0.9290  2.2551
 2131TIP3   OH230587   4.809   0.913  17.894 -0.1686 -0.0254  0.1293
 2131TIP3    H130588   4.841   0.928  17.805 -1.3660  0.3831 -0.2547
 2131TIP3    H230589   4.788   0.820  17.897  1.3383 -0.3802  0.5024
 2132TIP3   OH230590   5.535   5.802  16.586  0.5270  0.2052  0.3593
 2132TIP3    H130591   5.595   5.819  16.659 -1.3911 -0.4289  2.1625
 2132TIP3    H230592   5.535   5.883  16.535  1.6709  0.7658  1.2216
 2133TIP3   OH230593   2.153   0.144  19.608  0.8030  0.2075 -0.0880
 2133TIP3    H130594   2.187   0.136  19.519  0.7322  0.1087 -0.1064
 2133TIP3    H230595   2.079   0.204  19.600  0.3553 -0.3543 -0.2121
 2134TIP3   OH230596   3.242   0.029  18.706 -0.7826 -0.7393  0.5856
 2134TIP3    H130597   3.273  -0.059  18.727  1.7652  0.0580  0.4214
 2134TIP3    H230598   3.267   0.042  18.615  1.1184  1.0200  1.3031
 2135TIP3   OH230599   2.277   0.628  18.115 -0.2112 -0.6861 -0.5595
 2135TIP3    H130600   2.280   0.535  18.092  1.7785 -0.4948 -1.3001
 2135TIP3    H230601   2.269   0.674  18.031  0.6424 -0.1555 -0.3678
 2136TIP3   OH230602   5.840   3.553  17.005  0.2261  0.6217 -0.0743
 2136TIP3    H130603   5.923   3.574  17.048  0.4799 -1.0923  0.3205
 2136TIP3    H230604   5.859   3.476  16.952 -1.2041 -0.0307  0.3046
 2137TIP3   OH230605   5.464   3.518  19.542 -0.0600  0.6345 -0.0465
 2137TIP3    H130606   5.413   3.527  19.461  1.1526  0.0169 -0.9158
 2137TIP3    H230607   5.512   3.435  19.531  0.4458  0.7576  1.1180
 2138TIP3   OH230608   2.925   3.896  19.536 -0.4503  0.0997 -0.0024
 2138TIP3    H130609   2.919   3.959  19.465  0.1523 -0.2011 -0.3280
 2138TIP3    H230610   2.973   3.822  19.499 -0.0199 -0.0094  0.7467
 2139TIP3   OH230611   4.681   3.331  19.952 -0.8622 -0.1795  0.2280
 2139TIP3    H130612   4.620   3.265  19.986 -0.8808 -0.1015  0.3473
 2139TIP3    H230613   4.718   3.291  19.874 -1.0808 -0.2192  0.1446
 2140TIP3   OH230614   3.916   1.748  20.367  0.2829  0.0029 -0.1787
 2140TIP3    H130615   3.862   1.669  20.365  0.2064  0.0393  0.3283
 2140TIP3    H230616   3.871   1.809  20.309  0.3963 -0.3541 -0.6515
 2141TIP3   OH230617   2.638   1.368  16.401  0.1752 -0.1603  0.1241
 2141TIP3    H130618   2.697   1.301  16.367  1.2366  1.9295 -2.4900
 2141TIP3    H230619   2.696   1.436  16.436 -0.7378  0.8283 -0.2294
 2142TIP3   OH230620   4.454   2.601  19.770 -0.0924  0.2710 -0.3524
 2142TIP3    H130621   4.543   2.567  19.782 -0.5691 -1.0357 -0.3756
 2142TIP3    H230622   4.433   2.644  19.853 -0.2776 -1.4041  0.4934
 2143TIP3   OH230623   0.608   5.132  20.130  0.0546 -0.0772 -0.2185
 2143TIP3    H130624   0.680   5.160  20.075  0.9394 -1.5200  0.1537
 2143TIP3    H230625   0.529   5.146  20.077  0.8464 -1.0721 -1.6983
 2144TIP3   OH230626   5.443   3.662  18.254 -0.8892  0.1461 -0.1544
 2144TIP3    H130627   5.449   3.571  18.224 -1.0719  0.6751 -1.9072
 2144TIP3    H230628   5.394   3.707  18.185 -3.1327  1.0764  1.8974
 2145TIP3   OH230629   6.264   2.211  17.887 -0.3492 -0.3856 -0.0935
 2145TIP3    H130630   6.317   2.223  17.808 -0.5243 -0.3977 -0.2134
 2145TIP3    H230631   6.290   2.283  17.945 -0.9995  0.2635 -0.5900
 2146TIP3   OH230632   5.357   6.033  19.374 -0.1660  0.1094  0.5276
 2146TIP3    H130633   5.409   6.112  19.360 -2.7781  1.6003 -1.8391
 2146TIP3    H230634   5.411   5.962  19.341  1.1764  1.2826  0.1187
 2147TIP3   OH230635   6.546   0.330  19.188 -0.5343 -0.7900  0.3782
 2147TIP3    H130636   6.495   0.354  19.111  0.5433 -0.0073 -0.1261
 2147TIP3    H230637   6.535   0.236  19.196 -0.1455 -0.9976 -1.1512
 2148TIP3   OH230638   3.611   4.401  19.585  0.4104  0.3293 -0.1265
 2148TIP3    H130639   3.531   4.374  19.632  1.1436  0.1347  1.0420
 2148TIP3    H230640   3.578   4.450  19.509 -0.7975  1.7391  1.2372
 2149TIP3   OH230641   4.088   2.469  20.282  0.2892  0.3889 -0.4707
 2149TIP3    H130642   4.025   2.397  20.285  0.2677  0.4074 -0.4794
 2149TIP3    H230643   4.173   2.426  20.281  0.2730  0.3600 -0.6261
 2150TIP3   OH230644   6.374   1.082  18.446  0.2139 -0.4722 -0.5101
 2150TIP3    H130645   6.314   1.062  18.518  0.8698 -1.2863 -0.1730
 2150TIP3    H230646   6.325   1.057  18.367 -0.0015 -0.8609 -0.2581
 2151TIP3   OH230647   3.692   1.588  17.280  0.5178 -0.2616 -0.2056
 2151TIP3    H130648   3.612   1.535  17.289  0.4523 -0.1895 -0.3614
 2151TIP3    H230649   3.761   1.533  17.318  0.6614 -0.9534 -1.3957
 2152TIP3   OH230650   2.289   0.281  18.335  0.1131  0.5543 -0.5221
 2152TIP3    H130651   2.258   0.353  18.280 -0.5515 -0.0032 -0.8736
 2152TIP3    H230652   2.243   0.204  18.304  1.1811 -0.1310 -0.4636
 2153TIP3   OH230653   5.038   3.483  19.694 -0.2487  0.3742  0.1436
 2153TIP3    H130654   5.117   3.532  19.714  0.8739 -0.9312 -0.9536
 2153TIP3    H230655   5.047   3.402  19.744 -0.7497  0.0829 -0.2293
 2154TIP3   OH230656   2.081   6.489  20.251  0.3898  0.7673 -0.0015
 2154TIP3    H130657   2.160   6.440  20.226  0.1579  0.7557 -0.7445
 2154TIP3    H230658   2.114   6.571  20.288  0.7865  0.0769  1.2513
 2155TIP3   OH230659   0.992   1.823  16.589 -0.2248  0.6051 -0.0505
 2155TIP3    H130660   0.917   1.877  16.612 -0.8340  0.3356 -1.2938
 2155TIP3    H230661   0.957   1.756  16.530  0.9087  0.2046 -0.3089
 2156TIP3   OH230662   0.474   4.851  18.510 -0.4440  0.4677  0.3083
 2156TIP3    H130663   0.476   4.944  18.486 -1.1147  0.5610  0.5957
 2156TIP3    H230664   0.544   4.842  18.575 -0.0667  0.6649 -0.0603
 2157TIP3   OH230665   1.639   6.553  20.127 -0.4694  0.4355  0.0926
 2157TIP3    H130666   1.730   6.546  20.098 -0.3610  0.5622  0.3951
 2157TIP3    H230667   1.645   6.559  20.223 -0.8053  0.2572  0.1262
 2158TIP3   OH230668   5.043   1.382  17.951  0.3790 -0.5441 -0.2548
 2158TIP3    H130669   5.121   1.404  18.002  0.5626 -1.1132 -0.2856
 2158TIP3    H230670   5.016   1.296  17.984 -1.5881  0.6118  1.3847
 2159TIP3   OH230671   5.079   4.703  17.581  0.5742 -0.4020 -0.1726
 2159TIP3    H130672   5.094   4.635  17.647  2.0824 -0.7424 -0.8180
 2159TIP3    H230673   5.113   4.783  17.621  0.2844 -0.3472 -0.0340
 2160TIP3   OH230674   6.305   3.363  19.551 -0.3183 -0.2370  0.8416
 2160TIP3    H130675   6.264   3.443  19.585  0.6915  0.4964  0.3724
 2160TIP3    H230676   6.246   3.293  19.579 -1.1113  0.6417  1.4551
 2161TIP3   OH230677   4.587   0.920  18.094 -0.2290  0.3217 -0.0387
 2161TIP3    H130678   4.630   0.843  18.131 -0.7200 -0.1484 -0.4133
 2161TIP3    H230679   4.644   0.993  18.116 -0.2463 -0.0109  1.1724
 2162TIP3   OH230680   0.717   0.683  19.521  0.2838 -0.8364  0.3396
 2162TIP3    H130681   0.734   0.760  19.467 -0.1138  0.5937  2.1497
 2162TIP3    H230682   0.794   0.627  19.509 -0.2272 -1.1211 -2.4506
 2163TIP3   OH230683   4.379   2.945  17.925  0.5181  0.3169 -0.6011
 2163TIP3    H130684   4.321   3.017  17.905 -0.0296  0.4154  1.1816
 2163TIP3    H230685   4.455   2.985  17.967  0.7420 -0.0381 -0.6541
 2164TIP3   OH230686   1.286   1.655  17.416  0.6306 -0.3772 -0.4750
 2164TIP3    H130687   1.343   1.674  17.490  0.3936  0.6546 -0.5486
 2164TIP3    H230688   1.282   1.559  17.413 -0.0168 -0.4463  1.3638
 2165TIP3   OH230689   0.785   3.339  18.505 -0.1494  0.2071  0.3682
 2165TIP3    H130690   0.833   3.342  18.588 -1.4939  0.0566  1.1750
 2165TIP3    H230691   0.710   3.397  18.518 -0.2256  0.4148 -0.8560
 2166TIP3   OH230692   1.696   4.321  18.313 -0.4540  0.3345  0.1093
 2166TIP3    H130693   1.658   4.337  18.399  1.0248  0.5542  0.7380
 2166TIP3    H230694   1.755   4.395  18.298  0.9908 -0.8074 -0.0981
 2167TIP3   OH230695   3.750   0.227  17.828 -0.7607 -0.1252 -0.5909
 2167TIP3    H130696   3.761   0.184  17.743 -0.1877  0.3474 -0.7616
 2167TIP3    H230697   3.658   0.212  17.850 -0.8703 -0.4128 -1.2043
 2168TIP3   OH230698   5.961   1.950  17.659  0.8668 -0.0002 -0.3046
 2168TIP3    H130699   6.042   1.978  17.702  0.5333  0.5427 -0.0119
 2168TIP3    H230700   5.894   2.007  17.697 -0.0437 -1.9186  1.1280
 2169TIP3   OH230701   6.400   3.353  17.654 -0.3993 -0.0269  0.0101
 2169TIP3    H130702   6.317   3.309  17.635  0.5720 -1.7628 -0.4184
 2169TIP3    H230703   6.395   3.374  17.747 -0.6706 -1.6340  0.3917
 2170TIP3   OH230704   2.183   1.823  18.187 -0.2539 -0.6087  0.4902
 2170TIP3    H130705   2.122   1.790  18.253  0.1909 -0.1371  1.1578
 2170TIP3    H230706   2.174   1.918  18.192 -0.4948 -0.5786 -0.4065
 2171TIP3   OH230707   4.588   6.130  17.349 -0.0264 -0.4198 -0.5583
 2171TIP3    H130708   4.506   6.093  17.315 -1.8409  0.9194  2.0055
 2171TIP3    H230709   4.621   6.063  17.409 -1.2064  0.3576  1.0586
 2172TIP3   OH230710   5.326   3.201  18.024 -0.2559 -0.1702  0.2898
 2172TIP3    H130711   5.240   3.167  17.999  0.3748 -0.6513 -1.3677
 2172TIP3    H230712   5.375   3.123  18.049  0.0609 -0.0514  0.0490
 2173TIP3   OH230713   0.429   3.708  17.300  0.2026  0.0564 -1.0017
 2173TIP3    H130714   0.521   3.694  17.275  0.1610 -1.2183 -0.5137
 2173TIP3    H230715   0.428   3.798  17.334  1.2644  0.1032 -1.0375
 2174TIP3   OH230716   3.888   2.928  17.224 -0.1434  0.0341  0.9323
 2174TIP3    H130717   3.867   2.845  17.266 -0.0607 -0.0021  0.9023
 2174TIP3    H230718   3.802   2.966  17.202 -0.1866 -1.0783 -1.0685
 2175TIP3   OH230719   1.153   5.886  18.227 -0.6987 -0.1921  0.2525
 2175TIP3    H130720   1.116   5.811  18.179 -0.7851 -0.2563  0.4195
 2175TIP3    H230721   1.205   5.846  18.297  0.4088 -0.1335 -0.4994
 2176TIP3   OH230722   0.897   1.614  17.578 -0.1800  0.1608  0.2328
 2176TIP3    H130723   0.918   1.560  17.502  0.2238 -1.3435  1.3738
 2176TIP3    H230724   0.965   1.594  17.642 -0.5434  1.3453  1.0271
 2177TIP3   OH230725   4.673   0.031  17.273  0.2366  0.5653 -0.3125
 2177TIP3    H130726   4.739  -0.028  17.235  1.1885  0.3979  1.5032
 2177TIP3    H230727   4.686   0.025  17.367 -0.9711  2.1890  0.0113
 2178TIP3   OH230728   4.071   3.113  18.170 -0.0815  0.3070  0.3961
 2178TIP3    H130729   4.105   3.135  18.257  3.7703  0.4640 -0.9384
 2178TIP3    H230730   4.150   3.097  18.117 -2.2548 -0.4356 -2.9235
 2179TIP3   OH230731   5.234   3.243  18.744 -0.1268 -0.0243 -0.9434
 2179TIP3    H130732   5.221   3.338  18.735 -1.5787 -0.0927  0.0144
 2179TIP3    H230733   5.187   3.206  18.670 -0.1263 -0.0195 -0.9463
 2180TIP3   OH230734   0.361   3.043  18.405 -0.3038 -0.1772  0.1435
 2180TIP3    H130735   0.448   3.048  18.445 -0.4811  0.0521  0.4996
 2180TIP3    H230736   0.368   3.096  18.325 -0.0417 -0.3754  0.0349
 2181TIP3   OH230737   6.588   2.393  19.356 -0.1702  0.3353 -0.2866
 2181TIP3    H130738   6.592   2.380  19.262 -0.4446 -3.0020  0.0518
 2181TIP3    H230739   6.650   2.330  19.392 -1.2905  0.3365  1.8285
 2182TIP3   OH230740   0.019   3.725  18.027 -0.0172 -0.1016  0.5491
 2182TIP3    H130741   0.072   3.725  18.107  1.0964 -0.1485 -0.1679
 2182TIP3    H230742  -0.018   3.637  18.022 -0.0824 -0.1006  1.0134
 2183TIP3   OH230743   2.479   5.092  18.857 -0.3557  0.9164  0.2988
 2183TIP3    H130744   2.514   5.028  18.795  0.0388  1.9467 -0.5816
 2183TIP3    H230745   2.548   5.103  18.922 -0.0867  1.0486 -0.0075
 2184TIP3   OH230746   6.226   5.009  19.943 -0.1952 -0.3548  0.0082
 2184TIP3    H130747   6.198   4.982  20.030 -0.4170  1.9098  0.7126
 2184TIP3    H230748   6.283   4.939  19.913  0.2849 -0.9715  2.1998
 2185TIP3   OH230749   2.951   5.914  17.877  0.2390 -0.5414  0.0921
 2185TIP3    H130750   2.982   5.945  17.961  2.2926 -0.8969 -0.4879
 2185TIP3    H230751   2.860   5.887  17.893  0.2328  0.4465  1.8919
 2186TIP3   OH230752   5.957   1.344  18.037 -0.2228 -0.1890  0.6941
 2186TIP3    H130753   5.869   1.314  18.058  0.2642 -2.5977 -0.3704
 2186TIP3    H230754   5.979   1.301  17.955  2.5556 -1.0272  1.7491
 2187TIP3   OH230755   3.064   1.878  18.380  0.0503 -0.5135 -0.1470
 2187TIP3    H130756   3.042   1.834  18.462 -0.9510 -2.1093 -1.2142
 2187TIP3    H230757   2.979   1.900  18.341  0.4731 -0.7090 -1.2196
 2188TIP3   OH230758   4.099   2.594  17.523 -0.1774  0.0042  0.1147
 2188TIP3    H130759   4.089   2.667  17.584 -0.4661  0.0248  0.0431
 2188TIP3    H230760   4.187   2.604  17.488 -0.9318  1.5601 -1.4971
 2189TIP3   OH230761   3.502   5.536  18.724 -0.5196  0.0065  0.1420
 2189TIP3    H130762   3.556   5.558  18.799 -0.0429  0.3422 -0.2930
 2189TIP3    H230763   3.559   5.550  18.648 -0.7787 -0.9748 -0.2493
 2190TIP3   OH230764   3.824   5.258  19.862  0.0161  0.9922 -0.3828
 2190TIP3    H130765   3.804   5.221  19.777 -0.9970  1.5366 -0.4026
 2190TIP3    H230766   3.819   5.184  19.923 -1.9525  1.0511 -0.4199
 2191TIP3   OH230767   4.876   3.489  17.861 -0.6963 -0.1259  0.0428
 2191TIP3    H130768   4.865   3.498  17.956  0.7308  0.0072  0.2032
 2191TIP3    H230769   4.970   3.490  17.847 -0.8933 -0.0438 -1.4013
 2192TIP3   OH230770   1.777   3.045  19.763 -0.0056 -0.3785  0.0349
 2192TIP3    H130771   1.748   2.988  19.835  1.1994 -2.3328 -0.9379
 2192TIP3    H230772   1.841   2.992  19.715  0.3041  1.4063 -1.6360
 2193TIP3   OH230773   0.571   1.310  18.197 -0.3324 -0.3158 -0.3413
 2193TIP3    H130774   0.584   1.222  18.163 -0.8756 -1.6047  2.4923
 2193TIP3    H230775   0.624   1.314  18.276 -3.1886  0.4878  1.6988
 2194TIP3   OH230776   2.106   3.839  18.479 -0.6012 -0.4379  0.2007
 2194TIP3    H130777   2.150   3.909  18.431 -0.6319  1.1500  2.3179
 2194TIP3    H230778   2.014   3.847  18.452 -0.7778  1.0234  1.0958
 2195TIP3   OH230779   2.378   1.764  17.330  0.2228 -0.2185 -0.2714
 2195TIP3    H130780   2.310   1.699  17.346 -0.9064  0.6677 -1.2675
 2195TIP3    H230781   2.366   1.790  17.239  0.1986  1.8260  0.2512
 2196TIP3   OH230782   2.117   4.236  19.076 -0.2323 -0.2192  0.0106
 2196TIP3    H130783   2.084   4.149  19.099  0.6370 -0.7264 -0.5968
 2196TIP3    H230784   2.194   4.248  19.131  0.2187 -0.2584 -0.5991
 2197TIP3   OH230785   6.602   6.688  19.650 -0.1593 -0.1658 -0.2416
 2197TIP3    H130786   6.685   6.711  19.607 -0.8248  0.8306 -1.0287
 2197TIP3    H230787   6.562   6.624  19.592  0.1008 -0.7458  0.2042
 2198TIP3   OH230788   5.923   6.605  19.997 -0.1420 -0.3448  0.5863
 2198TIP3    H130789   5.865   6.529  19.996  0.3746 -0.8008  1.9812
 2198TIP3    H230790   5.865   6.680  19.991 -0.8800 -0.8051  1.6950
 2199TIP3   OH230791   2.292   1.360  18.425 -0.6180  0.3004  0.2699
 2199TIP3    H130792   2.339   1.421  18.481 -2.7506  2.5408 -0.2150
 2199TIP3    H230793   2.202   1.363  18.458 -1.3441 -0.4540 -1.5494
 2200TIP3   OH230794   4.671   2.007  18.738 -0.4007  0.1747  0.5961
 2200TIP3    H130795   4.715   1.995  18.823 -0.5325 -1.5182  0.4575
 2200TIP3    H230796   4.591   2.055  18.760 -0.6629 -0.6459  1.5179
 2201TIP3   OH230797   0.777   3.924  19.883 -0.1817  0.2061 -0.1858
 2201TIP3    H130798   0.797   3.836  19.914  1.2132  0.5519 -0.0012
 2201TIP3    H230799   0.738   3.968  19.958  0.7698  0.2546  0.3066
 2202TIP3   OH230800   6.646   2.697  18.894 -0.3407 -0.5033  0.2045
 2202TIP3    H130801   6.721   2.702  18.953 -0.4276 -0.2143  0.2959
 2202TIP3    H230802   6.647   2.782  18.848 -0.7673 -0.3914  0.3991
 2203TIP3   OH230803   1.128   4.103  19.691  0.1166 -0.6239 -0.4787
 2203TIP3    H130804   1.061   4.139  19.749  1.8965  1.1442  0.6181
 2203TIP3    H230805   1.150   4.176  19.632  0.9242 -1.2332 -0.9598
 2204TIP3   OH230806   1.455   6.529  17.482  0.5025  0.4080  0.8793
 2204TIP3    H130807   1.489   6.582  17.410  0.6635  0.7858  1.2365
 2204TIP3    H230808   1.531   6.510  17.537  0.6406 -1.0100  0.2536
 2205TIP3   OH230809   2.155   2.968  19.383  0.3208  0.0170 -0.0762
 2205TIP3    H130810   2.078   2.975  19.326  0.4944  0.6056 -0.2465
 2205TIP3    H230811   2.229   2.986  19.324  0.6400 -1.0534 -0.0348
 2206TIP3   OH230812   6.456   3.887  18.006  0.7376 -0.0906 -0.5743
 2206TIP3    H130813   6.445   3.889  17.911 -0.4696 -0.6326 -0.4656
 2206TIP3    H230814   6.537   3.838  18.020 -0.9968 -3.4299 -1.2405
 2207TIP3   OH230815   3.589   5.100  20.191 -0.1863 -0.9027 -0.0451
 2207TIP3    H130816   3.519   5.160  20.165  0.8042 -0.2387 -1.3023
 2207TIP3    H230817   3.582   5.095  20.286 -1.0262  0.2989 -0.0200
 2208TIP3   OH230818   6.543   4.300  19.148 -0.3112 -0.3452 -0.2615
 2208TIP3    H130819   6.541   4.381  19.199  0.7306 -0.7020  0.3801
 2208TIP3    H230820   6.540   4.329  19.057 -3.7317  0.2577 -0.0813
 2209TIP3   OH230821   1.216   6.467  18.341  0.0402  0.2568  0.1741
 2209TIP3    H130822   1.247   6.383  18.305  3.1722  1.4269 -0.2190
 2209TIP3    H230823   1.121   6.458  18.344  0.1868 -2.9712 -0.6613
 2210TIP3   OH230824   4.225   0.033  16.668  0.2202 -0.1322  0.0870
 2210TIP3    H130825   4.149   0.030  16.727  1.0861 -0.5029  1.2385
 2210TIP3    H230826   4.211  -0.039  16.607  1.0046 -2.0899  2.0879
 2211TIP3   OH230827   4.774   4.952  18.057  0.2438 -0.0081 -0.2099
 2211TIP3    H130828   4.708   5.022  18.056  0.9399  0.6629 -0.3414
 2211TIP3    H230829   4.767   4.911  17.971  0.6965  0.7401 -0.6103
 2212TIP3   OH230830   2.753   1.912  17.007  0.3155  0.5257 -0.8299
 2212TIP3    H130831   2.741   1.821  17.032 -0.8223  1.1542  1.1170
 2212TIP3    H230832   2.703   1.921  16.925  0.9800 -0.7169 -1.4028
 2213TIP3   OH230833   3.796   2.071  20.483  0.0529  0.2873 -0.1611
 2213TIP3    H130834   3.719   2.066  20.540  0.3020  0.7426  0.2270
 2213TIP3    H230835   3.775   2.015  20.409 -0.3220 -0.2350  0.3281
 2214TIP3   OH230836   0.221   2.451  19.552 -0.4006  0.6034 -0.0939
 2214TIP3    H130837   0.139   2.456  19.601  0.2444  1.3290  0.9338
 2214TIP3    H230838   0.203   2.387  19.483 -1.3772 -0.3092  0.9695
 2215TIP3   OH230839   6.130   3.257  17.641 -0.0021 -0.2480  0.7338
 2215TIP3    H130840   6.087   3.205  17.708 -0.8952 -2.2685 -1.2679
 2215TIP3    H230841   6.081   3.340  17.640 -1.7779 -1.2465  0.7408
 2216TIP3   OH230842   5.521   3.804  18.611 -0.5866 -0.5181  0.1679
 2216TIP3    H130843   5.610   3.817  18.577  0.1769 -0.7759  1.9538
 2216TIP3    H230844   5.512   3.709  18.619 -0.4765 -0.4479  1.2915
 2217TIP3   OH230845   4.289   2.389  17.757  0.7430 -0.0658 -0.0800
 2217TIP3    H130846   4.243   2.344  17.686  0.3180 -1.5286  1.0836
 2217TIP3    H230847   4.382   2.381  17.734  0.8675 -3.4910  1.1049
 2218TIP3   OH230848   6.540   3.250  17.442  0.2077 -0.2906 -0.1889
 2218TIP3    H130849   6.552   3.155  17.445  3.0209 -0.0263  0.2688
 2218TIP3    H230850   6.522   3.274  17.533  1.7259 -0.2354  0.1337
 2219TIP3   OH230851   1.020   3.058  20.002  0.1210  0.1005  0.0157
 2219TIP3    H130852   1.051   3.068  19.912 -3.5017  0.1850 -1.4062
 2219TIP3    H230853   0.944   3.000  19.995 -1.1253  1.1981  2.8096
 2220TIP3   OH230854   2.360   0.237  17.801  0.0465 -0.7950 -0.3003
 2220TIP3    H130855   2.353   0.303  17.732  1.6829  0.2774  0.5007
 2220TIP3    H230856   2.281   0.184  17.792 -1.7069  1.7256 -0.4952
 2221TIP3   OH230857   3.403   4.729  18.750 -0.0641 -0.7896  0.6601
 2221TIP3    H130858   3.326   4.676  18.769 -0.9268  0.2350  0.1410
 2221TIP3    H230859   3.430   4.764  18.835  0.2541 -1.6959  0.9413
 2222TIP3   OH230860   0.592   1.806  19.543  0.7787  0.0696 -0.1597
 2222TIP3    H130861   0.626   1.874  19.485  1.0875 -0.7108 -0.9117
 2222TIP3    H230862   0.601   1.842  19.631 -0.2609  1.5284 -0.6187
 2223TIP3   OH230863   5.746   5.252  18.053  0.0133  0.7845 -0.1609
 2223TIP3    H130864   5.680   5.301  18.005 -0.3039  2.3209  1.7309
 2223TIP3    H230865   5.828   5.271  18.007 -0.5861  0.1270 -1.5764
 2224TIP3   OH230866   4.773   1.926  19.011 -0.7557  0.6005  0.6544
 2224TIP3    H130867   4.746   1.993  19.074 -0.2980  1.3413  0.0750
 2224TIP3    H230868   4.833   1.870  19.061 -0.3210  1.2363  0.8558
 2225TIP3   OH230869   2.459   4.765  20.277  0.2079  0.0197 -0.5467
 2225TIP3    H130870   2.529   4.771  20.342 -0.0403  0.8363 -0.3456
 2225TIP3    H230871   2.503   4.780  20.193  0.1659  1.3161 -0.3537
 2226TIP3   OH230872   4.658   3.893  19.752  0.5404 -0.0311  0.7221
 2226TIP3    H130873   4.699   3.875  19.667 -0.9936 -0.7764  0.0919
 2226TIP3    H230874   4.637   3.986  19.750 -0.0833 -0.1728 -0.0255
 2227TIP3   OH230875   0.422   3.640  19.134  0.3442 -0.2009 -0.7470
 2227TIP3    H130876   0.327   3.633  19.123  0.5012 -0.9435 -1.7309
 2227TIP3    H230877   0.443   3.576  19.202  0.3395 -1.2526 -1.7133
 2228TIP3   OH230878   2.400   6.105  17.916 -0.5983  0.6631  0.1201
 2228TIP3    H130879   2.387   6.078  17.825 -0.1281 -0.3305  0.3367
 2228TIP3    H230880   2.465   6.175  17.910 -0.6844  0.7113 -0.3195
 2229TIP3   OH230881   2.259   2.319  18.656  0.3671  0.2131 -0.0941
 2229TIP3    H130882   2.301   2.263  18.721  1.4339  1.0080 -0.0799
 2229TIP3    H230883   2.312   2.308  18.577 -1.0974 -0.9859 -0.9687
 2230TIP3   OH230884   5.231   4.237  17.689 -0.7908 -0.0746 -0.2573
 2230TIP3    H130885   5.142   4.250  17.657 -0.8657  0.1910  0.0559
 2230TIP3    H230886   5.226   4.257  17.782 -0.1596  1.1094 -0.4633
 2231TIP3   OH230887   0.512   1.078  18.084  0.3680 -0.0791 -0.2618
 2231TIP3    H130888   0.488   1.023  18.009  0.3845 -0.9810  0.3827
 2231TIP3    H230889   0.430   1.090  18.132  0.7011 -1.0796  0.5884
 2232TIP3   OH230890   1.951   0.565  17.708 -0.4457 -0.4072 -0.1600
 2232TIP3    H130891   1.909   0.554  17.793  0.0035 -0.5109  0.0567
 2232TIP3    H230892   1.934   0.656  17.684 -1.3631 -0.6324 -0.3980
 2233TIP3   OH230893   1.130   6.170  18.743 -0.3095 -0.3061  0.1244
 2233TIP3    H130894   1.199   6.230  18.715  0.3354 -0.7253  0.8069
 2233TIP3    H230895   1.067   6.171  18.670 -0.4246  1.3494  0.2086
 2234TIP3   OH230896   5.436   5.782  17.909  0.2143 -0.2411  0.3018
 2234TIP3    H130897   5.368   5.838  17.874  2.9269  2.6101 -0.8913
 2234TIP3    H230898   5.459   5.724  17.836 -0.8185 -1.1680  0.6892
 2235TIP3   OH230899   5.717   4.302  17.488  0.3935  0.4064  0.3396
 2235TIP3    H130900   5.691   4.389  17.518 -0.4718  0.0406  0.6876
 2235TIP3    H230901   5.637   4.250  17.493  0.5801 -0.0670 -1.1619
 2236TIP3   OH230902   5.703   0.276  19.350  0.3396  0.5677 -0.0361
 2236TIP3    H130903   5.663   0.363  19.347  0.1148  0.4517 -0.4718
 2236TIP3    H230904   5.732   0.267  19.440  1.7066  1.6896 -0.3295
 2237TIP3   OH230905   2.925   2.514  20.161 -0.1261  0.0527 -0.6696
 2237TIP3    H130906   2.879   2.450  20.215 -1.6068  0.4238 -1.4367
 2237TIP3    H230907   2.956   2.580  20.223 -0.3131 -0.4051 -0.0868
 2238TIP3   OH230908   1.644   0.714  16.553  0.0066 -0.0745  0.0029
 2238TIP3    H130909   1.592   0.794  16.553  0.3592  0.2560  2.7306
 2238TIP3    H230910   1.583   0.645  16.527 -0.8013  0.8079 -0.4869
 2239TIP3   OH230911   6.455   0.291  17.735 -0.3475  0.1143 -0.5333
 2239TIP3    H130912   6.522   0.299  17.802  0.7460  2.3436 -1.7674
 2239TIP3    H230913   6.373   0.285  17.783  0.5396 -0.2327  0.9885
 2240TIP3   OH230914   3.396   3.412  17.973 -0.0381  0.1729 -0.1204
 2240TIP3    H130915   3.454   3.434  18.046  1.3953 -1.9996 -0.5112
 2240TIP3    H230916   3.355   3.495  17.949 -0.3249  1.0215  2.9177
 2241TIP3   OH230917   5.434   2.119  18.108 -0.0347  0.0597 -0.0622
 2241TIP3    H130918   5.414   2.176  18.182  0.1103 -2.1294  1.7936
 2241TIP3    H230919   5.405   2.032  18.136  0.0557 -0.8787 -2.5984
 2242TIP3   OH230920   5.265   3.701  19.944  0.2890 -0.5022  0.0369
 2242TIP3    H130921   5.196   3.653  19.990 -0.2734 -0.6331 -0.9200
 2242TIP3    H230922   5.258   3.672  19.853 -0.6774  1.9925 -0.7966
 2243TIP3   OH230923   4.164   4.963  17.863  0.5546  0.0307  0.1634
 2243TIP3    H130924   4.244   4.950  17.812  0.2754  1.2476 -0.6420
 2243TIP3    H230925   4.187   4.934  17.952  2.4217  1.7638  0.3421
 2244TIP3   OH230926   5.535   2.800  18.930  0.4279 -0.0922 -0.3695
 2244TIP3    H130927   5.526   2.709  18.959  0.5354 -0.2116 -0.7148
 2244TIP3    H230928   5.446   2.835  18.932  0.1554 -0.6718 -1.7836
 2245TIP3   OH230929   2.386   2.230  17.224  0.3482  0.1732  0.0229
 2245TIP3    H130930   2.390   2.230  17.128  1.3145 -1.1145  0.0373
 2245TIP3    H230931   2.459   2.174  17.251 -0.8128 -0.7188  1.4666
 2246TIP3   OH230932   0.225   4.407  18.546 -0.0515 -0.3560 -0.1185
 2246TIP3    H130933   0.314   4.437  18.564 -0.7735  1.3105  0.9593
 2246TIP3    H230934   0.215   4.328  18.599  1.1085 -1.2218 -1.1153
 2247TIP3   OH230935   0.643   5.506  18.075  0.2046 -0.1345  0.1989
 2247TIP3    H130936   0.590   5.571  18.028  1.1521  0.1693 -0.4887
 2247TIP3    H230937   0.697   5.558  18.134 -2.0056 -0.5811  2.8434
 2248TIP3   OH230938   2.837   5.392  19.075  0.0755  0.2798  0.7980
 2248TIP3    H130939   2.895   5.461  19.108  1.6135 -0.7391  0.3273
 2248TIP3    H230940   2.887   5.350  19.005 -2.2942  1.0936 -1.5557
 2249TIP3   OH230941   4.393   3.390  19.800 -0.1852  0.7622  0.2261
 2249TIP3    H130942   4.452   3.355  19.733 -0.9595 -0.6856  0.2516
 2249TIP3    H230943   4.399   3.327  19.873 -1.0718  1.0587  0.5780
 2250TIP3   OH230944   0.042   1.660  19.607 -0.0581 -0.1687 -0.2879
 2250TIP3    H130945   0.073   1.676  19.518  3.1945 -2.9077  0.1592
 2250TIP3    H230946  -0.030   1.598  19.596 -0.9943  0.9897 -1.0161
 2251TIP3   OH230947   5.171   0.790  17.927 -0.3382  0.0874  0.6523
 2251TIP3    H130948   5.162   0.746  18.011  0.8247 -1.5831 -0.0366
 2251TIP3    H230949   5.089   0.769  17.881 -1.4335  1.8579  1.6701
 2252TIP3   OH230950   6.059   6.206  17.934 -0.2979 -0.0727  0.4660
 2252TIP3    H130951   6.101   6.289  17.956 -0.8571  0.6501 -1.0769
 2252TIP3    H230952   5.966   6.224  17.939 -0.4587  0.0089 -1.8708
 2253TIP3   OH230953   6.411   2.851  20.516  0.6696 -0.6876 -0.1674
 2253TIP3    H130954   6.482   2.853  20.452  2.8467 -1.9105  2.0826
 2253TIP3    H230955   6.343   2.798  20.473  2.5412 -2.5156 -1.0302
 2254TIP3   OH230956   3.741   4.307  19.966  0.5065  0.4059  0.3446
 2254TIP3    H130957   3.789   4.284  19.887 -0.0396  0.7457 -0.0927
 2254TIP3    H230958   3.688   4.382  19.941 -0.7443 -0.3597  0.6230
 2255TIP3   OH230959   2.874   1.876  20.067 -0.0219  0.4298 -0.1770
 2255TIP3    H130960   2.841   1.833  19.988 -0.8167 -0.3860  0.5555
 2255TIP3    H230961   2.887   1.803  20.129  1.0093  1.0020  0.2967
 2256TIP3   OH230962   5.363   6.065  16.813  0.4207 -0.1794  0.0346
 2256TIP3    H130963   5.339   6.145  16.767 -2.8346  0.6788  2.8154
 2256TIP3    H230964   5.308   5.997  16.774  1.3703 -0.5792 -0.6509
 2257TIP3   OH230965   1.313   2.307  20.206 -0.2012 -0.0906  0.3780
 2257TIP3    H130966   1.277   2.367  20.140 -0.1305 -0.0106  0.4126
 2257TIP3    H230967   1.246   2.239  20.214  0.1397 -0.5350 -0.3703
 2258TIP3   OH230968   3.172   0.138  17.530 -0.1742 -0.0708  0.0090
 2258TIP3    H130969   3.230   0.199  17.486  0.7141 -0.3208  0.7954
 2258TIP3    H230970   3.116   0.103  17.460  0.6095  0.1876 -0.7679
 2259TIP3   OH230971   2.123   6.587  16.514  0.1725 -0.1899 -0.0496
 2259TIP3    H130972   2.118   6.505  16.464 -0.5598 -0.8432  1.0433
 2259TIP3    H230973   2.035   6.598  16.551  0.3315  0.9648  0.0314
 2260TIP3   OH230974   0.328   3.690  20.239 -0.1583  0.3597 -0.6277
 2260TIP3    H130975   0.367   3.631  20.303  0.6107  2.1204  0.6019
 2260TIP3    H230976   0.311   3.634  20.163 -2.5395 -2.1626  1.5535
 2261TIP3   OH230977   5.477   2.627  17.438 -0.6822 -0.2055  0.1531
 2261TIP3    H130978   5.390   2.605  17.471 -0.2290 -1.7538  0.3922
 2261TIP3    H230979   5.516   2.543  17.415  1.3064  0.2802  1.4407
 2262TIP3   OH230980   2.512   2.961  18.569 -0.4798  0.0099  0.2854
 2262TIP3    H130981   2.453   2.893  18.537 -0.3036  0.9913 -2.3424
 2262TIP3    H230982   2.463   3.004  18.640 -1.8372 -0.8679 -0.0890
 2263TIP3   OH230983   5.958   0.580  18.540 -0.1963 -0.5121 -0.4508
 2263TIP3    H130984   6.042   0.539  18.560 -1.0509 -1.8982  0.4777
 2263TIP3    H230985   5.944   0.562  18.448 -0.1492 -1.5724 -0.2608
 2264TIP3   OH230986   5.650   6.087  17.809 -0.1917 -0.1263 -0.1869
 2264TIP3    H130987   5.637   6.055  17.720 -0.3861  0.6737 -0.4541
 2264TIP3    H230988   5.713   6.159  17.800  0.9125 -0.9518  0.5097
 2265TIP3   OH230989   1.517   0.188  17.575  0.3963  0.4344  0.3187
 2265TIP3    H130990   1.608   0.195  17.605 -0.3164  2.7461  2.3053
 2265TIP3    H230991   1.479   0.117  17.628  0.6493  0.5865  0.7124
 2266TIP3   OH230992   0.958   1.044  20.221 -0.8094  0.4400  0.5576
 2266TIP3    H130993   0.941   1.084  20.307 -1.1609  1.3477  0.0856
 2266TIP3    H230994   0.972   1.119  20.163  1.2961 -0.2016  0.1765
 2267TIP3   OH230995   6.297   6.282  16.325  0.0324 -0.2161  0.6715
 2267TIP3    H130996   6.349   6.202  16.324 -0.7922 -0.7573  0.8543
 2267TIP3    H230997   6.353   6.347  16.283 -0.2827 -1.4965 -1.8646
 2268TIP3   OH230998   4.657   6.437  18.182  0.0096 -0.1585  0.6303
 2268TIP3    H130999   4.602   6.386  18.242 -0.2722  2.9339  3.3122
 2268TIP3    H231000   4.597   6.497  18.139  0.6716 -0.1654 -0.3369
 2269TIP3   OH231001   2.009   6.406  19.805 -0.7802  0.0424 -0.0410
 2269TIP3    H131002   2.105   6.409  19.800 -0.7525 -1.0392 -0.6436
 2269TIP3    H231003   1.984   6.345  19.735 -2.0038  1.2939 -0.7442
 2270TIP3   OH231004   3.276   2.269  19.381  0.3986 -0.8159 -0.1561
 2270TIP3    H131005   3.259   2.180  19.349 -0.3683 -0.8483  0.3227
 2270TIP3    H231006   3.189   2.306  19.397  0.7300 -0.2836  0.4574
 2271TIP3   OH231007   1.273   5.492  18.234 -0.0907 -0.8073 -0.1014
 2271TIP3    H131008   1.303   5.401  18.226 -1.2145 -1.2158  0.2427
 2271TIP3    H231009   1.264   5.522  18.144 -0.3551 -1.2514 -0.2240
 2272TIP3   OH231010   2.841   4.603  18.219  0.3113 -0.3034 -0.0656
 2272TIP3    H131011   2.751   4.633  18.207 -0.1672 -0.4066  2.6963
 2272TIP3    H231012   2.894   4.683  18.216 -0.1290  0.0100  0.4171
 2273TIP3   OH231013   1.850   1.949  18.147  0.1788  0.0872  0.0008
 2273TIP3    H131014   1.934   1.962  18.191  0.8056  0.9782 -1.3806
 2273TIP3    H231015   1.873   1.933  18.055 -1.1432  0.0201 -0.3400
 2274TIP3   OH231016   0.176   0.385  15.968  0.4956  0.2935 -0.2477
 2274TIP3    H131017   0.125   0.412  15.892 -0.1222  0.6606  0.2933
 2274TIP3    H231018   0.265   0.417  15.949  0.6346 -0.6457 -1.3478
 2275TIP3   OH231019   4.852   6.317  19.223  0.1587  0.3937 -0.5441
 2275TIP3    H131020   4.790   6.245  19.219  1.1242 -0.4889  0.0006
 2275TIP3    H231021   4.934   6.277  19.251  1.4533  1.2146 -2.8750
 2276TIP3   OH231022   0.677   1.151  19.512  0.3151 -0.2175 -0.7388
 2276TIP3    H131023   0.713   1.201  19.439 -1.0072 -1.2599 -2.1765
 2276TIP3    H231024   0.634   1.217  19.567  3.2329  0.8823  0.4054
 2277TIP3   OH231025   5.679   0.732  17.056 -0.1564  0.2372  0.6804
 2277TIP3    H131026   5.760   0.686  17.079  0.1011 -0.4070 -1.3119
 2277TIP3    H231027   5.620   0.662  17.027 -0.0992  0.9921 -1.4555
 2278TIP3   OH231028   0.411   4.595  19.936 -0.1358 -0.1563 -0.5130
 2278TIP3    H131029   0.466   4.673  19.933  2.4809 -1.8068  1.0215
 2278TIP3    H231030   0.472   4.522  19.923 -1.9882 -2.0985  1.0243
 2279TIP3   OH231031   1.069   2.448  19.281  0.4106 -0.2972 -0.2409
 2279TIP3    H131032   1.076   2.476  19.373  1.0232 -3.4289  0.7703
 2279TIP3    H231033   0.976   2.432  19.268  0.5626 -2.1466  0.6582
 2280TIP3   OH231034   5.953   3.502  17.380  0.0612  0.0145  0.6807
 2280TIP3    H131035   6.009   3.527  17.306  3.3397 -1.3745  2.4436
 2280TIP3    H231036   5.903   3.427  17.348 -1.1116  1.4765 -1.0649
 2281TIP3   OH231037   0.307   4.988  19.272 -0.0232 -0.2802 -0.3236
 2281TIP3    H131038   0.318   4.916  19.211 -1.2980  0.1453 -1.1176
 2281TIP3    H231039   0.262   4.950  19.347  1.0025 -0.6829  0.0938
 2282TIP3   OH231040   1.153   0.847  17.500  0.9624  0.5323  0.4439
 2282TIP3    H131041   1.142   0.850  17.405  1.1332 -0.6998  0.3624
 2282TIP3    H231042   1.221   0.911  17.519  0.6261  1.0882 -0.2121
 2283TIP3   OH231043   4.764   5.234  19.336  0.1880  0.0970  0.1773
 2283TIP3    H131044   4.676   5.249  19.302  0.8914  1.8022 -1.0100
 2283TIP3    H231045   4.798   5.161  19.285 -0.9603 -1.4569  1.5390
 2284TIP3   OH231046   6.229   4.664  19.077 -0.1424  0.0386  0.7607
 2284TIP3    H131047   6.317   4.633  19.093 -0.0797 -0.4068 -0.3917
 2284TIP3    H231048   6.184   4.654  19.161  0.9759  0.5616  1.4375
 2285TIP3   OH231049   0.161   5.433  18.096 -0.0476  0.0368  0.5059
 2285TIP3    H131050   0.072   5.410  18.070 -0.0697 -0.6585  1.1665
 2285TIP3    H231051   0.156   5.526  18.118 -0.2737  0.3702 -0.8302
 2286TIP3   OH231052   0.670   4.069  17.143  0.0577  0.5125 -0.4662
 2286TIP3    H131053   0.730   3.996  17.123  0.9499  1.2264 -0.4599
 2286TIP3    H231054   0.712   4.146  17.105 -0.1487  1.2668  0.7715
 2287TIP3   OH231055   4.993   3.719  20.250 -0.1424  0.0985  0.4932
 2287TIP3    H131056   4.996   3.628  20.279 -0.3156 -0.1359 -0.1965
 2287TIP3    H231057   4.920   3.722  20.188  0.2408  0.5700  0.0529
 2288TIP3   OH231058   3.124   1.770  17.016 -0.1276 -0.7665  0.4367
 2288TIP3    H131059   3.090   1.681  17.007  1.7605 -1.4277 -0.7951
 2288TIP3    H231060   3.115   1.808  16.929 -1.1116  0.3601  1.0015
 2289TIP3   OH231061   4.664   6.148  16.533  0.5937 -0.4850  0.4041
 2289TIP3    H131062   4.626   6.068  16.571 -0.8234 -0.1777 -0.2964
 2289TIP3    H231063   4.588   6.200  16.506  1.4744 -0.5108 -2.4686
 2290TIP3   OH231064   5.964   6.224  17.302  0.2797  0.3928 -0.2142
 2290TIP3    H131065   5.969   6.272  17.219  1.3751  0.1640 -0.2882
 2290TIP3    H231066   6.052   6.230  17.339 -0.5650  1.9309  1.7573
 2291TIP3   OH231067   2.287   5.967  18.307 -0.1384 -0.3309 -0.2753
 2291TIP3    H131068   2.300   6.046  18.359 -0.9926 -0.4760  0.1717
 2291TIP3    H231069   2.192   5.955  18.304 -0.0098 -1.5525 -0.0261
 2292TIP3   OH231070   2.980   5.795  18.968  0.0519  0.5159  0.3235
 2292TIP3    H131071   3.073   5.810  18.952  0.1015 -0.3711 -0.2890
 2292TIP3    H231072   2.938   5.879  18.951  0.5188  0.4448 -1.3358
 2293TIP3   OH231073   2.269   2.800  19.572  0.0692  0.0963  0.1956
 2293TIP3    H131074   2.255   2.707  19.553 -1.0743  0.2376  0.2852
 2293TIP3    H231075   2.246   2.845  19.491  1.3220  0.2718 -0.0878
 2294TIP3   OH231076   0.271   0.630  19.516  0.0892 -0.2476 -0.1357
 2294TIP3    H131077   0.273   0.595  19.427  2.8010 -2.9033  0.8384
 2294TIP3    H231078   0.337   0.699  19.516  0.4452 -0.5877 -0.0582
 2295TIP3   OH231079   0.873   3.331  19.766  0.0525 -0.0856  0.2635
 2295TIP3    H131080   0.788   3.311  19.806 -0.5452  2.3231  0.3381
 2295TIP3    H231081   0.925   3.369  19.837  1.1839 -1.3900  0.1793
 2296TIP3   OH231082   6.321   1.586  19.910 -0.4081  0.1745  0.3062
 2296TIP3    H131083   6.294   1.587  19.818 -0.3004  0.1960  0.2757
 2296TIP3    H231084   6.417   1.592  19.907 -0.4505  1.1371  0.4380
 2297TIP3   OH231085   4.440   3.413  19.126 -0.2366  0.1071 -0.4993
 2297TIP3    H131086   4.526   3.370  19.124 -0.0094  0.5570 -1.7293
 2297TIP3    H231087   4.384   3.353  19.174 -0.4069 -2.6051 -3.6734
 2298TIP3   OH231088   2.454   5.139  18.347 -0.7193 -0.2044 -0.2821
 2298TIP3    H131089   2.549   5.145  18.359 -0.6969 -0.2054 -0.4568
 2298TIP3    H231090   2.418   5.153  18.435 -0.5942  0.6167 -0.3554
 2299TIP3   OH231091   1.328   0.483  17.620 -0.6571  0.4841 -0.3170
 2299TIP3    H131092   1.335   0.564  17.670  0.3581 -1.5965  3.2973
 2299TIP3    H231093   1.418   0.458  17.601 -0.8143 -0.7061  0.3763
 2300TIP3   OH231094   0.463   1.782  17.673 -0.0172 -0.4837 -0.4883
 2300TIP3    H131095   0.378   1.745  17.693 -0.4636 -0.0140 -1.4417
 2300TIP3    H231096   0.525   1.710  17.686 -0.6005 -0.9355 -0.1933
 2301TIP3   OH231097   2.329   5.277  19.790  0.2298  0.3801 -0.3244
 2301TIP3    H131098   2.356   5.364  19.818 -0.9772  0.0968  2.0067
 2301TIP3    H231099   2.386   5.257  19.715  0.1606  3.3346 -1.2859
 2302TIP3   OH231100   3.325   1.225  18.501  0.1771 -0.9247 -0.2342
 2302TIP3    H131101   3.291   1.174  18.574 -0.2555  0.4567  0.5725
 2302TIP3    H231102   3.412   1.252  18.529  0.3012 -0.9994 -0.5427
 2303TIP3   OH231103   0.146   3.373  16.751 -0.5574  0.2154 -0.1377
 2303TIP3    H131104   0.217   3.399  16.810 -0.6967  1.1083 -0.3507
 2303TIP3    H231105   0.174   3.290  16.714  0.5580  0.7590 -0.5303
 2304TIP3   OH231106   2.700   4.356  20.153  0.3845  0.1116  0.1609
 2304TIP3    H131107   2.664   4.314  20.074  0.5498  0.0558  0.1158
 2304TIP3    H231108   2.789   4.322  20.159  0.2111 -0.2739  0.6523
 2305TIP3   OH231109   6.021   0.900  17.963  0.1410 -0.1146  0.3938
 2305TIP3    H131110   5.981   0.959  18.026 -0.0756  0.4057 -0.2131
 2305TIP3    H231111   6.090   0.952  17.922 -2.1418  0.9027 -2.4872
 2306TIP3   OH231112   2.403   4.678  17.731 -0.1597  0.3135  0.6310
 2306TIP3    H131113   2.347   4.637  17.664 -2.1759  3.5818  0.1160
 2306TIP3    H231114   2.373   4.640  17.813 -1.0328 -0.2226  0.0842
 2307TIP3   OH231115   4.888   1.022  19.365 -0.1771  0.3863 -0.0242
 2307TIP3    H131116   4.908   1.045  19.456 -0.4743 -0.3076  0.2249
 2307TIP3    H231117   4.873   1.106  19.322  0.2102  0.7359  0.5088
 2308TIP3   OH231118   4.015   0.714  18.984  0.7086 -0.1902  0.0630
 2308TIP3    H131119   4.088   0.737  18.927 -0.2603 -0.4339 -1.3234
 2308TIP3    H231120   4.012   0.618  18.982 -0.2299 -0.1637 -0.6932
 2309TIP3   OH231121   5.396   5.603  19.386 -0.3988 -0.2587 -0.4337
 2309TIP3    H131122   5.479   5.558  19.374  0.7688  0.9366  2.3566
 2309TIP3    H231123   5.384   5.653  19.305  1.0561 -1.2261 -1.2970
 2310TIP3   OH231124   1.343   0.321  18.609 -0.2548 -0.1185 -0.3366
 2310TIP3    H131125   1.373   0.231  18.592 -2.2027 -1.1040  1.1164
 2310TIP3    H231126   1.364   0.368  18.529  0.9825 -1.8162 -1.0810
 2311TIP3   OH231127   5.671   0.778  17.682  0.2306  0.7233 -0.1885
 2311TIP3    H131128   5.759   0.816  17.679  0.7761 -0.5328 -2.9380
 2311TIP3    H231129   5.685   0.685  17.695 -0.8151  0.6677  0.7707
 2312TIP3   OH231130   6.019   3.369  17.997  0.7382 -0.0717 -0.2990
 2312TIP3    H131131   5.929   3.349  17.970  0.2611 -0.6511  1.5215
 2312TIP3    H231132   6.069   3.291  17.976  0.4706 -0.3370  0.0162
 2313TIP3   OH231133   1.959   5.355  19.844 -0.0701 -0.1847  0.0079
 2313TIP3    H131134   1.891   5.367  19.910 -1.2299 -1.0193 -0.9737
 2313TIP3    H231135   2.040   5.344  19.893 -0.5927  1.1542  1.2049
 2314TIP3   OH231136   5.986   2.834  19.550  0.1545 -0.3374 -0.4504
 2314TIP3    H131137   6.029   2.919  19.562  2.3015 -1.4134  0.0896
 2314TIP3    H231138   5.894   2.855  19.537  0.2249  1.9526  1.9283
 2315TIP3   OH231139   5.400   6.635  17.432  0.3613  0.6051 -0.0856
 2315TIP3    H131140   5.402   6.714  17.378 -1.8516  1.2752  0.6808
 2315TIP3    H231141   5.341   6.657  17.504  1.4203 -1.0424  1.3491
 2316TIP3   OH231142   6.199   6.408  16.548  0.5321 -0.5262 -0.3809
 2316TIP3    H131143   6.232   6.369  16.467  1.0627 -1.3730  0.2199
 2316TIP3    H231144   6.240   6.357  16.617 -1.2724 -0.9730  0.4213
 2317TIP3   OH231145   5.875   1.588  18.110  0.4278 -0.1102  0.6849
 2317TIP3    H131146   5.902   1.505  18.071 -0.4119 -0.4281  0.7527
 2317TIP3    H231147   5.956   1.634  18.128  0.8747 -0.5143 -0.2341
 2318TIP3   OH231148   2.320   4.352  19.863 -0.7934  0.1127 -0.0541
 2318TIP3    H131149   2.262   4.285  19.897 -1.3918 -0.1911 -1.5951
 2318TIP3    H231150   2.300   4.357  19.770 -0.2110  1.8891 -0.1292
 2319TIP3   OH231151   2.194   3.061  18.191  0.0556  0.0275 -0.8174
 2319TIP3    H131152   2.124   3.003  18.160 -2.1669  2.0119  0.1655
 2319TIP3    H231153   2.192   3.135  18.130  0.5075  0.6365 -0.1114
 2320TIP3   OH231154   2.209   4.909  20.186  0.2347  0.5104  0.2783
 2320TIP3    H131155   2.128   4.861  20.199 -0.9986  2.4632  0.2219
 2320TIP3    H231156   2.258   4.896  20.267 -0.7211  0.3557  0.8457
 2321TIP3   OH231157   1.498   3.895  17.496 -0.1206 -0.0997 -0.0088
 2321TIP3    H131158   1.410   3.933  17.501  0.4554  1.1646  1.7590
 2321TIP3    H231159   1.550   3.960  17.449  0.0741 -0.3957 -0.2050
 2322TIP3   OH231160   1.692   1.651  17.630  0.4335 -0.0608  0.2691
 2322TIP3    H131161   1.715   1.558  17.622  0.9399  0.0464  0.4547
 2322TIP3    H231162   1.773   1.697  17.608  0.4414  0.3200  1.0750
 2323TIP3   OH231163   0.314   5.922  17.269  0.3122 -0.2579 -0.4307
 2323TIP3    H131164   0.376   5.969  17.213  0.4704 -1.3870 -1.2519
 2323TIP3    H231165   0.240   5.902  17.212  0.0543 -0.6060  0.0210
 2324TIP3   OH231166   2.598   3.710  17.627  0.3697 -0.1804  0.1285
 2324TIP3    H131167   2.603   3.638  17.565 -0.2979 -1.3924  1.4309
 2324TIP3    H231168   2.690   3.730  17.647  0.6716  1.2333 -2.2845
 2325TIP3   OH231169   4.502   2.222  20.220  0.1830  0.2463 -0.3017
 2325TIP3    H131170   4.593   2.213  20.250  0.3215 -2.2043 -1.1769
 2325TIP3    H231171   4.461   2.139  20.244 -1.4710  0.8116 -1.0576
 2326TIP3   OH231172   5.693   4.532  20.272 -0.3932 -0.0881 -0.3004
 2326TIP3    H131173   5.689   4.437  20.265  0.5383 -0.1547 -0.1035
 2326TIP3    H231174   5.711   4.548  20.365 -0.3132  0.2713 -0.3756
 2327TIP3   OH231175   1.355   2.528  18.012  0.5953 -0.3576 -0.0719
 2327TIP3    H131176   1.322   2.464  17.949  0.4131  1.9169 -2.4489
 2327TIP3    H231177   1.433   2.487  18.048  0.5213 -1.9176 -1.5249
 2328TIP3   OH231178   1.592   0.815  18.180 -0.1946 -0.3761 -0.1014
 2328TIP3    H131179   1.631   0.739  18.223  2.4388  0.6406 -0.4538
 2328TIP3    H231180   1.582   0.879  18.250  1.6469  0.3771 -0.4718
 2329TIP3   OH231181   0.373   5.235  19.654 -0.5492  0.0342 -0.1554
 2329TIP3    H131182   0.337   5.311  19.700  0.7351  0.2878  0.4633
 2329TIP3    H231183   0.408   5.270  19.572 -1.3671 -0.1633 -0.6079
 2330TIP3   OH231184   5.898   3.502  19.560 -0.2718  0.4470 -0.5812
 2330TIP3    H131185   5.894   3.407  19.548  0.9649  0.4821 -1.4012
 2330TIP3    H231186   5.943   3.514  19.644 -1.2289  0.3229 -0.0260
 2331TIP3   OH231187   5.678   0.401  17.810 -0.0807  0.8473  0.1555
 2331TIP3    H131188   5.715   0.425  17.726  0.6256  0.0760  0.2299
 2331TIP3    H231189   5.679   0.305  17.810 -0.6080  0.8300  0.8145
 2332TIP3   OH231190   0.447   5.067  16.732  0.4618  0.2201 -0.1612
 2332TIP3    H131191   0.513   4.998  16.739  0.4006  0.2947  1.8347
 2332TIP3    H231192   0.373   5.025  16.689  0.4059 -0.9938  1.0593
 2333TIP3   OH231193   4.653   2.283  19.698 -0.2293 -0.0905  0.1060
 2333TIP3    H131194   4.564   2.319  19.706  0.4572  1.5243  0.8433
 2333TIP3    H231195   4.641   2.203  19.646 -2.2307 -0.4072  0.9528
 2334TIP3   OH231196   1.828   4.451  18.591  0.0128  0.2792  0.2679
 2334TIP3    H131197   1.789   4.370  18.624  0.1976  0.5633  1.2231
 2334TIP3    H231198   1.903   4.422  18.538  0.2417 -0.1760  0.8254
 2335TIP3   OH231199   2.860   0.034  16.844  0.0600 -0.3382 -0.4504
 2335TIP3    H131200   2.808   0.114  16.854  1.5446  0.4609  1.3071
 2335TIP3    H231201   2.794  -0.035  16.830 -1.3090  0.9964 -0.8786
 2336TIP3   OH231202   4.466   6.633  19.139  0.4010  0.1759  0.7250
 2336TIP3    H131203   4.519   6.679  19.074 -0.6721 -0.5810 -0.7626
 2336TIP3    H231204   4.496   6.542  19.134  0.7001  0.2134  1.7253
 2337TIP3   OH231205   4.354   2.423  17.457 -0.5391  0.4091  0.1124
 2337TIP3    H131206   4.264   2.408  17.430  0.3961  0.1365 -3.2701
 2337TIP3    H231207   4.371   2.514  17.434  0.1545  0.3764  0.4732
 2338TIP3   OH231208   2.639   0.865  19.147  0.1336 -0.3636 -0.7296
 2338TIP3    H131209   2.709   0.829  19.201  0.2689  0.6147 -0.2489
 2338TIP3    H231210   2.568   0.884  19.208  1.1008  2.8997 -0.4442
 2339TIP3   OH231211   3.560   5.034  17.812  0.1473  0.1572  0.1804
 2339TIP3    H131212   3.535   5.087  17.736  0.3280 -0.2438 -0.1636
 2339TIP3    H231213   3.619   5.090  17.862  0.9495  0.0021 -0.5829
 2340TIP3   OH231214   0.064   4.146  17.459 -0.0154  0.3695  0.2440
 2340TIP3    H131215   0.100   4.153  17.370 -0.2909 -1.8840 -0.0983
 2340TIP3    H231216  -0.020   4.103  17.448  0.4259 -0.9504  1.6684
 2341TIP3   OH231217   1.971   4.790  20.558  0.1837 -0.8794  0.2084
 2341TIP3    H131218   1.906   4.854  20.529 -0.1643 -0.4422  1.8892
 2341TIP3    H231219   1.919   4.712  20.579  0.1620 -0.5340  1.5382
 2342TIP3   OH231220   4.496   1.915  18.287 -0.1329 -0.2424 -0.0887
 2342TIP3    H131221   4.556   1.910  18.361  1.9818  0.3103 -1.6995
 2342TIP3    H231222   4.518   1.840  18.232 -0.8483  0.0333 -0.7731
 2343TIP3   OH231223   0.291   0.651  19.212  0.3055  0.3892 -0.2749
 2343TIP3    H131224   0.210   0.701  19.208 -0.6260 -1.0905 -0.4021
 2343TIP3    H231225   0.359   0.718  19.222 -0.9844  1.6114  0.8817
 2344TIP3   OH231226   5.996   2.741  18.000  0.3346  0.5346 -0.2354
 2344TIP3    H131227   6.048   2.763  18.077 -0.8749  0.0994  0.7304
 2344TIP3    H231228   5.930   2.810  17.996 -0.2044  0.0146 -0.3161
 2345TIP3   OH231229   3.675   0.863  20.156  0.2678 -0.0833  0.4483
 2345TIP3    H131230   3.763   0.896  20.174  0.6905 -1.3589  0.8487
 2345TIP3    H231231   3.685   0.768  20.156 -1.5703 -0.3592  3.0296
 2346TIP3   OH231232   1.301   4.770  16.889  0.0939 -0.1030  0.0963
 2346TIP3    H131233   1.298   4.774  16.984 -0.1084  0.7042  0.0614
 2346TIP3    H231234   1.320   4.678  16.870  0.8841 -0.1254  0.9233
 2347TIP3   OH231235   3.937   5.293  18.971  0.3499  0.4497  0.2520
 2347TIP3    H131236   4.000   5.351  18.929  1.1393 -1.8500 -2.0806
 2347TIP3    H231237   3.860   5.296  18.913  0.1413 -0.2512  0.4823
 2348TIP3   OH231238   2.674   0.062  19.734  0.2494  0.0971  0.0119
 2348TIP3    H131239   2.635   0.035  19.651 -0.2614  0.2118  0.2075
 2348TIP3    H231240   2.727  -0.013  19.762  0.5200  0.1042 -0.4708
 2349TIP3   OH231241   0.742   0.974  17.199 -0.4654  0.2805  0.4474
 2349TIP3    H131242   0.752   0.972  17.103  2.4707  1.3946  0.6295
 2349TIP3    H231243   0.681   1.046  17.215 -0.2561  0.7017 -0.5692
 2350TIP3   OH231244   3.472   1.979  18.976  0.3627 -0.6842  0.3360
 2350TIP3    H131245   3.475   2.041  19.049  1.3372 -0.4444  0.1040
 2350TIP3    H231246   3.539   1.915  18.996  0.1854 -0.9867 -0.0329
 2351TIP3   OH231247   1.892   5.556  18.908  0.1939  0.3857 -0.6330
 2351TIP3    H131248   1.941   5.478  18.933 -1.2129 -0.3726 -0.1271
 2351TIP3    H231249   1.801   5.527  18.901 -0.2157  1.7418 -1.5256
 2352TIP3   OH231250   0.661   5.074  18.221 -0.3507 -0.4728 -0.1311
 2352TIP3    H131251   0.570   5.079  18.251 -0.7884 -0.9472 -1.3018
 2352TIP3    H231252   0.665   5.132  18.145  0.4481 -0.1024  0.1842
 2353TIP3   OH231253   6.183   2.942  17.924 -0.7474  0.2896 -0.4750
 2353TIP3    H131254   6.212   2.884  17.994  0.8411 -0.7335 -1.9093
 2353TIP3    H231255   6.152   2.883  17.855 -0.1084  1.1537 -1.5436
 2354TIP3   OH231256   2.367   1.581  16.940 -0.1275 -0.0107 -0.0138
 2354TIP3    H131257   2.354   1.487  16.932 -0.3853  0.0503 -0.3633
 2354TIP3    H231258   2.278   1.617  16.942 -0.0399  0.3130 -1.0848
 2355TIP3   OH231259   5.993   2.706  18.321 -0.2893 -1.0387  0.7779
 2355TIP3    H131260   6.085   2.732  18.314 -0.5090 -0.0593  1.4315
 2355TIP3    H231261   5.992   2.616  18.288  0.9897 -1.2569  1.2691
 2356TIP3   OH231262   3.376   1.273  18.204 -0.4848 -0.3245  0.2578
 2356TIP3    H131263   3.378   1.210  18.276 -1.2453 -0.8151 -0.1331
 2356TIP3    H231264   3.464   1.311  18.203  0.0494 -1.5084  0.4002
 2357TIP3   OH231265   3.557   1.557  20.056  0.0875  0.3412  0.5019
 2357TIP3    H131266   3.513   1.564  19.972 -2.6423  0.3258  1.8272
 2357TIP3    H231267   3.628   1.494  20.041 -0.7285 -0.1510 -1.6100
 2358TIP3   OH231268   2.742   6.025  20.243 -0.5360 -0.3680 -0.2501
 2358TIP3    H131269   2.657   6.061  20.218 -0.9657 -1.8042 -0.9598
 2358TIP3    H231270   2.724   5.969  20.318 -0.2192 -0.6923 -0.4153
 2359TIP3   OH231271   2.392   1.280  18.077 -0.3094 -0.0784 -1.0645
 2359TIP3    H131272   2.434   1.275  18.163 -0.4754 -0.5489 -1.0061
 2359TIP3    H231273   2.354   1.368  18.073 -1.8313 -0.6509  0.0613
 2360TIP3   OH231274   1.021   2.754  17.767  0.4419 -0.3715 -0.0708
 2360TIP3    H131275   0.990   2.836  17.729  3.4482  1.2942  0.7772
 2360TIP3    H231276   0.998   2.687  17.702 -1.3751  1.2207 -1.1612
 2361TIP3   OH231277   4.688   2.557  16.994  0.1103 -0.2244 -0.2044
 2361TIP3    H131278   4.682   2.643  17.036 -1.3665  0.2158 -1.2312
 2361TIP3    H231279   4.762   2.566  16.933 -0.3107  0.4800 -0.6295
 2362TIP3   OH231280   3.160   2.397  20.103  0.1274  0.2650  0.1240
 2362TIP3    H131281   3.084   2.438  20.061 -0.3390  0.8730  1.4985
 2362TIP3    H231282   3.126   2.365  20.187  1.3110  0.1855  0.5844
 2363TIP3   OH231283   4.673   0.659  17.821  0.1781 -0.3839  0.6274
 2363TIP3    H131284   4.671   0.706  17.737 -0.5754 -0.5047  0.5715
 2363TIP3    H231285   4.583   0.628  17.833  0.9184 -2.9967  0.0140
 2364TIP3   OH231286   5.755   0.586  19.084 -0.5671 -0.0534 -0.1226
 2364TIP3    H131287   5.717   0.572  19.170  0.3057 -0.9038  0.1392
 2364TIP3    H231288   5.844   0.617  19.101  0.3267 -2.1534 -0.6629
 2365TIP3   OH231289   4.186   0.922  17.369  0.0433  0.3664  0.0615
 2365TIP3    H131290   4.135   0.928  17.288  1.2906  1.1799 -0.6965
 2365TIP3    H231291   4.194   1.012  17.400 -0.7861  0.0268  1.3519
 2366TIP3   OH231292   3.015   3.823  18.200 -0.0636  0.3629 -0.1472
 2366TIP3    H131293   2.968   3.753  18.155 -0.9571  0.5809  0.4227
 2366TIP3    H231294   3.040   3.884  18.130  0.0556 -0.1384 -0.5474
 2367TIP3   OH231295   5.026   2.147  18.762 -0.0673 -0.4332  0.4773
 2367TIP3    H131296   5.042   2.225  18.709 -0.6767  0.6848  1.8702
 2367TIP3    H231297   5.026   2.075  18.699  2.1980  0.4510 -0.6401
 2368TIP3   OH231298   4.310   2.347  20.358  0.2783 -0.3574  0.0751
 2368TIP3    H131299   4.376   2.307  20.302  1.3549  1.3953  0.0085
 2368TIP3    H231300   4.357   2.368  20.439 -0.7295 -0.9393  0.8253
 2369TIP3   OH231301   1.369   1.015  17.086  0.0844 -0.2049 -0.0877
 2369TIP3    H131302   1.284   1.057  17.101  1.2709  1.5792  2.2654
 2369TIP3    H231303   1.386   1.029  16.993 -1.3182  1.1770 -0.1871
 2370TIP3   OH231304   2.843   0.113  18.126  0.7652 -0.7322  0.3318
 2370TIP3    H131305   2.906   0.108  18.053  0.4688 -1.3171  0.1087
 2370TIP3    H231306   2.783   0.184  18.101  0.6828 -0.9096  0.0158
 2371TIP3   OH231307   3.217   3.515  18.607  0.5592  0.6913 -0.3290
 2371TIP3    H131308   3.261   3.486  18.528  0.2171  0.2557 -0.3600
 2371TIP3    H231309   3.246   3.454  18.675  0.7722  1.0008 -0.1396
 2372TIP3   OH231310   3.456   0.879  17.638  0.5245  0.5606 -0.5982
 2372TIP3    H131311   3.509   0.874  17.559 -0.5315 -1.2873 -1.2544
 2372TIP3    H231312   3.474   0.797  17.684 -1.9468 -0.3037 -1.0202
 2373TIP3   OH231313   5.146   4.517  17.774  0.3642  0.4803  0.1672
 2373TIP3    H131314   5.240   4.536  17.773  0.6386 -0.2752  3.1075
 2373TIP3    H231315   5.139   4.433  17.819 -1.7053  0.0010 -0.9061
 2374TIP3   OH231316   5.271   2.795  18.133 -0.1476 -0.5685  0.3346
 2374TIP3    H131317   5.339   2.854  18.166  0.2082  0.1494 -1.5405
 2374TIP3    H231318   5.231   2.843  18.061 -0.4385 -2.2753 -0.7005
 2375TIP3   OH231319   4.971   0.168  19.560 -0.0993 -0.0963 -0.0407
 2375TIP3    H131320   5.065   0.162  19.575 -0.2169 -1.5964  0.3470
 2375TIP3    H231321   4.934   0.098  19.615 -1.4558  0.5756 -0.0460
 2376TIP3   OH231322   3.923   4.476  17.572  0.0712 -0.6567  0.0309
 2376TIP3    H131323   3.930   4.382  17.591  0.2934 -0.6140  0.1694
 2376TIP3    H231324   4.008   4.498  17.534  1.0498  0.0550  2.4883
 2377TIP3   OH231325   2.462   1.820  17.072  0.3139 -0.3617 -0.2816
 2377TIP3    H131326   2.405   1.870  17.014 -0.1894 -0.6271 -0.0167
 2377TIP3    H231327   2.486   1.742  17.020  0.4330 -0.2540 -0.3899
 2378TIP3   OH231328   4.081   4.931  18.760  0.1136 -0.1968 -0.3304
 2378TIP3    H131329   4.029   4.938  18.681  2.0229 -0.7773 -1.7198
 2378TIP3    H231330   4.125   5.015  18.768 -0.2776 -0.0471  0.2654
 2379TIP3   OH231331   0.963   3.572  18.583 -0.4855 -0.3536  0.3599
 2379TIP3    H131332   0.919   3.537  18.661 -1.4108 -1.2828 -0.5441
 2379TIP3    H231333   0.892   3.594  18.523  0.1507  1.7678  0.3300
 2380TIP3   OH231334   5.073   0.426  18.617 -0.0871 -0.1862  0.1800
 2380TIP3    H131335   5.049   0.370  18.690  2.0719 -0.6898  0.5544
 2380TIP3    H231336   5.166   0.410  18.603  0.1540  1.8576 -0.9774
 2381TIP3   OH231337   3.313   0.918  18.321 -0.3537 -1.1824 -0.0687
 2381TIP3    H131338   3.255   0.955  18.255 -0.0168 -0.0959  0.2180
 2381TIP3    H231339   3.400   0.920  18.280 -0.2982 -1.4391  0.0365
 2382TIP3   OH231340   1.208   4.220  17.248  0.0879 -0.0019 -0.1172
 2382TIP3    H131341   1.144   4.171  17.196 -0.4071 -0.1645  0.6356
 2382TIP3    H231342   1.224   4.165  17.324 -0.3507  0.9199  0.6651
 2383TIP3   OH231343   6.600   5.243  17.803  0.1498 -0.1871 -0.2466
 2383TIP3    H131344   6.559   5.178  17.860  0.6573 -0.4494 -0.1741
 2383TIP3    H231345   6.685   5.205  17.781  1.1294  1.1114  1.0673
 2384TIP3   OH231346   0.260   2.528  18.567  0.5248 -0.4464 -0.0764
 2384TIP3    H131347   0.238   2.443  18.528 -0.6218  0.6872 -2.0674
 2384TIP3    H231348   0.356   2.530  18.567  0.5619 -1.2891 -1.0639
 2385TIP3   OH231349   3.401   4.336  18.769 -0.2133  0.3870 -0.4177
 2385TIP3    H131350   3.343   4.402  18.805  0.4550  1.9532 -2.0664
 2385TIP3    H231351   3.366   4.253  18.802 -0.3449  1.5633  2.7229
 2386TIP3   OH231352   4.474   0.509  18.772  0.2977  0.1922  0.0551
 2386TIP3    H131353   4.451   0.573  18.705 -1.2308  0.4522  0.7823
 2386TIP3    H231354   4.516   0.561  18.841  0.8792  0.0996 -0.2337
 2387TIP3   OH231355   1.374   4.361  19.777  0.3492 -0.5316  0.5769
 2387TIP3    H131356   1.413   4.394  19.858 -0.1276  1.1342  0.1825
 2387TIP3    H231357   1.280   4.360  19.795  0.3189 -1.1642  0.3882
 2388TIP3   OH231358   6.690   4.531  18.810  0.2575 -0.2528  0.3809
 2388TIP3    H131359   6.740   4.469  18.758  0.8413 -1.1411  1.9657
 2388TIP3    H231360   6.742   4.612  18.808 -0.4402  0.2120 -1.5699
 2389TIP3   OH231361   6.476   1.574  19.419  0.4300  0.3155  0.0886
 2389TIP3    H131362   6.466   1.516  19.494 -1.9736  1.5958  0.8653
 2389TIP3    H231363   6.398   1.559  19.366  1.2250  0.7125 -1.2608
 2390TIP3   OH231364   2.383   1.103  19.746 -0.1234  0.0537 -0.4959
 2390TIP3    H131365   2.356   1.026  19.796  0.8457 -0.1654 -0.2753
 2390TIP3    H231366   2.437   1.067  19.675  2.7960  0.6400  1.2458
 2391TIP3   OH231367   3.214   5.143  18.356  0.2325  0.2952  0.2039
 2391TIP3    H131368   3.263   5.065  18.332 -1.4467 -0.3120 -1.5520
 2391TIP3    H231369   3.258   5.214  18.309  0.9880  0.2007  0.7615
 2392TIP3   OH231370   2.689   5.552  19.309  0.0940  0.3706 -0.3511
 2392TIP3    H131371   2.736   5.591  19.383 -1.3721  1.3925  0.0761
 2392TIP3    H231372   2.740   5.579  19.233  0.6107  0.8423  0.1479
 2393TIP3   OH231373   5.661   4.323  18.610 -0.0410 -0.0254  0.0774
 2393TIP3    H131374   5.748   4.296  18.581  0.3080  0.4809  0.6296
 2393TIP3    H231375   5.639   4.264  18.682 -0.0715 -0.0273  0.0661
 2394TIP3   OH231376   5.565   5.916  16.948  0.1730 -0.0238  0.1736
 2394TIP3    H131377   5.493   5.958  16.900 -0.3938  0.5095  1.4425
 2394TIP3    H231378   5.632   5.899  16.882 -1.2676 -0.8820 -1.1342
 2395TIP3   OH231379   6.459   0.712  19.075 -0.3895  0.4466  0.1541
 2395TIP3    H131380   6.432   0.744  19.161  1.4926  0.3035  0.8317
 2395TIP3    H231381   6.443   0.785  19.016 -0.5780  0.9653  0.8359
 2396TIP3   OH231382   3.129   5.737  17.537  0.6568  0.1130 -0.3544
 2396TIP3    H131383   3.183   5.725  17.459  0.5007  1.7788 -0.7677
 2396TIP3    H231384   3.129   5.832  17.552  1.5197 -0.1977  2.2746
 2397TIP3   OH231385   6.065   5.138  19.762 -0.1188  0.2673  0.1242
 2397TIP3    H131386   6.048   5.227  19.791  1.7726  0.2561  1.4854
 2397TIP3    H231387   6.120   5.101  19.831  0.6386 -1.3564 -1.2804
 2398TIP3   OH231388   3.865   1.567  19.475 -0.5227 -0.4204 -0.3617
 2398TIP3    H131389   3.936   1.513  19.510  1.0384  0.5811 -1.8306
 2398TIP3    H231390   3.854   1.637  19.539 -0.6466 -0.9355  0.1902
 2399TIP3   OH231391   4.988   3.784  18.110 -0.6504  0.3779  0.7115
 2399TIP3    H131392   5.030   3.781  18.196  0.2610 -1.1728  0.2489
 2399TIP3    H231393   4.928   3.709  18.111  2.2294 -2.1822 -1.3374
 2400TIP3   OH231394   3.179   1.952  18.135 -0.1970 -0.9251  0.3395
 2400TIP3    H131395   3.132   1.876  18.102 -0.2468 -0.9436  0.4513
 2400TIP3    H231396   3.179   1.941  18.230  0.3780 -1.1257  0.3212
 2401TIP3   OH231397   6.250   3.081  19.296  0.1578  0.6009 -0.1884
 2401TIP3    H131398   6.190   3.012  19.267 -0.1116  0.0378  1.5977
 2401TIP3    H231399   6.319   3.035  19.345 -0.4597  1.6079  1.7489
 2402TIP3   OH231400   4.668   0.081  18.991 -0.0695  0.3680 -0.1765
 2402TIP3    H131401   4.695   0.071  19.083 -0.1009 -0.3792 -0.2422
 2402TIP3    H231402   4.713   0.010  18.945 -1.8335 -0.7140 -0.3461
 2403TIP3   OH231403   6.347   1.155  19.187 -0.2755  0.1339  0.3212
 2403TIP3    H131404   6.414   1.168  19.120  0.1423 -0.7293  0.5516
 2403TIP3    H231405   6.398   1.139  19.267 -0.7402 -0.8019  0.4451
 2404TIP3   OH231406   1.608   4.613  19.638  0.0687 -0.3497 -0.2757
 2404TIP3    H131407   1.622   4.706  19.655 -0.7910 -0.2901  0.1656
 2404TIP3    H231408   1.535   4.610  19.577  0.3090 -0.7270 -0.5490
 2405TIP3   OH231409   3.866   0.181  18.641  0.3206  0.1097 -0.0666
 2405TIP3    H131410   3.785   0.232  18.635  0.9434  0.9570 -3.0308
 2405TIP3    H231411   3.924   0.234  18.695 -0.0262  1.1236 -0.6661
 2406TIP3   OH231412   0.460   1.142  18.617  0.0097 -0.3327 -0.2248
 2406TIP3    H131413   0.542   1.148  18.569  0.4133  4.1709  0.5841
 2406TIP3    H231414   0.483   1.165  18.707 -1.9003 -0.6578  0.3996
 2407TIP3   OH231415   1.448   1.657  18.629  0.9150  0.2428  0.4566
 2407TIP3    H131416   1.477   1.613  18.709 -1.8096  1.2811  2.1588
 2407TIP3    H231417   1.390   1.593  18.587 -0.4567  0.9291  1.2306
 2408TIP3   OH231418   1.933   1.425  19.782 -0.2054 -0.3032 -0.5156
 2408TIP3    H131419   1.841   1.434  19.803 -0.3552 -1.8417 -0.3967
 2408TIP3    H231420   1.966   1.358  19.842  1.3276  1.1378  0.3510
 2409TIP3   OH231421   3.101   2.414  18.375  0.6277  0.4485  0.3581
 2409TIP3    H131422   3.153   2.357  18.318  0.1923  1.2951 -0.9487
 2409TIP3    H231423   3.010   2.398  18.347  0.4637  1.3706  0.3313
 2410TIP3   OH231424   1.241   6.390  17.646 -0.3811 -0.2677 -0.2964
 2410TIP3    H131425   1.296   6.370  17.722  0.1664 -1.0386 -0.8799
 2410TIP3    H231426   1.279   6.471  17.610  0.1180 -0.5650 -0.4484
 2411TIP3   OH231427   0.771   0.985  18.376  0.4411  0.1575  0.6443
 2411TIP3    H131428   0.704   0.969  18.442 -0.1442  0.3354  0.1054
 2411TIP3    H231429   0.722   1.001  18.295  1.1106  0.9441  0.3775
 2412TIP3   OH231430   0.199   1.461  17.534 -0.2928  0.7754  0.1692
 2412TIP3    H131431   0.252   1.382  17.546 -1.0186  0.3181  0.5122
 2412TIP3    H231432   0.227   1.498  17.451 -0.4589 -0.2725 -0.3652
 2413TIP3   OH231433   4.069   4.250  17.625 -0.1803 -0.0520  0.3793
 2413TIP3    H131434   4.115   4.287  17.700 -0.2415 -0.7114  0.7477
 2413TIP3    H231435   4.139   4.212  17.571 -0.1618  0.1937  0.2293
 2414TIP3   OH231436   5.932   0.325  17.524  0.4415  0.1512 -0.0367
 2414TIP3    H131437   6.007   0.305  17.468  0.1999 -0.9609  0.0165
 2414TIP3    H231438   5.859   0.278  17.483 -0.0886  0.6754  0.2885
 2415TIP3   OH231439   2.020   4.821  17.893 -0.5430 -0.7030 -0.1510
 2415TIP3    H131440   2.004   4.739  17.847 -2.1210 -0.3709 -0.2684
 2415TIP3    H231441   1.962   4.817  17.970  1.7286 -1.0774  1.6609
 2416TIP3   OH231442   5.698   4.433  18.266  0.0658  0.3349  0.3866
 2416TIP3    H131443   5.764   4.403  18.329 -2.4306 -1.5661  2.3309
 2416TIP3    H231444   5.668   4.353  18.222 -0.4938  1.2216 -0.8911
 2417TIP3   OH231445   3.486   3.870  18.008 -0.2491  0.6127  0.4178
 2417TIP3    H131446   3.524   3.944  17.961  1.0284  1.4920  2.6741
 2417TIP3    H231447   3.429   3.910  18.074 -1.0609 -0.5143  0.4379
 2418TIP3   OH231448   1.212   3.049  18.411 -0.1537 -0.6817 -0.8387
 2418TIP3    H131449   1.218   3.123  18.351 -0.8904 -0.7712 -1.0390
 2418TIP3    H231450   1.166   3.083  18.487 -0.0997 -0.8226 -0.7421
 2419TIP3   OH231451   5.080   2.934  17.978  0.2962  0.2066  0.3111
 2419TIP3    H131452   4.993   2.895  17.971  0.6155 -0.4861  0.1222
 2419TIP3    H231453   5.065   3.028  17.972 -0.2014  0.0322 -2.3210
 2420TIP3   OH231454   3.729   0.287  20.010  0.2879  0.1654  0.2049
 2420TIP3    H131455   3.746   0.197  19.981  0.4792 -0.9694  3.4949
 2420TIP3    H231456   3.815   0.330  20.006  0.1028  0.4513 -1.8899
 2421TIP3   OH231457   1.466   2.132  18.532  0.4235  0.0826  0.6529
 2421TIP3    H131458   1.407   2.196  18.493  0.0785  0.9335  2.4857
 2421TIP3    H231459   1.490   2.169  18.617 -0.2487 -2.4511  2.0466
 2422TIP3   OH231460   1.344   1.230  18.988  0.1168  0.3213  0.2647
 2422TIP3    H131461   1.318   1.260  18.901  2.1774 -1.0728 -0.9228
 2422TIP3    H231462   1.262   1.200  19.029 -0.9006  1.0900 -1.1287
 2423TIP3   OH231463   2.787   1.023  17.379 -0.1353  0.3099  0.8539
 2423TIP3    H131464   2.713   1.018  17.440 -0.4552 -1.8702  0.3461
 2423TIP3    H231465   2.796   0.935  17.343  0.8523  1.2007 -1.3162
 2424TIP3   OH231466   4.100   1.888  18.684 -0.0684  0.0463  0.2067
 2424TIP3    H131467   4.167   1.897  18.616 -2.1066 -1.5081 -2.1963
 2424TIP3    H231468   4.147   1.858  18.761  2.2665  1.1701 -0.6988
 2425TIP3   OH231469   4.558   1.511  20.203  0.1833 -0.1307  0.3077
 2425TIP3    H131470   4.649   1.528  20.178  0.6427 -1.1392  1.1740
 2425TIP3    H231471   4.531   1.589  20.251  0.3666  0.4507 -0.5206
 2426TIP3   OH231472   0.710   0.225  19.952 -0.2090 -0.1096 -0.1442
 2426TIP3    H131473   0.741   0.147  19.905  0.2299 -1.0889  1.6804
 2426TIP3    H231474   0.617   0.208  19.967  0.3223 -1.3626  2.1376
 2427TIP3   OH231475   3.900   6.030  17.934 -0.2135 -0.1474 -0.2500
 2427TIP3    H131476   3.919   6.016  17.842  0.7273  0.4784 -0.1693
 2427TIP3    H231477   3.956   6.104  17.959 -0.0654 -0.6341  0.9410
 2428TIP3   OH231478   1.706   5.467  17.701 -0.3156  0.2964 -0.0441
 2428TIP3    H131479   1.711   5.470  17.797  0.1466 -1.1011 -0.0171
 2428TIP3    H231480   1.613   5.450  17.683 -0.5583  1.3518  0.1093
 2429TIP3   OH231481   6.642   1.429  17.928  0.3097 -0.3683  0.0165
 2429TIP3    H131482   6.584   1.354  17.913  0.3938 -0.3698 -0.3116
 2429TIP3    H231483   6.671   1.419  18.018 -0.7311 -0.0078  0.4154
 2430TIP3   OH231484   4.356   1.495  19.967 -0.0551 -0.3522 -0.4747
 2430TIP3    H131485   4.419   1.433  19.929  0.4317  0.3093 -0.7734
 2430TIP3    H231486   4.356   1.476  20.061  0.0062 -0.8729 -0.5800
 2431TIP3   OH231487   2.093   3.810  20.519  0.1053 -0.3554  0.4966
 2431TIP3    H131488   2.071   3.882  20.578 -1.3586  0.1563 -0.6237
 2431TIP3    H231489   2.181   3.831  20.488 -0.0825  0.6777  0.6107
 2432TIP3   OH231490   1.868   0.446  17.293  0.8775 -0.5031  0.7015
 2432TIP3    H131491   1.955   0.470  17.262  0.3066  0.2809 -0.3672
 2432TIP3    H231492   1.884   0.389  17.368  2.3074 -1.0776 -0.0060
 2433TIP3   OH231493   1.078   4.002  17.707  0.6721  0.0071  0.0529
 2433TIP3    H131494   1.052   4.094  17.704  1.7283  0.3916  1.5617
 2433TIP3    H231495   1.101   3.986  17.798  0.6808 -1.7131 -0.2204
 2434TIP3   OH231496   3.723   6.265  17.609 -0.4659  0.0854  0.3582
 2434TIP3    H131497   3.643   6.212  17.606  0.9260 -2.3566  2.2999
 2434TIP3    H231498   3.740   6.277  17.703  2.5297 -1.3458  0.0929
 2435TIP3   OH231499   6.213   1.136  16.695  0.2463 -0.7558 -0.6829
 2435TIP3    H131500   6.207   1.213  16.751 -1.4262 -2.0446  1.0376
 2435TIP3    H231501   6.193   1.168  16.607 -0.5434  0.7370  0.0130
 2436TIP3   OH231502   5.381   1.922  16.744  0.4913 -0.1872 -0.0470
 2436TIP3    H131503   5.452   1.951  16.688 -0.0494  0.5907 -0.3549
 2436TIP3    H231504   5.337   2.003  16.771 -0.4761 -0.6644 -0.1416
 2437TIP3   OH231505   3.749   4.555  19.788  0.0915 -0.1912 -0.0605
 2437TIP3    H131506   3.689   4.507  19.732 -0.9085  1.7202 -0.7091
 2437TIP3    H231507   3.744   4.646  19.757  0.6760  0.6469  2.1029
 2438TIP3   OH231508   0.656   0.415  18.685 -0.1129 -0.0837 -0.4755
 2438TIP3    H131509   0.579   0.382  18.732  0.5100 -0.7735  0.0793
 2438TIP3    H231510   0.717   0.341  18.684  1.1799  0.9270  0.4733
 2439TIP3   OH231511   3.833   5.551  20.123 -0.2890  0.3955  0.0836
 2439TIP3    H131512   3.905   5.496  20.094 -0.9571  0.1239 -1.1060
 2439TIP3    H231513   3.754   5.508  20.089 -0.7582  2.8274 -2.2636
 2440TIP3   OH231514   1.801   5.619  20.348 -0.3853  0.3974  0.6027
 2440TIP3    H131515   1.824   5.561  20.420  0.2037 -0.6970 -0.4430
 2440TIP3    H231516   1.848   5.700  20.366 -0.5500  0.2668  1.6379
 2441TIP3   OH231517   6.499   2.574  16.672 -0.3023 -0.0600  0.2208
 2441TIP3    H131518   6.495   2.658  16.716  0.7464  0.3019 -0.3271
 2441TIP3    H231519   6.422   2.526  16.703 -0.5682  0.8580  1.0158
 2442TIP3   OH231520   2.797   4.285  18.960  0.1629 -0.4727  0.5811
 2442TIP3    H131521   2.703   4.302  18.961  0.5004  1.9610 -0.9260
 2442TIP3    H231522   2.812   4.230  18.883  0.1944  1.2390 -0.6949
 2443TIP3   OH231523   1.468   3.841  19.043 -0.4444 -0.3570 -0.3458
 2443TIP3    H131524   1.516   3.827  19.125 -0.2834  0.7450 -0.2389
 2443TIP3    H231525   1.403   3.771  19.041 -2.6326  1.3918  2.3490
 2444TIP3   OH231526   0.714   0.449  16.156  0.2235 -0.0162 -0.6323
 2444TIP3    H131527   0.806   0.423  16.156  0.5507  0.6710  2.2884
 2444TIP3    H231528   0.715   0.540  16.187 -1.4214  0.0291 -0.5892
 2445TIP3   OH231529   6.360   5.968  19.117  0.7333  0.1113 -0.1479
 2445TIP3    H131530   6.375   5.904  19.047 -2.0851  0.2517 -1.0138
 2445TIP3    H231531   6.325   5.917  19.189  0.1628  0.4251 -0.1966
 2446TIP3   OH231532   4.434   2.593  18.436 -0.0108 -0.2812  0.0752
 2446TIP3    H131533   4.369   2.586  18.506 -0.5848  0.7786 -0.3429
 2446TIP3    H231534   4.427   2.509  18.389 -1.6698  0.1126 -0.4573
 2447TIP3   OH231535   5.719   5.734  17.569 -0.1728  0.2598  0.0571
 2447TIP3    H131536   5.746   5.682  17.645 -0.1235  0.8661  0.4573
 2447TIP3    H231537   5.767   5.816  17.578  0.0033  0.2571 -0.7497
 2448TIP3   OH231538   4.835   2.439  18.506 -0.7957  0.1352  0.4147
 2448TIP3    H131539   4.758   2.424  18.561 -0.0978  0.0980  1.3829
 2448TIP3    H231540   4.851   2.354  18.464  0.4975 -0.7547  2.5254
 2449TIP3   OH231541   2.060   1.309  17.030  0.2947 -0.6806 -0.5948
 2449TIP3    H131542   2.004   1.354  16.967  0.2231  0.8628  0.5075
 2449TIP3    H231543   2.039   1.217  17.019  0.1151 -0.4570 -2.6391
 2450TIP3   OH231544   0.779   2.653  18.227 -0.4400  0.1130  0.3140
 2450TIP3    H131545   0.821   2.688  18.148 -2.3297  0.7071 -0.4889
 2450TIP3    H231546   0.763   2.730  18.282 -1.2708  0.0440  0.1891
 2451TIP3   OH231547   0.309   3.506  16.965  0.0244  0.7194 -0.0850
 2451TIP3    H131548   0.396   3.492  17.003  0.0704  2.0057  0.3480
 2451TIP3    H231549   0.269   3.572  17.022 -1.2450  0.1575 -0.2814
 2452TIP3   OH231550   3.217   1.874  20.106 -0.2273  0.2552  0.3664
 2452TIP3    H131551   3.247   1.847  20.193 -0.1542  0.9041  0.5495
 2452TIP3    H231552   3.162   1.951  20.122  0.1039  0.6187 -0.1842
 2453TIP3   OH231553   4.811   5.959  18.183 -0.6435 -0.5795 -0.1510
 2453TIP3    H131554   4.741   6.012  18.144  0.1567  0.6351 -0.0199
 2453TIP3    H231555   4.803   5.975  18.277 -0.4216 -0.7243 -0.1079
 2454TIP3   OH231556   5.417   2.662  18.564  0.0123 -0.1797  0.1167
 2454TIP3    H131557   5.509   2.635  18.560 -0.0219 -0.7413  2.0680
 2454TIP3    H231558   5.419   2.754  18.590  0.0218  0.0927 -0.8157
 2455TIP3   OH231559   0.377   3.436  17.280  0.5840  0.0319  0.2655
 2455TIP3    H131560   0.466   3.425  17.245  0.7385 -0.2162  0.7341
 2455TIP3    H231561   0.372   3.530  17.299  0.2063  0.3360 -1.1832
 2456TIP3   OH231562   0.540   2.835  18.968 -0.1782  0.3488 -0.1617
 2456TIP3    H131563   0.612   2.834  19.031  0.7219  0.8226 -1.1463
 2456TIP3    H231564   0.513   2.927  18.964 -0.0924  0.3581 -0.5967
 2457TIP3   OH231565   3.709   0.186  19.637 -0.1158  0.2256  0.0026
 2457TIP3    H131566   3.648   0.257  19.616 -0.2230 -0.3441 -1.7869
 2457TIP3    H231567   3.739   0.155  19.552  1.3870 -0.6351  0.8067
 2458TIP3   OH231568   5.580   2.888  17.495  0.0906  0.3970 -0.2777
 2458TIP3    H131569   5.552   2.799  17.476  0.2436  0.6015 -1.5740
 2458TIP3    H231570   5.500   2.940  17.488  0.2150  0.5279 -0.7492
 2459TIP3   OH231571   2.526   2.975  20.369 -0.5069 -0.4937  0.0821
 2459TIP3    H131572   2.590   2.987  20.300  0.9894 -1.5070  1.2256
 2459TIP3    H231573   2.454   2.928  20.328 -0.2486  0.1122 -1.0840
 2460TIP3   OH231574   0.471   1.276  19.653  0.2726 -0.7596  0.2692
 2460TIP3    H131575   0.379   1.283  19.627  0.3239 -0.4635  0.1658
 2460TIP3    H231576   0.492   1.362  19.688  0.6532 -0.6789 -0.1624
 2461TIP3   OH231577   0.959   3.476  19.986 -0.2809  0.0548 -0.4166
 2461TIP3    H131578   1.033   3.476  20.047  0.6793 -1.0924 -1.5396
 2461TIP3    H231579   0.889   3.432  20.034  0.5833 -1.1967 -0.2674
 2462TIP3   OH231580   2.290   3.395  17.856 -0.4208  0.1743  0.2383
 2462TIP3    H131581   2.311   3.488  17.855  0.1047  0.0570 -0.8134
 2462TIP3    H231582   2.375   3.351  17.854 -0.6829 -0.3217 -0.2615
 2463TIP3   OH231583   4.441   2.367  18.266  0.0463 -0.3793 -0.5084
 2463TIP3    H131584   4.530   2.365  18.229 -0.1475 -2.2851 -0.9857
 2463TIP3    H231585   4.390   2.416  18.201  0.6678  0.5123 -0.3543
 2464TIP3   OH231586   3.021   0.760  17.935  0.6824 -0.1108 -0.2364
 2464TIP3    H131587   2.993   0.675  17.969  2.0467  0.3449  2.3156
 2464TIP3    H231588   2.981   0.823  17.996  2.2104  0.8663 -0.2020
 2465TIP3   OH231589   6.050   1.325  17.777 -0.1682  0.3592 -0.4427
 2465TIP3    H131590   6.076   1.234  17.758  0.0424  0.0919  1.0406
 2465TIP3    H231591   5.998   1.350  17.701  0.3209 -0.7777 -1.1935
 2466TIP3   OH231592   4.542   0.420  18.289 -0.3743 -0.0503 -0.0641
 2466TIP3    H131593   4.477   0.362  18.251 -0.9180  0.4541  0.0843
 2466TIP3    H231594   4.572   0.374  18.368 -0.1960 -0.5007 -0.3919
 2467TIP3   OH231595   3.756   1.963  20.223  0.4026 -0.0912 -0.8454
 2467TIP3    H131596   3.692   1.916  20.170  0.7672 -0.5114 -0.9174
 2467TIP3    H231597   3.776   2.042  20.172 -0.0969  0.0685 -0.7943
 2468TIP3   OH231598   0.473   5.871  18.103  0.1080 -0.4021  0.2037
 2468TIP3    H131599   0.438   5.792  18.061 -0.6555  0.2579 -0.4455
 2468TIP3    H231600   0.424   5.879  18.185 -2.8240  1.5527 -1.5424
 2469TIP3   OH231601   5.811   1.781  19.903 -0.2173 -0.7460 -0.0094
 2469TIP3    H131602   5.857   1.819  19.828 -0.6336 -1.1397 -0.4723
 2469TIP3    H231603   5.719   1.802  19.889  0.0036  4.0472  3.1876
 2470TIP3   OH231604   0.157   4.125  17.708  0.0972 -0.6032 -0.3147
 2470TIP3    H131605   0.111   4.139  17.626 -3.6529 -0.5557  1.5644
 2470TIP3    H231606   0.249   4.135  17.686 -0.6541 -1.0769 -4.5486
 2471TIP3   OH231607   1.756   6.101  17.673  0.0359 -0.3486 -0.2151
 2471TIP3    H131608   1.703   6.035  17.717 -1.7201  1.5842  0.7212
 2471TIP3    H231609   1.795   6.152  17.744  2.9504 -1.4481 -0.8812
 2472TIP3   OH231610   0.792   2.610  19.737 -0.1595 -0.6160  0.9732
 2472TIP3    H131611   0.789   2.672  19.665 -1.2431 -3.5180 -1.7329
 2472TIP3    H231612   0.720   2.637  19.795 -1.0807  0.2394 -0.5005
 2473TIP3   OH231613   0.896   1.057  16.820  0.6288  0.0837 -0.1211
 2473TIP3    H131614   0.973   1.109  16.801  0.3006  0.7282  0.2907
 2473TIP3    H231615   0.826   1.095  16.767  1.2201 -2.3972 -2.9392
 2474TIP3   OH231616   3.034   3.873  17.225  0.2916  0.1412 -0.2758
 2474TIP3    H131617   2.974   3.943  17.249 -0.1713  0.1509 -1.4208
 2474TIP3    H231618   3.118   3.900  17.262 -0.4968 -0.1693  1.8749
 2475TIP3   OH231619   6.395   6.480  18.008 -0.2424  0.0500  0.1792
 2475TIP3    H131620   6.413   6.574  18.014 -1.1796  0.3451 -1.1948
 2475TIP3    H231621   6.346   6.470  17.926  0.0414 -1.6719  0.1859
 2476TIP3   OH231622   4.372   0.303  17.963  0.2994  0.5129 -0.2862
 2476TIP3    H131623   4.339   0.338  17.881  1.6641  1.7021 -0.3722
 2476TIP3    H231624   4.310   0.333  18.029 -0.4409  0.1140 -0.7987
 2477TIP3   OH231625   2.606   5.819  20.367  0.0735 -0.0335  0.3809
 2477TIP3    H131626   2.536   5.798  20.429 -0.9950  1.5315 -0.2250
 2477TIP3    H231627   2.577   5.783  20.284  0.4615 -0.2305  0.3297
 2478TIP3   OH231628   3.726   2.661  19.663 -0.1732 -0.0695 -0.4582
 2478TIP3    H131629   3.642   2.698  19.635  0.1255  0.7175 -0.3375
 2478TIP3    H231630   3.705   2.614  19.744 -0.5789 -0.2493 -0.6656
 2479TIP3   OH231631   0.283   2.054  16.125  0.0948 -0.1356  0.0532
 2479TIP3    H131632   0.264   1.982  16.065  1.3583  0.2787 -0.8845
 2479TIP3    H231633   0.358   2.024  16.176 -0.2489 -0.0258  0.6283
 2480TIP3   OH231634   3.610   2.152  20.673  0.4352  0.8758  0.3775
 2480TIP3    H131635   3.617   2.219  20.605  0.3867  0.3694 -0.1416
 2480TIP3    H231636   3.663   2.185  20.745  1.0749  1.1025 -0.1854
 2481TIP3   OH231637   1.403   1.477  17.938 -0.6542 -0.2045 -0.5490
 2481TIP3    H131638   1.394   1.568  17.909  0.2744 -0.2695 -1.0875
 2481TIP3    H231639   1.357   1.426  17.871 -0.8240 -0.1597 -0.4660
 2482TIP3   OH231640   4.196   5.755  18.228  0.4607 -0.0349 -0.1208
 2482TIP3    H131641   4.164   5.697  18.297 -1.2359 -0.1751 -0.9794
 2482TIP3    H231642   4.157   5.840  18.249 -0.2514 -0.1323 -1.0075
 2483TIP3   OH231643   6.413   6.111  19.500  0.5763 -0.2712 -0.1395
 2483TIP3    H131644   6.455   6.151  19.424 -3.0146 -1.5396 -3.0698
 2483TIP3    H231645   6.361   6.182  19.539  0.7736 -0.1127 -0.1652
 2484TIP3   OH231646   3.957   2.387  17.471  0.5411  0.0295  0.0121
 2484TIP3    H131647   4.006   2.463  17.501  0.2303  0.1579  0.1952
 2484TIP3    H231648   3.869   2.420  17.453 -0.1540 -0.6321  1.9112
 2485TIP3   OH231649   5.254   0.116  19.561  0.3205 -0.0905 -0.0799
 2485TIP3    H131650   5.310   0.147  19.490 -0.7423  0.8158 -0.5398
 2485TIP3    H231651   5.285   0.027  19.578  1.7709  0.3115 -0.4441
 2486TIP3   OH231652   4.417   0.565  17.809  0.2032 -0.4807 -0.6454
 2486TIP3    H131653   4.371   0.608  17.881 -0.3881  0.6899 -1.6875
 2486TIP3    H231654   4.354   0.502  17.775  0.4868 -1.0426 -0.1442
 2487TIP3   OH231655   5.513   6.399  17.270  0.3291 -0.0494 -0.3692
 2487TIP3    H131656   5.478   6.442  17.348 -0.5348  0.3635 -0.9712
 2487TIP3    H231657   5.553   6.319  17.303 -1.0846 -0.4886  0.3869
 2488TIP3   OH231658   4.531   0.873  19.995  1.1731  0.2087 -0.1390
 2488TIP3    H131659   4.595   0.816  19.952  0.3441  0.2948 -1.5808
 2488TIP3    H231660   4.449   0.855  19.949  0.0875 -0.0404  1.7849
 2489TIP3   OH231661   3.953   5.067  17.148 -0.0279  0.1176 -0.2978
 2489TIP3    H131662   3.965   5.016  17.068 -0.5821  0.0540 -0.3474
 2489TIP3    H231663   4.042   5.083  17.180  0.1932 -2.8144  0.9372
 2490TIP3   OH231664   0.983   1.861  18.010  0.1984 -0.2699 -0.0515
 2490TIP3    H131665   1.000   1.938  17.956  1.4576 -0.0371  0.6274
 2490TIP3    H231666   0.949   1.796  17.949  2.4897 -0.3470 -1.3794
 2491TIP3   OH231667   1.553   4.131  17.294 -0.0395  0.0294  0.7228
 2491TIP3    H131668   1.531   4.112  17.203 -0.3022  1.2622  0.5135
 2491TIP3    H231669   1.604   4.212  17.290  0.7681 -0.4050  1.6003
 2492TIP3   OH231670   3.282   4.363  17.143  0.3381  0.1319  0.3388
 2492TIP3    H131671   3.280   4.267  17.138  0.8525  0.1921 -1.4865
 2492TIP3    H231672   3.374   4.384  17.162  0.5722  0.3073 -0.9358
 2493TIP3   OH231673   2.736   4.363  18.346  0.2770  0.0883 -0.3169
 2493TIP3    H131674   2.750   4.298  18.277 -0.5167 -0.4510  0.0188
 2493TIP3    H231675   2.787   4.439  18.318  1.2191 -0.6749 -0.7202
 2494TIP3   OH231676   6.534   0.084  16.999  0.2839 -0.1949  0.2146
 2494TIP3    H131677   6.540   0.045  16.911  1.9430 -0.5886  0.4619
 2494TIP3    H231678   6.485   0.021  17.050  0.7124 -0.7456 -0.0433
 2495TIP3   OH231679   0.925   1.157  20.460 -0.1499  0.1822 -0.8624
 2495TIP3    H131680   0.870   1.106  20.519 -0.0395  0.6803 -0.3198
 2495TIP3    H231681   0.913   1.248  20.488  1.6496  0.2267 -0.1318
 2496TIP3   OH231682   1.938   5.736  19.108 -0.2670  0.1532 -0.5300
 2496TIP3    H131683   1.955   5.700  19.021  0.8027  1.8263 -1.0750
 2496TIP3    H231684   1.946   5.662  19.167  1.7161 -0.5486 -1.5916
 2497TIP3   OH231685   6.407   5.144  18.752 -0.0605 -0.0173  0.3141
 2497TIP3    H131686   6.343   5.171  18.686 -0.8415  0.0239  1.0827
 2497TIP3    H231687   6.463   5.220  18.764  0.6431 -0.3072 -0.9352
 2498TIP3   OH231688   2.531   4.338  19.030  0.6398 -0.2347 -0.1517
 2498TIP3    H131689   2.573   4.393  19.096  1.5040  2.0829 -2.4472
 2498TIP3    H231690   2.465   4.395  18.990 -0.4256 -1.8281 -0.7522
 2499TIP3   OH231691   2.237   3.450  18.266 -0.3084  0.0753  0.1111
 2499TIP3    H131692   2.154   3.476  18.228 -0.5588  1.1328  1.3080
 2499TIP3    H231693   2.213   3.408  18.349  0.2561 -1.4691 -0.4791
 2500TIP3   OH231694   0.370   1.660  19.187  0.2542  0.6682  0.2854
 2500TIP3    H131695   0.450   1.690  19.229  0.0920 -0.3095  1.3320
 2500TIP3    H231696   0.307   1.652  19.258 -0.4655  0.4024 -0.3729
 2501TIP3   OH231697   5.280   5.912  17.724 -0.3800 -0.2565 -0.5098
 2501TIP3    H131698   5.225   5.978  17.682 -0.4511  0.6455  0.9143
 2501TIP3    H231699   5.330   5.872  17.653 -2.2613 -0.5318 -1.7440
 2502TIP3   OH231700   5.330   4.026  18.505  0.3599 -0.0282 -0.0051
 2502TIP3    H131701   5.346   4.120  18.515  0.9826 -0.2890  1.9174
 2502TIP3    H231702   5.417   3.987  18.502  0.1082 -0.5435 -1.1160
 2503TIP3   OH231703   4.602   6.510  17.838  0.2539  0.0894 -0.3056
 2503TIP3    H131704   4.630   6.561  17.915  1.7141  0.0326 -0.7670
 2503TIP3    H231705   4.512   6.539  17.822  1.3703  3.5082 -1.2816
 2504TIP3   OH231706   4.340   1.375  18.032  0.0046  0.3218 -0.5187
 2504TIP3    H131707   4.363   1.293  18.077  0.2217  0.3644 -0.5526
 2504TIP3    H231708   4.248   1.388  18.054 -0.0292  0.0727 -0.5039
 2505TIP3   OH231709   2.133   0.007  18.585  0.0792 -0.6775 -0.0523
 2505TIP3    H131710   2.090  -0.058  18.641 -1.7691  1.2133  0.8446
 2505TIP3    H231711   2.062   0.042  18.531  1.0562  0.5371 -0.6009
 2506TIP3   OH231712   2.334   3.476  19.554 -0.0895  0.3020  0.2413
 2506TIP3    H131713   2.339   3.399  19.497 -1.4688  0.3319  0.0321
 2506TIP3    H231714   2.322   3.550  19.494 -2.4935  0.2375  0.5121
 2507TIP3   OH231715   1.646   1.419  18.253  0.1489 -0.7205 -0.0142
 2507TIP3    H131716   1.720   1.369  18.287 -0.9222 -1.0685  1.9726
 2507TIP3    H231717   1.639   1.393  18.161  1.5954 -1.7429  0.1348
 2508TIP3   OH231718   6.275   3.092  20.555 -0.0505 -0.0327 -0.0670
 2508TIP3    H131719   6.219   3.093  20.632  0.1372 -0.1529  0.0746
 2508TIP3    H231720   6.300   3.000  20.544  1.0119  0.1647  0.5344
 2509TIP3   OH231721   0.682   2.663  20.361 -0.2588  0.0238 -0.4715
 2509TIP3    H131722   0.755   2.680  20.301  0.1974  0.7556  0.2656
 2509TIP3    H231723   0.640   2.748  20.373  0.0792  0.0401  0.7633
 2510TIP3   OH231724   3.636   0.006  20.112 -0.1236 -0.2719 -0.6572
 2510TIP3    H131725   3.682   0.031  20.032 -0.6609  0.7383 -0.6711
 2510TIP3    H231726   3.685  -0.069  20.146  0.2712 -0.5427 -1.7788
 2511TIP3   OH231727   5.804   1.033  17.105 -0.5146 -0.7935 -0.1221
 2511TIP3    H131728   5.782   1.120  17.072  0.9965  0.0082  0.8766
 2511TIP3    H231729   5.889   1.044  17.149  0.4651 -3.0764 -1.2571
 2512TIP3   OH231730   1.973   1.508  18.987 -0.2647  0.3917 -0.2774
 2512TIP3    H131731   2.058   1.549  19.003 -2.1743  4.5946  0.5020
 2512TIP3    H231732   1.933   1.501  19.073 -0.7569 -1.5413 -0.6277
 2513TIP3   OH231733   4.932   3.625  19.362  0.0244 -0.2393  0.3624
 2513TIP3    H131734   4.979   3.612  19.280 -0.9043  0.6130 -0.3374
 2513TIP3    H231735   4.982   3.691  19.409 -0.0776  0.1425 -0.0612
 2514TIP3   OH231736   2.485   1.931  19.670  0.1326 -0.1441 -0.1286
 2514TIP3    H131737   2.490   1.953  19.577 -0.5608 -2.0798 -0.6816
 2514TIP3    H231738   2.394   1.947  19.694  0.1619 -0.2291  0.0446
 2515TIP3   OH231739   5.024   1.532  19.370  0.2227  0.2697 -0.1931
 2515TIP3    H131740   5.049   1.495  19.455 -0.7955  0.4882  0.2155
 2515TIP3    H231741   4.993   1.620  19.390 -0.0209  0.3254 -0.7901
 2516TIP3   OH231742   1.243   4.150  20.488  0.1161  0.4385 -0.2851
 2516TIP3    H131743   1.216   4.078  20.431 -0.1541  1.0722 -0.9744
 2516TIP3    H231744   1.338   4.142  20.494  0.1515  0.3972 -0.8745
 2517TIP3   OH231745   2.933   4.482  18.826  0.3172 -0.0518  0.3510
 2517TIP3    H131746   2.867   4.437  18.879  0.1224  0.8380  0.8726
 2517TIP3    H231747   2.901   4.473  18.736 -2.3305  3.1324  0.7653
 2518TIP3   OH231748   6.351   2.152  18.184 -0.1374  0.0351  0.3462
 2518TIP3    H131749   6.360   2.132  18.277 -0.0556  0.7668  0.5049
 2518TIP3    H231750   6.432   2.199  18.162  0.0620 -0.5659 -0.2151
 2519TIP3   OH231751   4.896   1.470  19.684  0.1024 -0.4883 -0.3177
 2519TIP3    H131752   4.896   1.562  19.658 -0.5369 -0.5664 -0.6128
 2519TIP3    H231753   4.930   1.471  19.774 -0.0593  0.0585 -0.2565
 2520TIP3   OH231754   1.199   6.544  17.337  0.3076  0.7457 -0.4959
 2520TIP3    H131755   1.291   6.545  17.364  0.4468 -1.7795 -0.6612
 2520TIP3    H231756   1.203   6.532  17.242 -0.2183  1.5577 -0.6280
 2521TIP3   OH231757   1.570   3.251  19.726  0.2653 -0.3581  0.8294
 2521TIP3    H131758   1.665   3.250  19.728  0.3812  1.8533 -0.1839
 2521TIP3    H231759   1.545   3.327  19.778 -0.9850 -1.0928  1.3570
 2522TIP3   OH231760   2.388   4.592  18.026 -0.1116 -0.2942 -0.1960
 2522TIP3    H131761   2.411   4.531  18.096 -0.5989 -1.0008 -0.6471
 2522TIP3    H231762   2.473   4.622  17.993  0.1355  0.6025  1.1494
 2523TIP3   OH231763   3.721   3.812  18.291 -0.2051 -0.2613 -0.2950
 2523TIP3    H131764   3.788   3.838  18.228 -0.4485 -0.6623 -0.7212
 2523TIP3    H231765   3.768   3.807  18.374  0.8448 -2.7212 -0.9365
 2524TIP3   OH231766   0.792   1.531  19.976 -0.2879 -0.0781 -0.4707
 2524TIP3    H131767   0.854   1.588  19.931  0.2122 -0.7400 -0.6353
 2524TIP3    H231768   0.709   1.579  19.974  0.0682  0.5336 -0.8129
 2525TIP3   OH231769   0.222   1.289  16.730  0.1120  0.0234 -0.8183
 2525TIP3    H131770   0.302   1.289  16.678 -0.5165  0.5917 -1.8197
 2525TIP3    H231771   0.188   1.378  16.724 -0.5167 -0.1627 -0.2708
 2526TIP3   OH231772   3.136   2.255  18.705  0.4664  0.4659 -0.0281
 2526TIP3    H131773   3.098   2.313  18.771 -0.9828 -0.0517 -0.3539
 2526TIP3    H231774   3.062   2.232  18.649  0.8806 -2.0099  0.3293
 2527TIP3   OH231775   4.324   0.376  18.994 -0.2211 -0.1241  0.4982
 2527TIP3    H131776   4.368   0.431  18.929  0.2256  0.3073  1.1666
 2527TIP3    H231777   4.234   0.409  18.995 -0.4754 -0.7473 -0.5787
 2528TIP3   OH231778   5.727   1.156  18.438  0.9025 -0.2190 -0.6983
 2528TIP3    H131779   5.673   1.148  18.360 -2.9098 -3.7280  1.8699
 2528TIP3    H231780   5.712   1.245  18.470  1.4044  0.7794 -3.0620
 2529TIP3   OH231781   6.080   1.887  17.405 -0.3524 -0.5694  0.3044
 2529TIP3    H131782   6.127   1.970  17.393 -1.2563  0.0759  1.0782
 2529TIP3    H231783   6.027   1.901  17.484 -0.4308 -1.9327  0.5161
 2530TIP3   OH231784   3.692   2.500  18.281  0.4574 -0.5976  0.0268
 2530TIP3    H131785   3.768   2.557  18.291 -0.2355  0.7743 -1.9761
 2530TIP3    H231786   3.635   2.546  18.220 -1.8913 -1.7102  1.2455
 2531TIP3   OH231787   0.942   6.417  17.001  0.3573  0.3289  0.4722
 2531TIP3    H131788   0.894   6.415  16.918 -1.0416 -0.6863  1.2697
 2531TIP3    H231789   0.958   6.510  17.018  0.8211  0.5448 -1.0077
 2532TIP3   OH231790   4.178   2.758  18.921  0.3851  0.0607  0.0522
 2532TIP3    H131791   4.213   2.669  18.933 -0.2227 -0.0248  1.2353
 2532TIP3    H231792   4.255   2.810  18.897  0.5634 -0.9948 -1.9254
 2533TIP3   OH231793   3.121   2.778  18.104 -0.6709  0.3246  0.1071
 2533TIP3    H131794   3.106   2.871  18.085  2.0004  0.5838 -1.3369
 2533TIP3    H231795   3.087   2.732  18.027 -0.2282  0.3147 -0.0877
 2534TIP3   OH231796   3.592   5.553  18.299 -0.2238 -0.8660 -0.1180
 2534TIP3    H131797   3.512   5.547  18.246  0.8550  1.6344 -2.2033
 2534TIP3    H231798   3.628   5.464  18.298 -3.5891 -2.4735  2.1562
 2535TIP3   OH231799   5.746   2.710  18.218  0.0905  0.0555 -0.4322
 2535TIP3    H131800   5.715   2.799  18.234  0.0925  0.0274 -0.2664
 2535TIP3    H231801   5.835   2.709  18.254 -0.8151 -0.7537  2.0248
 2536TIP3   OH231802   4.071   5.092  18.500  0.5033 -0.2552  0.2400
 2536TIP3    H131803   4.103   5.111  18.412  0.0427  0.2003  0.1705
 2536TIP3    H231804   3.986   5.049  18.486  0.7387 -0.7975  0.4468
 2537TIP3   OH231805   2.217   1.705  16.553  0.0263 -0.2573 -0.4446
 2537TIP3    H131806   2.199   1.748  16.470 -0.8011 -0.2734 -0.2819
 2537TIP3    H231807   2.311   1.687  16.551 -0.1358 -1.0482 -1.7452
 2538TIP3   OH231808   0.638   6.006  19.893 -0.4695 -0.1181 -0.6446
 2538TIP3    H131809   0.723   5.999  19.936 -0.6843 -1.8813 -0.4209
 2538TIP3    H231810   0.611   5.915  19.878 -2.5101  0.3754 -0.3292
 2539TIP3   OH231811   5.626   5.465  18.759  0.6350  0.0361 -0.4400
 2539TIP3    H131812   5.566   5.536  18.734  1.4545  0.7583 -0.3738
 2539TIP3    H231813   5.688   5.505  18.819  0.6493 -0.9259  0.2128
 2540TIP3   OH231814   4.811   3.106  19.794  0.1560  0.3179 -0.3251
 2540TIP3    H131815   4.747   3.051  19.839  1.2940  0.2254  1.2966
 2540TIP3    H231816   4.844   3.052  19.722  0.0423 -0.4869  0.2176
 2541TIP3   OH231817   6.489   2.796  18.020 -0.1606 -0.2780 -0.3350
 2541TIP3    H131818   6.517   2.883  18.046  1.3366 -0.4775 -1.1707
 2541TIP3    H231819   6.454   2.807  17.931 -0.1506 -0.5029 -0.3688
 2542TIP3   OH231820   0.997   5.174  18.231 -0.6652 -0.0415 -0.0843
 2542TIP3    H131821   0.902   5.183  18.225 -0.6865  0.2639  0.7110
 2542TIP3    H231822   1.023   5.228  18.306  0.3811  1.6653 -1.5644
 2543TIP3   OH231823   1.877   0.406  16.958 -0.2469 -0.3516  0.7243
 2543TIP3    H131824   1.961   0.419  17.002  0.1874  1.0725 -0.4649
 2543TIP3    H231825   1.866   0.483  16.903 -1.3138 -1.5179 -0.7926
 2544TIP3   OH231826   3.074   1.887  19.727  0.2600  0.1616 -0.2358
 2544TIP3    H131827   3.108   1.809  19.772 -2.3108 -0.5083  0.7459
 2544TIP3    H231828   3.109   1.881  19.639  4.0239  0.5222  1.0455
 2545TIP3   OH231829   2.025   2.650  18.590  0.4155  0.3091  0.2947
 2545TIP3    H131830   1.932   2.672  18.592  0.2970 -0.2130  1.2204
 2545TIP3    H231831   2.035   2.585  18.659  1.4951  0.4395  0.2692
 2546TIP3   OH231832   4.184   3.794  19.736 -0.2458  0.2800 -0.1061
 2546TIP3    H131833   4.128   3.779  19.661  0.8663 -0.3906 -0.8444
 2546TIP3    H231834   4.249   3.857  19.706  1.4064 -1.4642 -0.4066
 2547TIP3   OH231835   1.348   0.536  19.241 -0.0971 -0.0666 -0.1696
 2547TIP3    H131836   1.298   0.464  19.277 -0.9100  0.2765 -0.5836
 2547TIP3    H231837   1.336   0.529  19.147 -0.3343  0.7076 -0.2043
 2548TIP3   OH231838   4.716   1.346  17.951 -0.3291  0.0898 -0.3175
 2548TIP3    H131839   4.787   1.291  17.983  1.0004  0.3627 -2.5865
 2548TIP3    H231840   4.700   1.409  18.021  0.7627 -0.8040  0.7653
 2549TIP3   OH231841   2.507   0.710  18.514 -0.3271 -0.1312 -0.6837
 2549TIP3    H131842   2.415   0.707  18.539 -0.8126  2.1710 -1.8995
 2549TIP3    H231843   2.506   0.708  18.418  0.7392  1.5435 -0.7714
 2550TIP3   OH231844   5.671   1.708  16.848 -0.3686  0.6484  0.0062
 2550TIP3    H131845   5.665   1.784  16.790 -2.2218  1.3629  1.0617
 2550TIP3    H231846   5.738   1.653  16.808 -1.2000  1.3400 -2.5406
 2551TIP3   OH231847   2.888   6.342  17.425 -0.2234 -0.4423 -0.8560
 2551TIP3    H131848   2.805   6.310  17.390 -0.0078 -1.9077 -0.0759
 2551TIP3    H231849   2.881   6.331  17.519 -0.2087  2.0568 -0.4962
 2552TIP3   OH231850   6.561   4.809  17.651  0.1445  0.3420  0.3881
 2552TIP3    H131851   6.653   4.797  17.672  0.2223  0.1484 -0.0692
 2552TIP3    H231852   6.516   4.741  17.701  0.0133  1.7706  2.3552
 2553TIP3   OH231853   1.797   0.519  18.199 -0.1807  0.4079 -0.1654
 2553TIP3    H131854   1.877   0.532  18.249 -0.0281  2.3751 -0.8175
 2553TIP3    H231855   1.741   0.467  18.256  1.3315 -0.5007  0.5396
 2554TIP3   OH231856   4.562   4.308  18.133  0.0235  0.3576  0.3901
 2554TIP3    H131857   4.654   4.324  18.116 -0.3385  2.3058  0.0767
 2554TIP3    H231858   4.555   4.307  18.229  0.6894 -2.1152  0.4794
 2555TIP3   OH231859   1.598   0.495  17.544 -0.0259  0.0002  0.1132
 2555TIP3    H131860   1.608   0.491  17.449 -0.3012  4.3911 -0.3308
 2555TIP3    H231861   1.679   0.457  17.578  0.0896 -1.6442 -1.8238
 2556TIP3   OH231862   3.417   3.134  17.941  0.4428 -0.1159  0.5239
 2556TIP3    H131863   3.406   3.229  17.949 -1.3328 -0.1006 -1.2628
 2556TIP3    H231864   3.415   3.119  17.846 -1.5698 -2.1507  0.8213
 2557TIP3   OH231865   2.905   1.599  18.350 -0.5310 -0.0894  0.1202
 2557TIP3    H131866   2.862   1.542  18.413 -1.1707 -0.1553 -0.3605
 2557TIP3    H231867   2.867   1.685  18.365 -0.5156 -0.0574 -0.0196
 2558TIP3   OH231868   5.962   5.388  19.160 -0.0823 -0.4830  0.0275
 2558TIP3    H131869   5.885   5.352  19.116 -0.5556 -0.3793  0.7537
 2558TIP3    H231870   5.937   5.478  19.182 -0.2516 -0.8493  1.4244
 2559TIP3   OH231871   4.303   1.363  19.713 -0.0680 -0.6003  0.0403
 2559TIP3    H131872   4.328   1.429  19.778 -0.1074 -0.3105 -0.2402
 2559TIP3    H231873   4.227   1.319  19.751  0.2652 -0.8278  0.4580
 2560TIP3   OH231874   2.888   4.923  18.970 -0.8677 -0.0520  0.0594
 2560TIP3    H131875   2.812   4.980  18.985  1.0646  2.5254  0.8469
 2560TIP3    H231876   2.911   4.937  18.878 -1.2607 -0.7572 -0.1534
 2561TIP3   OH231877   5.227   2.705  19.539 -0.3032 -0.5289  0.4687
 2561TIP3    H131878   5.198   2.653  19.464 -2.7936 -1.2036  1.7960
 2561TIP3    H231879   5.247   2.640  19.607  0.8900  0.1143  0.7589
 2562TIP3   OH231880   0.603   0.310  18.076  0.4166 -0.5339 -0.0461
 2562TIP3    H131881   0.669   0.359  18.126  0.3623 -0.9515  0.4352
 2562TIP3    H231882   0.614   0.219  18.103 -1.1542 -0.4599  0.9448
 2563TIP3   OH231883   4.598   3.847  18.403  0.1217  0.1444  0.5641
 2563TIP3    H131884   4.685   3.807  18.401 -0.0100 -0.1772  1.0454
 2563TIP3    H231885   4.582   3.865  18.496  0.4721  1.9921  0.2995
 2564TIP3   OH231886   3.057   0.253  20.404  0.6900 -0.0583  0.4253
 2564TIP3    H131887   3.072   0.159  20.405  1.1373  0.0096  0.1986
 2564TIP3    H231888   3.113   0.286  20.334 -0.6336  0.1717 -0.5873
 2565TIP3   OH231889   5.443   3.055  20.016 -0.3601 -0.3642  0.8752
 2565TIP3    H131890   5.498   3.043  20.094 -0.4531 -0.5751  0.9090
 2565TIP3    H231891   5.469   3.140  19.981  1.0890 -1.1233  0.0109
 2566TIP3   OH231892   0.809   0.578  18.437 -0.1059  0.2403  0.1572
 2566TIP3    H131893   0.873   0.547  18.502  1.0499 -0.2771 -1.1620
 2566TIP3    H231894   0.750   0.504  18.425  0.5381 -0.1986 -0.4038
 2567TIP3   OH231895   2.284   6.450  19.849  0.8609 -0.0222 -0.0047
 2567TIP3    H131896   2.335   6.417  19.775  0.0688 -0.4014 -0.4022
 2567TIP3    H231897   2.320   6.537  19.867  0.8240  0.2358 -1.0895
 2568TIP3   OH231898   0.508   2.953  17.031 -0.4788  0.1750  0.1455
 2568TIP3    H131899   0.471   2.972  16.945 -1.3130 -1.1985  0.1881
 2568TIP3    H231900   0.499   2.859  17.041  3.1539 -0.3294  0.1022
 2569TIP3   OH231901   2.883   4.498  18.547 -0.2949  0.6824 -0.2078
 2569TIP3    H131902   2.829   4.573  18.574 -0.5931  0.1418  0.7315
 2569TIP3    H231903   2.821   4.435  18.511 -0.1510  0.5280 -0.1856
 2570TIP3   OH231904   1.022   2.527  19.870  0.5301 -0.3793 -0.2679
 2570TIP3    H131905   0.997   2.435  19.870 -1.2566  0.0425  0.9664
 2570TIP3    H231906   0.952   2.571  19.821  0.4203  0.4972  0.6313
 2571TIP3   OH231907   6.181   3.899  19.641 -0.5892 -0.3032  0.3842
 2571TIP3    H131908   6.237   3.976  19.642  1.5473 -1.7249  2.8853
 2571TIP3    H231909   6.107   3.923  19.698 -2.2653  1.2533 -2.2162
 2572TIP3   OH231910   4.733   1.206  16.660 -0.3451  0.4154 -0.1433
 2572TIP3    H131911   4.778   1.124  16.677 -0.1251  0.6562  0.4470
 2572TIP3    H231912   4.742   1.256  16.741 -1.0221  0.7695 -0.2812
 2573TIP3   OH231913   0.437   0.430  19.076 -0.3164  0.4995 -0.7087
 2573TIP3    H131914   0.364   0.491  19.090 -0.3970  0.1801  0.4027
 2573TIP3    H231915   0.483   0.429  19.160 -1.4570 -2.4578 -0.0002
 2574TIP3   OH231916   5.040   4.172  16.917  0.1674  0.3149 -0.2481
 2574TIP3    H131917   5.114   4.231  16.898 -1.2073  2.4434  0.5679
 2574TIP3    H231918   4.979   4.186  16.844  0.4196 -1.2456 -0.7932
 2575TIP3   OH231919   0.066   2.351  17.761  0.2741 -0.2457 -0.7208
 2575TIP3    H131920  -0.001   2.415  17.786  2.9790  2.2264  0.9663
 2575TIP3    H231921   0.025   2.266  17.774 -2.4124  1.1198  0.5425
 2576TIP3   OH231922   0.150   5.071  17.776  0.1397 -0.8019 -0.3906
 2576TIP3    H131923   0.177   4.979  17.776  0.9160 -0.6390 -2.6463
 2576TIP3    H231924   0.204   5.111  17.844 -1.0591 -2.1701  1.4861
 2577TIP3   OH231925   4.164   1.569  18.762  0.0869  0.7777 -0.0092
 2577TIP3    H131926   4.162   1.518  18.843  2.3736 -0.1905 -0.4715
 2577TIP3    H231927   4.229   1.637  18.779  1.3976 -0.0746 -1.3188
 2578TIP3   OH231928   1.086   6.001  18.476  0.0278 -0.0171  0.2358
 2578TIP3    H131929   1.104   6.089  18.443  1.1522 -0.2014  0.3396
 2578TIP3    H231930   1.132   5.943  18.416  1.3061 -0.4040  1.5472
 2579TIP3   OH231931   6.229   1.904  19.805  0.2565  0.3427 -0.0436
 2579TIP3    H131932   6.224   1.820  19.758 -0.1287  0.1505  0.3346
 2579TIP3    H231933   6.288   1.957  19.752  0.7744 -0.2809 -0.1084
 2580TIP3   OH231934   6.028   1.349  17.434  0.3502  0.4595 -0.2094
 2580TIP3    H131935   6.006   1.263  17.399 -0.3675  0.4350  0.2836
 2580TIP3    H231936   5.958   1.369  17.496  1.6176  0.4535  1.2855
 2581TIP3   OH231937   6.331   3.760  18.223 -0.0336 -0.5543  0.0053
 2581TIP3    H131938   6.346   3.825  18.154  1.0147  0.0705  0.7828
 2581TIP3    H231939   6.237   3.762  18.238 -0.0921  0.3414 -0.4245
 2582TIP3   OH231940   0.003   6.482  16.991 -0.2114 -0.5403  0.0883
 2582TIP3    H131941   0.057   6.427  16.935 -0.7813  0.2726 -1.3220
 2582TIP3    H231942  -0.085   6.478  16.952 -0.6510 -0.0300  0.9875
 2583TIP3   OH231943   5.752   2.707  19.434 -0.5570 -0.5294  0.0193
 2583TIP3    H131944   5.826   2.647  19.440  1.1726  1.5041  0.3152
 2583TIP3    H231945   5.707   2.699  19.518 -1.0125 -2.1123 -0.3320
 2584TIP3   OH231946   4.754   0.066  19.277 -0.7240 -0.2766 -0.2418
 2584TIP3    H131947   4.737   0.131  19.345  0.0896  2.1871 -2.2291
 2584TIP3    H231948   4.710  -0.013  19.308 -2.3120  1.3673  2.0455
 2585TIP3   OH231949   1.035   1.595  19.027 -0.0449 -0.3160  0.7324
 2585TIP3    H131950   1.112   1.618  18.976 -0.9166  0.7916 -0.1227
 2585TIP3    H231951   0.997   1.678  19.053 -1.1615 -0.8263  0.8139
 2586TIP3   OH231952   4.423   3.206  20.008  0.1338  0.4527  0.0516
 2586TIP3    H131953   4.397   3.115  19.993 -0.9952  0.5088  1.4812
 2586TIP3    H231954   4.470   3.204  20.092  2.3932  0.8132 -1.1183
 2587TIP3   OH231955   2.632   1.823  17.327  0.8362 -0.4663  0.2270
 2587TIP3    H131956   2.663   1.793  17.241 -1.6444  0.5403 -1.1358
 2587TIP3    H231957   2.540   1.794  17.330  1.4115 -2.4274  3.5608
 2588TIP3   OH231958   0.315   0.466  16.650  0.0565  0.0649 -0.0428
 2588TIP3    H131959   0.365   0.547  16.643  1.6001 -0.7223  1.2260
 2588TIP3    H231960   0.243   0.487  16.710  2.0432 -0.1478  2.5791
 2589TIP3   OH231961   6.640   0.998  17.818 -0.0124  0.8206 -0.9760
 2589TIP3    H131962   6.659   0.914  17.776 -2.0604 -0.0220 -0.3699
 2589TIP3    H231963   6.702   1.003  17.891 -1.8754 -1.8068  0.9851
 2590TIP3   OH231964   1.552   3.466  18.991  0.0575  0.4854  0.2390
 2590TIP3    H131965   1.458   3.459  18.970  0.2422  0.0787 -0.4988
 2590TIP3    H231966   1.557   3.449  19.085 -0.4867 -0.6480  0.0742
 2591TIP3   OH231967   5.676   4.545  17.603 -0.2964  0.4463  0.0077
 2591TIP3    H131968   5.659   4.627  17.650  0.0178 -0.1416  1.1726
 2591TIP3    H231969   5.666   4.477  17.669  0.5537 -0.3703 -0.6828
 2592TIP3   OH231970   0.500   1.538  19.755  0.3271 -0.1708  0.2168
 2592TIP3    H131971   0.412   1.524  19.720  0.1976 -0.2009  0.5508
 2592TIP3    H231972   0.488   1.605  19.822  0.6232  0.1015 -0.0052
 2593TIP3   OH231973   0.924   4.322  17.369 -0.4532  0.2863 -0.0458
 2593TIP3    H131974   0.896   4.232  17.389  0.9924 -0.2045 -0.1038
 2593TIP3    H231975   0.897   4.336  17.279  0.9097 -0.7787 -0.6537
 2594TIP3   OH231976   6.545   6.667  18.952  0.4423  0.8756 -0.2123
 2594TIP3    H131977   6.602   6.675  19.028  2.4372  1.8053 -1.7114
 2594TIP3    H231978   6.513   6.756  18.937  0.6033  0.8342 -0.8317
 2595TIP3   OH231979   3.067   1.549  18.131  0.3905  0.5332  0.7252
 2595TIP3    H131980   3.007   1.597  18.187  1.2090  2.0636  0.3344
 2595TIP3    H231981   3.139   1.523  18.188  0.7022  1.1582  0.6285
 2596TIP3   OH231982   4.245   1.857  18.413 -0.1436  0.5274  0.3587
 2596TIP3    H131983   4.234   1.784  18.353  0.5599  0.9397 -0.3043
 2596TIP3    H231984   4.325   1.900  18.383 -1.1406  2.2307  0.0111
 2597TIP3   OH231985   0.857   5.357  17.174  0.8023  0.0211 -0.7071
 2597TIP3    H131986   0.948   5.340  17.199  0.0871 -2.5762  0.5244
 2597TIP3    H231987   0.829   5.278  17.128 -1.4478 -0.3048  0.9814
 2598TIP3   OH231988   4.984   0.229  18.795  0.1061  0.0887  0.1531
 2598TIP3    H131989   4.899   0.268  18.818 -0.4071 -0.4493 -0.7888
 2598TIP3    H231990   4.969   0.135  18.802  0.6118 -0.0086 -0.0918
 2599TIP3   OH231991   5.297   3.563  19.311  0.0928  0.1491 -0.6113
 2599TIP3    H131992   5.258   3.644  19.278  3.3118  1.3954 -1.7379
 2599TIP3    H231993   5.239   3.536  19.382 -1.3894  3.1938 -0.4970
 2600TIP3   OH231994   3.439   6.104  18.770  0.0629  0.1488 -0.2392
 2600TIP3    H131995   3.532   6.105  18.747  0.0591 -0.7922 -0.3421
 2600TIP3    H231996   3.435   6.149  18.854  0.6981 -0.2855  0.0370
 2601TIP3   OH231997   5.373   6.540  18.779 -0.7165 -0.4664 -0.1301
 2601TIP3    H131998   5.326   6.521  18.860 -2.5447 -0.4251 -1.1271
 2601TIP3    H231999   5.407   6.629  18.791 -0.8721 -0.5085  0.6233
 2602TIP3   OH232000   1.644   6.108  18.359 -0.0142  0.3280  0.2033
 2602TIP3    H132001   1.607   6.020  18.360  1.0985 -0.1513  0.1107
 2602TIP3    H232002   1.737   6.095  18.340  0.2861  1.4710  0.8049
 2603TIP3   OH232003   0.421   5.423  18.263 -0.5189 -0.3413 -0.4585
 2603TIP3    H132004   0.495   5.463  18.218 -0.4699 -1.2394 -1.2098
 2603TIP3    H232005   0.363   5.394  18.193  0.8057 -4.2261 -0.2073
 2604TIP3   OH232006   6.067   5.866  17.921 -0.0582 -0.1584  0.1982
 2604TIP3    H132007   6.102   5.805  17.986  0.8477  1.1269  0.9554
 2604TIP3    H232008   5.972   5.853  17.925  0.0243 -0.5091  1.3791
 2605TIP3   OH232009   0.365   2.605  18.072  0.1131 -0.3462  0.4467
 2605TIP3    H132010   0.327   2.517  18.076 -0.0114 -0.2532  1.5518
 2605TIP3    H232011   0.411   2.615  18.155  1.2920  0.1253 -0.2403
 2606TIP3   OH232012   6.122   2.995  20.173  0.7125  0.2178  0.3837
 2606TIP3    H132013   6.100   2.970  20.084 -2.3623 -1.1405  1.3994
 2606TIP3    H232014   6.080   2.929  20.228 -0.0045  2.5775  2.9182
 2607TIP3   OH232015   2.245   4.027  18.339 -0.1286 -0.3227 -0.3685
 2607TIP3    H132016   2.261   4.034  18.245  1.2070 -1.5725 -0.2684
 2607TIP3    H232017   2.324   4.064  18.379 -0.5543 -0.0837  0.2631
 2608TIP3   OH232018   2.827   0.563  18.788 -0.0588 -0.2237 -0.3784
 2608TIP3    H132019   2.803   0.544  18.878  0.6700  0.8882  0.0663
 2608TIP3    H232020   2.813   0.657  18.778  0.3146 -0.2478 -1.2852
 2609TIP3   OH232021   2.354   2.758  19.237 -0.1908  0.1012  0.8477
 2609TIP3    H132022   2.287   2.690  19.248  0.3456 -0.6156 -0.2286
 2609TIP3    H232023   2.435   2.717  19.269  0.4740 -0.4047 -1.3185
 2610TIP3   OH232024   4.915   6.636  18.937  0.4757 -0.1594  0.2129
 2610TIP3    H132025   4.865   6.558  18.912  0.9237 -0.1023 -0.9167
 2610TIP3    H232026   5.000   6.602  18.963  0.3669 -0.1211  0.6220
 2611TIP3   OH232027   1.341   2.589  18.313 -0.4344  0.1813 -0.3779
 2611TIP3    H132028   1.335   2.652  18.241  0.2439  0.2328 -0.4036
 2611TIP3    H232029   1.383   2.512  18.274  0.8338  0.5690  0.1623
 2612TIP3   OH232030   1.705   5.165  19.340 -0.0351 -0.2918  0.2962
 2612TIP3    H132031   1.768   5.149  19.410 -0.6105 -1.2897  0.6073
 2612TIP3    H232032   1.636   5.217  19.380  0.0407 -0.1604  0.2561
 2613TIP3   OH232033   3.010   1.137  18.300  0.3399  0.2037 -0.0795
 2613TIP3    H132034   3.033   1.070  18.365 -0.5202  0.6878  0.7381
 2613TIP3    H232035   3.066   1.117  18.224 -0.0204 -1.5315  0.0847
 2614TIP3   OH232036   0.368   2.785  20.097  0.4111 -0.1078 -0.1565
 2614TIP3    H132037   0.272   2.787  20.106  0.2234 -0.2420 -1.7856
 2614TIP3    H232038   0.394   2.704  20.141 -0.2301 -0.1247  0.2122
 2615TIP3   OH232039   6.194   6.343  18.150 -0.0696 -0.2266  0.2691
 2615TIP3    H132040   6.254   6.409  18.115 -1.2234  0.5919 -0.2358
 2615TIP3    H232041   6.163   6.380  18.233  2.5234 -2.0849  2.2030
 2616TIP3   OH232042   4.941   0.925  17.650 -0.4088  0.5240 -0.2968
 2616TIP3    H132043   5.022   0.976  17.642 -0.1887  0.3020  0.4028
 2616TIP3    H232044   4.952   0.852  17.590  1.8958 -2.0364  2.8901
 2617TIP3   OH232045   2.348   2.236  19.073 -0.1909 -0.0366  0.5326
 2617TIP3    H132046   2.291   2.176  19.121  1.0509 -1.2024  0.6168
 2617TIP3    H232047   2.425   2.246  19.130  0.2842  0.4129 -0.1751
 2618TIP3   OH232048   5.109   3.366  18.489  0.2336 -0.2088 -0.0396
 2618TIP3    H132049   5.117   3.441  18.548  0.1479 -0.1014 -0.1640
 2618TIP3    H232050   5.015   3.352  18.480  0.1990  0.7246 -1.3451
 2619TIP3   OH232051   4.175   3.219  18.403 -0.3182  0.3401 -0.5663
 2619TIP3    H132052   4.096   3.252  18.444  0.0352 -0.5983  0.9391
 2619TIP3    H232053   4.223   3.297  18.376 -1.2832  0.9316 -0.5752
 2620TIP3   OH232054   2.239   2.501  19.101  0.0468  0.1318  0.0099
 2620TIP3    H132055   2.275   2.416  19.075  2.3712  0.8086  0.7470
 2620TIP3    H232056   2.147   2.484  19.118  0.4637 -2.2613  0.2303
 2621TIP3   OH232057   4.020   3.508  18.192 -0.8866  0.3272  0.0545
 2621TIP3    H132058   3.943   3.515  18.248 -0.4763 -0.2388  0.7139
 2621TIP3    H232059   3.994   3.446  18.123 -1.6122  1.5371 -0.7820
 2622TIP3   OH232060   1.206   4.826  18.786 -0.1636 -0.0772  0.2874
 2622TIP3    H132061   1.189   4.842  18.879 -0.4778 -0.4730  0.3037
 2622TIP3    H232062   1.202   4.731  18.778 -1.3408  0.0148 -0.3540
 2623TIP3   OH232063   0.615   4.782  19.932  0.0870  1.1229 -0.0591
 2623TIP3    H132064   0.630   4.846  19.863  1.0741  1.7881  0.7492
 2623TIP3    H232065   0.695   4.783  19.984 -0.8779  1.1262  1.4967
 2624TIP3   OH232066   0.543   3.399  18.954 -0.2560  0.4800 -0.4338
 2624TIP3    H132067   0.553   3.444  19.038 -1.2517 -0.2952  0.1269
 2624TIP3    H232068   0.448   3.400  18.938 -0.3244 -1.3699 -0.4033
 2625TIP3   OH232069   5.666   6.088  18.126  0.3779 -0.5014 -0.6814
 2625TIP3    H132070   5.744   6.137  18.153 -0.2758  0.8164 -1.0649
 2625TIP3    H232071   5.635   6.135  18.048 -1.0518 -0.7116 -0.2646
 2626TIP3   OH232072   5.202   0.994  17.537 -0.0309  0.5845  0.0081
 2626TIP3    H132073   5.144   0.980  17.462  0.3089 -0.2738 -0.1168
 2626TIP3    H232074   5.269   0.926  17.527 -0.1017  0.3156  1.2033
 2627TIP3   OH232075   2.796   3.083  16.870 -0.5960 -0.1740  0.2523
 2627TIP3    H132076   2.743   3.043  16.939 -0.3166 -0.7628  0.1318
 2627TIP3    H232077   2.754   3.168  16.853 -0.5997  0.0271  1.2207
 2628TIP3   OH232078   1.881   4.512  18.186 -0.2828 -0.2817  0.0140
 2628TIP3    H132079   1.908   4.492  18.097  0.5792 -1.0313  0.4260
 2628TIP3    H232080   1.893   4.607  18.194  1.2410 -0.4310 -0.1664
 2629TIP3   OH232081   0.146   3.209  19.689 -0.3425 -0.2138 -0.2683
 2629TIP3    H132082   0.113   3.299  19.692  0.6479  0.1729 -0.8117
 2629TIP3    H232083   0.096   3.164  19.758 -0.0204  1.0321  0.8205
 2630TIP3   OH232084   6.448   0.257  18.938  0.3377  0.0321  0.0026
 2630TIP3    H132085   6.425   0.347  18.918 -1.6263  0.1924  2.4954
 2630TIP3    H232086   6.369   0.219  18.976  1.2487 -2.6260 -0.5012
 2631TIP3   OH232087   5.486   1.864  18.322  0.3307 -0.1429 -0.3239
 2631TIP3    H132088   5.527   1.824  18.246  0.1872 -1.5027  0.2874
 2631TIP3    H232089   5.454   1.790  18.374  1.2798  0.6856  1.5465
 2632TIP3   OH232090   6.182   3.584  17.931 -0.8493  0.0335  0.6540
 2632TIP3    H132091   6.098   3.546  17.957 -0.9313 -1.7216 -1.8395
 2632TIP3    H232092   6.160   3.672  17.901 -1.9773 -0.6663 -0.6931
 2633TIP3   OH232093   0.963   2.253  19.933  0.1439 -0.0156 -0.1930
 2633TIP3    H132094   0.914   2.193  19.877  0.6814 -1.9204  1.2826
 2633TIP3    H232095   1.054   2.241  19.908  0.1190  1.6270 -1.1752
 2634TIP3   OH232096   3.358   1.232  17.888  0.3469  0.4751  0.6426
 2634TIP3    H132097   3.343   1.285  17.966 -0.0876  3.3692 -1.2440
 2634TIP3    H232098   3.451   1.245  17.868  0.6167 -0.7920  1.0198
 2635TIP3   OH232099   3.720   5.194  17.154  0.4954  0.4050  0.6112
 2635TIP3    H132100   3.659   5.123  17.172  1.0909  0.4337  2.9948
 2635TIP3    H232101   3.806   5.153  17.158  0.7841  0.9889  0.4569
 2636TIP3   OH232102   5.956   4.266  18.757 -0.3311  0.3804  0.2620
 2636TIP3    H132103   5.964   4.356  18.788  1.2906  0.2063  0.4034
 2636TIP3    H232104   5.913   4.274  18.672 -0.2043  1.2849  0.2709
 2637TIP3   OH232105   4.350   2.371  19.618 -0.1273  0.2575  0.1373
 2637TIP3    H132106   4.307   2.419  19.689  0.8618  1.2164  0.1131
 2637TIP3    H232107   4.283   2.310  19.587 -1.0450  0.8212  0.9384
 2638TIP3   OH232108   6.195   4.401  20.171 -0.7773 -0.2262  0.0308
 2638TIP3    H132109   6.102   4.415  20.155 -0.9583 -1.6336 -0.2914
 2638TIP3    H232110   6.234   4.489  20.170 -1.8403  0.2611 -1.3968
 2639TIP3   OH232111   5.471   0.536  16.444 -0.1369 -0.1712 -0.0400
 2639TIP3    H132112   5.539   0.470  16.425 -0.0389 -0.1606  0.2642
 2639TIP3    H232113   5.389   0.488  16.433 -0.0574 -0.4855  0.6714
 2640TIP3   OH232114   5.058   0.691  19.295 -0.0048  0.1332  0.2540
 2640TIP3    H132115   4.979   0.687  19.349 -0.0993  0.7159  0.1594
 2640TIP3    H232116   5.098   0.605  19.306 -0.8385 -0.2999  0.0057
 2641TIP3   OH232117   0.844   1.236  17.397 -0.3918  0.2094 -0.4913
 2641TIP3    H132118   0.803   1.166  17.448  0.2861  0.9674  1.1593
 2641TIP3    H232119   0.775   1.300  17.383 -0.3135  0.4978  0.4239
 2642TIP3   OH232120   5.348   3.967  19.909 -0.2006  0.0485 -0.1799
 2642TIP3    H132121   5.259   4.000  19.899 -0.4487 -0.9756 -1.6319
 2642TIP3    H232122   5.337   3.879  19.944  0.3003  0.2490  0.5065
 2643TIP3   OH232123   0.095   5.092  19.067 -0.5801  0.1361 -0.2138
 2643TIP3    H132124   0.153   5.060  19.137 -0.7697  1.9332  0.8218
 2643TIP3    H232125   0.044   5.015  19.042  0.6434 -0.9442  0.4669
 2644TIP3   OH232126   1.418   5.472  19.121  0.1245  0.0319  0.1466
 2644TIP3    H132127   1.427   5.378  19.103  1.1810 -0.0318  0.9295
 2644TIP3    H232128   1.392   5.477  19.213 -2.2756  0.4576 -0.4954
 2645TIP3   OH232129   5.502   1.536  18.739 -0.4616 -0.3975 -0.1607
 2645TIP3    H132130   5.519   1.628  18.720  0.3793 -0.4949  0.0591
 2645TIP3    H232131   5.587   1.501  18.767 -0.8646 -1.1338  0.1838
 2646TIP3   OH232132   2.735   5.596  18.572  0.3147  0.7851 -0.0668
 2646TIP3    H132133   2.746   5.546  18.653  0.1842  0.0220 -0.5130
 2646TIP3    H232134   2.753   5.686  18.598  1.3087  0.4160  0.5822
 2647TIP3   OH232135   6.169   1.823  20.231 -0.6357 -0.1174  0.0203
 2647TIP3    H132136   6.220   1.749  20.264  0.7848  0.7241 -0.2101
 2647TIP3    H232137   6.082   1.786  20.211  0.1882 -1.8309 -0.5716
 2648TIP3   OH232138   3.323   1.517  17.063 -0.1535  0.3576 -0.2491
 2648TIP3    H132139   3.256   1.552  17.004  0.8363 -0.0593 -1.6853
 2648TIP3    H232140   3.321   1.422  17.048 -1.3811 -0.0524  2.0564
 2649TIP3   OH232141   6.450   2.209  17.032 -0.0907  0.0761 -0.0587
 2649TIP3    H132142   6.451   2.169  17.119  0.3519  1.5918  0.6648
 2649TIP3    H232143   6.377   2.271  17.034 -0.4405 -0.2894 -0.9734
 2650TIP3   OH232144   5.562   6.086  19.046  0.2982 -0.4521 -0.1215
 2650TIP3    H132145   5.472   6.062  19.022 -0.5924  1.5530  0.9700
 2650TIP3    H232146   5.606   6.100  18.962 -1.2658  1.3575 -0.7246
 2651TIP3   OH232147   5.452   1.197  17.969  0.3049 -0.1860  0.5052
 2651TIP3    H132148   5.361   1.168  17.955 -0.0251  1.1612 -0.4279
 2651TIP3    H232149   5.505   1.130  17.928 -0.2512 -1.1190  1.2746
 2652TIP3   OH232150   5.549   6.137  19.885 -0.3901 -0.1043  0.0099
 2652TIP3    H132151   5.523   6.082  19.811  1.2540  1.1042 -1.5302
 2652TIP3    H232152   5.593   6.077  19.945  0.7806 -0.6360 -1.3332
 2653TIP3   OH232153   2.937   2.161  18.130  0.4545 -0.1840  0.0682
 2653TIP3    H132154   2.913   2.233  18.188  0.1726 -0.4577  0.2992
 2653TIP3    H232155   3.031   2.151  18.142  0.2026 -1.1632  1.5924
 2654TIP3   OH232156   5.726   6.430  17.071  0.8597 -0.5241  0.0635
 2654TIP3    H132157   5.651   6.418  17.129 -0.0625  0.2246 -0.9300
 2654TIP3    H232158   5.729   6.350  17.019  0.9997 -0.7203  0.3700
 2655TIP3   OH232159   3.031   4.824  19.908 -0.3094 -0.0153  0.5698
 2655TIP3    H132160   3.109   4.769  19.897  0.4754  1.2348 -0.3747
 2655TIP3    H232161   2.965   4.765  19.946  1.0795 -1.1046  1.3938
 2656TIP3   OH232162   5.978   5.188  17.546 -0.2193  0.0718  0.1314
 2656TIP3    H132163   6.054   5.162  17.598 -0.8754  0.7292  1.4802
 2656TIP3    H232164   5.993   5.281  17.526 -0.3274  0.0156 -0.2094
 2657TIP3   OH232165   1.339   1.035  17.524 -0.7124  0.6272  0.2425
 2657TIP3    H132166   1.402   0.974  17.486 -0.7465  0.7655 -0.0358
 2657TIP3    H232167   1.390   1.114  17.540 -0.6835  0.5493  0.5437
 2658TIP3   OH232168   4.438   5.735  18.429 -0.2698 -1.3028 -0.3265
 2658TIP3    H132169   4.529   5.705  18.428  0.7340  1.4244 -2.2439
 2658TIP3    H232170   4.409   5.723  18.338 -0.5067  1.3021 -0.6567
 2659TIP3   OH232171   1.413   4.651  17.982 -0.3129  0.1985  0.3761
 2659TIP3    H132172   1.409   4.732  18.034 -1.3796  0.4407 -0.0589
 2659TIP3    H232173   1.365   4.672  17.902  0.5842 -0.4387 -0.3550
 2660TIP3   OH232174   2.489   3.954  19.492  0.4076 -0.1148 -0.3664
 2660TIP3    H132175   2.412   3.987  19.538 -0.4195  1.0609 -2.4469
 2660TIP3    H232176   2.513   3.875  19.540 -0.3946  0.9831  1.9892
 2661TIP3   OH232177   4.508   1.076  19.258  0.4438 -0.1123 -0.2367
 2661TIP3    H132178   4.463   1.143  19.309  0.3549  0.9548 -1.6578
 2661TIP3    H232179   4.550   1.124  19.187  1.7691 -1.3865 -0.3644
 2662TIP3   OH232180   5.434   4.596  17.759  0.4574  0.0636 -0.0673
 2662TIP3    H132181   5.516   4.551  17.781  1.9811  1.9613 -1.4883
 2662TIP3    H232182   5.434   4.675  17.813 -0.8978 -0.3406  0.5575
 2663TIP3   OH232183   2.524   1.795  18.691 -0.5591 -0.3313  0.0119
 2663TIP3    H132184   2.532   1.829  18.780  0.0218 -1.8413  0.5679
 2663TIP3    H232185   2.445   1.741  18.692 -0.6664 -0.1856 -0.4372
 2664TIP3   OH232186   4.122   0.315  16.805  0.1645 -0.3692 -0.5091
 2664TIP3    H132187   4.154   0.383  16.865 -0.4461 -0.6181  0.1184
 2664TIP3    H232188   4.182   0.318  16.731 -0.0101  1.0536 -0.6350
 2665TIP3   OH232189   5.839   3.699  20.139 -0.0486  0.6285  1.0148
 2665TIP3    H132190   5.768   3.760  20.122  0.7702  1.5404  0.7309
 2665TIP3    H232191   5.917   3.743  20.102  0.4644 -0.8530  0.2628
 2666TIP3   OH232192   4.026   1.198  17.439  0.1338  0.4169  0.4381
 2666TIP3    H132193   3.992   1.186  17.528  0.1918  1.4784  0.6249
 2666TIP3    H232194   4.120   1.205  17.449  0.1687  0.2299  0.2530
 2667TIP3   OH232195   5.849   4.060  17.548  0.1469 -0.0510 -0.4063
 2667TIP3    H132196   5.826   4.153  17.546  1.3677  0.3055  0.7510
 2667TIP3    H232197   5.912   4.050  17.477 -0.1425 -0.0414 -0.6670
 2668TIP3   OH232198   4.904   5.150  18.187 -0.1165  0.6383 -0.2033
 2668TIP3    H132199   4.867   5.076  18.139  0.2673  0.2787  0.0638
 2668TIP3    H232200   4.947   5.203  18.119  1.1353 -0.2873 -0.1687
 2669TIP3   OH232201   3.952   6.585  17.326 -0.2184  0.1038  0.1595
 2669TIP3    H132202   3.866   6.545  17.317 -0.8979  0.7777  2.7704
 2669TIP3    H232203   3.949   6.663  17.271 -1.6240  0.5932  0.8965
 2670TIP3   OH232204   2.666   3.959  17.039 -0.9540 -0.5151  0.2858
 2670TIP3    H132205   2.756   3.940  17.012 -0.5716 -2.0130  2.3635
 2670TIP3    H232206   2.667   4.053  17.061 -0.2112 -0.2755 -0.6795
 2671TIP3   OH232207   0.529   3.099  18.111 -0.0376  0.7681 -0.3975
 2671TIP3    H132208   0.443   3.109  18.152 -0.1523  0.5079 -0.5685
 2671TIP3    H232209   0.509   3.073  18.021  0.2040  1.6884 -0.7241
 2672TIP3   OH232210   1.485   1.858  18.433  0.2905  0.0061 -0.0091
 2672TIP3    H132211   1.460   1.940  18.475  0.0591 -0.0839  0.0273
 2672TIP3    H232212   1.468   1.790  18.498 -0.9300 -0.2356 -0.5545
 2673TIP3   OH232213   3.654   6.522  17.541 -0.0102  0.0917  0.3226
 2673TIP3    H132214   3.655   6.512  17.446 -1.9730 -1.5211  0.3894
 2673TIP3    H232215   3.679   6.435  17.575  2.3172  1.0819  1.3467
 2674TIP3   OH232216   3.619   1.442  18.146  0.0827  0.5118  0.5309
 2674TIP3    H132217   3.642   1.391  18.069 -1.0155  2.9690 -1.5463
 2674TIP3    H232218   3.697   1.494  18.164  0.9589 -1.2363  2.2442
 2675TIP3   OH232219   3.996   5.838  18.636  0.0293  0.0882 -0.0617
 2675TIP3    H132220   4.088   5.864  18.637 -0.6863  2.9409  0.3628
 2675TIP3    H232221   3.996   5.751  18.595  2.7601  0.5439 -1.2496
 2676TIP3   OH232222   3.113   4.850  19.594 -0.6584  0.0193  0.5699
 2676TIP3    H132223   3.068   4.788  19.537 -0.5517 -1.1669  1.7263
 2676TIP3    H232224   3.066   4.846  19.677  0.4213  0.1738  1.2135
 2677TIP3   OH232225   4.827   3.530  20.069 -0.2174 -0.5138  0.0988
 2677TIP3    H132226   4.790   3.455  20.022 -0.6920  0.3569 -0.9545
 2677TIP3    H232227   4.768   3.602  20.051 -0.4886 -0.1425  2.1638
 2678TIP3   OH232228   3.694   4.211  19.198 -0.6693  0.3348  0.3139
 2678TIP3    H132229   3.670   4.223  19.106  1.1119  0.2112 -0.2007
 2678TIP3    H232230   3.731   4.123  19.201 -0.9252  0.2501  1.2147
 2679TIP3   OH232231   1.509   0.778  19.659 -0.0175 -0.2315 -0.2682
 2679TIP3    H132232   1.510   0.771  19.563  0.9664  1.3979 -0.4170
 2679TIP3    H232233   1.417   0.791  19.681 -0.2080 -0.1722 -1.0455
 2680TIP3   OH232234   0.010   2.082  16.927 -0.3068  0.2662  0.0393
 2680TIP3    H132235  -0.025   2.121  16.846 -0.2431  0.8105  0.2666
 2680TIP3    H232236  -0.039   2.125  16.997  0.7325  0.9697  0.3612
 2681TIP3   OH232237   5.279   2.471  16.832 -0.4875  0.8744 -0.0093
 2681TIP3    H132238   5.369   2.463  16.861 -1.4757  1.0753  3.5266
 2681TIP3    H232239   5.263   2.565  16.827 -0.7483  0.8401  0.1738
 2682TIP3   OH232240   0.882   3.995  19.396 -0.5105 -0.6189 -0.2632
 2682TIP3    H132241   0.972   3.962  19.391 -0.3762 -0.2394 -0.4370
 2682TIP3    H232242   0.892   4.090  19.389 -1.0145 -0.6428 -1.7094
 2683TIP3   OH232243   6.536   2.496  17.574  0.3561  0.3336 -0.2182
 2683TIP3    H132244   6.569   2.540  17.495  0.6875  2.1400  0.8841
 2683TIP3    H232245   6.537   2.563  17.641 -2.8008 -0.3025  0.6251
 2684TIP3   OH232246   4.200   0.467  19.679 -0.6304  0.0205 -0.0841
 2684TIP3    H132247   4.278   0.515  19.651 -0.7570  0.8832  1.0182
 2684TIP3    H232248   4.179   0.502  19.765 -1.0354 -1.6481  0.5369
 2685TIP3   OH232249   2.783   2.209  20.414  0.1429 -0.1729 -0.1046
 2685TIP3    H132250   2.875   2.223  20.395 -0.0729 -1.8846 -3.0164
 2685TIP3    H232251   2.751   2.294  20.443  2.2347  0.9012 -0.7700
 2686TIP3   OH232252   0.086   2.046  18.292 -0.0456 -0.1371 -0.5937
 2686TIP3    H132253   0.091   1.962  18.337  2.1433  0.8725  1.2137
 2686TIP3    H232254   0.161   2.095  18.323  0.8097  1.2587 -4.2853
 2687TIP3   OH232255   1.004   3.973  19.069  0.2862 -0.2914 -0.0112
 2687TIP3    H132256   0.992   3.893  19.120  1.0250 -1.7597 -1.9923
 2687TIP3    H232257   1.056   3.945  18.994  0.2537  1.9972 -0.9515
 2688TIP3   OH232258   1.465   6.431  18.795  0.6937  0.3275  0.0563
 2688TIP3    H132259   1.398   6.414  18.729  0.1993 -1.1310  0.9050
 2688TIP3    H232260   1.511   6.348  18.805  1.6664  0.9098  0.5533
 2689TIP3   OH232261   0.728   2.180  17.972  0.4095 -0.4366 -0.0407
 2689TIP3    H132262   0.764   2.135  17.896  2.5055  1.2845 -0.1711
 2689TIP3    H232263   0.676   2.251  17.935 -0.7771 -1.1928  0.1557
 2690TIP3   OH232264   3.465   2.329  17.652  0.1105 -0.3231 -0.2968
 2690TIP3    H132265   3.465   2.392  17.579  1.7484 -0.8042 -0.7380
 2690TIP3    H232266   3.496   2.380  17.727  1.8683 -0.6554 -0.7504
 2691TIP3   OH232267   3.919   5.912  17.696  0.1895  0.1175 -0.0663
 2691TIP3    H132268   3.858   5.917  17.623  1.3789 -2.5925 -1.3610
 2691TIP3    H232269   3.996   5.960  17.665  0.7004 -1.0457 -0.6601
 2692TIP3   OH232270   4.459   3.171  19.452  0.0974 -0.1732 -0.1396
 2692TIP3    H132271   4.526   3.220  19.500 -0.9716  0.8230  0.3966
 2692TIP3    H232272   4.399   3.139  19.520 -0.7827  0.2361 -0.7038
 2693TIP3   OH232273   4.810   5.486  19.444  0.0445  0.5756  0.1394
 2693TIP3    H132274   4.810   5.399  19.404  1.4762  0.8130 -0.4549
 2693TIP3    H232275   4.751   5.478  19.519  2.5785 -1.8712  2.0879
 2694TIP3   OH232276   3.164   2.770  19.930  0.1374 -0.4046 -0.5783
 2694TIP3    H132277   3.228   2.734  19.869  1.2064  1.3531 -0.5883
 2694TIP3    H232278   3.218   2.802  20.004 -1.0398 -1.7589  0.9291
 2695TIP3   OH232279   3.417   5.729  20.107 -0.6374  0.0625 -0.3312
 2695TIP3    H132280   3.343   5.741  20.167 -0.5254 -0.4906 -0.0750
 2695TIP3    H232281   3.493   5.723  20.165 -0.4299  0.3045 -0.5785
 2696TIP3   OH232282   2.989   0.428  18.213 -0.3804 -0.0229  0.0917
 2696TIP3    H132283   2.974   0.507  18.266 -0.5722 -1.2028  1.9051
 2696TIP3    H232284   2.958   0.356  18.269  0.2352 -1.4324 -1.3052
 2697TIP3   OH232285   6.303   0.618  19.726 -0.3039 -0.7846 -0.4812
 2697TIP3    H132286   6.298   0.683  19.796 -1.2754 -0.7468 -0.5727
 2697TIP3    H232287   6.373   0.559  19.753  0.3697  0.1033 -0.2314
 2698TIP3   OH232288   0.657   1.561  19.012  0.1856  0.0684 -0.4476
 2698TIP3    H132289   0.688   1.545  19.101 -0.6600  3.2904  0.5456
 2698TIP3    H232290   0.736   1.557  18.958  0.6424 -2.3755  0.2899
 2699TIP3   OH232291   5.617   4.358  17.813  0.4294  0.2038  0.1182
 2699TIP3    H132292   5.620   4.265  17.836 -1.3915  0.2421  0.7099
 2699TIP3    H232293   5.611   4.403  17.898 -1.7870  0.6344 -0.2012
 2700TIP3   OH232294   0.878   3.679  19.503  0.6743 -0.2938  0.4076
 2700TIP3    H132295   0.954   3.655  19.557  0.1074 -0.1722  1.2659
 2700TIP3    H232296   0.837   3.752  19.549  1.0021  0.7834 -0.9457
 2701TIP3   OH232297   1.355   0.576  17.301 -0.1512 -0.3786  0.0961
 2701TIP3    H132298   1.340   0.489  17.337 -0.0923  0.6842  2.9576
 2701TIP3    H232299   1.450   0.586  17.302 -0.0829 -0.7105 -1.4275
 2702TIP3   OH232300   2.393   2.128  20.143  0.6546 -0.0952 -0.2086
 2702TIP3    H132301   2.348   2.058  20.096  0.9618  0.5935 -1.5889
 2702TIP3    H232302   2.477   2.090  20.168 -0.7782 -1.5841  2.8988
 2703TIP3   OH232303   3.107   3.884  20.307 -0.0598  0.6839  0.1180
 2703TIP3    H132304   3.063   3.800  20.295 -0.9978  1.4855 -3.2261
 2703TIP3    H232305   3.195   3.862  20.335 -1.0437 -1.2457  1.9066
 2704TIP3   OH232306   1.543   6.157  16.865 -0.1298  0.0548 -0.5469
 2704TIP3    H132307   1.589   6.168  16.782 -0.7604 -1.6560 -1.1732
 2704TIP3    H232308   1.451   6.168  16.843 -0.2421  0.5435  0.1281
 2705TIP3   OH232309   3.752   0.570  17.539  0.2750 -0.2282  0.3049
 2705TIP3    H132310   3.838   0.584  17.577 -0.4306 -0.8439  2.2434
 2705TIP3    H232311   3.752   0.478  17.513  0.3483 -0.1119 -0.1128
 2706TIP3   OH232312   6.107   4.491  18.884 -0.1494  0.0137  0.7653
 2706TIP3    H132313   6.148   4.559  18.937  1.2912  0.6407 -1.0185
 2706TIP3    H232314   6.130   4.409  18.928 -1.0375  0.5895  2.3754
 2707TIP3   OH232315   5.032   2.784  18.252 -0.2216  1.2701  0.2104
 2707TIP3    H132316   5.054   2.782  18.345  2.1479  0.7175 -0.3024
 2707TIP3    H232317   5.116   2.777  18.207 -1.4380 -0.6331 -1.9922
 2708TIP3   OH232318   0.978   0.976  17.803  0.2921 -0.3517  0.6831
 2708TIP3    H132319   0.944   1.060  17.833 -0.0264  0.5593 -1.9412
 2708TIP3    H232320   0.900   0.926  17.777  0.6135  0.0686 -1.2847
 2709TIP3   OH232321   6.197   6.473  19.903  0.5893 -0.1198 -0.4117
 2709TIP3    H132322   6.160   6.562  19.899  1.9350  0.5334  0.7844
 2709TIP3    H232323   6.149   6.430  19.974  2.3965  0.9190  1.5412
 2710TIP3   OH232324   0.770   4.275  18.338  0.3077  0.2603  0.5299
 2710TIP3    H132325   0.804   4.357  18.302  1.9823 -1.4185 -2.0601
 2710TIP3    H232326   0.689   4.260  18.289 -0.9735  1.1694  2.2740
 2711TIP3   OH232327   0.168   3.669  19.081  0.1967 -0.1083  0.2062
 2711TIP3    H132328   0.095   3.696  19.137 -0.3287 -0.6252 -0.2241
 2711TIP3    H232329   0.168   3.733  19.010  0.7151  0.4066  0.6582
 2712TIP3   OH232330   1.797   0.492  19.973  0.1064  0.7901  0.6344
 2712TIP3    H132331   1.733   0.541  20.025  0.5064  1.1641  0.7759
 2712TIP3    H232332   1.784   0.524  19.884  1.8758  2.8422  1.0312
 2713TIP3   OH232333   1.403   4.899  20.157 -0.5968 -0.4335  0.2872
 2713TIP3    H132334   1.381   4.898  20.251 -0.0643  0.7360  0.4407
 2713TIP3    H232335   1.472   4.834  20.148 -0.0178  0.0756  0.8910
 2714TIP3   OH232336   2.236   3.957  19.671 -0.1048  0.5837  0.4746
 2714TIP3    H132337   2.209   4.041  19.709 -0.2961 -0.0106  1.7015
 2714TIP3    H232338   2.198   3.891  19.730  0.2288 -0.3581 -0.3446
 2715TIP3   OH232339   2.611   0.337  18.086 -0.2678 -0.6702 -0.1699
 2715TIP3    H132340   2.640   0.391  18.159 -1.4541 -0.7094  0.3488
 2715TIP3    H232341   2.610   0.396  18.011 -0.1407 -0.3396  0.0909
 2716TIP3   OH232342   2.232   4.888  20.576  0.7090  0.0119 -0.1973
 2716TIP3    H132343   2.278   4.841  20.645 -0.2806  0.3696  0.7482
 2716TIP3    H232344   2.139   4.868  20.591  0.4392  0.5178 -1.1001
 2717TIP3   OH232345   5.445   1.310  20.169  0.3096 -0.3576 -0.2051
 2717TIP3    H132346   5.528   1.334  20.128 -0.4027 -1.0275 -2.1546
 2717TIP3    H232347   5.471   1.261  20.248  1.7138  1.5837  0.6233
 2718TIP3   OH232348   4.717   0.766  18.669 -0.1365  0.1874 -0.1666
 2718TIP3    H132349   4.795   0.787  18.619 -0.9045  0.4770 -1.2888
 2718TIP3    H232350   4.717   0.671  18.675 -0.4428  0.0885 -1.4416
 2719TIP3   OH232351   5.483   5.396  18.194 -0.0120 -0.1570  0.1794
 2719TIP3    H132352   5.461   5.479  18.153  1.6147  0.0539 -0.2967
 2719TIP3    H232353   5.562   5.414  18.245  1.7667 -1.8869 -1.7728
 2720TIP3   OH232354   2.573   6.072  19.602  0.3105  0.7180 -0.5701
 2720TIP3    H132355   2.571   5.977  19.618 -0.6352  0.7142 -0.6255
 2720TIP3    H232356   2.575   6.079  19.506 -3.2300  0.7023 -0.7804
 2721TIP3   OH232357   3.718   5.452  17.254  0.4391 -0.2991 -0.1508
 2721TIP3    H132358   3.710   5.361  17.225  3.0332 -0.7040  0.2007
 2721TIP3    H232359   3.705   5.503  17.174  0.0070 -1.0152 -0.5546
 2722TIP3   OH232360   4.044   0.246  19.629 -0.3204 -0.5098 -0.4884
 2722TIP3    H132361   3.961   0.288  19.604  0.2614  0.1484 -1.3612
 2722TIP3    H232362   4.108   0.316  19.625  0.7104 -1.4854 -2.1300
 2723TIP3   OH232363   2.341   3.884  20.406  0.3008 -0.7812  0.3514
 2723TIP3    H132364   2.308   3.832  20.333  0.7071  0.9355 -1.1266
 2723TIP3    H232365   2.389   3.956  20.365  0.4536  0.3208  2.3112
 2724TIP3   OH232366   0.896   4.502  18.237  0.1205  0.5610  0.5518
 2724TIP3    H132367   0.987   4.512  18.212  0.5679 -3.7791 -0.2762
 2724TIP3    H232368   0.847   4.544  18.166  1.3097  3.3810  1.2456
 2725TIP3   OH232369   0.294   1.786  18.764  0.4994 -0.5450 -0.5895
 2725TIP3    H132370   0.270   1.871  18.727 -0.5215 -0.2687  0.6396
 2725TIP3    H232371   0.216   1.732  18.754 -0.4028  0.0032  2.4276
 2726TIP3   OH232372   5.255   4.954  17.155 -0.1132  0.0624 -0.4424
 2726TIP3    H132373   5.205   4.916  17.083 -2.0126  0.9974  0.3323
 2726TIP3    H232374   5.256   5.048  17.137 -0.7942  0.3339  0.8510
 2727TIP3   OH232375   0.658   3.155  19.576  0.1943  0.6218  0.2010
 2727TIP3    H132376   0.681   3.167  19.484  0.3581 -3.9048 -0.5800
 2727TIP3    H232377   0.563   3.145  19.576  0.2118  0.4481  0.4749
 2728TIP3   OH232378   4.256   3.535  17.874  0.2682 -0.2357 -0.0279
 2728TIP3    H132379   4.272   3.454  17.922 -1.0598  0.1023  1.0256
 2728TIP3    H232380   4.337   3.586  17.886  0.2746 -0.5032  1.1654
 2729TIP3   OH232381   3.331   4.907  18.306  0.1715  0.2428 -0.1860
 2729TIP3    H132382   3.386   4.911  18.384 -0.5979  2.0046  0.3103
 2729TIP3    H232383   3.392   4.918  18.233  0.5900  1.6010  0.3316
 2730TIP3   OH232384   4.947   4.630  19.455  0.5204  0.5783 -0.4078
 2730TIP3    H132385   5.042   4.638  19.466  0.8298  0.1461 -2.3751
 2730TIP3    H232386   4.921   4.714  19.416  0.4282 -0.0100 -1.6545
 2731TIP3   OH232387   3.130   2.914  17.323  0.6848  0.0139 -0.1496
 2731TIP3    H132388   3.108   2.854  17.395  0.2696 -0.2685 -0.5100
 2731TIP3    H232389   3.222   2.935  17.338  0.7007 -0.3232  0.2650
 2732TIP3   OH232390   4.767   0.545  16.949  0.3973 -0.2352 -0.2827
 2732TIP3    H132391   4.673   0.554  16.961  0.6316  1.4389  0.5526
 2732TIP3    H232392   4.788   0.460  16.987 -0.6024 -0.0694  0.6948
 2733TIP3   OH232393   4.675   3.646  18.848  0.5101 -0.1056 -0.1672
 2733TIP3    H132394   4.597   3.600  18.878 -0.0470  1.5973  1.1903
 2733TIP3    H232395   4.730   3.578  18.810 -0.5548 -1.7485  1.0843
 2734TIP3   OH232396   1.317   2.422  17.108 -0.3381 -0.3858  0.0899
 2734TIP3    H132397   1.248   2.476  17.070 -0.4169 -0.4653  0.1183
 2734TIP3    H232398   1.335   2.355  17.041  0.6023  0.3847 -0.4595
 2735TIP3   OH232399   0.100   3.267  19.182 -0.5708  0.3417 -0.5794
 2735TIP3    H132400   0.103   3.199  19.249 -1.3052 -0.5019 -1.3894
 2735TIP3    H232401   0.189   3.269  19.146  0.1862  1.6670  1.2346
 2736TIP3   OH232402   3.480   6.571  19.716  0.2479 -0.0730  0.0583
 2736TIP3    H132403   3.473   6.478  19.693 -2.4892  0.3062 -0.9627
 2736TIP3    H232404   3.572   6.583  19.738  0.5734 -3.1695  0.8785
 2737TIP3   OH232405   3.506   1.212  19.079  0.3243  0.2129 -1.0514
 2737TIP3    H132406   3.439   1.146  19.058 -0.8833  1.0380  0.0306
 2737TIP3    H232407   3.457   1.294  19.088  0.9477  0.3362  2.8201
 2738TIP3   OH232408   1.252   2.485  18.817  0.3607 -0.1431 -0.0908
 2738TIP3    H132409   1.347   2.489  18.810  0.4054 -2.2002 -2.0944
 2738TIP3    H232410   1.222   2.571  18.788  1.5940 -0.9479 -4.5651
 2739TIP3   OH232411   5.792   4.636  17.380 -0.3921  0.2664  0.2182
 2739TIP3    H132412   5.754   4.587  17.453 -1.3006 -0.3511 -0.6273
 2739TIP3    H232413   5.860   4.579  17.346 -0.6407  0.1073 -0.0217
 2740TIP3   OH232414   1.903   0.074  18.987 -0.1247 -0.1353  0.5251
 2740TIP3    H132415   1.838   0.083  19.057  1.5165  1.8169  1.8936
 2740TIP3    H232416   1.905   0.161  18.946 -0.7578 -1.1248 -1.7661
 2741TIP3   OH232417   3.756   2.181  17.901  0.0819 -0.0549 -0.1365
 2741TIP3    H132418   3.764   2.257  17.843  1.0881 -0.1417 -0.1445
 2741TIP3    H232419   3.706   2.213  17.976 -0.3468  0.3419 -0.5839
 2742TIP3   OH232420   1.609   3.817  17.101  0.2751  0.1528  0.0116
 2742TIP3    H132421   1.526   3.778  17.128  0.5904 -0.8040 -0.3543
 2742TIP3    H232422   1.585   3.891  17.045 -0.3756  1.5598  2.0458
 2743TIP3   OH232423   3.239   4.171  18.985  0.1116  0.0170  0.5416
 2743TIP3    H132424   3.243   4.233  19.058 -1.3685  0.4778  0.2658
 2743TIP3    H232425   3.272   4.089  19.021 -0.9855  0.1196  1.8734
 2744TIP3   OH232426   6.640   2.205  18.657  0.2429 -0.0764 -0.5768
 2744TIP3    H132427   6.595   2.289  18.649 -0.3134 -0.5433 -3.4762
 2744TIP3    H232428   6.583   2.153  18.714  0.1562  1.1937  0.5402
 2745TIP3   OH232429   0.930   6.323  18.181 -0.2595  0.0334 -0.4186
 2745TIP3    H132430   0.919   6.234  18.147  1.0120  0.0079 -0.8338
 2745TIP3    H232431   0.982   6.368  18.114  0.9358  0.4508  0.7262
 2746TIP3   OH232432   5.960   3.078  17.490  0.2603 -0.0660 -0.4446
 2746TIP3    H132433   5.925   3.101  17.404  1.1620  2.5618 -0.1769
 2746TIP3    H232434   6.019   3.150  17.512 -0.1287 -0.5400  2.4865
 2747TIP3   OH232435   0.712   0.042  16.793  0.2128  0.0902 -0.0969
 2747TIP3    H132436   0.778   0.046  16.724  0.4263 -2.3774 -0.1427
 2747TIP3    H232437   0.657  -0.033  16.769 -0.1028 -0.4378  2.0365
 2748TIP3   OH232438   4.208   5.976  20.278 -0.0393 -0.0932 -0.1934
 2748TIP3    H132439   4.299   5.951  20.295  0.3400 -0.1921 -2.1146
 2748TIP3    H232440   4.210   6.072  20.277 -0.1061 -0.0793  0.3837
 2749TIP3   OH232441   3.099   2.598  17.891  0.5033 -0.3227 -0.4659
 2749TIP3    H132442   3.049   2.648  17.826 -1.5040 -0.2979  1.0055
 2749TIP3    H232443   3.091   2.507  17.863 -0.1369 -0.2875 -0.4056
 2750TIP3   OH232444   6.488   0.352  19.464  0.0141 -0.0442 -0.1341
 2750TIP3    H132445   6.548   0.420  19.433 -1.4961  0.9251 -1.0706
 2750TIP3    H232446   6.504   0.277  19.406  0.1180  0.3179 -0.5827
 2751TIP3   OH232447   6.671   5.777  19.168  0.2721 -0.6151 -0.2480
 2751TIP3    H132448   6.690   5.710  19.234  0.4210  0.4140  0.7861
 2751TIP3    H232449   6.643   5.728  19.091  0.3390 -1.8629  0.5015
 2752TIP3   OH232450   5.346   2.195  16.847 -0.1797 -0.1716  0.1187
 2752TIP3    H132451   5.401   2.273  16.854 -2.4293  1.5085  0.3068
 2752TIP3    H232452   5.285   2.203  16.920 -1.3446 -1.3976 -0.6769
 2753TIP3   OH232453   3.475   4.319  19.285  0.0241  0.0830 -0.0395
 2753TIP3    H132454   3.552   4.262  19.280 -1.6545 -2.2260 -1.7552
 2753TIP3    H232455   3.453   4.336  19.193 -0.9244  1.6052  0.4392
 2754TIP3   OH232456   5.699   1.483  19.103  0.4979  0.3048  0.0567
 2754TIP3    H132457   5.666   1.568  19.130  0.3854 -0.0186  0.9833
 2754TIP3    H232458   5.753   1.501  19.025  3.0477  1.6982  1.9809
 2755TIP3   OH232459   2.385   2.375  18.398  0.1923 -0.2264  0.1497
 2755TIP3    H132460   2.478   2.393  18.415  0.0222  0.1178  0.7388
 2755TIP3    H232461   2.384   2.287  18.361  0.5848 -0.9956  1.8825
 2756TIP3   OH232462   2.603   0.140  19.231  0.1639  0.0944 -0.2335
 2756TIP3    H132463   2.568   0.228  19.221  0.7041  0.3174 -0.2446
 2756TIP3    H232464   2.551   0.086  19.173  0.4851  0.5943 -1.0081
 2757TIP3   OH232465   0.272   6.514  18.113  0.7897 -0.1983 -0.4146
 2757TIP3    H132466   0.314   6.469  18.040  1.0285  1.6155 -1.4597
 2757TIP3    H232467   0.185   6.475  18.119  1.6625 -2.2281  0.1223
 2758TIP3   OH232468   0.087   2.134  19.876 -0.3643 -0.3256 -0.3521
 2758TIP3    H132469   0.053   2.210  19.924  0.9984 -1.0145  1.8334
 2758TIP3    H232470   0.161   2.169  19.826 -0.9181  0.1286 -0.8720
 2759TIP3   OH232471   2.073   4.997  18.355  0.1091  0.3723  0.0439
 2759TIP3    H132472   2.071   4.902  18.364  0.6271  0.1821 -1.5331
 2759TIP3    H232473   2.004   5.017  18.291 -1.0650  1.2499  1.5003
 2760TIP3   OH232474   6.312   2.792  19.998 -0.3084  0.0371 -0.2324
 2760TIP3    H132475   6.239   2.746  20.040 -0.6920  0.9038  0.0828
 2760TIP3    H232476   6.281   2.883  19.991  0.7670  0.4284 -0.0314
 2761TIP3   OH232477   3.126   3.213  19.230  0.2160  0.1809 -0.3851
 2761TIP3    H132478   3.164   3.126  19.237  0.6597  0.3645 -0.5155
 2761TIP3    H232479   3.033   3.197  19.212  0.2474 -0.2613 -0.1600
 2762TIP3   OH232480   4.062   2.876  19.152 -0.0665  0.4204 -0.2278
 2762TIP3    H132481   4.002   2.811  19.189 -0.9383  1.1308 -0.3438
 2762TIP3    H232482   4.080   2.844  19.063  0.9202 -0.5607  0.3025
 2763TIP3   OH232483   0.587   4.148  19.411 -0.1847 -0.1613 -0.5903
 2763TIP3    H132484   0.620   4.131  19.323  0.8171  0.1776 -0.2881
 2763TIP3    H232485   0.603   4.241  19.426  2.2619 -0.7592  0.9897
 2764TIP3   OH232486   0.695   6.191  16.627  0.2083  0.2738  0.0714
 2764TIP3    H132487   0.627   6.242  16.582 -1.1712  0.1306  1.8724
 2764TIP3    H232488   0.691   6.104  16.586 -1.9815 -0.2738  1.2852
 2765TIP3   OH232489   3.863   1.909  19.931  0.1732  0.2004  0.7440
 2765TIP3    H132490   3.872   2.002  19.952 -0.3474  0.1245  1.3247
 2765TIP3    H232491   3.782   1.882  19.974 -0.7467 -0.0554 -1.0366
 2766TIP3   OH232492   4.313   3.397  18.601  0.1519  0.0917  0.2321
 2766TIP3    H132493   4.285   3.466  18.542 -0.6399 -0.4214 -0.0203
 2766TIP3    H232494   4.242   3.391  18.665  1.6090  1.5885  2.1186
 2767TIP3   OH232495   2.320   6.678  16.669  0.0469 -0.4112  0.1907
 2767TIP3    H132496   2.234   6.664  16.630  0.6963 -0.2893 -1.3169
 2767TIP3    H232497   2.359   6.591  16.674 -0.4758 -0.6064  1.7422
 2768TIP3   OH232498   4.915   0.268  18.331  0.5214  0.3548  0.1117
 2768TIP3    H132499   4.925   0.306  18.243  1.2043 -0.4217 -0.1603
 2768TIP3    H232500   5.004   0.243  18.356  0.4817  1.4308  1.4352
 2769TIP3   OH232501   5.804   1.476  18.795  0.3465 -0.3073  0.9615
 2769TIP3    H132502   5.863   1.500  18.867  0.6324  0.4664  0.4825
 2769TIP3    H232503   5.854   1.413  18.743  0.1435 -0.8600  1.4231
 2770TIP3   OH232504   1.805   5.411  20.093 -0.4534 -0.1383 -0.2684
 2770TIP3    H132505   1.777   5.500  20.074 -0.6254  0.4728  2.3782
 2770TIP3    H232506   1.724   5.361  20.099 -0.4859 -0.0680 -0.0912
 2771TIP3   OH232507   1.071   5.485  19.769  0.2233  0.7420 -0.1810
 2771TIP3    H132508   1.108   5.563  19.727  0.2125  0.8907  0.0798
 2771TIP3    H232509   1.103   5.412  19.717 -0.4743  0.9704 -0.9616
 2772TIP3   OH232510   3.055   4.791  18.214  1.0242  0.0095  0.0158
 2772TIP3    H132511   3.145   4.797  18.248  0.8983  0.2998  0.3076
 2772TIP3    H232512   3.029   4.882  18.201 -0.0827  0.0817  2.2429
 2773TIP3   OH232513   5.326   5.532  19.664 -0.3476 -0.5683 -0.3626
 2773TIP3    H132514   5.331   5.555  19.572 -0.3025 -0.0020 -0.2198
 2773TIP3    H232515   5.261   5.592  19.701  0.7011  0.2157  0.2713
 2774TIP3   OH232516   4.846   2.373  19.259  0.0106  0.2734 -0.0836
 2774TIP3    H132517   4.751   2.377  19.274  0.0883  0.7324  0.3303
 2774TIP3    H232518   4.857   2.390  19.166 -0.4220 -1.5156 -0.4952
 2775TIP3   OH232519   6.080   3.112  19.016 -0.6161 -0.1567  0.1100
 2775TIP3    H132520   6.039   3.194  19.045 -1.8553 -0.3183 -1.1081
 2775TIP3    H232521   6.073   3.054  19.092  0.2825  0.8451  0.9897
 2776TIP3   OH232522   4.169   3.722  18.067 -0.3547  0.2978  0.0617
 2776TIP3    H132523   4.103   3.661  18.102 -1.2532  0.8844 -0.5740
 2776TIP3    H232524   4.181   3.694  17.976  0.7078 -0.1513  0.3235
 2777TIP3   OH232525   5.386   6.175  17.857 -0.5341 -0.1877  0.0333
 2777TIP3    H132526   5.480   6.162  17.846 -0.4167 -1.4802  1.9772
 2777TIP3    H232527   5.366   6.253  17.805  1.2040 -1.0144 -2.0182
 2778TIP3   OH232528   4.812   0.761  17.107  0.2231  0.4111 -0.3898
 2778TIP3    H132529   4.759   0.826  17.061 -1.5583 -1.0859 -0.5609
 2778TIP3    H232530   4.798   0.679  17.059 -1.2999 -1.1175  2.4078
 2779TIP3   OH232531   3.801   0.412  19.417  0.7228 -0.4195  0.6626
 2779TIP3    H132532   3.715   0.450  19.436  0.0417 -1.0950 -0.8634
 2779TIP3    H232533   3.784   0.318  19.409  2.1198 -0.9550  2.9870
 2780TIP3   OH232534   1.800   0.030  17.393  0.3260 -0.0370  0.0540
 2780TIP3    H132535   1.744   0.010  17.468  0.3147  0.7690  0.2666
 2780TIP3    H232536   1.740   0.064  17.327  0.4794  0.2585  0.0663
 2781TIP3   OH232537   3.748   2.734  17.862 -0.2850  0.2089  0.0574
 2781TIP3    H132538   3.814   2.750  17.929 -1.6691 -2.4846  2.2368
 2781TIP3    H232539   3.789   2.766  17.781  1.7972  2.7981  1.9570
 2782TIP3   OH232540   2.493   1.462  20.269 -0.0659 -0.4480 -0.5007
 2782TIP3    H132541   2.528   1.447  20.181  0.5724  0.1474 -0.3529
 2782TIP3    H232542   2.499   1.556  20.282  0.1240 -0.5611  0.2963
 2783TIP3   OH232543   3.095   4.359  20.254 -0.2394  0.2597  0.3440
 2783TIP3    H132544   3.022   4.299  20.242  0.6045 -0.6516 -0.4166
 2783TIP3    H232545   3.080   4.429  20.190 -0.8035  0.4455  0.6750
 2784TIP3   OH232546   5.072   4.954  19.123 -0.5719  0.3416 -0.2469
 2784TIP3    H132547   5.102   5.044  19.116 -1.8923  0.8104 -0.1984
 2784TIP3    H232548   5.136   4.903  19.073  0.4714  1.2194  0.1493
 2785TIP3   OH232549   6.355   4.444  19.717 -0.3111  0.3130 -0.1381
 2785TIP3    H132550   6.416   4.515  19.737 -0.0566 -0.4743  2.2768
 2785TIP3    H232551   6.298   4.479  19.648 -0.2089  2.8904  0.9676
 2786TIP3   OH232552   4.888   0.643  19.500 -0.4367 -0.2011 -0.1533
 2786TIP3    H132553   4.892   0.585  19.576  2.1396 -2.2936 -1.7103
 2786TIP3    H232554   4.802   0.627  19.462 -1.6993  0.7505  2.1259
 2787TIP3   OH232555   4.535   5.332  17.936 -0.0859  1.0043  0.0760
 2787TIP3    H132556   4.462   5.393  17.946  0.7035  2.2970 -1.5105
 2787TIP3    H232557   4.567   5.347  17.847  1.9933  0.3702  0.6451
 2788TIP3   OH232558   3.958   5.318  18.663 -1.0942  0.1285 -0.1085
 2788TIP3    H132559   3.974   5.290  18.572  2.1361  1.5258 -0.1208
 2788TIP3    H232560   4.018   5.265  18.715 -2.3742 -0.1228  1.1473
 2789TIP3   OH232561   0.139   0.900  17.365  0.4859 -0.4437  0.1490
 2789TIP3    H132562   0.150   0.963  17.437 -2.5392 -0.4126  0.7373
 2789TIP3    H232563   0.194   0.826  17.389  1.0269  0.3587  1.5137
 2790TIP3   OH232564   1.067   1.935  19.296 -0.0721  0.8555  0.0736
 2790TIP3    H132565   1.069   2.029  19.314  0.4458  0.4469  2.5027
 2790TIP3    H232566   1.135   1.898  19.352 -0.4380 -1.0183 -0.6315
 2791TIP3   OH232567   4.935   4.264  19.563 -0.4803 -0.1110  0.4459
 2791TIP3    H132568   4.873   4.294  19.497 -0.1729  0.7727  0.5552
 2791TIP3    H232569   5.003   4.331  19.566  0.7423 -1.2621  0.0082
 2792TIP3   OH232570   5.519   0.545  17.034  0.9194 -1.0535  0.7780
 2792TIP3    H132571   5.516   0.469  16.976 -0.4061 -1.1777  0.9739
 2792TIP3    H232572   5.488   0.513  17.119 -0.7717 -0.1144  0.5808
 2793TIP3   OH232573   2.930   4.653  19.512 -0.1770 -0.3498  0.0387
 2793TIP3    H132574   2.926   4.559  19.529 -1.0542 -0.1750  0.8604
 2793TIP3    H232575   2.842   4.675  19.479 -0.2751  0.3330  0.7214
 2794TIP3   OH232576   3.691   4.438  18.411 -0.3720 -0.3498 -0.8857
 2794TIP3    H132577   3.673   4.344  18.409 -0.4455 -0.3482 -0.3789
 2794TIP3    H232578   3.634   4.472  18.479 -1.2761  0.2767 -1.9196
 2795TIP3   OH232579   2.451   5.608  18.607 -0.4784  0.5974 -0.1070
 2795TIP3    H132580   2.532   5.585  18.561  0.3285  2.1163  0.4801
 2795TIP3    H232581   2.441   5.702  18.592 -0.8539  0.8968  1.8056
 2796TIP3   OH232582   2.454   1.192  20.402  0.1226 -0.0434  0.4733
 2796TIP3    H132583   2.542   1.193  20.440  0.0759 -2.1081  0.7663
 2796TIP3    H232584   2.458   1.256  20.332  1.9331 -0.2084  0.3540
 2797TIP3   OH232585   1.256   0.872  19.757 -0.2191 -0.2350 -0.0050
 2797TIP3    H132586   1.195   0.825  19.700 -1.0340 -0.3482  0.9304
 2797TIP3    H232587   1.231   0.964  19.747 -0.0971 -0.2165 -0.1368
 2798TIP3   OH232588   2.690   5.089  19.057 -0.2448  0.0215 -0.2808
 2798TIP3    H132589   2.738   5.151  19.113  0.7482 -0.7661 -0.2425
 2798TIP3    H232590   2.653   5.026  19.118 -0.7213  0.2052 -0.3747
 2799TIP3   OH232591   0.249   1.477  19.627 -0.5220  0.2737  0.0068
 2799TIP3    H132592   0.279   1.564  19.599 -0.2086  0.2906  0.3793
 2799TIP3    H232593   0.184   1.452  19.562  0.9304 -0.1316 -1.3380
 2800TIP3   OH232594   5.463   2.199  16.574 -0.7977 -0.8631 -0.2383
 2800TIP3    H132595   5.400   2.183  16.645  0.1256  0.0504  0.8255
 2800TIP3    H232596   5.537   2.241  16.617  0.0637 -0.8710 -1.6584
 2801TIP3   OH232597   5.051   6.080  18.629  0.2036  0.4197  0.2921
 2801TIP3    H132598   5.010   6.167  18.624 -0.2086  0.1790 -0.9950
 2801TIP3    H232599   5.135   6.091  18.584  1.2258  0.6968  2.1669
 2802TIP3   OH232600   1.864   0.616  17.950 -0.2529  0.2753  0.0358
 2802TIP3    H132601   1.908   0.699  17.972  0.5346  0.0482 -0.6377
 2802TIP3    H232602   1.832   0.584  18.034  1.0953  0.3411  0.6018
 2803TIP3   OH232603   5.499   3.277  20.337  0.3676  0.1201  0.0753
 2803TIP3    H132604   5.547   3.358  20.352 -1.9092  1.4110  0.9435
 2803TIP3    H232605   5.450   3.293  20.256 -1.0228  0.1375  0.8895
 2804TIP3   OH232606   5.703   4.967  18.546 -0.1261  0.0258  0.2208
 2804TIP3    H132607   5.638   5.036  18.562  0.0863  0.4921 -0.8603
 2804TIP3    H232608   5.780   5.013  18.514  0.5667 -0.5813  0.9884
 2805TIP3   OH232609   0.378   0.090  16.763 -0.0407  0.2994  0.0785
 2805TIP3    H132610   0.425   0.014  16.731  1.7061  0.0128  2.9523
 2805TIP3    H232611   0.288   0.059  16.775 -0.1790 -0.2455 -1.9739
 2806TIP3   OH232612   4.522   1.125  17.185  0.7424 -0.5444  0.5488
 2806TIP3    H132613   4.449   1.187  17.190  2.5893  1.8024  0.4545
 2806TIP3    H232614   4.600   1.181  17.179  2.4402 -2.9035 -1.1792
 2807TIP3   OH232615   1.546   5.657  19.563  0.1746  0.0808 -0.5623
 2807TIP3    H132616   1.509   5.598  19.496  3.1302  1.2468 -3.5249
 2807TIP3    H232617   1.638   5.631  19.569  1.5419  3.9151 -1.7270
 2808TIP3   OH232618   1.289   5.403  17.866 -0.5864  0.8766  0.2050
 2808TIP3    H132619   1.370   5.434  17.825 -0.6952  0.3490 -0.4078
 2808TIP3    H232620   1.256   5.479  17.914 -0.4720  1.5082 -0.7007
 2809TIP3   OH232621   0.425   1.261  16.003  0.2111 -0.0128 -0.0679
 2809TIP3    H132622   0.340   1.298  15.981  1.0288  0.9976 -1.8059
 2809TIP3    H232623   0.454   1.217  15.923  0.8060 -1.4082  0.8761
 2810TIP3   OH232624   6.566   2.694  18.303 -0.6233 -0.0350  0.2942
 2810TIP3    H132625   6.623   2.651  18.366  0.9227  0.6641 -0.5805
 2810TIP3    H232626   6.558   2.784  18.335  0.9517  0.5871 -0.9753
 2811TIP3   OH232627   4.354   0.862  18.351  0.0685  0.4527  0.1991
 2811TIP3    H132628   4.399   0.787  18.389 -1.5560 -0.1050  1.1019
 2811TIP3    H232629   4.418   0.899  18.290  0.4249 -2.5478 -1.4653
 2812TIP3   OH232630   5.705   4.927  19.118  0.4576 -0.4084  0.0380
 2812TIP3    H132631   5.628   4.983  19.125  3.3187  3.8604  1.4393
 2812TIP3    H232632   5.746   4.953  19.036  1.0394 -1.8158 -0.1485
 2813TIP3   OH232633   2.389   0.860  19.364 -0.4501  0.6585 -0.2561
 2813TIP3    H132634   2.316   0.877  19.424 -1.5417  0.9721 -1.6134
 2813TIP3    H232635   2.376   0.769  19.337 -0.0072  0.5432 -0.0886
 2814TIP3   OH232636   5.733   1.206  17.975 -0.0253 -0.3266 -0.1355
 2814TIP3    H132637   5.752   1.138  17.910  0.9353 -1.1680  0.9723
 2814TIP3    H232638   5.681   1.161  18.042  0.7356 -0.0275  0.6782
 2815TIP3   OH232639   3.093   2.009  19.068  0.1206  0.0004 -0.0958
 2815TIP3    H132640   3.130   1.995  18.981 -0.5861  1.7081 -0.7169
 2815TIP3    H232641   3.166   1.994  19.128  0.3677 -2.2506 -0.8541
 2816TIP3   OH232642   5.235   5.315  18.533  0.0085  0.1085  0.2415
 2816TIP3    H132643   5.188   5.231  18.539  0.5022 -0.1698  0.2084
 2816TIP3    H232644   5.185   5.366  18.470 -0.3812 -0.1055  0.3725
 2817TIP3   OH232645   6.062   4.108  18.111 -0.2228  0.2269 -0.3582
 2817TIP3    H132646   6.154   4.112  18.138 -0.4866 -0.1837  0.6547
 2817TIP3    H232647   6.054   4.175  18.044  0.9649 -0.1608 -0.9168
 2818TIP3   OH232648   3.563   4.202  18.500  0.1409 -0.2044  0.2004
 2818TIP3    H132649   3.534   4.228  18.587  0.6255  2.1620 -0.2758
 2818TIP3    H232650   3.628   4.133  18.515  0.9520  0.8538  1.7947
 2819TIP3   OH232651   2.296   6.132  18.672  0.4874 -0.1509 -0.3096
 2819TIP3    H132652   2.322   6.203  18.613 -0.1622  0.7979  0.5348
 2819TIP3    H232653   2.205   6.113  18.649  0.7592 -0.9779 -0.7713
 2820TIP3   OH232654   5.786   5.266  18.989 -0.7191 -0.6289 -0.2585
 2820TIP3    H132655   5.816   5.220  18.910  1.2756  2.4517 -1.4464
 2820TIP3    H232656   5.702   5.303  18.965 -0.8199 -0.9322 -0.3853
 2821TIP3   OH232657   2.185   2.527  19.536  0.6217 -0.2298  0.0878
 2821TIP3    H132658   2.228   2.518  19.622 -0.9936 -0.9560  0.8671
 2821TIP3    H232659   2.113   2.464  19.539  0.6408 -0.4031 -1.9061
 2822TIP3   OH232660   1.725   5.715  17.598  0.0026 -0.5464 -0.0837
 2822TIP3    H132661   1.723   5.623  17.627  0.3829 -0.2916  0.7753
 2822TIP3    H232662   1.720   5.766  17.678 -0.8141  0.2074 -0.5976
 2823TIP3   OH232663   6.686   2.662  18.566  0.2266  0.1718 -0.0036
 2823TIP3    H132664   6.766   2.617  18.590  1.0140  1.9918  1.0181
 2823TIP3    H232665   6.688   2.743  18.617 -2.7851 -0.1870  0.9210
 2824TIP3   OH232666   2.012   5.904  18.279  0.4673  0.2380 -0.3277
 2824TIP3    H132667   1.934   5.899  18.335 -1.4026  0.4352 -2.7232
 2824TIP3    H232668   2.070   5.835  18.312 -1.8319 -1.6678  0.0130
 2825TIP3   OH232669   3.624   2.387  20.167  0.3521 -0.7000 -0.1093
 2825TIP3    H132670   3.536   2.416  20.143  0.9071 -0.2453 -1.6769
 2825TIP3    H232671   3.648   2.443  20.241  0.0758  0.5412 -0.9282
 2826TIP3   OH232672   4.853   1.261  18.957 -0.1341  0.1694 -0.2184
 2826TIP3    H132673   4.840   1.294  18.869  1.3540  0.9359 -0.2006
 2826TIP3    H232674   4.937   1.299  18.984  0.9992 -2.5101  0.3571
 2827TIP3   OH232675   2.916   0.236  20.057  0.2180 -0.8589  0.4179
 2827TIP3    H132676   2.912   0.147  20.093 -1.4853 -1.5319 -1.2650
 2827TIP3    H232677   2.859   0.287  20.114 -0.6426 -1.3832  0.0356
 2828TIP3   OH232678   2.656   2.679  20.207 -0.7128 -0.2588  0.6305
 2828TIP3    H132679   2.564   2.704  20.192 -0.7581 -0.4854  0.5343
 2828TIP3    H232680   2.704   2.761  20.201 -0.7966 -0.2627 -0.2190
 2829TIP3   OH232681   6.353   2.173  19.939 -0.2296  0.0730  0.0844
 2829TIP3    H132682   6.418   2.104  19.930  1.0484  1.1456  0.7095
 2829TIP3    H232683   6.285   2.135  19.995  0.9856 -0.3380  1.3503
 2830TIP3   OH232684   2.635   6.261  18.448 -0.6008 -0.2294 -0.0772
 2830TIP3    H132685   2.628   6.167  18.430 -0.4449 -0.1854 -0.3772
 2830TIP3    H232686   2.549   6.285  18.482 -0.7101 -0.4396 -0.1956
 2831TIP3   OH232687   5.275   4.991  18.307 -0.4707 -0.5435 -0.2057
 2831TIP3    H132688   5.281   5.062  18.243 -1.2549  0.5459  0.8942
 2831TIP3    H232689   5.262   4.912  18.254  2.0355 -0.1705 -1.5665
 2832TIP3   OH232690   5.181   6.107  17.488  0.2995 -0.0714  0.1162
 2832TIP3    H132691   5.091   6.082  17.467  0.6489 -0.1477 -1.4411
 2832TIP3    H232692   5.217   6.138  17.405  2.0711 -1.1448  0.4328
 2833TIP3   OH232693   4.102   1.904  17.165  0.1001 -0.6761 -0.6581
 2833TIP3    H132694   4.058   1.988  17.179  0.0054 -0.8667  0.3075
 2833TIP3    H232695   4.039   1.852  17.115  0.4318  0.0403 -1.8565
 2834TIP3   OH232696   1.569   4.400  20.587  0.2785 -0.4677  0.7912
 2834TIP3    H132697   1.543   4.310  20.570  0.2749 -0.6377  1.6515
 2834TIP3    H232698   1.507   4.453  20.538  0.0373 -0.9264  0.5983
 2835TIP3   OH232699   1.103   2.333  17.339 -0.5237  0.1326 -1.1107
 2835TIP3    H132700   1.039   2.395  17.372  0.1950  0.6632 -0.6810
 2835TIP3    H232701   1.149   2.302  17.417 -0.2185 -0.2022 -1.4178
 2836TIP3   OH232702   0.037   1.444  20.238  0.1421  0.1506 -0.3534
 2836TIP3    H132703   0.020   1.352  20.220 -2.0300  0.8568 -2.5229
 2836TIP3    H232704   0.102   1.444  20.308 -0.0782 -2.9943 -0.0304
 2837TIP3   OH232705   2.212   0.951  17.054  0.0753  0.6999 -0.0258
 2837TIP3    H132706   2.295   0.999  17.055  1.1302 -0.9399  2.6156
 2837TIP3    H232707   2.163   0.989  17.127 -0.2672 -0.2888  0.2656
 2838TIP3   OH232708   6.318   0.775  16.727 -0.4245 -0.2993 -0.1788
 2838TIP3    H132709   6.246   0.746  16.672 -1.7466  2.3798 -0.0059
 2838TIP3    H232710   6.277   0.827  16.796  1.7071  3.4370 -1.4370
 2839TIP3   OH232711   1.187   2.143  17.153  0.0522  0.2059 -0.7433
 2839TIP3    H132712   1.159   2.209  17.217  2.0623  1.0615 -0.6690
 2839TIP3    H232713   1.282   2.151  17.151  0.0861  0.3271 -3.9520
 2840TIP3   OH232714   2.005   3.409  19.753 -0.0147  0.5177  0.4854
 2840TIP3    H132715   2.059   3.339  19.716  2.1447  0.2726  3.6685
 2840TIP3    H232716   2.025   3.485  19.698  2.3899  0.0106  0.5338
 2841TIP3   OH232717   1.287   5.915  16.974 -0.3320 -0.0629 -0.5252
 2841TIP3    H132718   1.308   5.826  16.947  2.3773  0.4460 -0.3411
 2841TIP3    H232719   1.273   5.962  16.892  1.6705  0.0684 -0.8380
 2842TIP3   OH232720   1.275   3.445  18.979  0.0484 -0.1974 -0.1579
 2842TIP3    H132721   1.241   3.417  19.064 -2.0338  2.1600 -0.0953
 2842TIP3    H232722   1.264   3.369  18.923 -2.6580 -0.5141  0.6677
 2843TIP3   OH232723   5.580   6.309  19.590  0.4054 -0.2418 -0.8386
 2843TIP3    H132724   5.548   6.282  19.504 -0.5962 -0.5184 -0.3848
 2843TIP3    H232725   5.549   6.242  19.650  1.6995 -0.4237 -0.3474
 2844TIP3   OH232726   2.856   4.275  19.231 -0.1627  0.8016 -0.4288
 2844TIP3    H132727   2.813   4.280  19.146 -0.7536  0.2747 -0.1712
 2844TIP3    H232728   2.805   4.210  19.280 -0.4059  1.7646  0.6472
 2845TIP3   OH232729   3.312   3.206  17.627 -0.3330 -0.0630 -0.4697
 2845TIP3    H132730   3.296   3.236  17.537  0.9628  0.8436 -0.4262
 2845TIP3    H232731   3.324   3.287  17.677  0.4516 -0.5982  0.2267
 2846TIP3   OH232732   1.602   0.666  20.085 -0.2553  0.3802  0.8533
 2846TIP3    H132733   1.648   0.749  20.095  2.3375 -0.8347 -0.1267
 2846TIP3    H232734   1.520   0.690  20.042 -0.0673  2.5233  1.5687
 2847TIP3   OH232735   3.328   1.967  17.874  0.6694  0.6330  0.1034
 2847TIP3    H132736   3.283   1.947  17.957 -1.2395  0.6341 -0.8789
 2847TIP3    H232737   3.352   2.060  17.882  1.6642  0.3104  1.1433
 2848TIP3   OH232738   3.170   6.310  18.501 -0.6255 -0.3600  0.4132
 2848TIP3    H132739   3.153   6.323  18.595  0.4184 -1.5139  0.7918
 2848TIP3    H232740   3.109   6.369  18.457 -1.6707 -0.3550  1.8031
 2849TIP3   OH232741   3.823   0.321  17.424 -0.1995 -0.8170  0.1362
 2849TIP3    H132742   3.769   0.248  17.392 -0.1473 -1.5520  1.6092
 2849TIP3    H232743   3.900   0.279  17.462  0.3530  0.0870  0.0393
 2850TIP3   OH232744   2.780   4.160  18.692  0.1997  0.0324 -0.4334
 2850TIP3    H132745   2.869   4.128  18.706  0.4122  1.1634  1.0638
 2850TIP3    H232746   2.724   4.089  18.723  0.6240  0.1637  0.6654
 2851TIP3   OH232747   4.788   2.531  19.018  0.1629  0.2719 -1.0223
 2851TIP3    H132748   4.850   2.578  18.962 -0.1671  0.4832 -1.2142
 2851TIP3    H232749   4.742   2.601  19.066 -1.0588  0.2154 -2.0669
 2852TIP3   OH232750   4.276   1.440  20.231  0.6906 -0.3741  0.1341
 2852TIP3    H132751   4.241   1.420  20.318  0.8781  2.3608  0.9407
 2852TIP3    H232752   4.371   1.446  20.244  0.7675 -0.4615 -0.3742
 2853TIP3   OH232753   0.130   2.124  16.500 -0.0376 -0.1988 -0.5152
 2853TIP3    H132754   0.087   2.209  16.510 -0.6365 -0.6491  1.2833
 2853TIP3    H232755   0.223   2.143  16.501 -0.1653  0.4503  0.0422
 2854TIP3   OH232756   4.868   0.621  18.028  0.1619  0.5470 -0.1768
 2854TIP3    H132757   4.802   0.613  17.960  0.4555 -0.6035 -0.3491
 2854TIP3    H232758   4.932   0.552  18.009  2.5755  2.9039 -1.2395
 2855TIP3   OH232759   3.139   1.679  17.666 -0.0658 -0.2662  0.0834
 2855TIP3    H132760   3.072   1.697  17.601 -1.4957  0.8737  1.7689
 2855TIP3    H232761   3.203   1.750  17.656  0.3241 -0.7319 -0.7939
 2856TIP3   OH232762   3.580   5.221  18.936  0.1206  0.1643 -0.5467
 2856TIP3    H132763   3.583   5.246  19.028 -0.4364 -0.7341 -0.2751
 2856TIP3    H232764   3.499   5.260  18.903 -0.3229 -0.5693 -0.3339
 2857TIP3   OH232765   3.938   5.842  20.214  0.1714 -0.1778 -0.1453
 2857TIP3    H132766   4.003   5.907  20.243 -0.6911  0.5665  0.1596
 2857TIP3    H232767   3.990   5.775  20.169  1.3671 -0.5535  1.6770
 2858TIP3   OH232768   1.075   0.133  16.819  0.3430  0.0762 -0.4721
 2858TIP3    H132769   1.136   0.186  16.871  0.1644  0.0548 -0.2340
 2858TIP3    H232770   1.055   0.188  16.743 -1.9164  1.5708  1.0497
 2859TIP3   OH232771   1.526   6.409  19.207 -0.2082 -0.3823 -0.3504
 2859TIP3    H132772   1.564   6.322  19.215  0.8455  0.0507 -0.4223
 2859TIP3    H232773   1.443   6.396  19.162 -0.6719 -1.4966  0.7832
 2860TIP3   OH232774   4.554   3.694  17.726 -0.1712 -0.1832 -0.1962
 2860TIP3    H132775   4.545   3.662  17.816 -1.1865 -1.1881 -0.6369
 2860TIP3    H232776   4.584   3.784  17.736 -2.0647  0.3542  1.2146
 2861TIP3   OH232777   0.136   5.830  16.486 -0.0819  0.0972  0.5175
 2861TIP3    H132778   0.129   5.755  16.545 -0.0695 -2.3649 -2.3718
 2861TIP3    H232779   0.048   5.868  16.484 -1.1682 -2.3096 -0.8749
 2862TIP3   OH232780   2.742   6.677  18.825  0.2910  0.4001  0.3592
 2862TIP3    H132781   2.739   6.759  18.775  1.5454  0.6193  0.6147
 2862TIP3    H232782   2.651   6.648  18.829 -0.2461  2.0141  0.6317
 2863TIP3   OH232783   0.439   5.821  18.741 -0.1069 -0.0524 -0.2125
 2863TIP3    H132784   0.389   5.893  18.780 -1.3074 -1.3524  0.7755
 2863TIP3    H232785   0.414   5.822  18.648 -0.9441  0.1611  0.0038
 2864TIP3   OH232786   2.980   0.224  17.290  0.4863 -0.4662 -0.0920
 2864TIP3    H132787   2.943   0.271  17.216  1.0030  0.1751  0.0469
 2864TIP3    H232788   3.008   0.140  17.253 -0.9158 -0.8865 -0.2247
 2865TIP3   OH232789   5.889   3.477  18.696  0.3472 -0.4324 -0.5800
 2865TIP3    H132790   5.960   3.418  18.720 -0.2054 -0.0181  2.3847
 2865TIP3    H232791   5.818   3.418  18.669  1.2803 -0.8884 -2.1710
 2866TIP3   OH232792   2.219   3.584  18.533 -0.6029 -0.1285  0.4374
 2866TIP3    H132793   2.184   3.673  18.540 -1.7899 -0.1527 -3.1685
 2866TIP3    H232794   2.141   3.529  18.527  0.1032 -1.0853 -0.1495
 2867TIP3   OH232795   4.347   5.762  16.666 -0.3531 -0.2518 -0.5144
 2867TIP3    H132796   4.396   5.682  16.686 -0.6577 -0.0712  1.1062
 2867TIP3    H232797   4.414   5.825  16.638 -0.0202 -0.8452 -1.0722
 2868TIP3   OH232798   4.479   0.967  17.426  0.2477 -0.5683 -0.1486
 2868TIP3    H132799   4.394   0.958  17.471  0.3672 -0.6144  0.0676
 2868TIP3    H232800   4.463   1.031  17.357  0.3714  0.4272  0.7196
 2869TIP3   OH232801   6.048   5.796  18.836 -0.0376  0.2996 -0.2201
 2869TIP3    H132802   6.047   5.786  18.931  0.1159 -0.9859 -0.3450
 2869TIP3    H232803   6.097   5.721  18.804  1.1576  1.4606 -1.2438
 2870TIP3   OH232804   5.686   1.789  18.807 -0.9139  0.1912 -0.1924
 2870TIP3    H132805   5.743   1.725  18.849 -0.3900 -0.4975 -1.8290
 2870TIP3    H232806   5.632   1.825  18.877 -1.7612 -2.6115  0.6897
 2871TIP3   OH232807   5.218   1.358  19.497 -1.0376  0.1539  0.0380
 2871TIP3    H132808   5.189   1.282  19.448 -0.6819  1.0162 -1.5587
 2871TIP3    H232809   5.288   1.396  19.444  0.4762  0.2579  1.9572
 2872TIP3   OH232810   2.590   3.142  18.056  0.3530  0.6420 -0.0238
 2872TIP3    H132811   2.507   3.126  18.100 -0.0388  2.4542 -0.0395
 2872TIP3    H232812   2.650   3.077  18.095 -1.2507 -1.3721 -0.7487
 2873TIP3   OH232813   2.477   6.341  19.679 -0.5667 -0.3818 -0.2961
 2873TIP3    H132814   2.438   6.335  19.592  0.3072 -0.1298 -0.7077
 2873TIP3    H232815   2.524   6.258  19.690  2.9968  1.2191 -1.8822
 2874TIP3   OH232816   0.286   4.394  19.217  0.3675  0.3217 -0.1751
 2874TIP3    H132817   0.318   4.446  19.291 -1.9964 -2.0884  2.7553
 2874TIP3    H232818   0.225   4.452  19.172 -0.2173  1.0192  1.4260
 2875TIP3   OH232819   0.852   6.370  19.852 -0.3928  0.3979 -0.4137
 2875TIP3    H132820   0.772   6.343  19.897  0.0046 -0.5269 -0.2160
 2875TIP3    H232821   0.919   6.310  19.886  0.0541  0.1050 -1.7471
 2876TIP3   OH232822   6.447   1.933  17.977  0.4932  0.0489 -0.2812
 2876TIP3    H132823   6.538   1.964  17.980  0.7484 -0.7140  0.6143
 2876TIP3    H232824   6.453   1.847  17.936  0.2652 -0.2384  0.2674
 2877TIP3   OH232825   2.576   1.049  17.581  0.5592 -0.2336  0.1513
 2877TIP3    H132826   2.568   1.078  17.671  2.4540  1.2519 -0.0868
 2877TIP3    H232827   2.586   1.130  17.530  0.2014 -1.0580 -1.3081
 2878TIP3   OH232828   5.275   2.335  20.295  0.1541  0.2484 -0.4282
 2878TIP3    H132829   5.302   2.415  20.251  0.9728 -0.6095 -1.5779
 2878TIP3    H232830   5.349   2.275  20.283 -0.3527 -0.6104  0.5762
 2879TIP3   OH232831   4.569   2.097  17.098 -0.2214 -0.2176  0.3868
 2879TIP3    H132832   4.546   2.183  17.064 -0.2435 -0.6189 -0.6486
 2879TIP3    H232833   4.652   2.075  17.055  0.3255 -0.2732  1.4388
 2880TIP3   OH232834   4.976   1.018  18.807  0.0260 -0.2965 -0.4517
 2880TIP3    H132835   5.007   1.048  18.893 -0.4135 -0.1013 -0.3583
 2880TIP3    H232836   5.049   0.966  18.772  0.3404 -0.0936 -0.1085
 2881TIP3   OH232837   5.308   1.194  18.269  0.6002  0.4806 -0.5526
 2881TIP3    H132838   5.316   1.099  18.254  0.2403 -0.0416  2.1444
 2881TIP3    H232839   5.214   1.210  18.266  0.6075  0.5933 -0.1400
 2882TIP3   OH232840   3.163   4.138  17.249  0.1023 -0.4531  0.1937
 2882TIP3    H132841   3.083   4.124  17.300 -0.8423  0.7261 -0.8924
 2882TIP3    H232842   3.221   4.066  17.275 -0.0937  0.3707  3.2828
 2883TIP3   OH232843   3.569   0.812  19.070 -0.0708  0.2828  0.8463
 2883TIP3    H132844   3.501   0.843  19.130 -1.7075  2.9849 -2.1544
 2883TIP3    H232845   3.527   0.743  19.019  0.1539  0.4756  0.3986
 2884TIP3   OH232846   5.099   0.325  17.339 -0.1631  0.1339  0.3960
 2884TIP3    H132847   5.124   0.346  17.429 -0.5878  0.5469  0.4212
 2884TIP3    H232848   5.078   0.410  17.300 -2.9640 -0.2680  0.8119
 2885TIP3   OH232849   0.963   6.314  19.571 -0.0267  0.5008 -0.6741
 2885TIP3    H132850   0.872   6.313  19.603 -0.1382  1.5336 -0.9193
 2885TIP3    H232851   0.956   6.292  19.479 -0.0343  0.6299 -0.7042
 2886TIP3   OH232852   0.131   1.174  18.013 -0.3526  0.2269 -0.2846
 2886TIP3    H132853   0.134   1.258  18.059  0.6269  1.4056 -2.3468
 2886TIP3    H232854   0.193   1.118  18.061 -1.0152  0.6562  1.1137
 2887TIP3   OH232855   4.390   0.718  18.617 -0.1464 -0.0230  0.0983
 2887TIP3    H132856   4.338   0.797  18.605  0.0078  0.0838  0.1304
 2887TIP3    H232857   4.349   0.654  18.559 -1.0350 -0.2855  0.9879
 2888TIP3   OH232858   5.228   4.700  19.884  0.0456 -0.1784  0.0967
 2888TIP3    H132859   5.173   4.625  19.905 -0.7097 -0.4631 -2.5486
 2888TIP3    H232860   5.304   4.662  19.840 -0.8600  0.6005 -2.2641
 2889TIP3   OH232861   0.746   6.011  18.066 -0.2126 -0.0683  0.3136
 2889TIP3    H132862   0.669   5.983  18.116 -1.3020  2.9125  0.5016
 2889TIP3    H232863   0.715   6.016  17.975  0.1247  0.0213  0.2025
 2890TIP3   OH232864   3.186   5.435  17.642  0.3565  0.3759  0.0722
 2890TIP3    H132865   3.132   5.511  17.620 -0.2033 -0.2119 -0.6479
 2890TIP3    H232866   3.178   5.427  17.737  0.4093  1.1996  0.1573
 2891TIP3   OH232867   6.456   1.172  19.721 -0.1576 -0.0492  0.0758
 2891TIP3    H132868   6.412   1.197  19.802  0.8024  0.4363  0.4592
 2891TIP3    H232869   6.421   1.085  19.701 -1.5929  0.4969  0.1283
 2892TIP3   OH232870   2.795   2.528  19.289  0.2842  0.1232  0.6951
 2892TIP3    H132871   2.702   2.507  19.282 -0.0269  1.0997  1.5458
 2892TIP3    H232872   2.802   2.618  19.258  1.1894 -0.3894 -0.6731
 2893TIP3   OH232873   0.763   3.350  20.166  0.0898 -0.4490  0.1777
 2893TIP3    H132874   0.833   3.284  20.162  0.8160  0.3220  0.0380
 2893TIP3    H232875   0.791   3.410  20.235 -0.7961 -0.5240  0.6221
 2894TIP3   OH232876   6.294   5.882  18.292  0.0245 -0.0163  0.1260
 2894TIP3    H132877   6.296   5.924  18.378  0.6756 -0.1142  0.1611
 2894TIP3    H232878   6.296   5.955  18.230  1.8286  0.0238  0.1811
 2895TIP3   OH232879   3.913   2.610  17.273 -0.0667  0.1543 -0.0254
 2895TIP3    H132880   3.848   2.546  17.304 -1.1910  1.7137  0.9743
 2895TIP3    H232881   3.988   2.598  17.331 -0.4368  0.0232  0.4281
 2896TIP3   OH232882   0.485   4.505  18.520 -0.1894 -0.0992  0.4698
 2896TIP3    H132883   0.568   4.475  18.558  0.2571  1.2583  0.6189
 2896TIP3    H232884   0.508   4.533  18.431 -0.5005  0.2805  0.5102
 2897TIP3   OH232885   0.121   2.571  17.456 -0.0968 -0.0289 -0.0673
 2897TIP3    H132886   0.186   2.518  17.501  0.1290  0.0233 -0.3228
 2897TIP3    H232887   0.127   2.544  17.364 -2.9979 -2.6703  0.3801
 2898TIP3   OH232888   6.312   5.915  17.776 -0.5540 -0.1318  0.4061
 2898TIP3    H132889   6.243   5.890  17.837  0.5782 -0.1374  1.7474
 2898TIP3    H232890   6.313   5.845  17.711 -1.1313 -0.6518  0.9482
 2899TIP3   OH232891   5.445   1.580  20.292  0.5195 -0.2163 -0.2311
 2899TIP3    H132892   5.468   1.488  20.288  4.2477  0.5734 -1.6495
 2899TIP3    H232893   5.406   1.599  20.207 -1.6593 -0.7087  0.6096
 2900TIP3   OH232894   5.179   0.428  19.328  0.0098  0.0062 -0.0426
 2900TIP3    H132895   5.258   0.383  19.297 -0.9691 -1.0009 -1.1606
 2900TIP3    H232896   5.107   0.378  19.291 -1.1592  1.3071  0.3947
 2901TIP3   OH232897   3.391   4.783  19.031 -0.0097 -0.0364  0.8115
 2901TIP3    H132898   3.302   4.807  19.003  0.9160  2.0322 -0.6727
 2901TIP3    H232899   3.394   4.809  19.124 -0.8731  0.0847  0.8176
 2902TIP3   OH232900   5.448   1.818  18.006 -0.3282  0.4727  0.4647
 2902TIP3    H132901   5.504   1.769  18.067 -0.1909  2.0220  1.6523
 2902TIP3    H232902   5.509   1.860  17.945 -0.2616  1.0404  0.9071
 2903TIP3   OH232903   5.903   0.440  19.934 -0.4196 -0.0882  0.2999
 2903TIP3    H132904   5.826   0.490  19.962 -1.8651 -2.5464  1.0903
 2903TIP3    H232905   5.977   0.485  19.974 -1.3413  2.5424 -0.7182
 2904TIP3   OH232906   6.486   5.680  18.033 -0.5653  0.4707 -0.0658
 2904TIP3    H132907   6.403   5.708  18.071 -0.1789  1.0476  0.3641
 2904TIP3    H232908   6.515   5.754  17.980 -0.0728  0.4800  0.2089
 2905TIP3   OH232909   6.287   6.172  18.387 -0.3497 -0.0690  0.1971
 2905TIP3    H132910   6.313   6.235  18.320  1.7263 -1.5168 -0.4360
 2905TIP3    H232911   6.357   6.107  18.388 -0.9157 -0.7695  2.9326
 2906TIP3   OH232912   0.158   4.946  19.768 -0.1991  0.3555 -0.1407
 2906TIP3    H132913   0.088   5.006  19.743  1.5094  2.7464  0.4993
 2906TIP3    H232914   0.116   4.885  19.828 -1.8564  1.3742 -0.1827
 2907TIP3   OH232915   5.532   0.851  18.319 -0.0363  0.2298  0.8163
 2907TIP3    H132916   5.611   0.799  18.320  0.5683  1.0543 -0.3895
 2907TIP3    H232917   5.464   0.794  18.355  0.5223 -1.5053 -0.7332
 2908TIP3   OH232918   4.762   1.003  20.097 -0.4412 -0.3014  0.7459
 2908TIP3    H132919   4.763   0.958  20.181 -0.5219 -1.2310  0.2628
 2908TIP3    H232920   4.683   0.972  20.053  0.7192 -1.5633 -0.5632
 2909TIP3   OH232921   2.325   6.327  19.455  0.2876  0.4018  0.3734
 2909TIP3    H132922   2.382   6.305  19.381  0.1730 -0.6357  0.5701
 2909TIP3    H232923   2.264   6.253  19.460  0.0493  0.6537  1.2628
 2910TIP3   OH232924   5.897   1.217  16.838 -0.7233 -0.1425 -0.3061
 2910TIP3    H132925   5.888   1.277  16.764 -0.6294 -0.8690 -0.9172
 2910TIP3    H232926   5.902   1.130  16.799 -0.7474 -0.5515  0.5605
 2911TIP3   OH232927   5.031   5.689  18.791  0.1515  0.8445 -0.2426
 2911TIP3    H132928   5.001   5.620  18.732  0.3632  1.2338 -0.8148
 2911TIP3    H232929   5.122   5.666  18.811 -0.1704  0.2590  0.6137
 2912TIP3   OH232930   5.408   1.733  17.703 -0.0845 -0.7672 -0.6108
 2912TIP3    H132931   5.378   1.652  17.744  2.8145 -2.2572 -1.1178
 2912TIP3    H232932   5.466   1.773  17.768 -1.0660  0.6625 -0.5773
 2913TIP3   OH232933   6.488   6.132  17.082  0.1307 -0.3349 -0.2226
 2913TIP3    H132934   6.490   6.194  17.008 -1.3988 -0.0377 -0.0496
 2913TIP3    H232935   6.526   6.052  17.046  1.6391  0.5116 -0.6147
 2914TIP3   OH232936   4.759   0.901  16.837  0.3073  0.6915  0.0375
 2914TIP3    H132937   4.800   0.854  16.764  1.2897 -2.4986  2.4313
 2914TIP3    H232938   4.824   0.967  16.863  0.5879  0.8288 -0.9486
 2915TIP3   OH232939   6.252   1.516  17.860 -0.4139 -0.6682  0.1727
 2915TIP3    H132940   6.177   1.563  17.825  0.3150 -0.1062 -0.6774
 2915TIP3    H232941   6.230   1.423  17.849 -0.6893 -0.5026 -0.7192
 2916TIP3   OH232942   5.370   2.099  17.606 -0.1388 -0.4110 -0.2861
 2916TIP3    H132943   5.427   2.107  17.683 -0.8802  1.1267  0.1369
 2916TIP3    H232944   5.420   2.140  17.536  0.5529 -1.8459 -0.6629
 2917TIP3   OH232945   3.587   0.121  18.221  0.2330  0.3323 -0.1082
 2917TIP3    H132946   3.608   0.053  18.285  2.2891  0.1979 -0.8225
 2917TIP3    H232947   3.639   0.197  18.248  0.8655  0.3879 -1.3629
 2918TIP3   OH232948   3.321   3.466  19.431 -0.3156  0.0741  0.1474
 2918TIP3    H132949   3.298   3.397  19.492  1.1073 -1.1669 -0.6367
 2918TIP3    H232950   3.410   3.444  19.402 -0.6540  1.0152 -1.7961
 2919TIP3   OH232951   2.184   4.559  18.620 -0.6383  0.0420  0.2615
 2919TIP3    H132952   2.151   4.493  18.559  1.1228 -0.9101  0.2464
 2919TIP3    H232953   2.164   4.523  18.707  0.9913 -0.9546  0.2668
 2920TIP3   OH232954   4.627   1.136  17.791 -0.4467 -0.4075 -0.1616
 2920TIP3    H132955   4.661   1.208  17.844 -2.4997 -0.8315  1.9161
 2920TIP3    H232956   4.673   1.059  17.822  0.4741 -0.2636 -1.1328
 2921TIP3   OH232957   0.074   1.131  17.608 -0.3708 -0.3805 -0.3190
 2921TIP3    H132958   0.004   1.112  17.670  0.0934  2.8193  1.4209
 2921TIP3    H232959   0.151   1.085  17.644 -0.3891  0.4698  0.8592
 2922TIP3   OH232960   3.541   1.038  18.853 -0.4545 -0.4699  0.5338
 2922TIP3    H132961   3.561   0.978  18.925 -1.7594  0.7065  1.9514
 2922TIP3    H232962   3.521   1.121  18.896 -1.4719  0.2306 -1.1841
 2923TIP3   OH232963   1.025   5.732  17.772  0.5177  0.2866  0.1494
 2923TIP3    H132964   1.084   5.688  17.712 -0.5348  0.5937 -1.1581
 2923TIP3    H232965   0.993   5.808  17.723 -1.5506 -0.2973  0.5137
 2924TIP3   OH232966   1.985   5.194  17.685 -0.0949  0.3027  0.3176
 2924TIP3    H132967   2.034   5.276  17.698  0.1158  0.0926  0.8940
 2924TIP3    H232968   1.974   5.187  17.590  2.7416 -0.6440 -0.0462
 2925TIP3   OH232969   3.622   1.491  18.952  0.4890 -0.0060  0.1425
 2925TIP3    H132970   3.707   1.488  18.908  0.8723 -0.3914  0.8906
 2925TIP3    H232971   3.560   1.510  18.883  0.9414 -1.6269 -0.7451
 2926TIP3   OH232972   1.649   1.198  17.392 -0.6107 -0.3784 -0.3231
 2926TIP3    H132973   1.684   1.228  17.308 -1.0255 -0.0760 -0.3882
 2926TIP3    H232974   1.599   1.119  17.370 -0.6018 -0.3785 -0.3424
 2927TIP3   OH232975   6.494   2.258  20.185  0.2406  0.1361 -0.4264
 2927TIP3    H132976   6.493   2.197  20.259 -4.1791  0.8192  0.3767
 2927TIP3    H232977   6.446   2.212  20.116 -0.9309  1.6620 -0.6826
 2928TIP3   OH232978   2.522   5.988  18.146  0.1173 -0.0693  0.1794
 2928TIP3    H132979   2.473   5.989  18.229  2.5896  1.6379  1.7673
 2928TIP3    H232980   2.465   6.031  18.083 -0.3767  2.1158  2.0158
 2929TIP3   OH232981   0.025   6.532  16.320 -0.2895 -0.1746 -0.6102
 2929TIP3    H132982   0.032   6.611  16.267  0.5022  0.1846  0.0143
 2929TIP3    H232983   0.113   6.518  16.355 -1.0552  0.3187  1.6386
 2930TIP3   OH232984   2.097   3.891  19.424 -0.5410  0.0900  0.2910
 2930TIP3    H132985   2.092   3.981  19.455 -0.3555 -0.6893  2.8220
 2930TIP3    H232986   2.019   3.880  19.370  0.3602  2.2344 -1.5949
 2931TIP3   OH232987   0.918   0.840  19.119  0.3608  0.1089  0.5212
 2931TIP3    H132988   0.834   0.848  19.073  0.4862  0.4100  0.3453
 2931TIP3    H232989   0.897   0.856  19.211  0.1183 -0.4358  0.5660
 2932TIP3   OH232990   1.005   2.695  19.123  0.2421  0.0779 -0.0444
 2932TIP3    H132991   1.032   2.615  19.168  1.0475  0.1693 -0.3658
 2932TIP3    H232992   1.072   2.759  19.145 -0.6769  0.8317  0.6538
 2933TIP3   OH232993   2.062   2.455  17.817 -0.3224 -0.5359 -0.0296
 2933TIP3    H132994   1.974   2.429  17.845 -0.0881 -0.3629  0.8973
 2933TIP3    H232995   2.047   2.518  17.747 -0.9819  0.6412  1.1166
 2934TIP3   OH232996   4.873   4.374  18.442 -0.0943 -0.1632  0.3528
 2934TIP3    H132997   4.920   4.445  18.485  0.5149 -0.4057  0.0945
 2934TIP3    H232998   4.801   4.417  18.396 -0.4595  0.1525  1.1990
 2935TIP3   OH232999   3.008   0.501  19.430 -0.1471 -0.0275 -0.2114
 2935TIP3    H133000   3.018   0.406  19.433 -1.4263 -0.1834 -0.3674
 2935TIP3    H233001   2.945   0.521  19.500 -0.0993  0.6740 -0.3549
 2936TIP3   OH233002   0.084   2.564  17.160 -0.0475 -0.1821  0.2581
 2936TIP3    H133003   0.164   2.540  17.114  0.8333 -0.6210  1.9416
 2936TIP3    H233004   0.018   2.571  17.092  1.1789 -0.8990 -1.0432
 2937TIP3   OH233005   0.251   5.483  18.695  0.2771 -0.2071  0.3856
 2937TIP3    H133006   0.222   5.452  18.609  1.9454 -3.5200  0.8732
 2937TIP3    H233007   0.338   5.519  18.680  0.0707  0.3772  0.5363
 2938TIP3   OH233008   1.557   0.440  17.008 -0.0434  0.1792  0.3153
 2938TIP3    H133009   1.642   0.436  16.964 -0.0654 -0.4645  0.3185
 2938TIP3    H233010   1.544   0.351  17.042 -1.7572 -0.3837 -1.6095
 2939TIP3   OH233011   1.236   0.949  18.298 -0.4533 -0.0581 -0.7323
 2939TIP3    H133012   1.212   0.907  18.216 -1.7981 -0.9147  0.0450
 2939TIP3    H233013   1.261   0.876  18.356  0.5067  0.5265 -0.3725
 2940TIP3   OH233014   2.168   4.634  20.009  0.3192  0.4728 -0.3976
 2940TIP3    H133015   2.201   4.571  20.073  2.2469 -0.0098 -1.7842
 2940TIP3    H233016   2.140   4.709  20.062 -1.1269 -1.1004  1.2152
 2941TIP3   OH233017   5.843   1.864  17.960  0.1813 -0.1173  0.0994
 2941TIP3    H133018   5.805   1.899  18.041  0.7893 -0.0987  0.3844
 2941TIP3    H233019   5.847   1.769  17.975 -0.2899 -0.1813 -0.1652
 2942TIP3   OH233020   2.664   3.316  19.826  0.6846 -0.0640  0.2563
 2942TIP3    H133021   2.570   3.332  19.818  0.8900  0.9773 -0.2996
 2942TIP3    H233022   2.684   3.256  19.755  0.6153  0.5743 -0.3137
 2943TIP3   OH233023   3.947   0.785  19.367  0.2967  0.1882  0.1788
 2943TIP3    H133024   3.911   0.851  19.427 -0.6518  0.4917 -0.6787
 2943TIP3    H233025   3.893   0.794  19.288  1.3756 -0.3460 -0.6341
 2944TIP3   OH233026   2.623   1.366  17.571 -0.2977 -0.3406 -0.1577
 2944TIP3    H133027   2.653   1.381  17.660  1.0824 -0.4671 -0.5767
 2944TIP3    H233028   2.651   1.444  17.523 -2.2190  0.3635 -0.2386
 2945TIP3   OH233029   0.304   4.813  19.060  0.2349  0.0471  0.3376
 2945TIP3    H133030   0.240   4.856  19.003 -0.9695 -2.0501  0.0149
 2945TIP3    H233031   0.374   4.787  19.001  0.7914  1.1555  0.4753
 2946TIP3   OH233032   6.442   6.083  16.552  0.3674  0.2814  0.4836
 2946TIP3    H133033   6.460   5.991  16.532  0.5454  0.3225  0.4456
 2946TIP3    H233034   6.526   6.127  16.535 -0.3722  0.8975 -2.1698
 2947TIP3   OH233035   2.953   3.618  17.176 -0.0447  0.5534 -0.0853
 2947TIP3    H133036   2.984   3.707  17.192  0.8755  0.2837 -0.3661
 2947TIP3    H233037   3.021   3.561  17.212  0.1269 -0.0494 -1.3187
 2948TIP3   OH233038   1.186   6.660  18.562  0.3098  0.4216  0.5798
 2948TIP3    H133039   1.215   6.571  18.539 -2.0152 -0.3878  0.5210
 2948TIP3    H233040   1.267   6.712  18.563  1.4474 -1.1308 -1.8245
 2949TIP3   OH233041   3.788   1.774  19.688  0.1396  1.0600  0.4230
 2949TIP3    H133042   3.695   1.790  19.668  0.6725  1.7004 -1.8087
 2949TIP3    H233043   3.808   1.836  19.757 -1.0986  0.8723  0.9888
 2950TIP3   OH233044   3.063   2.122  19.911  0.0693 -0.2668  0.0973
 2950TIP3    H133045   3.058   2.045  19.854  1.1662  0.3601 -0.8786
 2950TIP3    H233046   3.155   2.147  19.910 -0.2458  0.9935  0.4868
 2951TIP3   OH233047   1.638   5.877  17.831  0.3420  0.7347  0.0433
 2951TIP3    H133048   1.546   5.905  17.826 -0.2338 -1.1582 -0.9146
 2951TIP3    H233049   1.647   5.840  17.918  0.3115  1.2658  0.2752
 2952TIP3   OH233050   6.634   1.860  19.140 -0.2821  0.4301 -0.6876
 2952TIP3    H133051   6.619   1.879  19.233 -0.3397 -1.3286 -0.3044
 2952TIP3    H233052   6.724   1.889  19.124 -1.0164  2.9173 -0.7386
 2953TIP3   OH233053   0.709   3.739  18.468  0.1611  0.3415 -0.7135
 2953TIP3    H133054   0.630   3.724  18.520  2.2629 -2.2462  2.0369
 2953TIP3    H233055   0.747   3.819  18.505 -0.3330  0.7349 -1.0285
 2954TIP3   OH233056   5.988   4.481  17.285 -0.7587  0.0047  0.1025
 2954TIP3    H133057   5.979   4.427  17.207  0.8543 -0.1524 -0.0096
 2954TIP3    H233058   6.083   4.491  17.297 -0.9005 -0.8276  2.6256
 2955TIP3   OH233059   5.041   2.789  19.818 -0.3776  0.5338  0.4516
 2955TIP3    H133060   4.959   2.822  19.780 -1.2717 -0.9206  1.0060
 2955TIP3    H233061   5.079   2.734  19.749  0.4748  1.7135 -0.0344
 2956TIP3   OH233062   3.506   3.315  19.060 -0.0426  0.4049 -0.0952
 2956TIP3    H133063   3.574   3.372  19.097  0.2778 -0.2234  0.3183
 2956TIP3    H233064   3.424   3.356  19.085  0.1838  0.5100  0.5109
 2957TIP3   OH233065   1.947   4.778  17.339  0.1009  0.3869 -0.5944
 2957TIP3    H133066   1.893   4.855  17.319  0.2665  0.9942  1.1292
 2957TIP3    H233067   1.891   4.703  17.319 -0.3257  0.9422 -1.5949
 2958TIP3   OH233068   6.379   3.412  17.921 -0.5934  0.6287 -0.3785
 2958TIP3    H133069   6.305   3.472  17.916 -1.1050  0.0271 -0.2501
 2958TIP3    H233070   6.346   3.338  17.972 -0.0685  0.1102 -0.7840
 2959TIP3   OH233071   1.431   4.872  18.140 -0.3068 -0.2032  0.5470
 2959TIP3    H133072   1.356   4.918  18.176  1.5429  2.9899  0.7412
 2959TIP3    H233073   1.495   4.941  18.121  2.4429 -2.6637  0.0118
 2960TIP3   OH233074   6.321   1.751  18.755  0.0679 -0.2149 -0.5029
 2960TIP3    H133075   6.394   1.811  18.768 -0.3677  0.1312  0.3843
 2960TIP3    H233076   6.327   1.689  18.827 -1.3766  0.7143  0.4702
 2961TIP3   OH233077   3.341   1.429  19.028  0.1077  0.1683 -0.0501
 2961TIP3    H133078   3.386   1.514  19.032  1.0155 -0.3383  0.9694
 2961TIP3    H233079   3.304   1.426  18.940  0.9588  1.1697 -0.4704
 2962TIP3   OH233080   1.742   2.743  17.241 -0.2759 -0.1224 -0.2980
 2962TIP3    H133081   1.743   2.700  17.156 -2.8199  0.6719 -0.8160
 2962TIP3    H233082   1.736   2.836  17.222  0.9993  0.2343  0.8070
 2963TIP3   OH233083   6.475   0.376  17.471  0.3527  0.4173 -0.6483
 2963TIP3    H133084   6.455   0.355  17.562  0.0257  1.3472 -0.4938
 2963TIP3    H233085   6.566   0.348  17.460  0.5639  0.7733  0.1159
 2964TIP3   OH233086   0.670   5.567  17.143  0.4014 -0.1272 -0.0600
 2964TIP3    H133087   0.731   5.495  17.163 -0.6436 -0.9627  0.2165
 2964TIP3    H233088   0.660   5.563  17.048  0.4464 -0.2691 -0.0590
 2965TIP3   OH233089   3.484   0.199  17.912 -0.0141  0.0011 -0.0178
 2965TIP3    H133090   3.473   0.177  18.004  0.8055 -0.2271  0.0297
 2965TIP3    H233091   3.414   0.263  17.894 -1.5826 -1.5946  0.1762
 2966TIP3   OH233092   6.541   3.208  19.581 -0.3329  0.1275 -0.1789
 2966TIP3    H133093   6.460   3.258  19.576 -0.5680 -0.0350  1.3115
 2966TIP3    H233094   6.598   3.262  19.636  0.3409 -0.0640 -0.6812
 2967TIP3   OH233095   4.068   4.880  17.014 -0.2525  0.0149  0.1723
 2967TIP3    H133096   4.033   4.846  17.096 -2.3722  1.9388  0.1577
 2967TIP3    H233097   4.056   4.808  16.951 -4.1195  0.3864  0.2513
 2968TIP3   OH233098   3.094   1.167  19.920  0.2559 -0.0617 -0.9594
 2968TIP3    H133099   3.184   1.145  19.943 -0.0402  0.0599  0.4072
 2968TIP3    H233100   3.040   1.109  19.974 -0.4912  0.4678 -1.1109
 2969TIP3   OH233101   2.499   0.525  20.557 -0.5135  0.4482  0.2963
 2969TIP3    H133102   2.420   0.479  20.529 -1.0742  0.7504  1.3244
 2969TIP3    H233103   2.554   0.458  20.598 -0.0596  0.1669 -0.7467
 2970TIP3   OH233104   4.407   3.565  18.887 -0.2315  0.0069  0.2748
 2970TIP3    H133105   4.359   3.527  18.813 -0.0181  0.6195 -0.1881
 2970TIP3    H233106   4.397   3.501  18.957  0.3563 -1.0462 -0.5685
 2971TIP3   OH233107   1.514   3.060  18.616  0.1196  0.3429  0.7496
 2971TIP3    H133108   1.567   3.005  18.674  3.1911  0.7583 -1.4133
 2971TIP3    H233109   1.465   2.997  18.563  1.3423 -0.2738  0.2953
 2972TIP3   OH233110   4.291   1.796  18.876  0.3925 -0.4062  0.5653
 2972TIP3    H133111   4.386   1.795  18.861  0.4678  0.2406  0.9354
 2972TIP3    H233112   4.282   1.782  18.970  0.1579  0.1647  0.6309
 2973TIP3   OH233113   5.471   5.085  19.137  0.0802 -0.4368  0.2764
 2973TIP3    H133114   5.474   5.133  19.055 -0.5729 -0.8200  0.0207
 2973TIP3    H233115   5.378   5.082  19.160  0.2461 -0.3801  1.0074
 2974TIP3   OH233116   3.731   0.399  18.285 -0.7421 -0.2932 -0.0263
 2974TIP3    H133117   3.682   0.390  18.367  0.3673 -2.1913  0.4921
 2974TIP3    H233118   3.813   0.442  18.310 -0.5189 -0.6196 -0.1945
 2975TIP3   OH233119   5.295   2.290  17.951 -0.0851  0.4967 -0.9981
 2975TIP3    H133120   5.353   2.221  17.985 -0.9665  0.1990 -0.0639
 2975TIP3    H233121   5.230   2.303  18.020  0.0390  2.2592 -1.1732
 2976TIP3   OH233122   4.196   5.225  19.609 -0.0266  0.1204 -0.1519
 2976TIP3    H133123   4.256   5.292  19.640 -0.7701  0.3895  0.7601
 2976TIP3    H233124   4.202   5.229  19.513  1.7137 -0.1683 -0.0922
 2977TIP3   OH233125   3.351   3.928  17.265 -0.6170 -0.4967 -0.4871
 2977TIP3    H133126   3.405   3.876  17.325 -1.2656  0.7068  1.2028
 2977TIP3    H233127   3.410   3.995  17.231  0.1389 -2.0500 -2.4246
 2978TIP3   OH233128   1.957   5.734  18.032  0.3430 -0.0502 -0.0089
 2978TIP3    H133129   1.876   5.731  17.981  1.6753 -0.2050 -2.2553
 2978TIP3    H233130   1.973   5.828  18.045 -0.4693 -0.0308  0.9670
 2979TIP3   OH233131   5.387   3.223  17.262  0.2245 -0.4519 -0.2080
 2979TIP3    H133132   5.458   3.274  17.301  0.1220 -0.8163  0.4692
 2979TIP3    H233133   5.346   3.283  17.200 -1.0510  0.9296  1.8618
 2980TIP3   OH233134   4.696   1.805  17.262 -0.1280  0.2566  0.0491
 2980TIP3    H133135   4.760   1.737  17.280 -0.9534 -0.9967 -1.5396
 2980TIP3    H233136   4.719   1.876  17.323  2.0677 -0.5603  0.2710
 2981TIP3   OH233137   0.638   2.528  19.370 -0.3621  0.3516 -0.1204
 2981TIP3    H133138   0.730   2.507  19.353 -0.3833  0.8821 -0.9555
 2981TIP3    H233139   0.617   2.480  19.450  0.9635  1.0758  0.7230
 2982TIP3   OH233140   6.359   3.578  19.910 -0.0994 -0.2723  0.1588
 2982TIP3    H133141   6.406   3.516  19.966 -1.6326 -1.2339  0.4395
 2982TIP3    H233142   6.407   3.660  19.920  0.5097 -0.7791  1.7663
 2983TIP3   OH233143   5.782   2.804  18.852 -0.0079 -0.0301  0.0320
 2983TIP3    H133144   5.791   2.711  18.875 -0.9265 -0.1443 -0.0280
 2983TIP3    H233145   5.688   2.820  18.854  0.2214  1.4502  2.1825
 2984TIP3   OH233146   5.039   6.649  17.220  0.3771 -0.1758  0.2093
 2984TIP3    H133147   5.120   6.639  17.170 -1.1194 -0.4035 -2.3353
 2984TIP3    H233148   4.982   6.701  17.163 -1.2198  0.1402  1.9981
 2985TIP3   OH233149   1.847   0.996  18.524  0.5265 -0.0962 -0.0386
 2985TIP3    H133150   1.754   1.014  18.517  0.4680 -0.3872 -0.0295
 2985TIP3    H233151   1.870   1.021  18.614  0.5444  0.3571 -0.1658
 2986TIP3   OH233152   1.113   4.601  19.756  0.2950  0.0522 -0.2808
 2986TIP3    H133153   1.147   4.593  19.845  0.7104 -1.3879 -0.5419
 2986TIP3    H233154   1.181   4.650  19.709  0.2749  0.4401  0.0927
 2987TIP3   OH233155   3.151   4.471  19.082  0.3259  0.4085 -0.2228
 2987TIP3    H133156   3.236   4.511  19.070  0.4373 -0.0439 -1.0005
 2987TIP3    H233157   3.103   4.489  19.001  0.0186 -0.1375 -0.1717
 2988TIP3   OH233158   6.123   1.084  17.069 -0.1821  0.6488  0.7161
 2988TIP3    H133159   6.146   1.074  17.162 -2.2447  1.3282  1.3567
 2988TIP3    H233160   6.054   1.150  17.069 -0.5759  0.2825 -1.2663
 2989TIP3   OH233161   0.862   3.583  20.312 -0.5247 -0.6665  0.5511
 2989TIP3    H133162   0.949   3.565  20.277 -0.9957 -4.5347  0.9033
 2989TIP3    H233163   0.878   3.605  20.404  0.0799 -1.1967  0.5804
 2990TIP3   OH233164   1.699   4.258  19.520  0.1105 -0.2714 -0.4229
 2990TIP3    H133165   1.750   4.338  19.510 -0.9953  0.3983 -0.8780
 2990TIP3    H233166   1.608   4.287  19.522 -0.2994 -1.4847 -0.1996
 2991TIP3   OH233167   6.128   6.275  20.363 -0.4742  0.1353  0.0787
 2991TIP3    H133168   6.220   6.297  20.346 -0.4712 -0.6143 -0.9531
 2991TIP3    H233169   6.124   6.262  20.458  0.5887 -0.2324  0.0913
 2992TIP3   OH233170   4.299   5.110  18.203 -0.4231  0.2024  0.2123
 2992TIP3    H133171   4.256   5.195  18.211 -0.1301  0.5257 -1.4654
 2992TIP3    H233172   4.228   5.049  18.184 -0.4155  0.3904 -0.4421
 2993TIP3   OH233173   0.009   1.801  18.410  0.3094  0.2907 -0.3103
 2993TIP3    H133174   0.012   1.712  18.443 -1.9441 -0.2393 -1.3437
 2993TIP3    H233175  -0.053   1.798  18.337 -0.9061  2.9553  0.4689
 2994TIP3   OH233176   1.236   5.275  19.661 -0.2378 -0.4006  0.3005
 2994TIP3    H133177   1.239   5.186  19.694  0.4533 -0.7406 -0.6212
 2994TIP3    H233178   1.274   5.269  19.573 -0.1864  0.7997  0.2252
 2995TIP3   OH233179   0.988   3.745  17.919  0.0828 -0.8767 -0.0522
 2995TIP3    H133180   1.018   3.831  17.949  0.8111 -0.7932 -0.9455
 2995TIP3    H233181   0.903   3.763  17.879  0.9132 -0.2446 -1.6535
 2996TIP3   OH233182   1.920   1.047  16.936 -0.4170  0.5889  0.1399
 2996TIP3    H133183   1.984   1.081  16.873 -0.0178  1.2083  0.8625
 2996TIP3    H233184   1.969   0.983  16.988 -0.8338 -0.1712 -0.3796
 2997TIP3   OH233185   3.952   6.558  17.968  0.2817 -0.2289  0.0599
 2997TIP3    H133186   3.866   6.539  18.005 -0.2376 -0.7073 -1.3322
 2997TIP3    H233187   3.970   6.648  17.994 -1.9790  0.9495 -2.0505
 2998TIP3   OH233188   6.436   2.221  18.862 -0.7039 -0.0073 -0.2467
 2998TIP3    H133189   6.341   2.213  18.874 -0.4398 -0.5132  1.9757
 2998TIP3    H233190   6.469   2.133  18.880  0.1389 -0.1415 -2.2014
 2999TIP3   OH233191   4.918   1.344  18.687 -0.0682 -0.1396  0.2643
 2999TIP3    H133192   5.001   1.297  18.686  0.4727  0.8027 -0.5132
 2999TIP3    H233193   4.881   1.329  18.600 -0.8187 -0.7162  0.6726
 3000TIP3   OH233194   3.063   2.015  17.824 -0.0208  0.0128  0.1024
 3000TIP3    H133195   3.150   1.980  17.806 -0.6922 -0.8677 -1.6123
 3000TIP3    H233196   3.041   1.982  17.911  0.2160 -2.1296 -0.6123
 3001TIP3   OH233197   0.773   4.375  19.698 -0.5791 -0.3152 -0.0067
 3001TIP3    H133198   0.778   4.425  19.616 -0.1986 -1.5192 -0.7536
 3001TIP3    H233199   0.686   4.336  19.697  0.3867 -2.7072 -1.3652
 3002TIP3   OH233200   0.381   0.328  17.604  0.2650  0.0733 -0.2184
 3002TIP3    H133201   0.360   0.327  17.697  2.7085  0.6386  0.4072
 3002TIP3    H233202   0.378   0.236  17.578  0.2445 -0.1708  0.6083
 3003TIP3   OH233203   3.228   6.136  17.984  0.0879 -0.1101 -0.0730
 3003TIP3    H133204   3.190   6.224  17.979  1.1577  0.4834  1.5351
 3003TIP3    H233205   3.308   6.141  17.931  0.6754  0.2063  0.8188
 3004TIP3   OH233206   1.491   1.344  19.694  0.1309  0.0493 -0.0494
 3004TIP3    H133207   1.501   1.386  19.609 -3.4664  2.0242  0.2923
 3004TIP3    H233208   1.405   1.302  19.691 -0.8570  1.5257  3.0322
 3005TIP3   OH233209   0.228   5.734  19.361  0.7421 -0.4171  0.1789
 3005TIP3    H133210   0.237   5.791  19.285 -1.3694 -0.3723 -0.0975
 3005TIP3    H233211   0.281   5.776  19.429  0.4362  1.0599 -0.4647
 3006TIP3   OH233212   2.607   3.411  19.347 -0.5072  0.0250  0.3028
 3006TIP3    H133213   2.525   3.362  19.345 -0.5584 -0.1651  3.0524
 3006TIP3    H233214   2.674   3.346  19.368 -0.1514  0.6280  1.1391
 3007TIP3   OH233215   1.442   2.632  18.584 -0.1540  0.9696  0.1411
 3007TIP3    H133216   1.458   2.554  18.531  0.6871  1.2907 -0.0956
 3007TIP3    H233217   1.431   2.702  18.520 -2.9990  0.7393  0.2528
 3008TIP3   OH233218   5.783   4.353  19.476 -0.0366  0.2691 -0.0333
 3008TIP3    H133219   5.762   4.431  19.424 -0.5144 -0.7296 -1.4096
 3008TIP3    H233220   5.876   4.363  19.497 -0.5127  2.1163  1.4923
 3009TIP3   OH233221   2.382   3.290  19.331 -0.3640 -0.0729 -0.2095
 3009TIP3    H133222   2.410   3.198  19.335 -0.4917 -0.0795  1.6605
 3009TIP3    H233223   2.314   3.292  19.265 -1.6567 -1.7411  0.9866
 3010TIP3   OH233224   3.095   0.961  17.524 -0.0827  0.0971  0.6704
 3010TIP3    H133225   3.134   0.976  17.610  0.7962 -1.0749  0.5061
 3010TIP3    H233226   3.041   0.883  17.536  0.7813 -0.6296 -0.0418
 3011TIP3   OH233227   1.868   0.340  19.194 -0.5034 -0.7573  0.1258
 3011TIP3    H133228   1.957   0.362  19.222 -0.8337 -0.8430  1.2802
 3011TIP3    H233229   1.812   0.379  19.260 -1.4413  0.7761 -1.4757
 3012TIP3   OH233230   4.199   4.440  18.169  0.0537  0.2770  0.2151
 3012TIP3    H133231   4.212   4.459  18.076 -1.5329  1.3484  0.1718
 3012TIP3    H233232   4.253   4.362  18.185  0.4951  0.1651 -1.5420
 3013TIP3   OH233233   1.977   1.508  18.153  0.3839 -0.3707  0.4413
 3013TIP3    H133234   1.932   1.458  18.221 -0.1170 -2.4632 -1.3154
 3013TIP3    H233235   1.934   1.593  18.153 -0.4031 -0.7368  1.9135
 3014TIP3   OH233236   3.347   2.227  19.955  0.0848  0.6516  0.4714
 3014TIP3    H133237   3.283   2.270  20.012 -0.0770  1.2490 -0.1533
 3014TIP3    H233238   3.405   2.297  19.927 -0.5258  0.5876 -1.0226
 3015TIP3   OH233239   2.069   5.557  19.443  0.0365  0.0719  0.1854
 3015TIP3    H133240   2.130   5.627  19.465 -1.9648  1.3965  2.0015
 3015TIP3    H233241   2.093   5.531  19.354  1.4130  2.4664 -0.2461
 3016TIP3   OH233242   5.520   1.084  19.710  0.3144 -0.1073  0.0209
 3016TIP3    H133243   5.436   1.040  19.695  0.7625 -0.6854 -0.8640
 3016TIP3    H233244   5.585   1.013  19.709  0.9625  0.4803 -0.6724
 3017TIP3   OH233245   0.868   4.630  18.516  0.0123 -0.0055  0.3811
 3017TIP3    H133246   0.849   4.611  18.424  1.4947  0.9924 -0.1711
 3017TIP3    H233247   0.955   4.670  18.515  0.8073 -1.5318  2.4171
 3018TIP3   OH233248   0.437   5.211  17.808  0.0926  0.0471  0.4506
 3018TIP3    H133249   0.469   5.293  17.770  0.7465 -0.3814  0.0574
 3018TIP3    H233250   0.421   5.155  17.733  0.2812 -0.4103  0.7487
 3019TIP3   OH233251   1.221   0.796  17.240 -0.5128 -0.0311 -0.2267
 3019TIP3    H133252   1.273   0.725  17.279 -1.7766 -1.1763 -0.5668
 3019TIP3    H233253   1.286   0.852  17.198  0.4682 -1.3980 -0.6212
 3020TIP3   OH233254   4.498   5.800  17.008 -0.3062 -0.4050 -0.0259
 3020TIP3    H133255   4.449   5.882  17.001 -1.1689 -0.8539  0.5490
 3020TIP3    H233256   4.474   5.765  17.094 -0.3540 -1.5129 -0.4790
 3021TIP3   OH233257   3.881   2.674  19.318  0.3248  0.3001 -0.2571
 3021TIP3    H133258   3.910   2.592  19.360  0.2258 -0.4551 -1.6098
 3021TIP3    H233259   3.896   2.741  19.385  3.4286 -0.3134 -0.1610
 3022TIP3   OH233260   2.389   6.473  18.116 -0.2391 -0.0595 -0.1359
 3022TIP3    H133261   2.344   6.531  18.055  0.5293  1.4995  0.7235
 3022TIP3    H233262   2.459   6.527  18.154  0.6448 -1.6113  0.5544
 3023TIP3   OH233263   5.874   5.716  17.101 -0.3976  0.6144 -0.0303
 3023TIP3    H133264   5.903   5.629  17.129  0.7407  1.4697  1.6376
 3023TIP3    H233265   5.855   5.706  17.008  3.2232 -0.6330 -0.8073
 3024TIP3   OH233266   2.888   6.010  19.535 -0.0093 -0.4933  0.1898
 3024TIP3    H133267   2.853   6.099  19.528  0.0289 -0.4132  0.9062
 3024TIP3    H233268   2.948   6.002  19.461 -1.5738 -0.6682 -1.1195
 3025TIP3   OH233269   1.297   0.770  19.373 -0.0909  0.3830 -0.2765
 3025TIP3    H133270   1.320   0.680  19.350 -0.9207 -0.4604  1.9250
 3025TIP3    H233271   1.227   0.762  19.438  0.4744  2.5833  0.7171
 3026TIP3   OH233272   3.132   5.021  17.696 -0.7129 -0.8194 -0.1495
 3026TIP3    H133273   3.081   4.971  17.759 -0.9682 -0.3184  0.0457
 3026TIP3    H233274   3.211   4.969  17.682 -0.1800 -0.4569  1.3467
 3027TIP3   OH233275   3.227   1.948  18.822  0.0018  0.1820 -0.2556
 3027TIP3    H133276   3.241   2.030  18.774  1.1544  0.9226  1.2301
 3027TIP3    H233277   3.307   1.937  18.874 -1.1041 -0.6160  1.3811
 3028TIP3   OH233278   4.085   1.458  18.044 -0.0109 -0.5109 -0.5294
 3028TIP3    H133279   4.053   1.377  18.084 -2.5319 -0.1511 -1.6419
 3028TIP3    H233280   4.016   1.522  18.061  0.7740  0.7423 -1.8382
 3029TIP3   OH233281   0.157   0.118  19.582 -0.4717  0.4384  0.1376
 3029TIP3    H133282   0.243   0.111  19.625 -0.0889  1.1631 -0.4762
 3029TIP3    H233283   0.132   0.210  19.594 -2.4471 -0.3285  2.6363
 3030TIP3   OH233284   3.509   1.424  17.582 -0.1479 -0.5689 -0.1613
 3030TIP3    H133285   3.497   1.414  17.487 -1.7881 -1.4002  0.0916
 3030TIP3    H233286   3.493   1.336  17.617  0.0060 -0.1763  0.9230
 3031TIP3   OH233287   1.147   3.929  19.423  0.1861 -0.4412 -0.6750
 3031TIP3    H133288   1.191   4.012  19.404  0.6767  0.1974  2.7334
 3031TIP3    H233289   1.209   3.880  19.477 -1.6181 -1.3158  0.7185
 3032TIP3   OH233290   5.296   5.756  16.705 -0.2023 -0.0091 -0.1773
 3032TIP3    H133291   5.288   5.669  16.744 -2.6889 -0.1853 -0.9086
 3032TIP3    H233292   5.375   5.751  16.651  1.3724 -0.8169  2.0486
 3033TIP3   OH233293   6.164   1.894  19.050  0.2940 -1.2684 -0.1583
 3033TIP3    H133294   6.141   1.938  19.133 -0.0560 -3.1929  0.8200
 3033TIP3    H233295   6.087   1.905  18.995  1.1854  1.6388 -1.0423
 3034TIP3   OH233296   0.294   0.538  18.262  0.0684 -0.6639 -0.0400
 3034TIP3    H133297   0.201   0.515  18.261 -0.2407  0.4678  0.5679
 3034TIP3    H233298   0.339   0.456  18.281 -0.8982 -1.0203  0.8295
 3035TIP3   OH233299   3.124   0.002  19.204 -0.1339  0.2148 -0.2068
 3035TIP3    H133300   3.217  -0.002  19.184  0.5815  0.6961  2.6177
 3035TIP3    H233301   3.115  -0.046  19.286 -2.3246  0.4697 -0.2402
 3036TIP3   OH233302   5.896   2.806  18.555  0.7337  0.2577  0.2910
 3036TIP3    H133303   5.807   2.833  18.536 -0.7629 -2.1656  3.0289
 3036TIP3    H233304   5.928   2.767  18.474 -0.3526  1.8392 -0.9513
 3037TIP3   OH233305   3.032   0.512  17.693  0.3970  0.3124 -0.9436
 3037TIP3    H133306   3.080   0.594  17.707 -0.2582  0.5711 -0.1431
 3037TIP3    H233307   3.003   0.486  17.780 -0.6195 -0.0182 -1.3672
 3038TIP3   OH233308   2.847   0.994  17.091 -0.3723 -0.1488  0.2402
 3038TIP3    H133309   2.866   0.947  17.010 -1.6701  0.4114 -0.4179
 3038TIP3    H233310   2.933   1.020  17.125  0.2268 -1.0228 -0.5640
 3039TIP3   OH233311   6.337   5.981  19.965  0.0043 -0.4270  0.5539
 3039TIP3    H133312   6.368   6.071  19.972 -0.6127 -0.3419  2.9309
 3039TIP3    H233313   6.243   5.989  19.950  0.4001 -0.7283 -3.0088
 3040TIP3   OH233314   6.222   6.208  17.419 -0.2354 -0.4883  0.1488
 3040TIP3    H133315   6.227   6.190  17.512  1.3506 -1.2353 -0.0447
 3040TIP3    H233316   6.305   6.176  17.384 -0.9837 -0.6519 -1.5893
 3041TIP3   OH233317   0.479   2.651  18.347  0.2337 -0.2775  0.1564
 3041TIP3    H133318   0.556   2.677  18.298  0.2406 -0.2786  0.1674
 3041TIP3    H233319   0.512   2.627  18.433  0.1905 -0.0409  0.2390
 3042TIP3   OH233320   5.911   2.210  19.953 -0.0503 -0.0073  0.1283
 3042TIP3    H133321   5.845   2.171  20.011  0.0071 -3.4776 -1.8370
 3042TIP3    H233322   5.995   2.176  19.986  0.4356  1.3412  0.3685
 3043TIP3   OH233323   2.247   1.506  18.052  0.0876  0.1148  0.2143
 3043TIP3    H133324   2.245   1.506  17.956  0.5894 -1.0264  0.1968
 3043TIP3    H233325   2.155   1.517  18.077  0.1101  2.0502 -0.3644
 3044TIP3   OH233326   2.333   2.720  18.434 -0.2165 -0.7527  0.2364
 3044TIP3    H133327   2.246   2.751  18.407 -0.0568  0.0647  0.6090
 3044TIP3    H233328   2.385   2.721  18.354 -0.4285 -0.7941  0.0967
 3045TIP3   OH233329   3.947   1.094  20.144 -0.1621 -0.3078  0.2518
 3045TIP3    H133330   4.007   1.148  20.093  0.2086 -2.2986 -1.5938
 3045TIP3    H233331   4.003   1.025  20.181 -0.6248  0.4287  2.4285
 3046TIP3   OH233332   5.406   3.014  17.815 -0.2177  0.3657  0.3228
 3046TIP3    H133333   5.471   3.056  17.760  0.2565  0.5649  1.0153
 3046TIP3    H233334   5.449   3.006  17.901 -0.7633 -0.3515  0.5425
 3047TIP3   OH233335   2.072   4.674  19.543 -0.5309  0.0687  0.3642
 3047TIP3    H133336   2.054   4.716  19.627  0.1391 -1.0591  1.1051
 3047TIP3    H233337   2.110   4.590  19.566 -0.2958 -0.2551 -1.0840
 3048TIP3   OH233338   2.983   1.919  18.683  0.2469 -0.4321  0.0075
 3048TIP3    H133339   2.918   1.916  18.754  0.0501  2.4909  0.0817
 3048TIP3    H233340   3.066   1.937  18.727  0.5897 -1.1667 -0.3295
 3049TIP3   OH233341   2.052   5.136  20.367  0.2678 -0.0112 -0.1268
 3049TIP3    H133342   2.133   5.186  20.363  0.7749 -0.8423 -0.6735
 3049TIP3    H233343   2.081   5.045  20.378 -0.5363 -0.4414 -1.3811
 3050TIP3   OH233344   0.663   5.903  17.359 -0.0261  0.1056  0.2016
 3050TIP3    H133345   0.647   5.889  17.266  0.8157  0.2212  0.0389
 3050TIP3    H233346   0.753   5.876  17.373 -0.2778 -0.3437  1.0799
 3051TIP3   OH233347   0.506   4.726  18.907 -0.7018 -0.3353 -0.6505
 3051TIP3    H133348   0.550   4.655  18.955 -0.6154 -0.7415 -1.3150
 3051TIP3    H233349   0.561   4.740  18.830 -0.9639  0.1513 -0.7524
 3052TIP3   OH233350   6.181   0.392  18.486 -0.1086  0.3506 -0.2761
 3052TIP3    H133351   6.229   0.355  18.560  0.3217 -0.2537 -0.8497
 3052TIP3    H233352   6.248   0.409  18.420 -0.1750  2.7909  0.1734
 3053TIP3   OH233353   2.360   2.116  18.308  0.3015 -0.2758  0.0623
 3053TIP3    H133354   2.421   2.061  18.356  1.3696 -0.5925 -1.5748
 3053TIP3    H233355   2.395   2.120  18.219 -1.7168  0.0540 -0.7923
 3054TIP3   OH233356   3.633   3.367  18.168 -0.6174 -0.1919 -0.4285
 3054TIP3    H133357   3.620   3.344  18.260  1.1431 -1.4137 -0.4247
 3054TIP3    H233358   3.616   3.461  18.164  0.0127  0.0282  1.3164
 3055TIP3   OH233359   3.870   0.378  18.024 -0.4236  0.1047  0.4130
 3055TIP3    H133360   3.822   0.325  17.961 -2.3282  1.1287  0.9226
 3055TIP3    H233361   3.816   0.375  18.103  1.0683  0.1985  1.4818
 3056TIP3   OH233362   5.343   0.205  17.275  0.5981 -0.0227  0.2324
 3056TIP3    H133363   5.384   0.286  17.245 -0.2339  0.8372  1.3076
 3056TIP3    H233364   5.251   0.230  17.290  0.4690 -1.0171  1.1579
 3057TIP3   OH233365   6.186   5.398  19.001 -0.1321 -0.4545 -0.4505
 3057TIP3    H133366   6.116   5.383  19.064 -0.4126 -0.6317 -0.7992
 3057TIP3    H233367   6.245   5.324  19.013  0.8999  0.5583  1.0228
 3058TIP3   OH233368   6.250   1.392  19.306  0.2629 -0.0112  0.2725
 3058TIP3    H133369   6.192   1.441  19.247  0.9542  0.3373 -0.1289
 3058TIP3    H233370   6.293   1.329  19.249 -0.8066 -1.2913  0.8330
 3059TIP3   OH233371   3.773   4.545  17.888 -0.3826 -0.0765  0.2084
 3059TIP3    H133372   3.857   4.579  17.857 -0.8163 -0.4592 -1.4689
 3059TIP3    H233373   3.708   4.604  17.851 -1.0990 -2.1086 -2.0885
 3060TIP3   OH233374   5.400   2.360  17.174  0.9715  0.9334  0.1476
 3060TIP3    H133375   5.425   2.390  17.087 -2.3895  1.2320 -0.8654
 3060TIP3    H233376   5.336   2.291  17.157  0.6249  0.6380  2.4002
 3061TIP3   OH233377   1.379   4.725  20.444 -0.3753 -0.1150 -0.5600
 3061TIP3    H133378   1.366   4.631  20.448 -0.8665 -0.0649 -0.8596
 3061TIP3    H233379   1.292   4.761  20.423 -0.1784  0.3950 -0.5320
 3062TIP3   OH233380   4.617   3.207  20.204  0.3499 -0.2150 -0.4045
 3062TIP3    H133381   4.704   3.183  20.174  0.3194  0.8819 -1.4618
 3062TIP3    H233382   4.632   3.263  20.280  0.7926  2.6361 -2.4272
 3063TIP3   OH233383   2.862   3.975  19.014  0.2637  0.3111  0.3402
 3063TIP3    H133384   2.922   3.926  19.070  2.4510 -2.2366 -3.7065
 3063TIP3    H233385   2.918   4.033  18.963 -1.0312  0.0653 -1.4818
 3064TIP3   OH233386   0.823   2.455  19.154 -0.0408  0.0644 -0.0756
 3064TIP3    H133387   0.765   2.528  19.131  1.9493  1.8876  0.4141
 3064TIP3    H233388   0.861   2.428  19.070 -0.3986 -0.0865 -0.1929
 3065TIP3   OH233389   4.372   5.981  17.313 -0.4517 -0.0167  0.2089
 3065TIP3    H133390   4.357   5.990  17.407  0.2521 -0.6734  0.3917
 3065TIP3    H233391   4.359   5.888  17.295  3.0301 -0.6657  0.3626
 3066TIP3   OH233392   1.681   5.614  18.680 -0.3211 -0.1624  0.3670
 3066TIP3    H133393   1.756   5.671  18.665 -0.4659  0.1286  0.7170
 3066TIP3    H233394   1.619   5.668  18.730 -0.2597 -0.7791  1.1400
 3067TIP3   OH233395   3.024   5.580  17.822  0.0954 -0.3925  0.0725
 3067TIP3    H133396   3.038   5.674  17.810 -0.9881 -0.4683 -2.4257
 3067TIP3    H233397   3.024   5.568  17.917  4.9427  1.3129  0.5545
 3068TIP3   OH233398   2.320   2.911  17.892  0.6632 -0.1884  0.7914
 3068TIP3    H133399   2.328   2.816  17.889  0.1480 -0.2166 -0.8166
 3068TIP3    H233400   2.373   2.942  17.819  0.0840  0.6924  0.7313
 3069TIP3   OH233401   2.480   2.588  16.490 -0.4509 -0.4916  0.5220
 3069TIP3    H133402   2.480   2.647  16.565  0.6453  2.1908 -1.4366
 3069TIP3    H233403   2.399   2.539  16.498 -0.8524  0.4301  2.8833
 3070TIP3   OH233404   3.908   5.998  18.993  0.6340 -0.5880  0.2340
 3070TIP3    H133405   3.958   6.008  19.074 -0.8030  0.1502  1.0660
 3070TIP3    H233406   3.940   6.067  18.936 -1.5416  2.0287  1.9235
 3071TIP3   OH233407   5.967   5.816  19.389  0.2979 -0.7239  0.0714
 3071TIP3    H133408   5.923   5.736  19.361 -0.9687 -0.8870  2.2344
 3071TIP3    H233409   5.948   5.879  19.320  0.6478 -2.0593 -1.2885
 3072TIP3   OH233410   6.243   2.515  18.611 -0.4030  0.3104  0.2890
 3072TIP3    H133411   6.163   2.462  18.607 -0.1190 -0.0740 -1.2441
 3072TIP3    H233412   6.228   2.585  18.547  0.2465  0.5879  0.4323
 3073TIP3   OH233413   2.158   2.300  20.053 -0.0042  0.0426  0.1445
 3073TIP3    H133414   2.174   2.221  20.105 -2.6621 -0.0969  0.8701
 3073TIP3    H233415   2.224   2.363  20.084  0.5773 -1.0957  1.3063
 3074TIP3   OH233416   3.355   0.851  19.263  0.1743  0.4593  0.2291
 3074TIP3    H133417   3.270   0.871  19.302 -0.6052 -0.8935 -0.6998
 3074TIP3    H233418   3.409   0.820  19.336 -1.5775 -3.0657  0.2338
 3075TIP3   OH233419   0.934   0.306  18.239  0.4063  0.8720 -0.1927
 3075TIP3    H133420   0.849   0.301  18.282 -0.1789 -0.8333 -1.4503
 3075TIP3    H233421   0.983   0.231  18.273  0.2201 -0.0269 -1.8372
 3076TIP3   OH233422   1.432   3.310  18.343 -0.5580 -0.1588  0.2638
 3076TIP3    H133423   1.493   3.299  18.270 -0.4521 -0.7534  0.4341
 3076TIP3    H233424   1.487   3.313  18.421 -0.6306  0.9965  0.2931
 3077TIP3   OH233425   5.943   5.060  18.444 -0.0608 -0.5648  0.8176
 3077TIP3    H133426   5.937   5.140  18.390  0.1571  0.2433  1.9588
 3077TIP3    H233427   6.016   5.076  18.503 -0.6161 -1.2123  1.7057
 3078TIP3   OH233428   4.805   5.692  19.260  0.1260  0.3550 -0.4405
 3078TIP3    H133429   4.826   5.612  19.309  2.6349  2.0637  1.5378
 3078TIP3    H233430   4.878   5.704  19.200  0.7793  2.0733  0.6205
 3079TIP3   OH233431   1.497   6.108  17.290 -0.2421 -0.2691 -0.0789
 3079TIP3    H133432   1.485   6.030  17.237 -0.4145 -0.4473  0.2166
 3079TIP3    H233433   1.415   6.118  17.338  0.2258 -0.6257  0.8243
 3080TIP3   OH233434   0.944   4.027  17.424  0.5013 -0.7699  0.2388
 3080TIP3    H133435   1.032   4.050  17.395 -0.7671  1.5007 -2.2661
 3080TIP3    H233436   0.925   3.944  17.380  0.4382  0.1643 -1.6100
 3081TIP3   OH233437   0.534   3.214  16.895  0.2290  0.1944 -0.0618
 3081TIP3    H133438   0.494   3.144  16.843  1.2324  0.1308 -0.7773
 3081TIP3    H233439   0.554   3.283  16.832  1.5411  0.0874  0.1962
 3082TIP3   OH233440   3.739   2.985  19.007  0.5862  0.4950  0.1110
 3082TIP3    H133441   3.748   2.894  19.037  0.5358  0.0518 -1.1819
 3082TIP3    H233442   3.650   3.009  19.032 -0.7237 -1.0357 -2.6500
 3083TIP3   OH233443   5.578   3.579  17.891 -0.4055  0.4818  0.1668
 3083TIP3    H133444   5.513   3.587  17.822 -1.4262 -2.7110  0.6018
 3083TIP3    H233445   5.661   3.605  17.850 -1.1564 -0.2387 -1.9260
 3084TIP3   OH233446   2.001   2.912  17.238  0.1233 -0.5256  0.0101
 3084TIP3    H133447   1.958   2.955  17.164 -0.6320  0.7712  1.1557
 3084TIP3    H233448   2.087   2.887  17.205  1.2688  3.2971 -0.3409
 3085TIP3   OH233449   2.135   1.263  19.256 -0.1110 -0.4126  0.1538
 3085TIP3    H133450   2.177   1.248  19.341  0.6725  1.1437  0.0894
 3085TIP3    H233451   2.046   1.230  19.267 -0.5979  1.3320  2.2288
 3086TIP3   OH233452   2.277   6.683  17.138  0.0465 -0.5719  0.4008
 3086TIP3    H133453   2.197   6.729  17.165  1.1114  1.5064  0.2219
 3086TIP3    H233454   2.347   6.726  17.188  1.2091 -1.4162 -0.4603
 3087TIP3   OH233455   3.790   6.588  19.366 -0.1160  0.9559  0.3329
 3087TIP3    H133456   3.787   6.513  19.307  1.5576  0.9357  0.2263
 3087TIP3    H233457   3.833   6.556  19.445  1.2352  1.9273  0.0294
 3088TIP3   OH233458   1.471   4.654  18.308 -0.3578 -0.0503  0.0947
 3088TIP3    H133459   1.452   4.720  18.241 -0.7964 -0.0918  0.1744
 3088TIP3    H233460   1.473   4.571  18.259 -0.0654 -0.0065  0.0335
 3089TIP3   OH233461   4.020   2.428  18.617 -0.0354  0.6698 -0.0678
 3089TIP3    H133462   3.962   2.419  18.693  0.9029  0.6533  0.6630
 3089TIP3    H233463   3.997   2.354  18.561  0.7783 -0.6444  1.2522
 3090TIP3   OH233464   3.768   4.197  18.064 -0.5226 -0.3526  0.0020
 3090TIP3    H133465   3.819   4.153  18.133 -0.3504  1.3217  1.0116
 3090TIP3    H233466   3.777   4.140  17.988  2.4510 -0.4349  0.2805
 3091TIP3   OH233467   3.867   1.518  18.848  0.2639 -0.6596 -0.2136
 3091TIP3    H133468   3.855   1.594  18.791  1.8043  0.3547  0.7321
 3091TIP3    H233469   3.881   1.445  18.788  0.6689  0.1510 -1.1340
 3092TIP3   OH233470   4.982   1.599  18.944  0.1179 -0.3843 -0.6949
 3092TIP3    H133471   4.895   1.613  18.981  0.1382 -0.8678 -0.4555
 3092TIP3    H233472   5.014   1.519  18.986  1.0959  0.3265 -0.0361
 3093TIP3   OH233473   2.710   1.662  19.163 -0.2575 -0.2823 -0.6243
 3093TIP3    H133474   2.799   1.634  19.141  0.1019 -0.8106  1.2831
 3093TIP3    H233475   2.686   1.723  19.094  1.9413  0.5602 -0.7364
 3094TIP3   OH233476   4.176   5.998  18.364  0.1687  0.5869 -0.2930
 3094TIP3    H133477   4.207   5.950  18.441 -2.9095 -0.8278  0.2404
 3094TIP3    H233478   4.201   6.089  18.381  2.2891 -0.1389  0.8180
 3095TIP3   OH233479   5.680   6.632  17.322  0.3558 -0.4433 -0.4678
 3095TIP3    H133480   5.772   6.611  17.306  0.4923 -0.2861  0.0820
 3095TIP3    H233481   5.634   6.549  17.311  0.6105 -0.5970 -0.3861
 3096TIP3   OH233482   5.468   5.182  20.078 -0.1151  0.0323  0.3840
 3096TIP3    H133483   5.374   5.183  20.093 -0.0989 -1.7570  0.7683
 3096TIP3    H233484   5.499   5.102  20.121  1.2975 -0.4084 -1.3360
 3097TIP3   OH233485   2.278   5.418  18.184  0.5091  0.9448  0.3317
 3097TIP3    H133486   2.275   5.331  18.145  0.1535  2.0158 -2.2561
 3097TIP3    H233487   2.370   5.443  18.181  0.5226  0.9119  0.4646
 3098TIP3   OH233488   2.835   6.193  17.925 -0.3152 -0.2271 -0.2034
 3098TIP3    H133489   2.884   6.142  17.989  1.4717  2.7649  1.0394
 3098TIP3    H233490   2.765   6.234  17.975 -1.0111 -0.4980 -0.9215
 3099TIP3   OH233491   5.663   3.900  19.998  0.2320  0.7371 -0.0959
 3099TIP3    H133492   5.623   3.870  19.916  0.4537 -1.1302  0.4313
 3099TIP3    H233493   5.611   3.976  20.023 -1.3931 -0.1142 -0.7271
 3100TIP3   OH233494   1.839   0.027  18.524  0.0956  0.5120  0.0325
 3100TIP3    H133495   1.755   0.004  18.563  0.5548  0.3811  0.9788
 3100TIP3    H233496   1.863  -0.050  18.472  0.6630 -0.3979  1.5567
 3101TIP3   OH233497   2.510   1.418  19.584  0.1108 -0.3739 -0.0047
 3101TIP3    H133498   2.546   1.359  19.650  0.6878  0.2313  0.2317
 3101TIP3    H233499   2.425   1.444  19.619 -0.0179 -0.8352  0.0280
 3102TIP3   OH233500   2.109   1.197  18.126 -0.1603  0.0554  0.2781
 3102TIP3    H133501   2.098   1.183  18.220  0.5167  1.4580  0.5971
 3102TIP3    H233502   2.203   1.208  18.114 -0.2646  0.1376 -0.5321
 3103TIP3   OH233503   1.900   3.816  17.584  0.8713  0.0021  0.4246
 3103TIP3    H133504   1.843   3.842  17.656  2.3067  2.0322  0.9181
 3103TIP3    H233505   1.863   3.860  17.507  2.9296  3.3222  1.1473
 3104TIP3   OH233506   5.793   2.475  20.166 -0.1530 -0.2996  0.6952
 3104TIP3    H133507   5.846   2.501  20.241  0.0075 -0.1674  0.5353
 3104TIP3    H233508   5.796   2.379  20.167 -2.0409 -0.4080  2.2211
 3105TIP3   OH233509   3.802   3.888  20.088  0.5062  0.6001  0.0624
 3105TIP3    H133510   3.762   3.827  20.026  1.8429 -1.4593  1.0797
 3105TIP3    H233511   3.895   3.886  20.067  0.7634  1.1104  1.0760
 3106TIP3   OH233512   2.911   5.007  18.682 -0.1547 -0.3786 -0.0922
 3106TIP3    H133513   2.986   5.061  18.656 -1.0485  0.3039 -1.3992
 3106TIP3    H233514   2.901   4.943  18.611  0.9388 -2.4093  1.4726
 3107TIP3   OH233515   0.916   3.005  17.680  0.3654  0.3510  0.1248
 3107TIP3    H133516   1.004   3.023  17.649  0.3970 -0.2619 -0.1590
 3107TIP3    H233517   0.890   3.084  17.727  1.6624 -0.0475  1.5790
 3108TIP3   OH233518   5.430   3.441  18.097  0.5322 -0.0644  0.4634
 3108TIP3    H133519   5.470   3.471  18.015  1.2355 -2.0704  0.0119
 3108TIP3    H233520   5.397   3.354  18.076  0.1903 -0.3655  2.1759
 3109TIP3   OH233521   1.506   4.513  17.155  0.0242  0.2326  0.6924
 3109TIP3    H133522   1.469   4.510  17.067 -0.5573 -1.7317  0.9458
 3109TIP3    H233523   1.478   4.598  17.190 -0.2860  0.7646 -0.7654
 3110TIP3   OH233524   2.683   2.043  18.166  0.5704 -0.4095 -0.5049
 3110TIP3    H133525   2.721   1.959  18.141 -0.1721  0.2869 -4.7274
 3110TIP3    H233526   2.753   2.106  18.153  0.6104 -0.1318  0.9131
 3111TIP3   OH233527   5.413   6.027  19.664  0.0610  0.0134 -0.0829
 3111TIP3    H133528   5.467   5.952  19.640  0.4712 -0.3950  1.9165
 3111TIP3    H233529   5.353   6.039  19.590 -1.3066 -3.4727  0.2682
 3112TIP3   OH233530   0.934   6.283  16.426 -0.4906  0.1490 -0.2181
 3112TIP3    H133531   0.979   6.254  16.505 -0.7973 -0.0615 -0.1229
 3112TIP3    H233532   0.868   6.345  16.457  1.2970  2.3624 -0.5487
 3113TIP3   OH233533   6.445   0.106  18.562 -0.0468 -0.9264 -0.3030
 3113TIP3    H133534   6.488   0.033  18.606 -0.2662  0.3396  2.1732
 3113TIP3    H233535   6.356   0.107  18.597 -0.3984 -0.1440 -1.1554
 3114TIP3   OH233536   1.110   0.396  18.733  0.1221 -0.1035 -0.3211
 3114TIP3    H133537   1.187   0.357  18.693  0.1218 -0.3828 -0.0482
 3114TIP3    H233538   1.036   0.348  18.695 -0.1421  1.9532 -2.7341
 3115TIP3   OH233539   6.362   1.558  18.945  0.3363 -0.0052  0.2917
 3115TIP3    H133540   6.455   1.551  18.967  0.5026  0.3153 -0.2921
 3115TIP3    H233541   6.327   1.622  19.007  0.4392 -0.3539  0.7102
 3116TIP3   OH233542   0.251   6.415  17.439  0.1508  0.4446 -0.5238
 3116TIP3    H133543   0.306   6.470  17.495 -0.6194  2.1869 -1.4118
 3116TIP3    H233544   0.221   6.474  17.370 -0.9697 -1.0412 -1.3471
 3117TIP3   OH233545   1.284   0.545  18.961  0.4974  0.4604  0.0460
 3117TIP3    H133546   1.271   0.638  18.944 -0.8073  0.0211 -1.7651
 3117TIP3    H233547   1.221   0.501  18.902  0.4913 -1.5380  1.4329
 3118TIP3   OH233548   0.775   0.707  17.227  0.1277 -0.2564  0.2459
 3118TIP3    H133549   0.742   0.675  17.310 -0.2474  1.4706  0.8069
 3118TIP3    H233550   0.743   0.797  17.221  1.6607  0.2618 -0.9143
 3119TIP3   OH233551   3.329   2.660  19.721  0.0299 -0.2055  0.6133
 3119TIP3    H133552   3.243   2.647  19.680 -0.0522  0.2206  0.6459
 3119TIP3    H233553   3.385   2.692  19.651  0.8966 -2.9935 -0.0856
 3120TIP3   OH233554   2.675   6.168  19.990  0.8829 -0.5821 -0.3689
 3120TIP3    H133555   2.676   6.122  19.905 -1.3959  1.3685 -1.5646
 3120TIP3    H233556   2.751   6.227  19.985  0.8977 -0.6390 -0.9772
 3121TIP3   OH233557   4.552   0.751  18.926 -0.1378  0.4013 -0.0631
 3121TIP3    H133558   4.551   0.815  18.854  0.2376 -0.9978 -1.3616
 3121TIP3    H233559   4.645   0.734  18.942 -0.2135  0.8199  0.8858
 3122TIP3   OH233560   6.221   4.715  17.006  0.5038 -0.1503  0.1642
 3122TIP3    H133561   6.293   4.762  17.049  0.4839 -1.6262  1.9243
 3122TIP3    H233562   6.207   4.763  16.924  2.6781  0.8884  0.3255
 3123TIP3   OH233563   6.398   2.526  20.241  0.7076  0.3314  0.4711
 3123TIP3    H133564   6.416   2.435  20.217 -1.4393  0.0313 -0.2664
 3123TIP3    H233565   6.455   2.578  20.183  1.2248 -0.5200  0.1930
 3124TIP3   OH233566   5.476   4.216  17.548 -0.4464 -0.1584  0.4133
 3124TIP3    H133567   5.503   4.155  17.616 -0.0941  0.4005  0.7758
 3124TIP3    H233568   5.389   4.245  17.574  0.2826  1.2062  1.4426
 3125TIP3   OH233569   3.480   0.831  16.813  0.1793  0.5279  0.2587
 3125TIP3    H133570   3.442   0.910  16.851  0.4080  0.2067  1.1691
 3125TIP3    H233571   3.413   0.798  16.753  0.0531  1.3643 -0.0700
 3126TIP3   OH233572   2.157   3.231  18.710 -0.1798 -0.0565  0.3212
 3126TIP3    H133573   2.184   3.321  18.731 -0.8122 -0.0105  0.9728
 3126TIP3    H233574   2.123   3.237  18.621 -0.0650  0.3167  0.2997
 3127TIP3   OH233575   0.578   4.189  19.695  0.0252 -0.5261  0.5936
 3127TIP3    H133576   0.506   4.140  19.735 -0.9911  0.0993 -0.4440
 3127TIP3    H233577   0.581   4.158  19.605 -0.8255  1.4890 -0.1739
 3128TIP3   OH233578   1.194   0.721  18.482 -0.1963 -0.1099 -0.2382
 3128TIP3    H133579   1.175   0.627  18.479 -1.0378 -0.1067  2.0848
 3128TIP3    H233580   1.147   0.751  18.561  0.4601  2.1612 -0.6564
 3129TIP3   OH233581   5.127   1.041  19.042  0.9319 -0.0384  0.3536
 3129TIP3    H133582   5.203   1.085  19.004 -1.5115  3.6336 -0.8041
 3129TIP3    H233583   5.146   1.038  19.136  1.4989  3.4990  0.5094
 3130TIP3   OH233584   0.456   3.447  19.331  0.8212  0.7626  0.3381
 3130TIP3    H133585   0.427   3.431  19.420  3.8816 -0.8089  1.2113
 3130TIP3    H233586   0.453   3.361  19.289 -1.1743  1.5730 -1.3605
 3131TIP3   OH233587   2.984   4.313  17.484 -0.5446 -0.3345 -0.0510
 3131TIP3    H133588   2.969   4.348  17.396  0.0529  1.5195  0.5239
 3131TIP3    H233589   3.042   4.378  17.525 -1.5260 -0.6855  2.0067
 3132TIP3   OH233590   1.337   0.138  16.546 -0.6248 -0.2876 -0.0001
 3132TIP3    H133591   1.413   0.169  16.597 -1.2297 -1.2787  1.5755
 3132TIP3    H233592   1.267   0.200  16.569 -0.0971  1.2827 -2.2861
 3133TIP3   OH233593   2.228   1.560  17.425 -0.8075 -0.0570  0.2016
 3133TIP3    H133594   2.261   1.515  17.504  0.4682 -0.4040 -0.4953
 3133TIP3    H233595   2.220   1.490  17.360 -1.8105  0.2382  0.0079
 3134TIP3   OH233596   5.206   3.578  16.908  0.5373 -0.6145 -0.0547
 3134TIP3    H133597   5.202   3.668  16.941 -1.5061 -0.8770  0.5811
 3134TIP3    H233598   5.295   3.569  16.874  1.1006  1.3307  0.7358
 3135TIP3   OH233599   5.322   2.980  17.472 -0.5255  0.1587 -0.1642
 3135TIP3    H133600   5.256   3.011  17.410 -1.3203  1.6760  1.3854
 3135TIP3    H233601   5.276   2.973  17.556  1.2813  1.4486  1.0070
 3136TIP3   OH233602   0.947   4.615  20.083  0.1300 -0.2927  0.5948
 3136TIP3    H133603   0.887   4.557  20.038  0.2834  0.4606 -0.6283
 3136TIP3    H233604   0.902   4.700  20.083  0.2425 -0.2198  1.6617
 3137TIP3   OH233605   2.007   0.864  17.994 -0.0589 -0.1424  0.6626
 3137TIP3    H133606   1.979   0.903  18.077  1.5118  2.7799 -0.0527
 3137TIP3    H233607   2.102   0.856  18.002 -0.1765 -2.7066  0.2172
 3138TIP3   OH233608   5.919   4.410  20.089 -0.3505 -0.2322  0.1235
 3138TIP3    H133609   5.928   4.318  20.067 -0.0629 -0.0080 -0.7114
 3138TIP3    H233610   5.832   4.417  20.129 -0.2101 -0.9271  0.5561
 3139TIP3   OH233611   5.705   3.211  18.210 -0.1168  0.0153 -0.0280
 3139TIP3    H133612   5.668   3.135  18.165  0.9702 -1.0976  0.8671
 3139TIP3    H233613   5.654   3.218  18.291  0.3373 -0.3016  0.2894
 3140TIP3   OH233614   2.109   2.096  18.193 -0.2291 -0.4561 -0.6870
 3140TIP3    H133615   2.141   2.075  18.105  0.5878 -5.3365  0.5077
 3140TIP3    H233616   2.189   2.105  18.246 -0.7547  0.7778 -0.0507
 3141TIP3   OH233617   5.674   6.188  17.286  0.0468  1.0459  0.3306
 3141TIP3    H133618   5.683   6.107  17.235 -1.8073  0.0208  1.5110
 3141TIP3    H233619   5.763   6.223  17.291  0.9748 -1.0985  0.0355
 3142TIP3   OH233620   0.963   5.311  20.058 -0.3980  0.0362 -0.9838
 3142TIP3    H133621   0.911   5.308  19.977  1.7729 -0.6792 -2.4268
 3142TIP3    H233622   0.984   5.403  20.070 -0.7630  0.1495 -1.2135
 3143TIP3   OH233623   1.889   4.062  19.972 -0.2295  0.2526 -0.3694
 3143TIP3    H133624   1.834   4.071  19.894  0.8189 -0.6592 -1.2476
 3143TIP3    H233625   1.827   4.047  20.043 -1.2043  1.0255 -1.0260
 3144TIP3   OH233626   4.255   4.451  19.714  0.7133  0.3713  0.0623
 3144TIP3    H133627   4.167   4.436  19.681  0.6142  0.1084  0.4355
 3144TIP3    H233628   4.247   4.442  19.809  0.7304  2.4513  0.2993
 3145TIP3   OH233629   2.731   5.142  18.427  0.1140  0.3107 -0.9960
 3145TIP3    H133630   2.745   5.047  18.434 -3.2395 -0.2338  0.4716
 3145TIP3    H233631   2.724   5.171  18.518 -0.2091  1.7196 -1.4557
 3146TIP3   OH233632   4.650   1.023  18.766  0.3668 -0.2858 -0.2977
 3146TIP3    H133633   4.738   1.021  18.804  0.2902  0.2330 -0.0777
 3146TIP3    H233634   4.640   0.939  18.722 -0.2299 -1.7245  2.3680
 3147TIP3   OH233635   3.220   5.807  17.282  0.5680  0.6085  0.3416
 3147TIP3    H133636   3.211   5.846  17.195  0.5907  0.3371  0.2138
 3147TIP3    H233637   3.295   5.852  17.321  1.8790 -0.6734 -0.5783
 3148TIP3   OH233638   0.134   3.439  17.863 -0.4554  0.2496  0.2702
 3148TIP3    H133639   0.083   3.477  17.792 -0.3596 -0.1079  0.0072
 3148TIP3    H233640   0.080   3.453  17.941 -1.7820 -1.6148 -0.2315
 3149TIP3   OH233641   1.167   5.350  18.988 -0.0791  0.3449  0.3470
 3149TIP3    H133642   1.191   5.430  19.034  0.2199  0.2090  0.4235
 3149TIP3    H233643   1.250   5.306  18.969 -0.0518  1.1204 -1.6367
 3150TIP3   OH233644   2.805   2.493  17.370 -0.1271  0.1572 -0.5231
 3150TIP3    H133645   2.827   2.484  17.278 -0.6998  0.7753 -0.7247
 3150TIP3    H233646   2.746   2.420  17.388 -0.9403  0.7057 -0.9420
 3151TIP3   OH233647   4.289   1.190  17.471  0.4422  0.4125  0.4334
 3151TIP3    H133648   4.309   1.252  17.401 -0.0621 -0.4727 -0.5132
 3151TIP3    H233649   4.286   1.244  17.550 -1.4625  1.8820 -0.5548
 3152TIP3   OH233650   1.740   4.965  20.493  0.2778  0.0806  0.4098
 3152TIP3    H133651   1.682   4.968  20.570  0.9999 -3.3004  1.2126
 3152TIP3    H233652   1.710   4.891  20.442  2.2161 -0.1130 -0.5587
 3153TIP3   OH233653   2.189   4.406  18.860 -0.1408 -0.0661  0.1508
 3153TIP3    H133654   2.270   4.441  18.897  0.3744  0.1081 -1.0749
 3153TIP3    H233655   2.154   4.349  18.928  0.0720  1.2340  1.3915
 3154TIP3   OH233656   0.291   2.441  17.638 -0.4258 -0.1522  0.6198
 3154TIP3    H133657   0.210   2.413  17.679 -1.6911  1.4690 -0.6100
 3154TIP3    H233658   0.320   2.365  17.587 -1.2421 -0.7183  0.9743
 3155TIP3   OH233659   2.426   4.804  18.914  0.5935  0.0775  0.0726
 3155TIP3    H133660   2.382   4.872  18.966 -0.1858  0.2895 -0.8361
 3155TIP3    H233661   2.399   4.822  18.824  1.6010 -0.5258 -0.3671
 3156TIP3   OH233662   0.050   5.233  18.617  0.2367 -0.0365 -0.1886
 3156TIP3    H133663   0.087   5.274  18.539  0.3645 -0.5281 -0.3922
 3156TIP3    H233664  -0.031   5.281  18.635 -0.1467 -0.3547 -1.0260
 3157TIP3   OH233665   3.213   1.078  17.306  0.6071  0.3082 -0.3647
 3157TIP3    H133666   3.177   1.027  17.378  1.3333  0.8846  0.4369
 3157TIP3    H233667   3.145   1.142  17.285 -0.0615 -0.5996 -0.9674
 3158TIP3   OH233668   1.574   3.993  19.512  0.3050 -0.4320 -0.2305
 3158TIP3    H133669   1.628   4.071  19.514  0.6969 -0.7125  0.7567
 3158TIP3    H233670   1.595   3.950  19.429 -1.7714  1.7566 -2.0556
 3159TIP3   OH233671   1.251   0.270  19.573  0.0867  0.4699 -0.3154
 3159TIP3    H133672   1.302   0.229  19.643  0.3425  1.0128 -0.1790
 3159TIP3    H233673   1.160   0.260  19.601  0.1529  0.1051 -0.2253
 3160TIP3   OH233674   3.627   5.431  17.961  0.7053 -0.1533  0.2650
 3160TIP3    H133675   3.674   5.348  17.947  2.7832  1.1592 -1.0518
 3160TIP3    H233676   3.674   5.473  18.032 -0.6329 -0.2588  1.2432
 3161TIP3   OH233677   3.793   1.182  19.535 -0.5341  0.1771  0.4124
 3161TIP3    H133678   3.880   1.143  19.536  0.3543  2.0329  1.3060
 3161TIP3    H233679   3.758   1.161  19.448 -0.0742 -2.3405  0.7698
 3162TIP3   OH233680   1.046   3.410  17.540  0.0202  0.2354 -0.5397
 3162TIP3    H133681   0.952   3.401  17.523  0.4244 -0.0857 -2.9849
 3162TIP3    H233682   1.056   3.500  17.571 -1.0639  0.3208 -0.3965
 3163TIP3   OH233683   6.037   6.453  18.787 -0.3861 -0.6399  0.7241
 3163TIP3    H133684   6.090   6.390  18.740 -1.6665 -0.9762 -0.3301
 3163TIP3    H233685   6.023   6.525  18.725 -2.7318 -1.4353  0.2118
 3164TIP3   OH233686   2.093   0.409  17.145 -0.0705 -0.0791  0.4323
 3164TIP3    H133687   2.081   0.314  17.140  0.5840 -0.1890  0.8507
 3164TIP3    H233688   2.188   0.421  17.148 -0.1764  0.5223  1.6914
 3165TIP3   OH233689   5.313   6.576  17.127  0.0414  0.4773 -0.0877
 3165TIP3    H133690   5.350   6.512  17.066  1.0984  0.6502  0.3563
 3165TIP3    H233691   5.384   6.595  17.188 -0.6887  1.0620  0.5974
 3166TIP3   OH233692   4.447   2.039  19.880 -0.7166  0.1386 -0.3082
 3166TIP3    H133693   4.371   2.097  19.872 -2.0139 -1.6655 -1.9463
 3166TIP3    H233694   4.415   1.965  19.932  0.6595  0.4366  1.0348
 3167TIP3   OH233695   4.746   0.770  20.283  0.9225 -0.4205 -0.2706
 3167TIP3    H133696   4.795   0.726  20.213  1.1232 -0.2831 -0.2170
 3167TIP3    H233697   4.711   0.698  20.336  0.6791 -0.5261 -0.5769
 3168TIP3   OH233698   1.974   4.472  19.865  0.0157 -0.6138 -0.5295
 3168TIP3    H133699   2.068   4.463  19.878 -0.3213 -1.7564  1.6498
 3168TIP3    H233700   1.957   4.566  19.872  0.9878 -0.4076 -0.9179
 3169TIP3   OH233701   3.830   5.035  19.254  0.0171 -0.1036 -0.7415
 3169TIP3    H133702   3.866   5.124  19.260 -0.1590 -0.1162  0.8587
 3169TIP3    H233703   3.904   4.981  19.227  1.2467 -0.0788  2.2159
 3170TIP3   OH233704   4.695   0.276  16.836 -0.3550 -0.5946  0.2954
 3170TIP3    H133705   4.613   0.227  16.825 -0.7306 -0.3746  1.9094
 3170TIP3    H233706   4.691   0.310  16.925  1.5232 -0.6176  0.4306
 3171TIP3   OH233707   4.401   1.210  20.005 -0.2999 -0.0007  0.4165
 3171TIP3    H133708   4.414   1.116  19.993 -0.4955  0.0901 -0.5844
 3171TIP3    H233709   4.306   1.221  20.010 -0.6015  0.4822 -3.1425
 3172TIP3   OH233710   1.930   2.123  17.703  0.2062  0.4842  0.3646
 3172TIP3    H133711   1.958   2.175  17.627 -2.0935 -0.3802 -1.1949
 3172TIP3    H233712   1.920   2.188  17.773 -0.4415  1.8176 -0.8953
 3173TIP3   OH233713   6.072   3.463  20.210 -0.2434  0.3007 -0.1042
 3173TIP3    H133714   6.007   3.526  20.240  1.0081  1.7615 -0.3485
 3173TIP3    H233715   6.085   3.404  20.284  0.7797  2.1739  1.2603
 3174TIP3   OH233716   6.278   6.415  17.791  0.3320 -0.1840  0.5018
 3174TIP3    H133717   6.238   6.330  17.772 -2.7119  1.2072  0.2642
 3174TIP3    H233718   6.248   6.472  17.721  3.5199  0.8721 -0.2049
 3175TIP3   OH233719   6.614   6.434  17.336 -0.1421  0.2908 -0.4529
 3175TIP3    H133720   6.642   6.356  17.289  1.8297  0.9399 -0.4952
 3175TIP3    H233721   6.598   6.405  17.425  0.9018 -0.1395 -0.3892
 3176TIP3   OH233722   5.829   3.068  20.111 -0.6183 -0.5053  0.0555
 3176TIP3    H133723   5.823   3.131  20.182  0.8835  0.5163 -0.6620
 3176TIP3    H233724   5.873   3.115  20.041 -3.5181 -0.9387 -2.2415
 3177TIP3   OH233725   0.106   6.141  17.287  0.0813  0.4324 -0.1344
 3177TIP3    H133726   0.023   6.100  17.265  0.4690 -0.6430  0.3112
 3177TIP3    H233727   0.170   6.069  17.284  0.8354  1.0537  0.4156
 3178TIP3   OH233728   3.907   2.113  19.312  0.1343 -0.5134  0.3688
 3178TIP3    H133729   3.885   2.121  19.404 -0.2287 -2.6126  0.5171
 3178TIP3    H233730   3.984   2.056  19.310  0.2161 -0.3926 -0.6251
 3179TIP3   OH233731   4.587   0.220  16.430  0.5644 -0.5755 -0.0081
 3179TIP3    H133732   4.579   0.276  16.353  0.2067 -1.4372 -0.6172
 3179TIP3    H233733   4.529   0.145  16.411 -0.9480  0.0356  1.8536
 3180TIP3   OH233734   5.039   5.763  18.469  0.0660 -0.0725  0.3636
 3180TIP3    H133735   5.001   5.851  18.468 -2.1815 -0.8002  3.9480
 3180TIP3    H233736   5.123   5.774  18.515 -0.3238  0.2029  1.0238
 3181TIP3   OH233737   1.555   2.214  18.827 -0.0853  0.4210 -0.7864
 3181TIP3    H133738   1.484   2.184  18.884  0.9067 -1.8370 -0.6093
 3181TIP3    H233739   1.550   2.309  18.830 -2.5449  0.3403 -0.1080
 3182TIP3   OH233740   3.800   1.202  18.040  0.2256 -0.5378  0.8098
 3182TIP3    H133741   3.762   1.128  18.088 -1.6790  1.2260  2.1994
 3182TIP3    H233742   3.895   1.188  18.046 -0.0639 -2.7294  1.1736
 3183TIP3   OH233743   3.536   5.186  17.597  0.3127 -0.5969 -0.1858
 3183TIP3    H133744   3.482   5.158  17.523 -1.2607  1.5398  0.0718
 3183TIP3    H233745   3.581   5.265  17.565  1.7306 -1.1784  0.2890
 3184TIP3   OH233746   2.442   2.180  18.819  0.0381  0.8265  0.6321
 3184TIP3    H133747   2.450   2.085  18.824  3.4155  1.0193  2.1016
 3184TIP3    H233748   2.410   2.206  18.906  0.8902  1.0853  0.8813
 3185TIP3   OH233749   3.161   0.551  19.730  0.2585  0.6514  0.0007
 3185TIP3    H133750   3.167   0.575  19.822  1.0943  1.7840 -0.3278
 3185TIP3    H233751   3.251   0.531  19.705 -0.2259 -1.7517 -0.0564
 3186TIP3   OH233752   0.797   4.625  18.946  0.0308 -0.0265 -0.6073
 3186TIP3    H133753   0.775   4.678  18.869  2.2036  1.6867 -0.1329
 3186TIP3    H233754   0.749   4.666  19.017 -1.5335 -1.2773 -0.8656
 3187TIP3   OH233755   0.166   3.396  20.010  0.0552 -0.4341  0.1098
 3187TIP3    H133756   0.212   3.313  20.021 -2.1855 -2.1360 -2.2485
 3187TIP3    H233757   0.082   3.383  20.053 -0.6333  0.2991 -0.9676
 3188TIP3   OH233758   3.959   4.161  20.150  0.2590  0.3643 -0.1759
 3188TIP3    H133759   3.967   4.068  20.171  1.1504  0.4983  0.1426
 3188TIP3    H233760   3.889   4.165  20.085  0.4138 -0.5655 -0.4168
 3189TIP3   OH233761   0.270   4.341  19.633 -0.4095 -0.0462 -0.0885
 3189TIP3    H133762   0.285   4.400  19.560 -0.2323 -0.1394 -0.1283
 3189TIP3    H233763   0.282   4.395  19.711 -1.6185  0.3090 -0.1235
 3190TIP3   OH233764   4.663   5.666  17.280  0.3526  0.3926  0.1187
 3190TIP3    H133765   4.672   5.624  17.365 -0.1437 -1.3240 -0.6252
 3190TIP3    H233766   4.568   5.675  17.267  0.2972 -1.5030 -1.1894
 3191TIP3   OH233767   1.670   1.349  19.900  0.1194  0.3211 -0.0885
 3191TIP3    H133768   1.635   1.365  19.988  1.4242  0.5235  0.4133
 3191TIP3    H233769   1.593   1.348  19.844 -0.6988  0.6707  0.9865
 3192TIP3   OH233770   3.198   5.657  16.854 -0.2455  0.0385 -0.4769
 3192TIP3    H133771   3.214   5.569  16.820 -4.7835 -1.0354 -0.5786
 3192TIP3    H233772   3.202   5.647  16.949  1.8477  0.4593 -0.4795
 3193TIP3   OH233773   2.091   5.367  18.952 -0.0205 -0.1363 -0.1082
 3193TIP3    H133774   2.101   5.410  18.867  2.0864  0.1498  0.2261
 3193TIP3    H233775   2.175   5.326  18.968 -0.6319 -0.8295  1.5186
 3194TIP3   OH233776   3.287   1.563  20.163 -0.1818 -0.7409 -0.3610
 3194TIP3    H133777   3.290   1.483  20.215 -0.2801 -1.3861 -1.3216
 3194TIP3    H233778   3.371   1.567  20.118  0.3832  0.4559  0.7565
 3195TIP3   OH233779   6.165   3.862  19.094  0.3742 -0.5803 -0.2103
 3195TIP3    H133780   6.123   3.893  19.174 -0.2599 -1.1551 -0.3093
 3195TIP3    H233781   6.206   3.940  19.056 -0.2380 -0.0966  0.1142
 3196TIP3   OH233782   1.100   3.656  17.633  0.0867  0.0103 -0.0159
 3196TIP3    H133783   1.194   3.663  17.650  0.2868 -1.2160 -0.5360
 3196TIP3    H233784   1.059   3.659  17.720  0.7948 -1.9785  0.4214
 3197TIP3   OH233785   1.168   1.845  17.725 -0.1944 -0.4295  0.0943
 3197TIP3    H133786   1.126   1.760  17.736  1.1962 -1.2164 -0.4024
 3197TIP3    H233787   1.255   1.835  17.764  0.5833  0.2426 -1.3719
 3198TIP3   OH233788   4.390   0.834  20.230 -0.9068  0.0995  0.3435
 3198TIP3    H133789   4.458   0.841  20.163 -1.6216 -1.1410 -0.5428
 3198TIP3    H233790   4.418   0.895  20.299  0.3724  0.6366 -0.6132
 3199TIP3   OH233791   4.192   4.604  17.949  0.1351  0.1136 -0.4051
 3199TIP3    H133792   4.169   4.618  17.857  0.7643 -1.8038 -0.8840
 3199TIP3    H233793   4.249   4.678  17.971  1.5443 -0.4026 -2.1371
 3200TIP3   OH233794   4.350   6.613  19.411  0.3671 -0.0832  0.6066
 3200TIP3    H133795   4.397   6.606  19.328 -1.2053  0.5244 -0.3990
 3200TIP3    H233796   4.382   6.694  19.450 -0.1520  0.5855 -0.2995
 3201TIP3   OH233797   4.911   6.319  18.650  0.4377 -0.2031 -0.2112
 3201TIP3    H133798   5.003   6.336  18.672 -0.2141  1.0110  1.8858
 3201TIP3    H233799   4.893   6.379  18.578  0.9682  0.5224  0.2393
 3202TIP3   OH233800   5.031   4.769  17.046  0.3048 -0.0829  0.1872
 3202TIP3    H133801   5.046   4.731  17.132  0.8776  1.9062  1.0276
 3202TIP3    H233802   4.960   4.832  17.060  1.4847  1.4476 -0.3798
 3203TIP3   OH233803   1.383   3.164  19.301 -0.3601 -0.2338 -0.5145
 3203TIP3    H133804   1.428   3.085  19.272 -1.1661 -0.9389  0.1059
 3203TIP3    H233805   1.447   3.234  19.288  0.5653 -1.0639 -0.5451
 3204TIP3   OH233806   2.386   4.554  18.975  0.4194 -0.1993  0.4127
 3204TIP3    H133807   2.320   4.575  19.041 -1.2266  0.1639 -1.2493
 3204TIP3    H233808   2.407   4.638  18.935 -1.2541 -0.7562 -1.8298
 3205TIP3   OH233809   2.787   0.839  18.544  0.0653 -0.1096  0.2095
 3205TIP3    H133810   2.710   0.805  18.591 -1.1787  0.1958 -1.5002
 3205TIP3    H233811   2.821   0.908  18.600  0.9293 -2.1870  2.4166
 3206TIP3   OH233812   1.859   2.560  17.414  0.1600 -0.1121  0.5805
 3206TIP3    H133813   1.931   2.601  17.461  0.9814  0.1517 -0.8691
 3206TIP3    H233814   1.814   2.632  17.370  0.7661 -0.5551 -0.8379
 3207TIP3   OH233815   2.966   0.907  19.716 -0.0440  0.0699 -0.0287
 3207TIP3    H133816   2.996   0.932  19.628  0.2472  2.3837  0.6794
 3207TIP3    H233817   3.045   0.876  19.760  0.2098  0.8303  0.0563
 3208TIP3   OH233818   2.351   4.648  19.808  0.2172 -0.8254  0.2266
 3208TIP3    H133819   2.290   4.667  19.879  0.6213  0.3521  0.2828
 3208TIP3    H233820   2.392   4.565  19.832 -1.5704 -1.8212  0.0185
 3209TIP3   OH233821   1.323   1.468  18.184 -1.0060  0.5563  0.2960
 3209TIP3    H133822   1.342   1.471  18.091  0.0052  0.6907  0.4992
 3209TIP3    H233823   1.393   1.415  18.221 -2.4172 -1.1278  0.7355
 3210TIP3   OH233824   4.254   0.351  17.713 -0.1907  0.1840 -0.3505
 3210TIP3    H133825   4.160   0.330  17.716 -0.0876 -0.2820 -0.3083
 3210TIP3    H233826   4.297   0.266  17.703  0.2253  0.4041 -0.4456
 3211TIP3   OH233827   4.928   3.007  17.375 -0.0172 -0.7336 -0.1033
 3211TIP3    H133828   4.848   3.006  17.322 -0.3779  0.1078  0.4087
 3211TIP3    H233829   4.995   3.041  17.317 -0.8281  2.1296  0.5030
 3212TIP3   OH233830   0.593   2.016  19.806 -0.5624 -0.4724 -0.7167
 3212TIP3    H133831   0.646   2.032  19.884  0.2696 -1.8384 -0.9615
 3212TIP3    H233832   0.584   2.102  19.765  0.5209 -0.0216 -0.0599
 3213TIP3   OH233833   5.550   0.500  18.440  0.2533 -0.0701  0.2783
 3213TIP3    H133834   5.590   0.587  18.435 -0.4705  0.2056 -1.1999
 3213TIP3    H233835   5.624   0.441  18.458  0.8056  0.7915  0.9328
 3214TIP3   OH233836   5.887   4.232  18.449  0.2372  0.2057  0.5891
 3214TIP3    H133837   5.867   4.164  18.385  1.1370 -0.5663  1.1032
 3214TIP3    H233838   5.980   4.222  18.466  0.5601  2.0883  0.1049
 3215TIP3   OH233839   4.891   0.352  17.838  0.4091 -0.1811 -0.2959
 3215TIP3    H133840   4.795   0.355  17.835  0.4225 -0.7742 -2.2225
 3215TIP3    H233841   4.915   0.271  17.794  1.8418  0.7770 -1.3972
 3216TIP3   OH233842   2.146   0.378  18.553 -0.1228  0.3761  0.1414
 3216TIP3    H133843   2.217   0.392  18.615  0.7211  0.0235 -0.7296
 3216TIP3    H233844   2.187   0.337  18.477 -1.2044  0.4220 -0.4951
 3217TIP3   OH233845   4.938   3.976  19.637  0.5441  0.0624 -0.3711
 3217TIP3    H133846   4.927   4.070  19.618  0.4082 -0.0175 -0.7045
 3217TIP3    H233847   4.998   3.973  19.711  1.2068  0.3874 -0.8790
 3218TIP3   OH233848   6.499   5.868  18.893  0.5154  0.5656  1.0386
 3218TIP3    H133849   6.454   5.784  18.884 -0.0760  1.0983 -1.8955
 3218TIP3    H233850   6.586   5.852  18.857 -0.1466  1.5530 -1.1395
 3219TIP3   OH233851   2.042   5.095  20.043  0.0625  0.3417 -0.7910
 3219TIP3    H133852   2.090   5.039  20.104 -0.9670  0.2546 -0.0338
 3219TIP3    H233853   2.084   5.180  20.050  1.1265 -0.1262 -1.3465
 3220TIP3   OH233854   5.833   1.686  17.584 -0.0635 -0.1409 -0.2488
 3220TIP3    H133855   5.740   1.696  17.564  0.1967  1.5886 -0.7257
 3220TIP3    H233856   5.863   1.774  17.607  1.5129 -0.6256 -0.3069
 3221TIP3   OH233857   5.757   4.811  17.680 -0.6246  0.0015 -0.4128
 3221TIP3    H133858   5.850   4.836  17.681 -0.4010 -0.8066 -0.5160
 3221TIP3    H233859   5.713   4.886  17.640 -0.0564  0.5184 -0.0964
 3222TIP3   OH233860   3.544   5.965  20.010 -0.0573  0.3088  0.3112
 3222TIP3    H133861   3.503   5.883  20.035 -0.9688  0.4112 -0.7750
 3222TIP3    H233862   3.484   6.003  19.946  0.6040  1.5779  0.4255
 3223TIP3   OH233863   6.140   2.759  17.709 -0.3440 -0.0192  0.3240
 3223TIP3    H133864   6.131   2.786  17.618 -0.6085 -0.9189  0.0823
 3223TIP3    H233865   6.148   2.664  17.706  3.9305  0.1097  0.8909
 3224TIP3   OH233866   3.172   6.568  18.268  0.1960  0.0007  0.1135
 3224TIP3    H133867   3.220   6.626  18.208 -0.4359  1.5475  1.0267
 3224TIP3    H233868   3.149   6.492  18.215 -1.1259  1.6909 -1.9186
 3225TIP3   OH233869   4.330   6.056  18.984  0.2753  0.1811  0.1970
 3225TIP3    H133870   4.333   5.980  19.043 -1.8963 -1.8263 -2.0575
 3225TIP3    H233871   4.397   6.038  18.918 -1.0545 -0.4707 -1.0252
 3226TIP3   OH233872   2.549   1.126  17.871  0.5596  0.2420 -0.4753
 3226TIP3    H133873   2.619   1.188  17.892 -0.0471  1.0055 -0.6720
 3226TIP3    H233874   2.496   1.123  17.951  0.1651  0.5532 -0.7235
 3227TIP3   OH233875   2.704   0.956  18.313 -0.5408 -0.1130  0.2001
 3227TIP3    H133876   2.732   1.045  18.334 -0.1688  0.3949 -2.1856
 3227TIP3    H233877   2.729   0.905  18.390  0.7353  1.5469  0.9636
 3228TIP3   OH233878   5.616   4.269  18.874  0.8565 -0.3215 -0.1448
 3228TIP3    H133879   5.540   4.211  18.868  1.0311 -0.4264 -3.0511
 3228TIP3    H233880   5.684   4.216  18.915  0.0292 -1.0258  0.3304
 3229TIP3   OH233881   0.699   1.264  17.701  0.2601 -0.4765  0.5928
 3229TIP3    H133882   0.736   1.187  17.657 -0.3761 -0.7873  0.5901
 3229TIP3    H233883   0.706   1.243  17.794  1.0780 -0.0669  0.6272
 3230TIP3   OH233884   0.309   6.049  18.617  0.6964  0.0523 -0.4847
 3230TIP3    H133885   0.248   6.117  18.590 -0.9333 -0.8034  0.9142
 3230TIP3    H233886   0.300   5.981  18.551 -1.7406 -1.1248  0.9218
 3231TIP3   OH233887   0.656   2.505  18.882 -0.0950  0.0246 -0.1571
 3231TIP3    H133888   0.706   2.463  18.812 -0.3557 -0.5340 -0.0203
 3231TIP3    H233889   0.664   2.599  18.865 -1.1106 -0.1105 -1.6223
 3232TIP3   OH233890   4.346   1.765  17.907 -0.1287 -0.3236  0.0858
 3232TIP3    H133891   4.435   1.762  17.943  0.1378  0.1283 -0.4938
 3232TIP3    H233892   4.289   1.774  17.983  0.4211  0.7383  0.3988
 3233TIP3   OH233893   6.023   1.858  19.303 -0.1962  0.2469  0.1667
 3233TIP3    H133894   6.053   1.947  19.319 -0.3832  0.3431 -0.0044
 3233TIP3    H233895   5.928   1.862  19.318  0.0876 -0.4287  2.3230
 3234TIP3   OH233896   5.877   1.030  18.242 -0.2642  0.1269 -0.1508
 3234TIP3    H133897   5.928   0.980  18.306 -1.0556  1.5420  1.6923
 3234TIP3    H233898   5.794   1.049  18.287 -0.0127  3.0140 -0.6777
 3235TIP3   OH233899   1.130   0.872  20.064  0.3284  0.4180  0.0617
 3235TIP3    H133900   1.071   0.903  19.996 -1.5307  0.2500  1.5231
 3235TIP3    H233901   1.083   0.885  20.146  1.8837 -0.7363  1.2276
 3236TIP3   OH233902   1.896   6.132  18.815  0.3801  0.3827  0.5461
 3236TIP3    H133903   1.903   6.205  18.877 -0.7318  0.8496  0.1460
 3236TIP3    H233904   1.885   6.055  18.871 -1.3661  0.8888  0.9643
 3237TIP3   OH233905   3.388   0.254  19.868  0.0684  0.2445  0.1423
 3237TIP3    H133906   3.430   0.234  19.951  1.0286 -0.6200 -0.5152
 3237TIP3    H233907   3.297   0.225  19.878  0.9412 -2.9717 -0.1361
 3238TIP3   OH233908   3.797   1.332  20.150  0.1953 -0.4784  0.0355
 3238TIP3    H133909   3.719   1.279  20.170 -0.0740  0.3846  1.4197
 3238TIP3    H233910   3.858   1.271  20.108 -1.5608 -0.9714 -2.0041
 3239TIP3   OH233911   5.572   0.146  17.116  0.2567 -0.2376  0.6466
 3239TIP3    H133912   5.579   0.085  17.043 -1.9070  1.9486 -1.5569
 3239TIP3    H233913   5.483   0.134  17.149  0.0409  1.2032  0.6321
 3240TIP3   OH233914   0.681   0.247  20.342  0.2248 -0.1795  0.4330
 3240TIP3    H133915   0.589   0.265  20.363  0.2316 -0.2947  0.5591
 3240TIP3    H233916   0.694   0.155  20.363 -0.2920 -0.8657 -1.9176
 3241TIP3   OH233917   6.564   1.807  17.321  0.5536  0.0711  0.1934
 3241TIP3    H133918   6.576   1.817  17.415  0.4923 -1.0786  0.3358
 3241TIP3    H233919   6.641   1.759  17.292 -0.4463 -1.4829  0.0219
 3242TIP3   OH233920   5.226   0.842  18.721  0.4950 -0.8527  0.3054
 3242TIP3    H133921   5.318   0.862  18.738  0.5888 -0.9716 -0.0534
 3242TIP3    H233922   5.190   0.818  18.806  1.0639 -1.8556  0.2797
 3243TIP3   OH233923   5.989   3.128  17.849 -0.0004  0.2423  0.0237
 3243TIP3    H133924   6.055   3.084  17.903 -0.0327 -0.0076 -0.1409
 3243TIP3    H233925   5.905   3.094  17.881 -0.0061 -0.1570 -0.4021
 3244TIP3   OH233926   4.970   0.119  17.461 -0.6660 -0.4817  0.5091
 3244TIP3    H133927   4.967   0.211  17.436  0.7481 -0.5911 -0.1667
 3244TIP3    H233928   5.015   0.076  17.389 -2.7992 -2.0199 -0.0080
 3245TIP3   OH233929   2.540   5.207  19.625 -0.7379  0.6668  0.0841
 3245TIP3    H133930   2.633   5.228  19.614 -0.4100 -0.2857  0.8469
 3245TIP3    H233931   2.539   5.112  19.635 -1.8069  0.6695  0.0690
 3246TIP3   OH233932   6.331   3.194  18.571 -0.5564  0.9283  0.1282
 3246TIP3    H133933   6.369   3.221  18.488 -2.4641  0.2967 -1.0252
 3246TIP3    H233934   6.406   3.167  18.624  0.5970 -1.5599 -2.4775
 3247TIP3   OH233935   4.516   1.695  18.702  0.0662  0.4193  0.1944
 3247TIP3    H133936   4.578   1.762  18.670  1.3479 -0.4331  0.7977
 3247TIP3    H233937   4.466   1.670  18.624  1.7140 -0.1297 -0.7374
 3248TIP3   OH233938   5.668   1.760  20.330 -0.1229 -0.3443 -0.1714
 3248TIP3    H133939   5.594   1.709  20.360 -0.0043  0.4160  1.5263
 3248TIP3    H233940   5.664   1.841  20.381  1.3099  0.1256 -0.7444
 3249TIP3   OH233941   5.804   1.030  17.734  0.2418 -0.0574  0.1481
 3249TIP3    H133942   5.898   1.031  17.718  0.2289 -2.2594 -0.4911
 3249TIP3    H233943   5.765   1.023  17.647 -0.4257 -0.6933  0.4865
 3250TIP3   OH233944   2.662   2.783  17.298  0.2078  0.5573 -0.6415
 3250TIP3    H133945   2.587   2.795  17.239  1.4738 -0.1295 -2.4958
 3250TIP3    H233946   2.737   2.774  17.239  1.4102 -1.3510  1.0535
 3251TIP3   OH233947   3.074   1.154  17.053  0.0354 -0.3655  0.1213
 3251TIP3    H133948   3.022   1.181  16.977  0.4314 -0.6967 -0.2703
 3251TIP3    H233949   3.152   1.210  17.049  1.4805 -2.3349 -1.4210
 3252TIP3   OH233950   2.654   3.274  17.571 -0.4432 -0.4361 -0.0775
 3252TIP3    H133951   2.653   3.362  17.534 -2.1702  0.4456  1.9063
 3252TIP3    H233952   2.745   3.260  17.596  0.1368  0.1704 -1.7178
 3253TIP3   OH233953   3.802   2.536  20.357 -0.2037 -0.1793 -0.0481
 3253TIP3    H133954   3.768   2.622  20.382  1.6427  1.0076 -1.3409
 3253TIP3    H233955   3.873   2.556  20.296  0.0652 -2.6582 -0.6280
 3254TIP3   OH233956   4.333   2.871  18.355  0.3532  0.4715 -0.0803
 3254TIP3    H133957   4.361   2.952  18.397 -0.5782  0.8207 -0.1119
 3254TIP3    H233958   4.382   2.802  18.400 -0.2147  0.8835  1.2115
 3255TIP3   OH233959   2.527   5.162  18.083  0.3899  0.3124  0.1587
 3255TIP3    H133960   2.496   5.139  18.170  1.1997  0.7958  0.5936
 3255TIP3    H233961   2.449   5.161  18.028 -0.3795  1.3706  1.1834
 3256TIP3   OH233962   2.958   0.019  19.463 -0.0366  0.3487 -0.1319
 3256TIP3    H133963   2.874  -0.010  19.497 -0.3510  0.7946 -0.5232
 3256TIP3    H233964   2.937   0.080  19.393  0.6120  0.5541 -0.1622
 3257TIP3   OH233965   2.528   0.736  18.225 -0.2913 -0.6531 -0.6075
 3257TIP3    H133966   2.447   0.694  18.195 -1.0388  0.6660 -0.5259
 3257TIP3    H233967   2.537   0.814  18.170  0.0440  0.0857  0.4586
 3258TIP3   OH233968   1.742   3.585  20.541  0.0182 -0.2585  0.2063
 3258TIP3    H133969   1.828   3.565  20.506 -0.8310 -1.5028 -1.3273
 3258TIP3    H233970   1.729   3.522  20.611 -0.7853 -2.1843 -1.5565
 3259TIP3   OH233971   0.536   0.450  19.627  0.0166 -0.6633 -0.1351
 3259TIP3    H133972   0.528   0.545  19.630 -0.5675 -0.5751 -2.4317
 3259TIP3    H233973   0.619   0.432  19.671 -0.5399  0.7557  1.5789
 3260TIP3   OH233974   4.697   3.242  18.875 -0.1827  0.0813  0.3217
 3260TIP3    H133975   4.792   3.245  18.861 -0.0917 -1.5941  0.3875
 3260TIP3    H233976   4.685   3.256  18.969  0.1185 -1.2112  0.5595
 3261TIP3   OH233977   2.905   6.489  18.973 -0.4239  0.4885 -0.2380
 3261TIP3    H133978   2.860   6.567  18.942 -1.9663 -0.5337 -0.6735
 3261TIP3    H233979   2.840   6.443  19.025 -0.1700 -1.4517 -1.5453
 3262TIP3   OH233980   3.427   3.312  20.348 -0.0375 -0.5983 -0.7865
 3262TIP3    H133981   3.444   3.393  20.397  2.1592 -0.7049 -1.2600
 3262TIP3    H233982   3.333   3.300  20.354 -0.4645  2.1150 -0.8666
 3263TIP3   OH233983   5.379   3.924  20.303  0.1069 -0.1654 -0.4373
 3263TIP3    H133984   5.438   3.873  20.248 -1.6835 -2.1094 -0.7200
 3263TIP3    H233985   5.315   3.860  20.335 -1.3199  1.6453  0.5718
 3264TIP3   OH233986   2.387   6.118  17.375 -0.1804  0.4698  0.2351
 3264TIP3    H133987   2.326   6.046  17.359 -0.4987  0.9260 -0.6358
 3264TIP3    H233988   2.421   6.140  17.289  0.4365  0.9173  0.5847
 3265TIP3   OH233989   4.594   5.110  17.014  0.0179  0.4945  0.0303
 3265TIP3    H133990   4.655   5.174  16.978  0.3745  0.0336 -0.2092
 3265TIP3    H233991   4.510   5.131  16.973  0.1279  0.8161 -0.0322
 3266TIP3   OH233992   3.833   0.911  19.148  0.0363  0.2906  0.2075
 3266TIP3    H133993   3.902   0.858  19.106  1.1317  0.6323  1.5074
 3266TIP3    H233994   3.752   0.877  19.112  0.8669 -0.3085 -1.1868
 3267TIP3   OH233995   3.438   6.271  19.010 -0.1018 -0.6408  0.1453
 3267TIP3    H133996   3.482   6.285  19.094  0.2192  3.7818 -0.4971
 3267TIP3    H233997   3.353   6.315  19.021 -0.3359 -0.5878 -1.6178
 3268TIP3   OH233998   0.222   3.041  18.832 -0.1955 -0.3149  0.0948
 3268TIP3    H133999   0.257   2.954  18.815  2.4166  1.1893 -3.5860
 3268TIP3    H234000   0.275   3.076  18.903 -0.0635 -1.0582  0.3723
 3269TIP3   OH234001   3.235   0.304  18.090 -0.1434 -0.6475  0.4084
 3269TIP3    H134002   3.162   0.316  18.150 -0.3024  2.0021 -0.1818
 3269TIP3    H234003   3.200   0.332  18.005  0.9972 -1.2777 -0.2924
 3270TIP3   OH234004   4.845   1.293  17.439  0.2020 -0.2120 -0.1339
 3270TIP3    H134005   4.909   1.299  17.509 -0.1176  0.1061  0.1345
 3270TIP3    H234006   4.769   1.342  17.471 -0.0894 -0.3893 -0.5409
 3271TIP3   OH234007   4.661   1.852  18.496  0.2474  0.8962 -0.0679
 3271TIP3    H134008   4.742   1.868  18.448  1.2147 -0.6683  0.9324
 3271TIP3    H234009   4.669   1.905  18.575  0.3873  0.5937  0.1216
 3272TIP3   OH234010   4.322   2.726  17.751 -0.2943  0.4866 -0.0322
 3272TIP3    H134011   4.339   2.775  17.832  1.9769 -0.6785  0.2698
 3272TIP3    H234012   4.355   2.638  17.769 -0.8534 -0.1405 -1.8469
 3273TIP3   OH234013   0.956   5.727  17.210 -0.1800 -0.4326 -0.2180
 3273TIP3    H134014   0.921   5.788  17.145 -2.6323 -0.6769  0.7881
 3273TIP3    H234015   0.993   5.656  17.158  2.1228  1.4700 -1.4034
 3274TIP3   OH234016   6.430   3.279  16.866 -0.3273 -0.4088  1.0151
 3274TIP3    H134017   6.339   3.310  16.870 -0.2594  0.0806 -0.5610
 3274TIP3    H234018   6.422   3.185  16.848 -0.5620 -0.0039 -1.2387
 3275TIP3   OH234019   2.485   5.681  17.435  0.3450 -0.4769 -0.4308
 3275TIP3    H134020   2.523   5.593  17.439  1.5779  0.0708  1.0695
 3275TIP3    H234021   2.488   5.712  17.526  1.7378  1.8373 -1.1870
 3276TIP3   OH234022   1.483   2.117  17.545  0.2448  0.3116 -0.3087
 3276TIP3    H134023   1.510   2.186  17.605  2.7474 -0.3660 -0.5389
 3276TIP3    H234024   1.565   2.075  17.518 -0.8426 -0.0943 -3.3866
 3277TIP3   OH234025   4.800   5.167  17.534 -0.6542  0.8083  0.0460
 3277TIP3    H134026   4.875   5.218  17.565 -1.4362  2.0840 -0.0358
 3277TIP3    H234027   4.836   5.104  17.473  0.8461 -1.2322  2.8417
 3278TIP3   OH234028   3.364   0.725  18.519 -0.0431  0.3944 -0.1726
 3278TIP3    H134029   3.356   0.804  18.464  0.6857  0.7986  0.2739
 3278TIP3    H234030   3.403   0.757  18.600 -1.7851 -0.0791  0.8782
 3279TIP3   OH234031   1.967   2.965  18.825 -0.0008 -0.9838  0.2673
 3279TIP3    H134032   1.979   3.002  18.912 -0.7032 -1.4109  0.5484
 3279TIP3    H234033   2.037   2.900  18.817 -1.6690 -3.0670  1.6890
 3280TIP3   OH234034   0.553   1.282  19.954  0.0133  0.1152  0.4135
 3280TIP3    H134035   0.586   1.372  19.955  1.3196 -0.3481  0.8014
 3280TIP3    H234036   0.533   1.265  19.862 -3.0705  1.7543  0.6622
 3281TIP3   OH234037   6.335   2.782  18.777  0.1729  0.2383 -0.4845
 3281TIP3    H134038   6.340   2.816  18.866 -2.2271 -1.5381  0.4093
 3281TIP3    H234039   6.348   2.688  18.786  0.1823  0.0603 -2.0596
 3282TIP3   OH234040   1.740   3.529  18.778 -0.5170 -0.0997  0.2980
 3282TIP3    H134041   1.684   3.533  18.855 -0.0527 -2.3198  0.8050
 3282TIP3    H234042   1.768   3.438  18.773  1.7104  0.5791 -0.9013
 3283TIP3   OH234043   0.889   3.002  19.738 -0.0048  0.6438  0.6389
 3283TIP3    H134044   0.832   3.050  19.676 -0.0412 -1.4598 -1.0770
 3283TIP3    H234045   0.828   2.952  19.792  0.0667 -1.7064 -1.2797
 3284TIP3   OH234046   0.312   2.200  17.513 -0.4314 -0.2043 -0.5328
 3284TIP3    H134047   0.235   2.147  17.531  0.5058 -1.4923 -0.1658
 3284TIP3    H234048   0.385   2.138  17.514  1.0361  1.3570  2.1051
 3285TIP3   OH234049   1.006   6.306  18.535  0.4446 -0.2376  0.6986
 3285TIP3    H134050   0.913   6.292  18.518  0.2511  2.1498 -0.6221
 3285TIP3    H234051   1.009   6.362  18.612  0.6335  1.5232 -0.5380
 3286TIP3   OH234052   5.246   4.948  20.036  0.0062  0.6069 -0.3679
 3286TIP3    H134053   5.333   4.981  20.060 -0.5699  1.2125  0.9663
 3286TIP3    H234054   5.265   4.870  19.983  1.3567  1.0132 -0.5377
 3287TIP3   OH234055   4.627   3.550  18.288 -0.5624 -0.3862  0.3382
 3287TIP3    H134056   4.648   3.600  18.367  0.4903 -0.4076  0.0783
 3287TIP3    H234057   4.538   3.578  18.265  0.3008  2.0291 -0.2927
 3288TIP3   OH234058   2.249   5.568  19.118  0.1148  0.2279  0.1398
 3288TIP3    H134059   2.195   5.492  19.136  0.6786  0.0519  1.2203
 3288TIP3    H234060   2.273   5.560  19.026  0.3521 -1.0344  0.2943
 3289TIP3   OH234061   6.378   5.250  19.724  0.3266  0.4408 -0.9767
 3289TIP3    H134062   6.302   5.192  19.719  1.2794 -0.8287 -1.3963
 3289TIP3    H234063   6.362   5.318  19.658 -0.8738  0.7488 -0.3857
 3290TIP3   OH234064   6.088   4.592  17.703 -0.0809 -0.3121  0.5573
 3290TIP3    H134065   6.038   4.521  17.663 -0.2708 -0.2329  0.6514
 3290TIP3    H234066   6.177   4.557  17.712 -0.1549 -0.5098  0.5329
 3291TIP3   OH234067   4.843   1.633  18.684  0.0134  0.0657  0.0775
 3291TIP3    H134068   4.871   1.629  18.776  0.8418 -1.2178 -0.2022
 3291TIP3    H234069   4.871   1.549  18.647 -0.6939  0.3864 -1.2502
 3292TIP3   OH234070   6.189   4.160  18.449  0.0276 -0.0343  0.7358
 3292TIP3    H134071   6.250   4.196  18.513  1.4577 -1.5421  0.3080
 3292TIP3    H234072   6.175   4.070  18.477 -0.3687 -0.3274 -0.3429
 3293TIP3   OH234073   3.330   6.593  17.627 -0.6389  0.4806  0.2395
 3293TIP3    H134074   3.305   6.678  17.592 -1.7935 -0.8295 -2.4668
 3293TIP3    H234075   3.419   6.579  17.596 -0.8337  0.2768 -0.2360
 3294TIP3   OH234076   3.683   6.465  17.260  0.2443  0.3506  0.3403
 3294TIP3    H134077   3.608   6.509  17.220  0.7113  1.2542  0.4353
 3294TIP3    H234078   3.678   6.375  17.228 -2.2517 -0.2680  2.2151
 3295TIP3   OH234079   5.547   2.700  19.254  0.0819 -0.7611 -0.1740
 3295TIP3    H134080   5.548   2.792  19.227  0.9261 -1.2138 -1.8731
 3295TIP3    H234081   5.638   2.682  19.280 -0.3362 -0.8214  1.3325
 3296TIP3   OH234082   1.475   2.085  20.193 -0.1138 -0.4035  0.0050
 3296TIP3    H134083   1.445   2.175  20.203  0.3506 -0.1656 -0.6437
 3296TIP3    H234084   1.513   2.063  20.278  0.2609  0.2078  0.0055
 3297TIP3   OH234085   2.062   1.924  19.540  0.3904  0.5466  0.5849
 3297TIP3    H134086   2.026   2.000  19.586 -0.6205  0.0138  0.7076
 3297TIP3    H234087   2.053   1.946  19.447 -2.5585 -0.5158  0.5152
 3298TIP3   OH234088   0.468   1.486  17.905 -0.0342  0.1710 -0.1471
 3298TIP3    H134089   0.506   1.516  17.823 -0.2130 -0.4301 -0.4611
 3298TIP3    H234090   0.542   1.456  17.957 -0.0582 -1.0667 -0.7880
 3299TIP3   OH234091   6.022   6.079  19.099 -0.0292  0.3694 -0.4361
 3299TIP3    H134092   6.068   6.000  19.072 -1.1435 -0.6631  0.5485
 3299TIP3    H234093   5.938   6.047  19.132 -0.9200  2.0650 -0.9705
 3300TIP3   OH234094   0.117   4.593  17.072 -0.3050 -0.2475 -0.2594
 3300TIP3    H134095   0.111   4.501  17.045 -1.8104  0.1575 -1.4267
 3300TIP3    H234096   0.027   4.625  17.066 -0.4331  0.4901  3.2353
 3301TIP3   OH234097   6.459   1.387  16.735  0.0497  0.3449  0.2011
 3301TIP3    H134098   6.465   1.301  16.693 -2.1390  0.1977  0.0417
 3301TIP3    H234099   6.411   1.370  16.816  0.3518  1.3005  0.5873
 3302TIP3   OH234100   0.675   0.551  17.443  0.8240 -0.3153 -0.0893
 3302TIP3    H134101   0.656   0.509  17.527 -0.5026 -1.8128 -1.0757
 3302TIP3    H234102   0.616   0.508  17.381  2.4244  0.0549 -1.9798
 3303TIP3   OH234103   0.688   0.940  20.154  0.0989  0.0066  0.4040
 3303TIP3    H134104   0.687   0.844  20.156 -2.3690 -0.0712 -0.7155
 3303TIP3    H234105   0.778   0.964  20.176  0.1870 -2.4658  3.5618
 3304TIP3   OH234106   6.387   2.258  17.638  0.0330  0.7460 -0.1940
 3304TIP3    H134107   6.359   2.239  17.548  0.1964  0.6314 -0.2221
 3304TIP3    H234108   6.445   2.333  17.628 -1.1209  1.6931 -0.0146
 3305TIP3   OH234109   2.740   4.986  18.084 -0.3288  0.0071 -0.1648
 3305TIP3    H134110   2.810   5.006  18.146 -1.0456 -0.4081  0.8112
 3305TIP3    H234111   2.672   5.052  18.102 -1.0491 -0.8455  0.3666
 3306TIP3   OH234112   5.880   1.322  17.097 -0.1623  0.4342  0.9009
 3306TIP3    H134113   5.952   1.384  17.097  0.8911 -0.6906 -0.7969
 3306TIP3    H234114   5.881   1.284  17.009 -1.3260 -1.3159  1.5719
 3307TIP3   OH234115   5.675   5.087  17.766 -0.4702 -0.0216 -0.5141
 3307TIP3    H134116   5.632   5.167  17.797 -1.6486 -0.8438  0.0497
 3307TIP3    H234117   5.743   5.070  17.831  0.0858  0.7396 -0.8731
 3308TIP3   OH234118   5.881   5.997  17.423 -0.8664 -0.8634  0.5095
 3308TIP3    H134119   5.912   6.082  17.392  2.6690 -2.4168 -0.6400
 3308TIP3    H234120   5.841   5.957  17.346 -1.9729 -0.5669  0.9001
 3309TIP3   OH234121   0.420   0.225  19.983  0.6760 -0.1089 -0.3255
 3309TIP3    H134122   0.403   0.148  20.036 -1.1643  1.7476  2.0050
 3309TIP3    H234123   0.336   0.245  19.942  1.4574 -0.0350 -1.9871
 3310TIP3   OH234124   6.281   3.685  18.713 -0.1729  0.5565 -0.6184
 3310TIP3    H134125   6.287   3.625  18.786  0.8096  1.2784 -0.0830
 3310TIP3    H234126   6.190   3.715  18.714 -0.1522  0.6171  0.3586
 3311TIP3   OH234127   4.549   3.001  18.778 -0.2321 -0.0384 -0.5454
 3311TIP3    H134128   4.516   3.035  18.695  1.0949 -0.2408 -1.1656
 3311TIP3    H234129   4.602   3.072  18.814  0.5147 -0.5452 -0.6465
 3312TIP3   OH234130   6.608   4.175  19.431 -0.0523 -0.3240  0.1346
 3312TIP3    H134131   6.676   4.112  19.409  1.0258  1.2062 -1.1274
 3312TIP3    H234132   6.533   4.150  19.377  0.6194 -0.1157 -0.9270
 3313TIP3   OH234133   5.114   5.273  18.872 -0.5790 -0.1498  0.0536
 3313TIP3    H134134   5.152   5.330  18.805  0.4063 -0.8322  0.0113
 3313TIP3    H234135   5.031   5.314  18.894 -1.3350 -0.3401 -2.1850
 3314TIP3   OH234136   0.350   3.275  18.205  0.2210 -0.4533  0.5401
 3314TIP3    H134137   0.329   3.326  18.284 -1.2788  1.3608 -0.9171
 3314TIP3    H234138   0.421   3.324  18.163 -1.3015  0.5802 -0.9310
 3315TIP3   OH234139   2.900   2.704  19.967 -0.3916 -0.0690 -0.0867
 3315TIP3    H134140   2.989   2.737  19.963  0.7719 -2.9911 -0.6361
 3315TIP3    H234141   2.903   2.633  20.032 -2.2880 -0.3137 -0.2059
 3316TIP3   OH234142   2.753   5.430  19.918 -0.1254  0.1720  0.2480
 3316TIP3    H134143   2.774   5.337  19.925 -1.1383 -0.2469 -1.7473
 3316TIP3    H234144   2.665   5.433  19.880  0.8054  1.9059 -2.0187
 3317TIP3   OH234145   0.626   6.541  18.433  0.4832 -0.4016  0.0555
 3317TIP3    H134146   0.537   6.567  18.408 -0.5532 -0.6264  3.0769
 3317TIP3    H234147   0.620   6.446  18.444  1.0198 -0.3702  0.6180
 3318TIP3   OH234148   1.638   5.662  20.045  0.2868 -0.2597  0.4699
 3318TIP3    H134149   1.604   5.574  20.030  0.9672 -0.5905  0.8050
 3318TIP3    H234150   1.617   5.680  20.137 -2.3207  1.0574 -0.2836
 3319TIP3   OH234151   0.191   1.512  19.023  0.1069 -0.4173  0.2158
 3319TIP3    H134152   0.263   1.560  19.064  0.5462 -1.4177  0.6300
 3319TIP3    H234153   0.233   1.443  18.972 -0.5272 -0.5092 -0.2026
 3320TIP3   OH234154   1.493   5.152  17.488  0.0056  0.3272  0.0259
 3320TIP3    H134155   1.449   5.127  17.407 -0.0458 -1.2592  0.4983
 3320TIP3    H234156   1.564   5.209  17.460 -0.3079  0.2007 -1.0831
 3321TIP3   OH234157   1.543   4.489  18.939 -0.6800  0.1880  0.1933
 3321TIP3    H134158   1.538   4.577  18.901  1.7559  0.3760  0.1413
 3321TIP3    H234159   1.605   4.498  19.012  1.7793 -1.9545 -1.4586
 3322TIP3   OH234160   0.586   5.017  19.705  0.1033  0.0926  0.5464
 3322TIP3    H134161   0.513   4.959  19.683  1.2468 -0.9159 -0.7609
 3322TIP3    H234162   0.560   5.102  19.670 -0.2579 -0.3654 -0.3341
 3323TIP3   OH234163   6.556   2.560  16.974  0.0271  0.1367  0.1787
 3323TIP3    H134164   6.577   2.487  16.917 -2.7703  1.1869 -2.4279
 3323TIP3    H234165   6.520   2.627  16.916 -1.4943  1.9440  2.9777
 3324TIP3   OH234166   2.883   2.727  17.141  0.7242 -0.0030 -0.1957
 3324TIP3    H134167   2.905   2.634  17.144 -0.4535 -0.2996 -0.0616
 3324TIP3    H234168   2.959   2.771  17.180  0.8708 -0.9970  0.7004
 3325TIP3   OH234169   2.274   3.450  20.370  0.1875  0.1460  0.3008
 3325TIP3    H134170   2.343   3.467  20.434 -0.3022  0.9879  0.6258
 3325TIP3    H234171   2.298   3.367  20.330  0.7839 -0.1332  1.2120
 3326TIP3   OH234172   4.949   3.320  18.794  0.3456 -0.0519 -0.4677
 3326TIP3    H134173   5.010   3.392  18.812 -0.3685  0.9894 -1.9654
 3326TIP3    H234174   5.000   3.241  18.810  0.9359  0.7298  1.9665
 3327TIP3   OH234175   2.564   2.600  19.773 -0.4180  0.4319 -0.4716
 3327TIP3    H134176   2.637   2.560  19.725 -0.9500 -1.3653  0.1281
 3327TIP3    H234177   2.573   2.567  19.862 -1.6599  0.5943 -0.2693
 3328TIP3   OH234178   5.638   1.446  18.442 -0.1095 -0.0566  0.2174
 3328TIP3    H134179   5.724   1.431  18.403  0.5205  0.2117  1.4450
 3328TIP3    H234180   5.646   1.530  18.488 -1.5048  0.7339 -0.9080
 3329TIP3   OH234181   6.151   5.667  16.877  0.0159 -0.5596  0.3973
 3329TIP3    H134182   6.207   5.672  16.799 -1.2972  4.0945 -0.6058
 3329TIP3    H234183   6.061   5.672  16.842 -0.5926  2.6911  2.0300
 3330TIP3   OH234184   0.007   2.910  18.707  0.2800 -0.2198 -0.8908
 3330TIP3    H134185  -0.053   2.984  18.703 -0.5404 -0.7101  1.0850
 3330TIP3    H234186   0.082   2.942  18.758  1.0843 -0.0482 -2.1265
 3331TIP3   OH234187   2.455   1.152  18.341  0.1097  0.0005  0.0703
 3331TIP3    H134188   2.527   1.192  18.390 -0.0537 -0.8481  1.0212
 3331TIP3    H234189   2.376   1.180  18.386  0.0455 -3.2351  2.3054
 3332TIP3   OH234190   6.523   2.462  18.658  0.1825  0.4775 -0.0478
 3332TIP3    H134191   6.558   2.546  18.628  0.3449 -0.5191 -2.9411
 3332TIP3    H234192   6.428   2.473  18.654  0.1912  0.8500  0.6438
 3333TIP3   OH234193   6.189   1.028  20.108 -0.4432  0.4748  0.2662
 3333TIP3    H134194   6.154   1.075  20.184 -0.1280 -0.0351  0.7294
 3333TIP3    H234195   6.173   1.088  20.034 -0.1167  1.2827  0.8305
 3334TIP3   OH234196   5.262   2.472  19.735  0.5054 -0.2341 -0.3414
 3334TIP3    H134197   5.310   2.409  19.682  1.2753 -0.8537  1.0389
 3334TIP3    H234198   5.314   2.482  19.815 -1.6625 -1.0058  1.2876
 3335TIP3   OH234199   1.205   5.314  17.422 -0.4360 -0.4623  0.5585
 3335TIP3    H134200   1.247   5.378  17.364  1.1506 -0.0649  2.0596
 3335TIP3    H234201   1.210   5.231  17.376 -0.2866  0.0505 -0.3595
 3336TIP3   OH234202   3.256   0.728  16.664 -0.5307  0.3062  0.3127
 3336TIP3    H134203   3.201   0.743  16.587  0.8483  0.5915 -0.6521
 3336TIP3    H234204   3.203   0.759  16.738 -1.4278  1.1109 -0.6319
 3337TIP3   OH234205   3.134   3.765  18.690 -0.5152  0.3192  0.1633
 3337TIP3    H134206   3.152   3.776  18.784  0.7280 -0.3667  0.0354
 3337TIP3    H234207   3.147   3.671  18.675 -0.0390  0.5375 -0.8213
 3338TIP3   OH234208   0.134   0.270  18.511  0.1306  0.7349 -0.1316
 3338TIP3    H134209   0.049   0.291  18.548 -0.1691 -0.1432 -0.2911
 3338TIP3    H234210   0.139   0.174  18.516  1.3796  0.8103  0.4746
 3339TIP3   OH234211   3.314   4.940  20.117 -0.1525  0.5412 -0.0993
 3339TIP3    H134212   3.401   4.927  20.078  0.4169  0.4049  1.1552
 3339TIP3    H234213   3.328   5.009  20.182 -0.7426 -0.2024  0.8400
 3340TIP3   OH234214   6.582   3.206  17.858 -0.0835  0.2858  0.0205
 3340TIP3    H134215   6.603   3.285  17.907 -0.6116 -0.0341  0.7747
 3340TIP3    H234216   6.488   3.194  17.870  0.2540 -1.4338  1.4133
 3341TIP3   OH234217   2.357   5.635  17.188  0.3937 -0.2872  0.8583
 3341TIP3    H134218   2.409   5.687  17.249 -1.2353  2.1781  0.3115
 3341TIP3    H234219   2.368   5.678  17.104 -1.9277 -0.0345  0.5956
 3342TIP3   OH234220   3.589   5.000  18.771  0.2200 -0.1245 -0.0052
 3342TIP3    H134221   3.594   5.095  18.766 -2.2319  0.1516  1.2069
 3342TIP3    H234222   3.629   4.977  18.855 -0.1692 -0.0564  0.1979
 3343TIP3   OH234223   5.327   2.915  16.646 -0.3475  0.2052 -0.0490
 3343TIP3    H134224   5.242   2.958  16.650 -0.6915 -0.5394  1.4068
 3343TIP3    H234225   5.322   2.845  16.711  1.7659  0.8824  0.9642
 3344TIP3   OH234226   2.335   1.715  19.797 -0.1529  0.6982 -0.1750
 3344TIP3    H134227   2.304   1.795  19.755  1.3167  3.3067  3.2682
 3344TIP3    H234228   2.398   1.678  19.735 -1.7438  1.4695 -2.3567
 3345TIP3   OH234229   6.227   4.577  19.504 -0.1855 -0.5029 -0.4174
 3345TIP3    H134230   6.277   4.658  19.505  0.1501 -0.7115 -0.3361
 3345TIP3    H234231   6.162   4.590  19.435 -0.3488 -0.0367 -0.1850
 3346TIP3   OH234232   4.431   3.093  18.474 -0.4827  0.0487  0.0907
 3346TIP3    H134233   4.508   3.148  18.482 -0.0179 -0.4964 -0.5623
 3346TIP3    H234234   4.364   3.150  18.437  0.7993 -0.4589 -3.3992
 3347TIP3   OH234235   0.281   4.088  19.199 -0.0568 -0.2838  0.0329
 3347TIP3    H134236   0.312   4.042  19.121  0.5837 -0.3761  0.3375
 3347TIP3    H234237   0.323   4.173  19.194 -1.2192  0.2889 -0.5150
 3348TIP3   OH234238   3.406   6.348  17.750  0.1364  0.4556  0.0107
 3348TIP3    H134239   3.437   6.414  17.813 -0.2897  0.3536  0.3308
 3348TIP3    H234240   3.318   6.378  17.726  0.1843  0.3353 -0.3102
 3349TIP3   OH234241   5.314   1.833  20.412 -0.1581 -0.0937  0.5907
 3349TIP3    H134242   5.347   1.744  20.400 -0.2237  0.0151 -0.5303
 3349TIP3    H234243   5.230   1.834  20.368  0.2341  0.7432 -0.1821
 3350TIP3   OH234244   1.606   3.399  17.266  0.2232  0.2707  0.2579
 3350TIP3    H134245   1.672   3.428  17.204  1.2766 -0.5763  0.9503
 3350TIP3    H234246   1.563   3.480  17.295 -0.6559  0.6407 -1.9202
 3351TIP3   OH234247   4.409   4.158  18.788  0.1858 -0.6324  0.1874
 3351TIP3    H134248   4.329   4.105  18.790 -1.3740  1.5610  2.1422
 3351TIP3    H234249   4.478   4.096  18.764 -1.9024 -2.8832 -0.4747
 3352TIP3   OH234250   4.171   3.485  19.403  0.4006 -0.4350 -0.5752
 3352TIP3    H134251   4.254   3.534  19.400  0.1110  0.1352  0.4489
 3352TIP3    H234252   4.198   3.394  19.414  0.9286  0.0250  3.2156
 3353TIP3   OH234253   4.635   5.600  17.527  0.5015 -0.4315 -0.7583
 3353TIP3    H134254   4.567   5.549  17.570  0.5937 -0.4311 -0.6103
 3353TIP3    H234255   4.703   5.611  17.594 -0.2926  1.4067 -0.1976
 3354TIP3   OH234256   6.635   2.691  19.272 -0.1193 -0.5743 -0.1166
 3354TIP3    H134257   6.679   2.630  19.332  0.6399 -0.4479 -0.5248
 3354TIP3    H234258   6.701   2.709  19.204 -0.3157  0.7176  0.0029
 3355TIP3   OH234259   4.598   1.203  19.026 -0.3053 -0.0525 -0.3828
 3355TIP3    H134260   4.564   1.172  18.942  0.1148 -3.0716  0.4459
 3355TIP3    H234261   4.691   1.219  19.010 -0.6460  1.5181 -0.9676
 3356TIP3   OH234262   2.523   2.141  16.602  0.2353  0.1126 -0.3729
 3356TIP3    H134263   2.580   2.196  16.548  0.4793 -1.4936 -1.8464
 3356TIP3    H234264   2.437   2.181  16.595  0.3483  0.1746 -1.6733
 3357TIP3   OH234265   4.747   5.545  17.802 -0.0157 -0.5133  0.3077
 3357TIP3    H134266   4.679   5.479  17.815 -0.7629 -0.3522 -2.1911
 3357TIP3    H234267   4.812   5.502  17.746  0.3074  0.3353  0.0129
 3358TIP3   OH234268   2.709   4.126  18.193  0.8213  0.5590 -0.0691
 3358TIP3    H134269   2.704   4.065  18.266  0.5769  2.8562  1.9844
 3358TIP3    H234270   2.634   4.104  18.137  1.6122 -1.9137 -0.2540
 3359TIP3   OH234271   4.781   6.636  19.638 -0.2440  0.3847 -0.0477
 3359TIP3    H134272   4.720   6.565  19.658 -0.1721  0.1291 -0.7015
 3359TIP3    H234273   4.774   6.647  19.543  1.2089 -0.1091 -0.2496
 3360TIP3   OH234274   2.522   5.358  19.157  0.2461  0.6841 -0.2756
 3360TIP3    H134275   2.606   5.403  19.171 -0.5916  2.1403  0.3339
 3360TIP3    H234276   2.499   5.324  19.243  1.1365 -1.5453 -0.8284
 3361TIP3   OH234277   2.170   3.301  20.057 -0.6113  0.1117  0.0519
 3361TIP3    H134278   2.225   3.264  20.126 -0.0009  0.1816 -0.3915
 3361TIP3    H234279   2.191   3.249  19.980  0.4056  1.4910 -0.6344
 3362TIP3   OH234280   6.606   4.699  18.507  0.5143  0.2173  0.0775
 3362TIP3    H134281   6.569   4.677  18.421  0.9739  0.3916 -0.1713
 3362TIP3    H234282   6.587   4.792  18.519  0.3915  0.1772  0.1965
 3363TIP3   OH234283   3.741   6.312  17.902 -0.4602  0.0109  0.1124
 3363TIP3    H134284   3.812   6.273  17.953 -0.1406 -0.9139 -0.9883
 3363TIP3    H234285   3.742   6.405  17.927  1.0470 -0.0084  0.2418
 3364TIP3   OH234286   2.731   5.332  17.957 -0.3194 -0.2049 -0.0945
 3364TIP3    H134287   2.794   5.274  17.914 -0.9758 -0.8789 -0.1760
 3364TIP3    H234288   2.671   5.272  18.003 -1.4260  0.3701 -0.7414
 3365TIP3   OH234289   0.157   6.168  18.392  0.2276  0.1040 -0.5287
 3365TIP3    H134290   0.082   6.200  18.342 -0.3347 -1.3142 -0.6221
 3365TIP3    H234291   0.180   6.085  18.351  2.1673  0.7131 -0.7977
 3366TIP3   OH234292   3.412   5.646  17.678 -0.1960 -0.1417  0.7403
 3366TIP3    H134293   3.371   5.697  17.748 -2.4876  1.4175 -1.5390
 3366TIP3    H234294   3.340   5.593  17.643  0.3120  0.6855 -1.7158
 3367TIP3   OH234295   5.065   2.691  18.501 -0.3946 -0.0368 -0.3470
 3367TIP3    H134296   5.105   2.610  18.531  0.7409  0.0283 -1.5847
 3367TIP3    H234297   4.983   2.697  18.550 -0.9298 -2.3545 -0.8174
 3368TIP3   OH234298   5.244   3.758  18.798  1.0796 -0.7138 -0.6836
 3368TIP3    H134299   5.238   3.814  18.875 -2.5225  0.3565 -1.5502
 3368TIP3    H234300   5.312   3.800  18.744  2.1949 -0.3076  0.9463
 3369TIP3   OH234301   0.465   3.491  19.733  0.2755  0.1238  0.0124
 3369TIP3    H134302   0.517   3.410  19.734  0.4347  0.1891 -1.5771
 3369TIP3    H234303   0.388   3.470  19.680  0.8956  1.3309 -1.4439
 3370TIP3   OH234304   5.085   4.305  17.350  0.0215 -0.0823  0.1427
 3370TIP3    H134305   5.055   4.292  17.440  1.9825 -1.8320  0.6402
 3370TIP3    H234306   5.164   4.251  17.343  2.3608  3.1909 -1.3680
 3371TIP3   OH234307   5.006   0.365  18.087  0.3075  0.0012  0.3154
 3371TIP3    H134308   4.951   0.351  18.010 -0.9199 -1.0635  1.3523
 3371TIP3    H234309   5.095   0.364  18.052 -0.2446  0.7359 -1.2512
 3372TIP3   OH234310   3.120   0.628  18.547 -0.0449 -0.0565  0.0034
 3372TIP3    H134311   3.105   0.547  18.596  1.6874 -0.7505 -0.5304
 3372TIP3    H234312   3.213   0.647  18.561 -0.4045  1.8273  0.0715
 3373TIP3   OH234313   3.299   3.585  19.994 -0.1279  0.3154 -0.6147
 3373TIP3    H134314   3.268   3.526  19.925  1.2698 -0.1473 -0.8816
 3373TIP3    H234315   3.377   3.542  20.029  0.6304  1.7471 -0.4674
 3374TIP3   OH234316   6.005   3.016  18.196 -0.3507  0.4227 -0.3311
 3374TIP3    H134317   5.927   3.037  18.144 -0.2046 -0.0835 -0.7627
 3374TIP3    H234318   5.986   3.051  18.283 -1.6346 -0.8290 -0.0630
 3375TIP3   OH234319   6.284   0.930  19.577  0.0385  0.2180  0.1580
 3375TIP3    H134320   6.252   1.012  19.541 -1.4181 -0.7786 -0.9135
 3375TIP3    H234321   6.227   0.913  19.653 -0.1155 -0.1361 -0.0331
 3376TIP3   OH234322   4.902   2.532  18.248 -0.4451  0.2064 -0.2268
 3376TIP3    H134323   4.852   2.523  18.330  0.7046 -0.3780  0.4460
 3376TIP3    H234324   4.949   2.614  18.258  1.2686 -0.8126  0.6506
 3377TIP3   OH234325   4.685   1.853  16.981 -0.4878  0.2678 -0.5440
 3377TIP3    H134326   4.707   1.859  17.074  2.7324  0.3497 -1.2127
 3377TIP3    H234327   4.600   1.809  16.979 -0.8874  0.7167  2.4323
 3378TIP3   OH234328   0.157   4.779  17.761  0.4970  0.1949 -0.6709
 3378TIP3    H134329   0.099   4.723  17.812  0.3489  0.3720 -0.6431
 3378TIP3    H234330   0.224   4.720  17.726  1.4157  0.2843  0.8618
 3379TIP3   OH234331   6.002   0.346  19.678  0.5605  0.0038  0.3200
 3379TIP3    H134332   5.923   0.349  19.624  0.9553  2.0675 -0.2434
 3379TIP3    H234333   5.973   0.377  19.764  0.7123  0.5572  0.1729
 3380TIP3   OH234334   3.135   5.784  18.189 -0.4203  0.2891  0.8527
 3380TIP3    H134335   3.126   5.757  18.280  1.5155 -0.4073  0.8995
 3380TIP3    H234336   3.060   5.746  18.145 -0.9088 -0.1327  2.0041
 3381TIP3   OH234337   0.287   4.643  18.367 -0.0577  0.1857 -0.2761
 3381TIP3    H134338   0.341   4.721  18.378  0.5835 -0.4732  1.8483
 3381TIP3    H234339   0.297   4.596  18.450 -2.7582 -0.7004 -0.3634
 3382TIP3   OH234340   1.583   4.755  18.525  0.3016 -0.2733  0.0749
 3382TIP3    H134341   1.531   4.732  18.448 -0.2115 -0.7423  0.5493
 3382TIP3    H234342   1.545   4.703  18.596  0.6877  0.2429  0.6714
 3383TIP3   OH234343   4.862   5.398  19.087 -0.0124 -0.1573  0.2819
 3383TIP3    H134344   4.795   5.455  19.048 -1.8504  0.2166  3.6139
 3383TIP3    H234345   4.822   5.312  19.088 -0.3034 -0.0265  1.8663
 3384TIP3   OH234346   0.406   6.441  17.865  0.1396  0.1199  0.0811
 3384TIP3    H134347   0.380   6.357  17.828 -0.3809  0.8162 -1.2004
 3384TIP3    H234348   0.502   6.435  17.872  0.0084 -1.0833  1.3660
 3385TIP3   OH234349   3.176   4.477  18.511 -0.5987 -0.4188  0.2687
 3385TIP3    H134350   3.081   4.473  18.517 -0.5676  0.0221  1.1672
 3385TIP3    H234351   3.193   4.506  18.421 -1.2540 -2.1208 -0.4498
 3386TIP3   OH234352   4.552   3.632  19.758 -0.0585  0.0698  0.1581
 3386TIP3    H134353   4.615   3.579  19.709 -0.4309 -0.3102  0.0844
 3386TIP3    H234354   4.594   3.717  19.766  0.4804 -0.1865  0.1349
 3387TIP3   OH234355   4.741   5.962  17.113 -0.5094 -0.3547  0.1125
 3387TIP3    H134356   4.714   6.029  17.050 -0.4733 -1.3930 -1.0348
 3387TIP3    H234357   4.664   5.908  17.127 -0.4920 -0.1952  0.9133
 3388TIP3   OH234358   4.312   1.562  18.532  0.1409  0.6384 -0.2874
 3388TIP3    H134359   4.258   1.542  18.609 -0.5576  0.2477 -0.8722
 3388TIP3    H234360   4.249   1.584  18.464  0.5683 -2.0576 -1.6629
 3389TIP3   OH234361   2.766   0.341  17.456  0.0672  0.4937  0.5966
 3389TIP3    H134362   2.696   0.364  17.396 -0.1899 -0.9675  0.3093
 3389TIP3    H234363   2.836   0.307  17.400 -1.1144 -3.3159  1.1339
 3390TIP3   OH234364   0.289   2.777  18.782  0.3812  0.0767  0.0578
 3390TIP3    H134365   0.337   2.733  18.852 -1.9904 -1.3537  0.8757
 3390TIP3    H234366   0.320   2.735  18.702  2.2193  0.8865  0.2879
 3391TIP3   OH234367   0.315   2.342  16.707 -0.0496 -0.3896 -0.1784
 3391TIP3    H134368   0.354   2.264  16.669 -1.1041 -0.5846 -0.8891
 3391TIP3    H234369   0.339   2.339  16.799  3.7188  0.7740 -0.9414
 3392TIP3   OH234370   4.189   2.208  18.262 -0.1929  0.4294 -0.5604
 3392TIP3    H134371   4.137   2.254  18.196  0.6988  1.9767 -0.2361
 3392TIP3    H234372   4.275   2.250  18.258  0.6324 -1.1224 -0.1050
 3393TIP3   OH234373   4.429   4.564  18.957 -0.1361 -0.7593 -0.3818
 3393TIP3    H134374   4.411   4.645  19.005  0.2659 -1.0188  0.2112
 3393TIP3    H234375   4.461   4.503  19.023  0.1625 -1.2100 -0.9334
 3394TIP3   OH234376   5.508   4.604  19.850 -0.3465 -0.5579  0.2231
 3394TIP3    H134377   5.568   4.579  19.779  0.1207  0.1926  0.3499
 3394TIP3    H234378   5.564   4.642  19.917 -1.0931  1.5332 -0.2543
 3395TIP3   OH234379   3.997   0.222  18.398  0.0212  0.1910  0.1504
 3395TIP3    H134380   3.923   0.196  18.452  0.3833  0.9014  1.0086
 3395TIP3    H234381   3.990   0.317  18.393 -1.0088  0.0768 -2.5194
 3396TIP3   OH234382   4.570   0.301  19.897  0.7157  0.3019 -0.0150
 3396TIP3    H134383   4.621   0.226  19.868  1.0374  0.1958  0.7908
 3396TIP3    H234384   4.498   0.264  19.947  0.1577  0.4801 -0.6676
 3397TIP3   OH234385   0.403   4.058  18.235  0.4594 -0.1260  0.1918
 3397TIP3    H134386   0.332   4.040  18.296 -1.7624  1.0468 -1.8676
 3397TIP3    H234387   0.446   3.973  18.222 -1.1426 -1.0649  0.8188
 3398TIP3   OH234388   2.601   1.946  16.778  0.1138 -0.3343 -0.2715
 3398TIP3    H134389   2.525   1.943  16.836 -0.4419 -0.3903 -0.9957
 3398TIP3    H234390   2.578   2.011  16.712  1.3018  0.7342  0.3299
 3399TIP3   OH234391   2.291   3.044  19.132  0.5796  0.3617 -0.6854
 3399TIP3    H134392   2.280   2.968  19.075  0.0874  1.6652 -2.4307
 3399TIP3    H234393   2.385   3.064  19.128  0.7409 -0.2177 -0.0835
 3400TIP3   OH234394   6.218   0.170  18.708  0.8022  0.2740  0.0395
 3400TIP3    H134395   6.181   0.084  18.728  1.7592 -0.1419  0.1080
 3400TIP3    H234396   6.207   0.220  18.789 -0.5862  0.5430 -0.2838
 3401TIP3   OH234397   4.576   0.537  20.038 -0.7814  0.3633 -0.3601
 3401TIP3    H134398   4.579   0.467  19.972 -0.1565 -1.4691  1.5093
 3401TIP3    H234399   4.631   0.606  20.001 -1.6835  0.0508 -2.4266
 3402TIP3   OH234400   4.144   1.279  20.034  0.4245  0.0509  0.3536
 3402TIP3    H134401   4.094   1.303  19.956 -0.2454  0.1446  0.8084
 3402TIP3    H234402   4.171   1.363  20.072 -0.7980  0.0731  1.2163
 3403TIP3   OH234403   6.305   4.951  17.580  0.2175 -0.3020 -0.1916
 3403TIP3    H134404   6.274   4.871  17.539  3.8004 -1.5722 -0.8054
 3403TIP3    H234405   6.396   4.933  17.602  0.8861  3.2623  0.6457
 3404TIP3   OH234406   1.433   5.422  17.639 -0.2262 -0.5285 -0.6471
 3404TIP3    H134407   1.360   5.479  17.615 -1.8344 -2.2760 -0.1310
 3404TIP3    H234408   1.439   5.359  17.567 -2.7536 -3.6042  1.5787
 3405TIP3   OH234409   0.557   5.710  19.902 -0.2210 -0.6582 -0.0808
 3405TIP3    H134410   0.507   5.666  19.834 -0.0945 -0.7085 -0.1414
 3405TIP3    H234411   0.647   5.677  19.891  0.0261  0.1492 -0.5890
 3406TIP3   OH234412   1.060   5.252  17.786 -0.4235  0.0901  0.3153
 3406TIP3    H134413   1.116   5.320  17.824 -1.0531 -0.2137  1.8432
 3406TIP3    H234414   1.079   5.174  17.838 -0.6416 -0.5849 -0.5997
 3407TIP3   OH234415   5.479   6.381  19.959 -0.4907 -0.0767 -0.4980
 3407TIP3    H134416   5.526   6.299  19.945 -0.8791 -0.5164  0.6279
 3407TIP3    H234417   5.533   6.447  19.917  1.2491 -0.5401  0.8881
 3408TIP3   OH234418   5.794   2.097  19.519 -0.5097 -0.5353 -0.3748
 3408TIP3    H134419   5.870   2.116  19.464 -1.5226  2.0729 -1.0062
 3408TIP3    H234420   5.751   2.024  19.475  1.1991 -1.6163 -0.3761
 3409TIP3   OH234421   0.330   2.553  16.528 -0.1141 -0.1931 -0.1633
 3409TIP3    H134422   0.334   2.466  16.567  0.9760  1.2250  3.2751
 3409TIP3    H234423   0.421   2.585  16.531 -0.5240  1.1674 -1.1680
 3410TIP3   OH234424   4.753   0.319  18.919  0.7026 -0.2547  0.1501
 3410TIP3    H134425   4.742   0.391  18.981 -0.5464 -0.2822 -0.0192
 3410TIP3    H234426   4.694   0.251  18.950  0.5386 -0.5122 -0.6960
 3411TIP3   OH234427   1.623   2.446  17.515  0.0141  0.1766  0.1515
 3411TIP3    H134428   1.585   2.387  17.450  0.2362  0.0894  0.0987
 3411TIP3    H234429   1.702   2.480  17.472  0.2035  0.0597  0.4042
 3412TIP3   OH234430   2.589   3.100  17.327  0.0267 -0.6410  0.3214
 3412TIP3    H134431   2.623   3.143  17.406 -0.2586  1.6814 -0.7528
 3412TIP3    H234432   2.522   3.040  17.360 -0.9445  1.1499  1.8114
 3413TIP3   OH234433   3.120   5.887  17.053 -0.1778 -0.0418  0.2997
 3413TIP3    H134434   3.167   5.907  16.972  0.5800  0.5228  0.8651
 3413TIP3    H234435   3.060   5.960  17.066 -1.5725 -0.9724 -0.6531
 3414TIP3   OH234436   6.279   2.486  18.051 -0.5412  0.2903 -0.0690
 3414TIP3    H134437   6.365   2.451  18.071 -0.8619 -0.5658 -0.1621
 3414TIP3    H234438   6.271   2.564  18.107  0.0796  0.0738  0.3196
 3415TIP3   OH234439   6.509   0.585  18.476  0.1469  0.4340  0.0811
 3415TIP3    H134440   6.569   0.540  18.535  1.8889  1.3737 -0.8978
 3415TIP3    H234441   6.481   0.518  18.415 -0.3567 -0.1624  0.9371
 3416TIP3   OH234442   0.634   5.248  18.022  0.1215 -0.2148  1.0782
 3416TIP3    H134443   0.557   5.227  17.969  0.5803 -1.9265  1.0542
 3416TIP3    H234444   0.625   5.342  18.039 -0.6320  0.1718 -1.0810
 3417TIP3   OH234445   6.328   6.481  18.939 -0.1711 -0.1400  0.1859
 3417TIP3    H134446   6.282   6.515  18.862  0.2053  2.5255  1.0408
 3417TIP3    H234447   6.405   6.539  18.948  1.3753 -2.1995  0.9201
 3418TIP3   OH234448   3.144   3.012  19.685 -0.2460 -0.2334 -0.4271
 3418TIP3    H134449   3.210   2.945  19.702 -1.1279 -0.8760  0.5272
 3418TIP3    H234450   3.061   2.966  19.685 -0.6843  0.4280 -2.4446
 3419TIP3   OH234451   1.905   4.460  20.172  0.1379  0.2162  0.2429
 3419TIP3    H134452   1.824   4.417  20.143  0.3104 -1.0037  1.4369
 3419TIP3    H234453   1.956   4.470  20.092 -0.8082  0.1628 -0.3933
 3420TIP3   OH234454   2.179   1.752  16.820  0.6669  0.5885  0.2515
 3420TIP3    H134455   2.251   1.800  16.860  1.7872  0.2780 -1.2762
 3420TIP3    H234456   2.193   1.762  16.726 -0.5647 -0.5524 -0.0893
 3421TIP3   OH234457   0.124   0.035  17.016 -0.6783 -0.1597 -0.2833
 3421TIP3    H134458   0.079   0.097  16.957  1.1097  0.8942 -0.6029
 3421TIP3    H234459   0.080  -0.048  17.000 -0.4923  0.1430 -2.9273
 3422TIP3   OH234460   3.715   0.389  18.585  0.4517 -0.0221  0.6516
 3422TIP3    H134461   3.665   0.376  18.666  2.2736 -0.4208  1.7580
 3422TIP3    H234462   3.743   0.481  18.589 -3.7958  1.7407 -2.1819
 3423TIP3   OH234463   1.985   3.455  18.527 -1.0715 -0.1774 -0.2027
 3423TIP3    H134464   1.895   3.486  18.520 -1.2198 -0.9546 -3.3798
 3423TIP3    H234465   1.983   3.366  18.491  0.9131 -0.3651  0.0026
 3424TIP3   OH234466   6.143   3.506  18.452 -0.0150  0.2221  0.4889
 3424TIP3    H134467   6.146   3.481  18.545 -1.4855  1.8444  1.0427
 3424TIP3    H234468   6.077   3.448  18.413  2.1405 -1.9638 -0.1298
 3425TIP3   OH234469   5.814   5.423  19.640 -0.0141  0.9756  0.0986
 3425TIP3    H134470   5.741   5.451  19.696 -0.8394 -0.1080 -0.4015
 3425TIP3    H234471   5.872   5.375  19.699 -0.7343  0.0925  0.1182
 3426TIP3   OH234472   0.139   0.354  16.927  0.2965 -0.7749  0.0824
 3426TIP3    H134473   0.111   0.382  16.839 -0.1308 -0.8437  0.1950
 3426TIP3    H234474   0.234   0.368  16.927  0.2609 -0.5069 -0.2943
 3427TIP3   OH234475   1.522   6.129  17.976  0.2356  0.4807 -0.2897
 3427TIP3    H134476   1.501   6.037  17.962  1.7463 -0.0172  0.5965
 3427TIP3    H234477   1.603   6.129  18.026  0.3057  2.3012 -0.3219
 3428TIP3   OH234478   0.712   4.777  18.718  0.4650 -0.7312 -0.2564
 3428TIP3    H134479   0.779   4.844  18.735  1.0983 -1.4540  0.1503
 3428TIP3    H234480   0.748   4.726  18.645 -0.7123  0.2847 -1.6086
 3429TIP3   OH234481   3.980   0.718  18.533 -0.3201 -0.4119  0.3749
 3429TIP3    H134482   3.995   0.813  18.532 -0.9220 -0.3146  0.2266
 3429TIP3    H234483   3.892   0.708  18.569 -0.0229 -0.9529  0.9745
 3430TIP3   OH234484   2.554   3.841  17.317  0.6104  0.0904  0.1555
 3430TIP3    H134485   2.620   3.841  17.247  0.1752  0.5126 -0.2645
 3430TIP3    H234486   2.470   3.843  17.271  0.2837 -0.9890  0.6790
 3431TIP3   OH234487   2.636   6.084  18.752  0.1972  0.0419 -0.1470
 3431TIP3    H134488   2.548   6.081  18.714 -0.4235  0.1105  1.2220
 3431TIP3    H234489   2.685   6.143  18.695 -1.1818  1.4806  0.0937
 3432TIP3   OH234490   2.554   0.996  19.547 -0.0466 -0.7998  0.0704
 3432TIP3    H134491   2.637   0.950  19.555 -0.9886 -2.7352 -0.4946
 3432TIP3    H234492   2.501   0.940  19.490 -1.9216  0.0776  0.8561
 3433TIP3   OH234493   1.534   3.599  10.225 -0.2837  0.0647 -0.8088
 3433TIP3    H134494   1.556   3.514  10.186  1.3583  0.7228 -1.4384
 3433TIP3    H234495   1.516   3.655  10.150 -0.0036  0.6094 -0.4702
 3434TIP3   OH234496   6.687   0.543  19.388  0.1574 -0.0744  0.1101
 3434TIP3    H134497   6.637   0.594  19.451 -1.3505 -2.0231  0.5657
 3434TIP3    H234498   6.712   0.607  19.320 -0.0022  1.6155  1.5718
 3435TIP3   OH234499   1.219   6.235  19.627  0.5408  0.9484  0.0786
 3435TIP3    H134500   1.249   6.188  19.550 -0.4415  0.4072  0.0176
 3435TIP3    H234501   1.136   6.276  19.600  1.1442  2.3474  0.2624
 3436TIP3   OH234502   5.117   2.350  18.967  0.2102 -0.3948 -0.5724
 3436TIP3    H134503   5.111   2.444  18.986  2.3055 -0.4811  0.7132
 3436TIP3    H234504   5.075   2.341  18.881 -0.8387  1.5508 -0.3217
 3437TIP3   OH234505   5.699   3.844  17.493 -0.0928  0.1368  0.1047
 3437TIP3    H134506   5.739   3.803  17.417  0.1853 -1.2706  0.9761
 3437TIP3    H234507   5.754   3.921  17.510  1.5232 -1.0376  0.4866
 3438TIP3   OH234508   2.768   2.683  17.969 -0.6143  0.1206  0.1019
 3438TIP3    H134509   2.836   2.630  18.009 -2.2714 -1.6905  0.7030
 3438TIP3    H234510   2.803   2.709  17.884  0.5084 -1.3889  0.0801
 3439TIP3   OH234511   5.547   3.201  19.595  0.3973  0.0633 -0.3589
 3439TIP3    H134512   5.640   3.222  19.591  0.5237 -0.3117  0.4893
 3439TIP3    H234513   5.542   3.109  19.570  0.1202  0.3770 -1.5274
 3440TIP3   OH234514   2.699   6.034  17.718  0.4187  0.4412  0.0732
 3440TIP3    H134515   2.788   6.061  17.742  0.9279 -0.1692 -1.0645
 3440TIP3    H234516   2.665   5.992  17.797  1.9984 -1.3912 -0.1454
 3441TIP3   OH234517   0.393   4.772  19.699  0.0084 -0.4253 -0.5298
 3441TIP3    H134518   0.316   4.809  19.743  0.1359 -0.4695 -0.2685
 3441TIP3    H234519   0.390   4.678  19.722  0.3344 -0.3632 -0.2286
 3442TIP3   OH234520   1.569   6.140  19.222 -0.1870 -0.1672  0.0083
 3442TIP3    H134521   1.583   6.083  19.297 -2.9790 -1.0193  0.0017
 3442TIP3    H234522   1.493   6.102  19.177  0.0236  1.5923 -1.9922
 3443TIP3   OH234523   3.065   1.692  20.252 -0.3529  0.2845 -0.4833
 3443TIP3    H134524   3.132   1.732  20.308  1.0488 -1.0050 -1.1813
 3443TIP3    H234525   3.114   1.633  20.195 -2.0571 -0.3746 -1.3109
 3444TIP3   OH234526   0.168   1.720  16.140 -0.1587 -0.3320  0.2486
 3444TIP3    H134527   0.186   1.781  16.069 -0.8232  1.2909  1.4143
 3444TIP3    H234528   0.076   1.734  16.161  0.3432  0.2742  2.3263
 3445TIP3   OH234529   2.483   4.994  19.298  0.3310  0.1386 -0.0208
 3445TIP3    H134530   2.447   5.075  19.335 -1.9915 -1.3313  1.2012
 3445TIP3    H234531   2.559   4.975  19.352  1.0100  1.5418 -0.4225
 3446TIP3   OH234532   2.857   4.374  19.498  0.4851 -0.4243  0.0852
 3446TIP3    H134533   2.782   4.382  19.557  1.4180  0.2099  1.2438
 3446TIP3    H234534   2.842   4.293  19.450 -0.3644 -0.9065  1.1326
 3447TIP3   OH234535   4.817   3.509  18.635  0.4037 -0.1308 -0.4018
 3447TIP3    H134536   4.893   3.565  18.616  1.1920 -0.1866  2.2051
 3447TIP3    H234537   4.853   3.440  18.690 -1.2567 -1.1551 -0.5656
 3448TIP3   OH234538   5.541   2.459  17.898 -0.2494 -0.3451 -0.2974
 3448TIP3    H134539   5.451   2.433  17.917 -0.0257 -0.7690  0.1977
 3448TIP3    H234540   5.534   2.551  17.872 -0.7754 -0.2640  0.1241
 3449TIP3   OH234541   4.432   2.400  20.024  0.2814 -0.4971 -0.1470
 3449TIP3    H134542   4.447   2.318  20.072  0.5924 -0.6747 -0.5363
 3449TIP3    H234543   4.375   2.374  19.951 -1.8247  0.1266  1.1963
 3450TIP3   OH234544   0.968   5.619  18.854 -0.0352 -0.1816  1.0185
 3450TIP3    H134545   0.905   5.690  18.864 -1.0212 -0.7918 -0.6742
 3450TIP3    H234546   0.937   5.550  18.913 -0.7590 -0.3407  0.4566
 3451TIP3   OH234547   3.464   6.267  18.496  0.3980  0.0076 -1.0806
 3451TIP3    H134548   3.371   6.279  18.478 -0.5303 -0.5904  2.4934
 3451TIP3    H234549   3.476   6.172  18.499  0.9346  0.0845 -0.6672
 3452TIP3   OH234550   0.406   2.666  17.209  0.6896 -0.1571 -0.2461
 3452TIP3    H134551   0.428   2.662  17.116  1.3585  0.3293 -0.1148
 3452TIP3    H234552   0.368   2.581  17.229  0.1184 -0.1098 -1.0640
 3453TIP3   OH234553   0.711   1.258  18.769  0.7805  0.0934  0.3111
 3453TIP3    H134554   0.783   1.250  18.705  0.0001 -3.0774 -0.3590
 3453TIP3    H234555   0.733   1.195  18.837  0.7865  2.3061  2.4757
 3454TIP3   OH234556   2.895   4.106  17.317  0.3891  0.3653 -0.1605
 3454TIP3    H134557   2.858   4.160  17.247  1.8967  1.3758 -0.2227
 3454TIP3    H234558   2.819   4.083  17.371 -0.5163  1.2855 -0.9825
 3455TIP3   OH234559   5.977   2.544  19.574 -0.0461 -0.2411  0.1537
 3455TIP3    H134560   5.998   2.637  19.584  0.9221 -0.5806  1.5951
 3455TIP3    H234561   5.925   2.524  19.652  1.6044 -1.3903  1.0016
 3456TIP3   OH234562   0.264   1.310  17.798  0.0575  0.2779 -0.1312
 3456TIP3    H134563   0.204   1.278  17.865  0.0952  1.8441  0.6951
 3456TIP3    H234564   0.330   1.359  17.847  0.6620  0.5931 -1.2392
 3457TIP3   OH234565   4.243   3.363  20.212 -1.2529  0.6687 -0.1931
 3457TIP3    H134566   4.293   3.371  20.294 -0.2890  1.7174 -0.8532
 3457TIP3    H234567   4.308   3.372  20.143 -1.7800 -1.8778 -1.1505
 3458TIP3   OH234568   1.393   5.135  20.468  0.8502 -0.7223 -0.1836
 3458TIP3    H134569   1.451   5.183  20.410 -0.7957  0.7680 -0.6943
 3458TIP3    H234570   1.402   5.178  20.553  1.1351 -1.0731 -0.0308
 3459TIP3   OH234571   0.403   6.645  18.293  0.0342  0.8722  0.2736
 3459TIP3    H134572   0.366   6.601  18.216 -0.5779  1.2317  0.3554
 3459TIP3    H234573   0.327   6.686  18.336  0.3912  0.7882  0.9925
 3460TIP3   OH234574   4.684   6.576  16.698 -0.3780  0.2983 -0.7049
 3460TIP3    H134575   4.745   6.621  16.756 -0.0513 -1.4809  0.3939
 3460TIP3    H234576   4.603   6.626  16.705 -0.1046  0.5903  0.6536
 3461TIP3   OH234577   4.648   0.872  17.647 -0.2972  0.2066 -0.0194
 3461TIP3    H134578   4.732   0.917  17.658  0.8342 -1.1905 -2.2608
 3461TIP3    H234579   4.613   0.906  17.565 -2.3776  1.3196  1.2357
 3462TIP3   OH234580   0.106   1.916  16.695 -0.0330  0.4623  0.0611
 3462TIP3    H134581   0.054   1.862  16.635  1.3660 -0.6034 -0.2329
 3462TIP3    H234582   0.130   1.993  16.643 -1.5029  1.1192  0.2904
 3463TIP3   OH234583   2.300   5.599  18.846 -0.1587 -0.3953  0.1366
 3463TIP3    H134584   2.237   5.671  18.849  1.3563  1.0023 -0.1566
 3463TIP3    H234585   2.338   5.603  18.758  0.8269 -0.7474  0.5289
 3464TIP3   OH234586   0.689   1.270  18.471  0.4102 -0.1248  0.0823
 3464TIP3    H134587   0.782   1.270  18.491  0.1604 -0.9358  1.3747
 3464TIP3    H234588   0.646   1.276  18.556 -0.7134 -3.5208 -0.0606
 3465TIP3   OH234589   4.622   3.267  19.658 -0.1270  0.4500  0.3753
 3465TIP3    H134590   4.654   3.356  19.648  2.0996  0.0855  3.1920
 3465TIP3    H234591   4.701   3.214  19.672 -1.5783 -1.4848  1.7478
 3466TIP3   OH234592   3.257   2.771  20.229  0.1978 -0.2855 -0.2673
 3466TIP3    H134593   3.203   2.740  20.301 -0.8753 -0.4559 -1.1101
 3466TIP3    H234594   3.243   2.866  20.228 -0.0269 -0.3177 -0.4220
 3467TIP3   OH234595   1.261   1.937  17.465  0.1487 -0.0893 -0.3445
 3467TIP3    H134596   1.353   1.961  17.459  0.5307 -1.7677 -2.5198
 3467TIP3    H234597   1.261   1.849  17.501 -0.4520 -0.7296 -1.8413
 3468TIP3   OH234598   5.414   3.401  20.102  0.0900  0.0319 -0.0944
 3468TIP3    H134599   5.453   3.389  20.016  0.1680 -0.4479  0.0054
 3468TIP3    H234600   5.322   3.418  20.085  0.0977 -0.1035 -0.2664
 3469TIP3   OH234601   4.560   4.681  18.169 -0.1312 -0.3805  0.4069
 3469TIP3    H134602   4.546   4.605  18.224 -0.4463  0.2506  1.2163
 3469TIP3    H234603   4.631   4.730  18.212 -0.3840  0.1256  0.2633
 3470TIP3   OH234604   3.533   4.459  17.184 -0.9446  0.4880 -0.1250
 3470TIP3    H134605   3.566   4.544  17.212 -1.6322  0.7466 -0.0679
 3470TIP3    H234606   3.611   4.405  17.172 -0.5738 -0.0397  3.4413
 3471TIP3   OH234607   5.677   0.788  16.550 -0.1467  0.2242 -0.5671
 3471TIP3    H134608   5.773   0.786  16.554 -0.1801 -0.8683  0.0390
 3471TIP3    H234609   5.658   0.835  16.469  0.9014  0.7102 -0.5518
 3472TIP3   OH234610   0.913   5.480  18.341 -0.9166 -0.6218 -0.0094
 3472TIP3    H134611   0.847   5.411  18.352 -1.4549 -0.7433 -3.1580
 3472TIP3    H234612   0.865   5.561  18.358 -0.8893 -0.8491  1.2983
 3473TIP3   OH234613   3.294   4.819  17.611  0.3318 -0.1446  0.0355
 3473TIP3    H134614   3.242   4.814  17.531  0.0735 -3.0137  0.2605
 3473TIP3    H234615   3.376   4.775  17.589 -0.1739 -2.0007  1.5665
 3474TIP3   OH234616   0.551   0.898  18.499 -1.4739  0.7915  0.2290
 3474TIP3    H134617   0.495   0.875  18.424  0.5119  0.0478 -1.0825
 3474TIP3    H234618   0.512   0.851  18.572 -1.6753 -0.9899 -0.9633
 3475TIP3   OH234619   5.525   1.912  19.014 -0.5872  0.2094  0.0590
 3475TIP3    H134620   5.500   1.827  19.050 -1.0650 -0.1403 -1.0620
 3475TIP3    H234621   5.528   1.970  19.090  0.5538 -0.9737  0.9737
 3476TIP3   OH234622   5.445   0.552  17.852 -0.2620  0.6049  0.0702
 3476TIP3    H134623   5.530   0.515  17.829 -0.5728  0.1104 -0.3051
 3476TIP3    H234624   5.466   0.633  17.898  0.4205  1.2704 -1.3242
 3477TIP3   OH234625   0.072   1.238  17.332 -0.1417  0.2557 -0.4279
 3477TIP3    H134626   0.155   1.285  17.321 -1.4737  2.9051  0.1165
 3477TIP3    H234627   0.067   1.220  17.426  0.1742 -0.7211 -0.5802
 3478TIP3   OH234628   5.915   5.012  17.881  0.6504  0.2997 -0.1545
 3478TIP3    H134629   5.989   4.961  17.848  1.7738  1.1458  0.9256
 3478TIP3    H234630   5.933   5.022  17.975 -0.0306  1.8156 -0.1494
 3479TIP3   OH234631   4.571   5.236  17.685  0.2130 -0.3911  0.9629
 3479TIP3    H134632   4.649   5.196  17.645 -0.8806 -1.2154 -0.4682
 3479TIP3    H234633   4.513   5.253  17.611 -0.9564  0.2661  1.9953
 3480TIP3   OH234634   1.151   3.302  17.946  0.3402 -0.2714 -0.0213
 3480TIP3    H134635   1.100   3.297  17.865 -0.8788  2.1679  0.4921
 3480TIP3    H234636   1.232   3.255  17.927  0.4508  0.9369 -2.9501
 3481TIP3   OH234637   2.950   5.400  17.121  0.6688 -0.1554  0.0030
 3481TIP3    H134638   2.885   5.426  17.186 -0.4065  0.9675 -1.4533
 3481TIP3    H234639   2.899   5.359  17.051  1.5086  0.6824 -1.1341
 3482TIP3   OH234640   2.328   5.476  17.646  0.1078  0.3171  0.0409
 3482TIP3    H134641   2.357   5.553  17.695  1.2423 -1.0275  1.6314
 3482TIP3    H234642   2.246   5.451  17.687  0.3379  0.0103  0.3177
 3483TIP3   OH234643   1.848   3.461  17.862 -0.4163 -0.1330 -0.6317
 3483TIP3    H134644   1.792   3.395  17.905  0.4593  1.0419  2.6277
 3483TIP3    H234645   1.789   3.535  17.846 -0.6725 -0.4491 -1.1958
 3484TIP3   OH234646   5.666   1.417  20.008 -0.0194 -0.2490  0.2936
 3484TIP3    H134647   5.631   1.505  19.994  3.8312  1.3702 -0.3512
 3484TIP3    H234648   5.663   1.376  19.922 -0.2142 -0.1127  0.2338
 3485TIP3   OH234649   0.581   1.542  18.691 -0.0502 -0.0218  0.6778
 3485TIP3    H134650   0.608   1.470  18.749  1.3343  1.3998  1.9019
 3485TIP3    H234651   0.601   1.621  18.741 -1.4725  1.2422 -0.6504
 3486TIP3   OH234652   1.852   2.879  19.512 -0.8076 -0.0179  0.2123
 3486TIP3    H134653   1.897   2.808  19.466 -0.6536  0.0397  0.2751
 3486TIP3    H234654   1.803   2.835  19.581  1.0530  0.1070  1.7066
 3487TIP3   OH234655   2.677   1.722  19.687  0.6423 -0.1129 -0.3080
 3487TIP3    H134656   2.736   1.728  19.612 -0.0277  0.8788 -0.7773
 3487TIP3    H234657   2.616   1.794  19.675 -0.0188 -0.4791  0.7340
 3488TIP3   OH234658   2.443   1.750  17.594 -0.1754  0.0791  0.8350
 3488TIP3    H134659   2.408   1.764  17.506 -0.5077  1.3467  1.1495
 3488TIP3    H234660   2.537   1.764  17.584 -0.2539  0.5839  0.7304
 3489TIP3   OH234661   3.026   5.546  20.131 -0.2371  0.1688  0.1495
 3489TIP3    H134662   3.032   5.641  20.135  0.4066  0.1570 -0.3299
 3489TIP3    H234663   3.116   5.515  20.146 -0.5030 -0.3841  0.6973
 3490TIP3   OH234664   4.706   3.306  19.150 -0.0741  0.1617  0.2752
 3490TIP3    H134665   4.697   3.223  19.197  1.1933  0.7500  1.6143
 3490TIP3    H234666   4.786   3.345  19.185  1.6799  0.0962 -3.2239
 3491TIP3   OH234667   2.333   6.001  17.671  0.1247  0.4548 -0.0637
 3491TIP3    H134668   2.348   6.039  17.584 -1.2452  0.8648 -0.1395
 3491TIP3    H234669   2.243   5.967  17.667  0.7535 -1.4045  0.5206
 3492TIP3   OH234670   3.512   3.287  17.109  0.0683 -0.4122  0.1487
 3492TIP3    H134671   3.448   3.240  17.057  0.2303 -0.1211 -0.3131
 3492TIP3    H234672   3.460   3.348  17.161  0.0601  0.8268 -1.2580
 3493TIP3   OH234673   2.143   4.301  18.482 -0.2959  0.3262 -0.7557
 3493TIP3    H134674   2.087   4.240  18.433 -1.4900 -0.8651  1.9045
 3493TIP3    H234675   2.185   4.247  18.549 -0.4454  2.1887  0.9246
 3494TIP3   OH234676   1.827   1.304  17.202 -0.4767  0.5724 -0.0661
 3494TIP3    H134677   1.894   1.266  17.146 -0.3770 -0.2449  0.5903
 3494TIP3    H234678   1.846   1.397  17.202  1.0080  0.2892  0.5569
 3495TIP3   OH234679   0.183   2.532  19.929  0.4060 -0.6179  0.1547
 3495TIP3    H134680   0.276   2.521  19.910  0.1817 -0.0055 -1.4185
 3495TIP3    H234681   0.139   2.516  19.846 -0.6886  1.5338  0.2500
 3496TIP3   OH234682   1.733   6.218  17.408 -0.0376  0.3268  0.1931
 3496TIP3    H134683   1.738   6.179  17.496 -2.0721 -0.0602  0.1825
 3496TIP3    H234684   1.649   6.188  17.373  0.2645  1.3146 -1.5062
 3497TIP3   OH234685   3.681   2.318  19.723 -0.2504  0.3952  0.1265
 3497TIP3    H134686   3.621   2.386  19.752 -0.6805  0.7257 -1.4413
 3497TIP3    H234687   3.626   2.256  19.674  0.3409 -0.4101  0.4549
 3498TIP3   OH234688   1.652   0.229  19.950 -0.4268 -0.4750  0.3893
 3498TIP3    H134689   1.719   0.162  19.962 -0.1758 -0.5832 -1.4069
 3498TIP3    H234690   1.695   0.311  19.972 -0.0994 -0.6707  0.4811
 3499TIP3   OH234691   4.918   0.987  16.627  0.4840 -0.2240  0.0838
 3499TIP3    H134692   4.940   1.028  16.543 -0.8141  1.1020  0.3547
 3499TIP3    H234693   4.998   0.940  16.652  1.4224  0.6429 -1.1478
 3500TIP3   OH234694   2.645   3.562  17.943  0.0210  0.1408  0.3705
 3500TIP3    H134695   2.582   3.517  18.000  1.2062 -1.1157  0.7591
 3500TIP3    H234696   2.610   3.650  17.933 -1.0382 -0.0861  1.7652
 3501TIP3   OH234697   5.956   0.221  18.140 -0.7038 -0.3011 -0.1098
 3501TIP3    H134698   5.996   0.155  18.083 -0.7094  0.4725 -1.0366
 3501TIP3    H234699   5.912   0.281  18.080  1.3081  1.9405  0.4854
 3502TIP3   OH234700   2.854   3.016  17.855 -0.3670 -0.6644  0.0703
 3502TIP3    H134701   2.815   2.989  17.938 -1.8161 -0.4124 -0.5068
 3502TIP3    H234702   2.944   2.983  17.859 -0.5490 -1.0432  1.5421
 3503TIP3   OH234703   4.620   6.180  20.347 -0.0617 -0.3975  0.0196
 3503TIP3    H134704   4.567   6.260  20.351 -0.3706 -0.3968 -2.4295
 3503TIP3    H234705   4.688   6.199  20.283 -0.1616 -2.0793 -0.6387
 3504TIP3   OH234706   6.216   5.699  18.095  0.7680 -0.5068 -0.1052
 3504TIP3    H134707   6.237   5.748  18.174  0.7112  0.2705 -0.5645
 3504TIP3    H234708   6.189   5.613  18.127 -0.1890  0.0987  0.7845
 3505TIP3   OH234709   4.207   2.942  20.146 -0.2517 -0.1941  0.0102
 3505TIP3    H134710   4.193   2.851  20.174  1.5614 -0.8981 -1.1749
 3505TIP3    H234711   4.290   2.967  20.185 -0.9825  1.1998  0.7602
 3506TIP3   OH234712   0.571   1.432  17.400  0.2152  0.4424 -0.0051
 3506TIP3    H134713   0.539   1.382  17.475  1.7740 -1.7824 -0.7265
 3506TIP3    H234714   0.509   1.504  17.391 -2.2983 -1.4640  0.9764
 3507TIP3   OH234715   6.330   1.593  17.245 -0.2637 -0.3237 -0.3079
 3507TIP3    H134716   6.398   1.648  17.283 -0.4227 -0.7060  0.5547
 3507TIP3    H234717   6.330   1.513  17.298 -0.7206 -0.7344 -0.9050
 3508TIP3   OH234718   3.230   2.140  17.605  0.0920  0.0821 -0.1712
 3508TIP3    H134719   3.303   2.187  17.645  0.2170  0.6543 -1.0496
 3508TIP3    H234720   3.208   2.191  17.527  0.1720 -1.2387 -1.1006
 3509TIP3   OH234721   6.133   0.558  19.522  0.1922 -0.3489  0.4269
 3509TIP3    H134722   6.078   0.484  19.550  0.7154 -0.5699  0.8882
 3509TIP3    H234723   6.192   0.573  19.596  0.0406  0.5875  0.3602
 3510TIP3   OH234724   0.999   6.288  19.026  0.1357 -0.1660 -0.4655
 3510TIP3    H134725   1.087   6.309  19.058  0.0439  0.2831 -0.4999
 3510TIP3    H234726   1.000   6.315  18.934  0.3980 -1.4550 -0.8511
 3511TIP3   OH234727   0.410   5.613  17.953  0.3526  0.5214 -0.3248
 3511TIP3    H134728   0.315   5.599  17.947  0.2966 -0.2169  1.5789
 3511TIP3    H234729   0.438   5.627  17.862 -1.3909 -0.5275 -1.0768
 3512TIP3   OH234730   0.888   1.634  16.427 -0.2717 -0.4403 -0.0199
 3512TIP3    H134731   0.951   1.566  16.402 -1.3155 -1.6467  0.4984
 3512TIP3    H234732   0.812   1.618  16.370  0.0406  1.2985 -0.9842
 3513TIP3   OH234733   0.641   2.262  19.694  0.3070 -0.0253  0.4129
 3513TIP3    H134734   0.734   2.243  19.680  0.4630 -0.5505  1.9655
 3513TIP3    H234735   0.638   2.356  19.712  0.4545  0.1076 -0.2437
 3514TIP3   OH234736   6.084   0.795  17.335 -0.2268 -0.3301  0.4754
 3514TIP3    H134737   5.995   0.760  17.332  0.0692 -1.2631  1.6561
 3514TIP3    H234738   6.134   0.731  17.386  0.0318  2.3131  4.0043
 3515TIP3   OH234739   4.318   2.247  19.304  0.7945  0.3172 -0.6719
 3515TIP3    H134740   4.369   2.196  19.367 -0.8953 -0.8119 -0.1384
 3515TIP3    H234741   4.288   2.183  19.240 -4.2419 -0.3303  1.8231
 3516TIP3   OH234742   4.822   2.747  17.912  0.5649 -0.4859  0.4810
 3516TIP3    H134743   4.879   2.716  17.843 -1.4693 -1.8472 -0.6877
 3516TIP3    H234744   4.774   2.820  17.873  1.5622  0.7705  1.5059
 3517TIP3   OH234745   5.635   1.278  17.432  0.1877 -0.3121  0.2711
 3517TIP3    H134746   5.651   1.319  17.347  0.2020  2.4023  1.4637
 3517TIP3    H234747   5.540   1.275  17.439  0.1005  2.1141  1.2050
 3518TIP3   OH234748   2.609   3.497  17.399  0.2237 -0.4752  0.4652
 3518TIP3    H134749   2.648   3.566  17.345  2.2441 -0.6074  1.6512
 3518TIP3    H234750   2.529   3.473  17.352  1.2374  0.2482 -1.8154
 3519TIP3   OH234751   0.537   0.081  18.878  0.0161 -0.8036  0.2082
 3519TIP3    H134752   0.471   0.144  18.850 -1.3702 -2.0614  0.4757
 3519TIP3    H234753   0.592   0.129  18.940  0.3088  0.6992 -1.1427
 3520TIP3   OH234754   3.092   6.377  17.994  0.2131  0.2688 -0.4822
 3520TIP3    H134755   2.998   6.364  17.980  0.5008 -0.7747 -1.5449
 3520TIP3    H234756   3.121   6.424  17.916  1.2562 -2.8595 -2.1459
 3521TIP3   OH234757   1.450   5.888  16.607  0.2359 -0.2941 -0.1122
 3521TIP3    H134758   1.392   5.925  16.674 -0.4823 -0.8910 -0.3949
 3521TIP3    H234759   1.487   5.810  16.648  1.8808  0.7774  0.5456
 3522TIP3   OH234760   3.693   6.078  19.712 -0.2977  0.5887  0.0816
 3522TIP3    H134761   3.657   6.146  19.656  3.1183  2.3449 -0.2426
 3522TIP3    H234762   3.685   6.113  19.801 -3.2203 -1.0120  0.5871
 3523TIP3   OH234763   4.776   6.660  20.197  0.5311 -0.1935 -0.4609
 3523TIP3    H134764   4.847   6.597  20.211  1.9315  1.2287 -0.8867
 3523TIP3    H234765   4.751   6.648  20.105  1.6618  0.6878 -0.9061
 3524TIP3   OH234766   4.698   4.157  19.622 -0.3165  0.3836 -0.7565
 3524TIP3    H134767   4.770   4.201  19.668 -1.4035 -0.7543  2.3038
 3524TIP3    H234768   4.621   4.211  19.642 -0.7001  0.4424 -2.2467
 3525TIP3   OH234769   0.360   4.671  17.174  0.3058  0.1244 -0.7519
 3525TIP3    H134770   0.273   4.641  17.147  0.3536 -0.7437  0.0080
 3525TIP3    H234771   0.378   4.746  17.118 -1.6208  1.3704  0.2076
 3526TIP3   OH234772   2.383   3.627  19.929  0.1154 -0.1298  0.0241
 3526TIP3    H134773   2.340   3.636  20.014 -1.7764 -2.7790 -0.5071
 3526TIP3    H234774   2.379   3.533  19.911  0.8946  0.2970 -2.7662
 3527TIP3   OH234775   6.224   0.661  19.284 -0.0758 -0.3790 -0.0563
 3527TIP3    H134776   6.214   0.595  19.353 -1.6962 -1.1428 -0.9502
 3527TIP3    H234777   6.263   0.736  19.328 -1.0119 -0.8549  1.6905
 3528TIP3   OH234778   1.760   6.135  20.042 -0.0760 -0.3567  0.6045
 3528TIP3    H134779   1.687   6.126  19.980  0.4288  0.7546 -0.1762
 3528TIP3    H234780   1.748   6.223  20.080 -0.1029 -0.8357  1.7441
 3529TIP3   OH234781   1.188   6.041  19.857 -0.5908  0.1518 -0.2183
 3529TIP3    H134782   1.221   6.122  19.818 -3.1457  0.2812 -2.4426
 3529TIP3    H234783   1.209   5.973  19.793 -2.0803 -0.2003 -0.3664
 3530TIP3   OH234784   4.057   6.134  19.218 -0.1871  0.6716 -0.1245
 3530TIP3    H134785   4.117   6.208  19.217  1.7011 -0.7698 -1.9590
 3530TIP3    H234786   4.099   6.069  19.273 -1.7873  0.8355  1.3980
 3531TIP3   OH234787   4.104   6.513  16.541 -0.6330 -0.2323 -0.0472
 3531TIP3    H134788   4.034   6.570  16.508 -0.4799 -0.9982 -1.7994
 3531TIP3    H234789   4.068   6.476  16.622 -0.2730  3.2204  1.9098
 3532TIP3   OH234790   3.568   4.354  17.746 -0.2130 -0.1638 -0.1406
 3532TIP3    H134791   3.507   4.422  17.775  0.5671  0.2070  0.6568
 3532TIP3    H234792   3.615   4.393  17.673  0.3397  0.2242  0.4134
 3533TIP3   OH234793   0.835   4.207  18.053  0.1787  0.2851 -0.4712
 3533TIP3    H134794   0.802   4.223  18.141  1.6377  0.7737  0.0035
 3533TIP3    H234795   0.819   4.289  18.006  1.4796  0.8414  0.0180
 3534TIP3   OH234796   0.037   6.236  18.895  0.2596 -0.3670 -0.2238
 3534TIP3    H134797   0.106   6.301  18.909  0.7972 -1.2067  1.3152
 3534TIP3    H234798  -0.008   6.230  18.979  0.3789 -2.1106 -0.2392
 3535TIP3   OH234799   2.913   2.040  17.183 -0.4062  0.2183  0.5623
 3535TIP3    H134800   2.927   2.113  17.122 -0.3558 -0.5693 -0.4036
 3535TIP3    H234801   2.845   1.987  17.141 -1.5304  0.4726  1.9789
 3536TIP3   OH234802   1.915   6.510  19.320 -0.1655 -0.4863 -0.2625
 3536TIP3    H134803   1.838   6.555  19.355 -0.5596 -1.7821  0.6041
 3536TIP3    H234804   1.947   6.568  19.251 -2.3132 -0.2201 -1.1329
 3537TIP3   OH234805   6.406   0.875  19.901  0.6468 -0.1722  0.7279
 3537TIP3    H134806   6.477   0.933  19.872  0.4331  1.4515  3.1538
 3537TIP3    H234807   6.333   0.934  19.917 -0.9707 -1.6946 -0.6941
 3538TIP3   OH234808   1.531   2.991  18.152  0.1619 -0.2800 -0.3360
 3538TIP3    H134809   1.452   2.993  18.099 -0.2094  0.3198  0.2235
 3538TIP3    H234810   1.566   3.080  18.147  0.1928 -0.2522  0.3184
 3539TIP3   OH234811   2.755   0.030  18.366 -0.5201 -0.8581  0.1087
 3539TIP3    H134812   2.737   0.118  18.399 -1.4623 -1.1511  0.3969
 3539TIP3    H234813   2.807   0.045  18.287 -1.0526 -0.0287 -0.1001
 3540TIP3   OH234814   2.948   3.036  18.289 -0.9731  0.4671  0.2168
 3540TIP3    H134815   2.895   2.958  18.308  0.6293 -1.3326 -2.0493
 3540TIP3    H234816   2.950   3.040  18.193  2.2931  0.8561  0.1923
 3541TIP3   OH234817   3.109   4.809  19.079  0.0463  0.0451  0.4072
 3541TIP3    H134818   3.037   4.838  19.022 -0.8236  0.5809  1.7385
 3541TIP3    H234819   3.065   4.769  19.154  1.1903 -1.6455  0.2336
 3542TIP3   OH234820   3.389   6.538  18.449 -0.2514  0.0681  0.4881
 3542TIP3    H134821   3.425   6.449  18.445 -0.8747 -0.2363  1.3674
 3542TIP3    H234822   3.316   6.537  18.387  0.6098  0.4066 -0.5746
 3543TIP3   OH234823   0.712   4.434  18.698 -0.6538  0.2036 -0.1761
 3543TIP3    H134824   0.776   4.368  18.724 -0.4023  0.9499  1.1978
 3543TIP3    H234825   0.764   4.499  18.649 -0.4276  0.6049  0.5877
 3544TIP3   OH234826   5.815   0.536  17.617  0.2598 -0.3135 -0.3421
 3544TIP3    H134827   5.872   0.605  17.651 -1.1890 -0.4995  2.8058
 3544TIP3    H234828   5.876   0.472  17.580  1.8155  1.1785 -0.5271
 3545TIP3   OH234829   1.465   5.166  17.789 -0.1147  0.2069  0.3115
 3545TIP3    H134830   1.413   5.245  17.803 -1.0389 -0.5894  1.6478
 3545TIP3    H234831   1.444   5.139  17.699  0.4911  1.6391 -0.2836
 3546TIP3   OH234832   4.276   1.103  18.902  0.4050 -0.1702 -0.1774
 3546TIP3    H134833   4.194   1.110  18.951 -0.7039 -1.3326 -1.7433
 3546TIP3    H234834   4.323   1.031  18.945 -0.6912 -1.3852 -0.9265
 3547TIP3   OH234835   2.816   5.159  19.979  0.8276  0.0233  0.5384
 3547TIP3    H134836   2.722   5.147  19.985  0.8696 -0.5036  0.2516
 3547TIP3    H234837   2.841   5.201  20.061  0.4785 -0.7392  1.0481
 3548TIP3   OH234838   1.936   1.307  17.468 -0.2991  0.2195 -0.1977
 3548TIP3    H134839   1.873   1.280  17.401  0.7234 -1.2716 -0.6075
 3548TIP3    H234840   2.015   1.256  17.449  0.5915  1.0371  1.1195
 3549TIP3   OH234841   6.141   1.262  20.321 -0.2773 -0.1285  0.3677
 3549TIP3    H134842   6.180   1.341  20.358 -1.1720 -0.4379  2.1124
 3549TIP3    H234843   6.055   1.289  20.290  0.3773  0.0755 -1.3500
 3550TIP3   OH234844   1.286   3.466  19.812  0.1222  0.1015 -0.3438
 3550TIP3    H134845   1.349   3.511  19.867 -2.3783  0.9509  2.0510
 3550TIP3    H234846   1.264   3.386  19.862 -0.1359 -0.5684 -1.4967
 3551TIP3   OH234847   6.566   0.101  19.336  0.5650  0.0883 -0.7519
 3551TIP3    H134848   6.631   0.061  19.278  0.3367  0.6792 -1.4246
 3551TIP3    H234849   6.505   0.030  19.356 -0.8242  0.4453 -3.3457
 3552TIP3   OH234850   5.841   0.040  17.095  0.5235 -0.4778  0.2574
 3552TIP3    H134851   5.758   0.058  17.139  0.4231  0.3614 -0.2549
 3552TIP3    H234852   5.840  -0.054  17.079 -0.3365 -0.4724  0.2535
 3553TIP3   OH234853   4.771   0.507  16.242  0.2996  0.0222 -0.0263
 3553TIP3    H134854   4.747   0.588  16.286 -0.3049  0.3615 -0.9638
 3553TIP3    H234855   4.802   0.534  16.155 -0.6426 -0.7874 -0.6376
 3554TIP3   OH234856   5.534   5.843  18.162  0.4489  0.4530 -0.0386
 3554TIP3    H134857   5.505   5.826  18.072  1.0949  2.1534 -0.6096
 3554TIP3    H234858   5.601   5.911  18.153  1.7557 -0.5326  1.5894
 3555TIP3   OH234859   6.034   5.919  17.631 -0.4910 -0.2631 -0.3677
 3555TIP3    H134860   5.987   5.967  17.563 -0.1834 -0.6174 -0.8329
 3555TIP3    H234861   6.003   5.958  17.713 -1.0399  0.0066 -0.6962
 3556TIP3   OH234862   6.611   5.912  17.280  0.2494  0.2396 -0.0894
 3556TIP3    H134863   6.661   5.883  17.355 -0.3414  0.0708  0.2409
 3556TIP3    H234864   6.608   5.836  17.221  2.0807  0.8400 -1.0424
 3557TIP3   OH234865   5.962   4.212  19.116  0.0362 -0.2254  0.3487
 3557TIP3    H134866   6.000   4.190  19.201 -0.7067 -2.7614  0.1136
 3557TIP3    H234867   6.038   4.225  19.059  0.5391  1.5696  1.3747
 3558TIP3   OH234868   2.030   0.146  17.202 -0.1721 -0.2898 -0.0242
 3558TIP3    H134869   1.955   0.118  17.254  1.7922 -4.0855  1.1752
 3558TIP3    H234870   2.010   0.118  17.113 -0.6440 -0.2513  0.0694
 3559TIP3   OH234871   4.923   1.906  18.404 -0.0679  0.5194  0.0960
 3559TIP3    H134872   4.977   1.885  18.328 -1.9515 -0.1838 -1.1107
 3559TIP3    H234873   4.986   1.925  18.474  1.7090 -0.2161 -1.2444
 3560TIP3   OH234874   5.647   2.444  19.652 -0.4860 -0.1485  0.1873
 3560TIP3    H134875   5.694   2.513  19.700  0.0237 -0.1937 -0.2409
 3560TIP3    H234876   5.618   2.384  19.720 -3.7447  2.0853  0.9792
 3561TIP3   OH234877   2.045   1.487  19.527  0.4445 -0.3427 -0.3871
 3561TIP3    H134878   2.107   1.416  19.511  1.1638  0.3211 -0.6659
 3561TIP3    H234879   1.995   1.459  19.603  0.7903 -1.0982 -0.4300
 3562TIP3   OH234880   4.939   5.330  17.974 -0.0141  0.2323 -0.5402
 3562TIP3    H134881   4.925   5.368  17.888 -0.3794  0.0616 -0.5586
 3562TIP3    H234882   4.922   5.402  18.035  1.3799  0.6838 -0.6319
 3563TIP3   OH234883   1.848   3.260  17.456 -0.1342 -0.2120  0.4776
 3563TIP3    H134884   1.756   3.252  17.428  0.0968 -2.8058  0.1585
 3563TIP3    H234885   1.874   3.170  17.474  1.9718  0.6330  1.8992
 3564TIP3   OH234886   6.575   2.466  16.408  0.4510  0.4297 -0.2025
 3564TIP3    H134887   6.485   2.495  16.426  0.6086  0.2851  0.9374
 3564TIP3    H234888   6.607   2.435  16.493  0.7494 -1.8561 -1.0939
 3565TIP3   OH234889   5.225   4.397  19.089  0.4899 -0.4738  0.1275
 3565TIP3    H134890   5.162   4.416  19.020  0.3064  0.9063  0.6553
 3565TIP3    H234891   5.304   4.444  19.064  0.6477 -0.5294  0.5085
 3566TIP3   OH234892   6.178   1.597  18.143  0.0560 -0.2604  0.7271
 3566TIP3    H134893   6.200   1.533  18.211 -0.9220 -0.3051  1.0124
 3566TIP3    H234894   6.202   1.553  18.061  2.3091  0.2303  1.0519
 3567TIP3   OH234895   6.237   2.638  16.869  0.4555  0.3560 -0.2191
 3567TIP3    H134896   6.241   2.546  16.843  0.8226  0.5551 -0.8976
 3567TIP3    H234897   6.328   2.664  16.880  0.3371 -0.2178  3.2105
 3568TIP3   OH234898   0.026   2.000  18.023  0.0441 -0.0967 -1.0869
 3568TIP3    H134899   0.107   1.952  18.004 -0.1026 -1.4349  1.3300
 3568TIP3    H234900   0.026   2.011  18.118 -1.9635  1.0812 -1.1785
 3569TIP3   OH234901   2.109   4.955  19.723 -0.0341  0.1573  0.2314
 3569TIP3    H134902   2.193   4.996  19.745 -0.2814  0.1768  1.1625
 3569TIP3    H234903   2.123   4.918  19.635  0.5226  1.3040 -0.1806
 3570TIP3   OH234904   2.048   6.472  18.689  0.3929  0.0845  0.0932
 3570TIP3    H134905   2.121   6.428  18.732  0.7732  0.5737 -0.0409
 3570TIP3    H234906   1.990   6.499  18.760  1.4805  1.7270  0.3996
 3571TIP3   OH234907   4.062   1.962  17.515  0.0177  0.1488 -0.0636
 3571TIP3    H134908   4.044   1.894  17.450  2.7046  1.1189 -2.0348
 3571TIP3    H234909   4.100   1.915  17.589 -0.1894 -0.6990 -0.4858
 3572TIP3   OH234910   0.760   1.494  17.969 -0.0151 -0.4033  0.2766
 3572TIP3    H134911   0.720   1.556  18.030 -0.2440  0.1954 -0.4661
 3572TIP3    H234912   0.849   1.528  17.956 -0.0476 -0.3891  0.0864
 3573TIP3   OH234913   2.325   1.363  17.588  0.5828  0.4768  0.0130
 3573TIP3    H134914   2.418   1.342  17.576  0.5457  0.4061 -0.1457
 3573TIP3    H234915   2.289   1.285  17.631  0.0988 -0.4897 -2.0159
 3574TIP3   OH234916   2.286   4.217  18.693  0.0492 -0.2767 -0.1975
 3574TIP3    H134917   2.381   4.218  18.686  0.0612 -0.6354 -0.1402
 3574TIP3    H234918   2.265   4.287  18.755  0.0799  1.5495 -2.1640
 3575TIP3   OH234919   4.013   6.223  19.942  0.5840  0.3034  0.5902
 3575TIP3    H134920   4.026   6.309  19.982  0.2005  0.1177  1.1397
 3575TIP3    H234921   3.952   6.178  20.002 -0.0685  0.0351 -0.2494
 3576TIP3   OH234922   2.705   1.782  18.443  0.0294 -0.4592 -0.5572
 3576TIP3    H134923   2.624   1.792  18.394 -0.8991  0.2998  1.0336
 3576TIP3    H234924   2.677   1.746  18.528  1.2617  0.3829  0.2463
 3577TIP3   OH234925   6.239   2.766  18.466  0.2810  0.1942  0.3084
 3577TIP3    H134926   6.333   2.784  18.470  0.3654 -0.0564 -0.3030
 3577TIP3    H234927   6.197   2.849  18.487  0.6592  1.5477 -3.4514
 3578TIP3   OH234928   2.234   6.258  18.223  0.3260  0.5740  0.3303
 3578TIP3    H134929   2.143   6.287  18.213 -0.2956 -1.7720 -1.7204
 3578TIP3    H234930   2.285   6.322  18.174 -0.3659  1.1992  0.4040
 3579TIP3   OH234931   4.696   5.043  19.640  0.0963 -0.4224  0.4961
 3579TIP3    H134932   4.789   5.026  19.627  0.3748  1.6444 -0.7152
 3579TIP3    H234933   4.678   5.119  19.585 -2.8166 -2.0937 -1.1008
 3580TIP3   OH234934   5.781   3.947  17.025 -0.2626  0.1319  0.1766
 3580TIP3    H134935   5.853   4.008  17.038  0.6489 -1.0419  0.7875
 3580TIP3    H234936   5.797   3.876  17.087 -1.0514 -0.9473 -0.8020
 3581TIP3   OH234937   5.712   4.652  20.022  0.1410  0.2287 -0.3342
 3581TIP3    H134938   5.799   4.626  19.990  1.3808  1.3299  1.9358
 3581TIP3    H234939   5.703   4.608  20.106 -0.0437  2.6509  0.9999
 3582TIP3   OH234940   0.330   1.031  19.617 -0.1651  0.5709 -0.5254
 3582TIP3    H134941   0.398   1.091  19.648 -1.2805  1.8870 -0.5173
 3582TIP3    H234942   0.370   0.945  19.622  0.8810  1.1157  1.2246
 3583TIP3   OH234943   2.171   4.310  17.775 -1.0434 -0.0310  0.4631
 3583TIP3    H134944   2.233   4.346  17.711 -2.5360  1.6454 -0.1292
 3583TIP3    H234945   2.124   4.241  17.728 -0.9605  0.0221  0.3035
 3584TIP3   OH234946   0.454   0.376  16.177  0.3229  0.3020 -0.0238
 3584TIP3    H134947   0.548   0.394  16.172  0.1334  1.2274 -0.5817
 3584TIP3    H234948   0.416   0.457  16.211 -0.3335  0.1446 -0.3682
 3585TIP3   OH234949   2.850   5.667  17.559 -0.0841  0.3447  0.1899
 3585TIP3    H134950   2.846   5.572  17.565  0.6404  0.0389 -2.8424
 3585TIP3    H234951   2.943   5.688  17.551 -0.3665  1.0001 -2.0035
 3586TIP3   OH234952   4.015   4.763  19.750  0.8382  0.1719  0.4017
 3586TIP3    H134953   3.940   4.705  19.736  0.2957  1.0084 -0.3035
 3586TIP3    H234954   4.042   4.789  19.661  3.1727 -1.5614  0.5157
 3587TIP3   OH234955   3.551   0.159  17.390 -0.5457  1.4269  0.0341
 3587TIP3    H134956   3.557   0.134  17.298  0.4523  1.2021  0.1566
 3587TIP3    H234957   3.478   0.221  17.392 -1.9847 -0.1550 -0.5434
 3588TIP3   OH234958   4.231   2.807  19.636  0.1950  0.3270 -0.3216
 3588TIP3    H134959   4.245   2.800  19.542  1.3017  0.1343 -0.1536
 3588TIP3    H234960   4.210   2.718  19.664 -1.9584  0.6871 -0.6386
 3589TIP3   OH234961   6.600   3.498  16.814 -0.6257 -0.3866  0.1107
 3589TIP3    H134962   6.560   3.412  16.825 -2.1252  0.4103  1.3340
 3589TIP3    H234963   6.666   3.486  16.746 -0.8841 -2.4584  0.1712
 3590TIP3   OH234964   4.171   3.425  18.834  0.4980  0.2341  0.1232
 3590TIP3    H134965   4.109   3.356  18.810  1.3557 -0.9470  1.2118
 3590TIP3    H234966   4.136   3.462  18.915  1.1855 -0.4199  0.7282
 3591TIP3   OH234967   1.260   3.684  19.108  0.1061 -0.0559 -0.8366
 3591TIP3    H134968   1.172   3.703  19.142 -0.2007  0.4897 -1.8820
 3591TIP3    H234969   1.246   3.616  19.042  0.6488 -0.8696 -0.1280
 3592TIP3   OH234970   2.552   2.409  19.294 -0.0038  0.3489  0.1886
 3592TIP3    H134971   2.535   2.329  19.344 -3.5530  0.1507 -1.0503
 3592TIP3    H234972   2.502   2.477  19.340  0.8107  1.2934 -0.2755
 3593TIP3   OH234973   3.355   4.895  17.963  0.1793 -0.3436  0.2491
 3593TIP3    H134974   3.262   4.914  17.976  0.6199  1.2043  1.5037
 3593TIP3    H234975   3.390   4.973  17.919  0.8706 -0.9785 -0.3647
 3594TIP3   OH234976   2.838   0.559  20.283  0.0570 -0.1225 -0.5256
 3594TIP3    H134977   2.757   0.604  20.308  1.5394  1.8313  1.0914
 3594TIP3    H234978   2.868   0.605  20.205  0.1293 -0.2357 -0.5654
 3595TIP3   OH234979   5.286   0.793  18.437 -0.0587  0.6507  0.0790
 3595TIP3    H134980   5.247   0.850  18.372  3.6464  1.9186 -1.3100
 3595TIP3    H234981   5.259   0.830  18.521 -0.7687  2.1368 -0.7690
 3596TIP3   OH234982   3.443   0.269  19.315  0.0265  0.6963 -0.9591
 3596TIP3    H134983   3.405   0.232  19.395 -0.0722 -0.5333 -1.5684
 3596TIP3    H234984   3.374   0.324  19.279 -0.7127 -0.4796 -1.3596
 3597TIP3   OH234985   3.437   6.274  19.648  0.0187  0.3841  0.4183
 3597TIP3    H134986   3.373   6.325  19.698 -0.5673 -1.3152  1.5084
 3597TIP3    H234987   3.418   6.183  19.672  0.6548 -0.4001 -1.8555
 3598TIP3   OH234988   5.877   0.522  17.184  0.2525 -0.7527 -0.2268
 3598TIP3    H134989   5.842   0.455  17.126  0.1885 -1.6109  0.7776
 3598TIP3    H234990   5.971   0.521  17.166  0.1855 -0.7487 -0.5854
 3599TIP3   OH234991   6.540   0.795  18.285  0.1974 -0.1871 -0.2439
 3599TIP3    H134992   6.536   0.728  18.353  0.4496  2.6693  2.8346
 3599TIP3    H234993   6.464   0.851  18.301  0.7134  1.0414 -1.7996
 3600TIP3   OH234994   4.436   5.029  18.430  0.5342  0.3278  0.7897
 3600TIP3    H134995   4.387   5.082  18.367  0.1943  0.2308  0.9724
 3600TIP3    H234996   4.528   5.044  18.407  0.4543  1.2190  1.0119
 3601TIP3   OH234997   5.565   5.853  19.340  0.2861  0.2877  0.1878
 3601TIP3    H134998   5.620   5.806  19.277  0.5603  1.8608 -0.7935
 3601TIP3    H234999   5.621   5.863  19.417 -0.1933 -2.0141  0.9078
 3602TIP3   OH235000   0.984   5.374  19.391  0.2740  0.4106  0.4654
 3602TIP3    H135001   0.924   5.423  19.335 -0.4273 -0.9526 -0.0417
 3602TIP3    H235002   0.943   5.377  19.478  0.6830  1.4260  0.6296
 3603TIP3   OH235003   2.976   6.052  17.391 -0.1565 -0.4484 -0.2006
 3603TIP3    H135004   2.998   6.060  17.298 -1.5255 -0.6233 -0.5554
 3603TIP3    H235005   2.884   6.075  17.396 -0.0524 -0.2550  1.1587
 3604TIP3   OH235006   0.191   4.279  20.041 -0.3086 -0.1553  0.7063
 3604TIP3    H135007   0.213   4.208  19.980  0.2077  0.3588  0.2787
 3604TIP3    H235008   0.140   4.236  20.110  2.4207 -1.5153  2.0234
 3605TIP3   OH235009   3.216   1.055  18.094  0.5922 -0.4236 -0.3327
 3605TIP3    H135010   3.288   0.999  18.064  1.9155  0.1387  1.6222
 3605TIP3    H235011   3.225   1.135  18.042  1.0645 -0.5657 -0.4775
 3606TIP3   OH235012   0.863   3.166  18.162  0.3030  0.0491 -0.4716
 3606TIP3    H135013   0.921   3.237  18.190  0.4360  0.1384 -0.9697
 3606TIP3    H235014   0.896   3.089  18.208  1.0228  0.0309 -1.0053
 3607TIP3   OH235015   5.075   6.205  19.438  0.0387  0.3414 -0.5444
 3607TIP3    H135016   5.094   6.171  19.350  0.0276 -0.0811 -0.3881
 3607TIP3    H235017   5.143   6.269  19.454  0.2146  0.2064 -0.7449
 3608TIP3   OH235018   1.530   0.043  17.984  0.3021 -0.1195 -0.3520
 3608TIP3    H135019   1.601  -0.015  18.011  1.1860  1.5018  0.9980
 3608TIP3    H235020   1.574   0.122  17.954 -0.8796  1.6763  2.2934
 3609TIP3   OH235021   0.036   3.507  18.748  0.6976 -0.0246 -0.1330
 3609TIP3    H135022  -0.055   3.494  18.775  0.4605  1.6912  0.0634
 3609TIP3    H235023   0.054   3.437  18.686 -0.8219 -0.2954 -0.2945
 3610TIP3   OH235024   4.735   0.703  19.897  0.3860  0.1571  0.3403
 3610TIP3    H135025   4.745   0.689  19.803 -1.3802  0.4623  0.0609
 3610TIP3    H235026   4.824   0.720  19.929  0.8855  1.1814 -1.4709
 3611TIP3   OH235027   5.618   5.843  19.770 -0.3041 -0.4204 -0.2852
 3611TIP3    H135028   5.675   5.858  19.694  0.3814 -0.4859  0.2094
 3611TIP3    H235029   5.621   5.748  19.784  2.1868 -0.1430  1.7774
 3612TIP3   OH235030   2.369   5.868  18.599 -0.5758  0.0867 -0.5045
 3612TIP3    H135031   2.351   5.961  18.613  0.2635  0.1611  0.1910
 3612TIP3    H235032   2.283   5.828  18.592 -0.9763  0.7556  0.3886
 3613TIP3   OH235033   1.814   4.241  17.671  0.9058  0.4080 -0.2913
 3613TIP3    H135034   1.864   4.259  17.591  1.7056 -0.4623 -0.0036
 3613TIP3    H235035   1.731   4.204  17.639  0.8051  1.0149 -0.7438
 3614TIP3   OH235036   5.114   5.878  19.451  0.4892 -0.7049  0.3367
 3614TIP3    H135037   5.197   5.908  19.416  0.5220 -0.9156  0.2355
 3614TIP3    H235038   5.088   5.806  19.395 -0.3854  0.1582 -0.4167
 3615TIP3   OH235039   6.331   4.430  17.607 -0.3839 -0.6753 -0.5052
 3615TIP3    H135040   6.389   4.387  17.544  1.7374 -0.1549  0.9831
 3615TIP3    H235041   6.304   4.361  17.666  1.7064 -0.3708  0.9156
 3616TIP3   OH235042   3.800   0.840  19.610 -0.0817  0.2157 -0.4858
 3616TIP3    H135043   3.826   0.909  19.671  1.5602  1.6940 -2.7013
 3616TIP3    H235044   3.813   0.758  19.658  0.9155  1.3235  1.1982
 3617TIP3   OH235045   1.624   2.948  17.529 -0.2012  0.2232  0.3168
 3617TIP3    H135046   1.586   3.003  17.462 -1.1622  0.0103  0.6693
 3617TIP3    H235047   1.719   2.961  17.521 -0.3253  0.5066 -0.7966
 3618TIP3   OH235048   2.037   3.555  20.001  0.8975  0.7546 -0.6912
 3618TIP3    H135049   1.999   3.522  19.919  0.4082 -0.3231 -0.0525
 3618TIP3    H235050   2.096   3.486  20.029  0.0380  0.4942  0.5599
 3619TIP3   OH235051   0.142   3.870  18.892 -0.2208 -0.0089 -0.4579
 3619TIP3    H135052   0.081   3.929  18.935  0.0979  0.8964 -1.2191
 3619TIP3    H235053   0.225   3.917  18.892  0.1054 -0.5682 -0.8483
 3620TIP3   OH235054   4.815   4.505  16.978 -0.5092  0.3198  0.0714
 3620TIP3    H135055   4.905   4.531  16.992 -0.1969 -1.1417  1.0208
 3620TIP3    H235056   4.768   4.534  17.056 -0.9025  1.1966 -0.4782
 3621TIP3   OH235057   5.143   0.798  19.557 -0.0349 -0.0601 -0.0425
 3621TIP3    H135058   5.128   0.739  19.631  1.5362 -0.3462  0.0910
 3621TIP3    H235059   5.115   0.747  19.480  1.0919 -0.9310  0.0944
 3622TIP3   OH235060   5.097   5.028  17.395  0.4555  0.2051 -0.6827
 3622TIP3    H135061   5.187   5.027  17.361  0.5225 -0.5463 -0.4837
 3622TIP3    H235062   5.078   4.937  17.417  1.2774  0.8716  3.6413
 3623TIP3   OH235063   5.648   1.728  18.536 -0.2031 -0.2493 -0.3628
 3623TIP3    H135064   5.638   1.821  18.513 -0.6891 -0.6498 -1.8727
 3623TIP3    H235065   5.686   1.729  18.624 -0.5207  1.3775 -0.2163
 3624TIP3   OH235066   2.278   3.114  19.838  0.0914  0.3902 -0.3762
 3624TIP3    H135067   2.212   3.084  19.776  2.2444 -0.1679 -2.5489
 3624TIP3    H235068   2.314   3.034  19.876  0.1885  0.6367  0.0596
 3625TIP3   OH235069   1.297   6.587  17.088 -0.0806 -0.2301  0.4820
 3625TIP3    H135070   1.340   6.618  17.009  0.8703  1.3211  1.5576
 3625TIP3    H235071   1.236   6.657  17.112 -0.5994 -0.8251  0.9606
 3626TIP3   OH235072   3.984   2.786  18.014 -0.0136  0.6644 -0.0747
 3626TIP3    H135073   4.069   2.748  18.038  0.1394 -0.0022 -1.5443
 3626TIP3    H235074   3.992   2.879  18.034 -0.1032  0.1341  2.8623
 3627TIP3   OH235075   5.699   4.922  19.980 -0.5209  0.5802 -0.0909
 3627TIP3    H135076   5.740   4.968  19.907  0.7106  0.3256  0.4128
 3627TIP3    H235077   5.738   4.835  19.979 -0.4984  0.5685  0.8634
 3628TIP3   OH235078   0.114   1.665  19.288 -0.1252  0.3469 -0.3299
 3628TIP3    H135079   0.100   1.571  19.276 -0.4106  0.4632 -0.9471
 3628TIP3    H235080   0.028   1.704  19.277  0.1140  0.7498 -0.8701
 3629TIP3   OH235081   4.648   3.982  19.389 -0.2450 -0.4076  0.2160
 3629TIP3    H135082   4.577   4.045  19.376  0.7894  0.5746 -1.0010
 3629TIP3    H235083   4.697   4.017  19.464  0.8591  0.8238 -1.0151
 3630TIP3   OH235084   6.032   1.651  18.493  0.1659  0.5686  0.3684
 3630TIP3    H135085   6.033   1.586  18.423 -2.3430 -1.2922  1.8542
 3630TIP3    H235086   5.987   1.726  18.455  0.7171  0.4173 -0.6178
 3631TIP3   OH235087   3.317   0.053  18.122 -0.2926  0.1604 -0.3791
 3631TIP3    H135088   3.285   0.143  18.124 -0.6953  0.0389 -1.1265
 3631TIP3    H235089   3.388   0.051  18.187 -1.1587  0.6789  0.6063
 3632TIP3   OH235090   1.010   2.654  16.534  0.3935  0.1545  0.4920
 3632TIP3    H135091   0.978   2.723  16.592  0.2763  1.0469 -0.5927
 3632TIP3    H235092   1.073   2.699  16.477 -1.1315 -0.1547 -1.5420
 3633TIP3   OH235093   0.551   6.047  18.396  0.4698 -0.1167  0.2573
 3633TIP3    H135094   0.461   6.027  18.370  1.1253  0.6151 -3.0275
 3633TIP3    H235095   0.596   5.963  18.394  0.1908 -0.2732  0.4580
 3634TIP3   OH235096   0.771   3.261  17.041 -0.0474  0.1425 -0.0669
 3634TIP3    H135097   0.816   3.176  17.036  1.3961  0.8813 -0.4662
 3634TIP3    H235098   0.694   3.251  16.985  1.0057 -0.4073 -1.4853
 3635TIP3   OH235099   3.950   6.397  16.785 -0.0765  0.5705 -0.5287
 3635TIP3    H135100   3.920   6.397  16.876 -0.6230  1.8802 -0.6918
 3635TIP3    H235101   3.913   6.317  16.749  1.1949 -0.6360  0.7085
 3636TIP3   OH235102   5.150   3.500  18.824  0.8900 -0.4872 -0.2278
 3636TIP3    H135103   5.194   3.483  18.907  1.7963 -0.2666 -0.6548
 3636TIP3    H235104   5.148   3.596  18.817 -0.9862 -0.4212  0.4696
 3637TIP3   OH235105   1.267   6.633  19.490 -0.3823 -0.4408  1.1446
 3637TIP3    H135106   1.309   6.551  19.514  0.1873 -0.6153 -0.3377
 3637TIP3    H235107   1.340   6.690  19.465 -0.9570 -0.8272 -1.7258
 3638TIP3   OH235108   6.240   4.268  17.813 -0.0587 -0.1409 -0.4797
 3638TIP3    H135109   6.291   4.190  17.832  0.6528  0.5465  0.4901
 3638TIP3    H235110   6.150   4.244  17.835  0.2092 -0.5580  0.1718
 3639TIP3   OH235111   3.747   5.194  17.959 -0.5329 -0.3301 -0.0465
 3639TIP3    H135112   3.824   5.171  17.907 -1.3192 -0.8060 -1.0272
 3639TIP3    H235113   3.760   5.150  18.043  0.0763 -0.7282 -0.3457
 3640TIP3   OH235114   1.034   5.589  20.034  0.5460 -0.0680  0.2844
 3640TIP3    H135115   1.100   5.653  20.061 -1.3161  1.4784  1.3365
 3640TIP3    H235116   1.062   5.563  19.946  1.4863  2.0648 -0.1202
 3641TIP3   OH235117   5.947   1.994  18.915 -0.3872 -0.3699  0.8746
 3641TIP3    H135118   5.908   2.070  18.957 -0.0535  1.5803 -2.0695
 3641TIP3    H235119   5.872   1.943  18.883 -0.6837  1.1963 -1.1202
 3642TIP3   OH235120   4.500   3.850  18.663  0.1333  0.7832 -0.1882
 3642TIP3    H135121   4.544   3.797  18.729 -0.8629  2.9997  2.4391
 3642TIP3    H235122   4.411   3.861  18.696 -1.4626 -0.5799 -3.5422
 3643TIP3   OH235123   1.045   6.163  17.716 -0.2410 -0.2675 -0.1999
 3643TIP3    H135124   1.006   6.077  17.706  0.2888 -0.5625  0.2493
 3643TIP3    H235125   1.094   6.159  17.798 -0.4856  0.5648  0.0034
 3644TIP3   OH235126   5.057   5.822  19.772 -0.2740  0.0682 -0.0147
 3644TIP3    H135127   5.055   5.891  19.705  0.3183  0.8699  0.7733
 3644TIP3    H235128   5.069   5.741  19.723 -0.9523  0.5201 -0.9595
 3645TIP3   OH235129   0.356   6.147  19.639  0.1662 -0.0332 -0.0589
 3645TIP3    H135130   0.269   6.181  19.622 -0.9209 -2.4058  0.3175
 3645TIP3    H235131   0.353   6.056  19.610  2.5287 -0.1956 -0.0443
 3646TIP3   OH235132   0.383   6.680  20.105 -0.1179 -0.4758  0.0928
 3646TIP3    H135133   0.412   6.590  20.092  0.7925 -0.1753 -0.0456
 3646TIP3    H235134   0.416   6.704  20.191  1.1671  0.2802 -0.5801
 3647TIP3   OH235135   5.108   3.492  20.013 -0.1832  0.4696  0.0401
 3647TIP3    H135136   5.099   3.414  19.959 -0.3597  1.5643 -1.5981
 3647TIP3    H235137   5.019   3.511  20.043 -0.3768  0.7734 -0.6862
 3648TIP3   OH235138   6.458   6.538  16.817 -0.2637  0.3754 -0.6130
 3648TIP3    H135139   6.507   6.482  16.756  0.3963  0.3984 -0.1157
 3648TIP3    H235140   6.374   6.551  16.775 -0.6068 -1.3737 -0.5345
 3649TIP3   OH235141   5.009   4.668  18.477 -0.0990 -0.0524 -0.0816
 3649TIP3    H135142   4.953   4.705  18.545  0.9630  1.6635 -0.0919
 3649TIP3    H235143   4.981   4.711  18.396  0.5366  0.0557 -0.2504
 3650TIP3   OH235144   6.061   1.033  19.373 -0.2418  0.1373 -0.1077
 3650TIP3    H135145   6.106   0.992  19.300 -0.2192 -0.3119  0.1602
 3650TIP3    H235146   6.067   1.127  19.355  1.2501  0.1187  0.1859
 3651TIP3   OH235147   1.130   1.740  16.803 -0.1506 -0.0125 -0.5727
 3651TIP3    H135148   1.101   1.785  16.724  0.5961  0.3704 -0.6400
 3651TIP3    H235149   1.143   1.649  16.776  0.2299  0.1436 -0.9289
 3652TIP3   OH235150   4.442   5.537  17.688  0.5184 -0.1028  0.1625
 3652TIP3    H135151   4.385   5.466  17.717 -1.4526  1.0882 -0.5310
 3652TIP3    H235152   4.399   5.616  17.721  1.2657  0.9020 -1.1566
 3653TIP3   OH235153   5.660   2.363  17.576 -0.1524 -0.1538  0.1235
 3653TIP3    H135154   5.672   2.298  17.646  0.8819 -0.0940  0.0134
 3653TIP3    H235155   5.696   2.444  17.612 -0.5375  0.1268 -0.1153
 3654TIP3   OH235156   0.189   5.402  18.435  0.0247 -0.2123 -0.4811
 3654TIP3    H135157   0.119   5.411  18.371  0.8740  0.1091 -1.4001
 3654TIP3    H235158   0.270   5.405  18.382  0.6947 -1.8677  0.3908
 3655TIP3   OH235159   5.119   6.133  17.921  0.2839  0.4082  0.5150
 3655TIP3    H135160   5.214   6.142  17.911  0.2084 -0.5245 -1.5464
 3655TIP3    H235161   5.096   6.057  17.868 -2.0026  2.4262 -1.6932
 3656TIP3   OH235162   6.224   0.169  19.041 -0.4738 -0.4217 -0.2691
 3656TIP3    H135163   6.177   0.086  19.034 -0.2179 -0.5205 -0.8667
 3656TIP3    H235164   6.213   0.195  19.133  1.9302 -2.5987  0.7675
 3657TIP3   OH235165   4.726   2.951  17.747 -0.4641  0.0983 -0.0331
 3657TIP3    H135166   4.680   2.888  17.692 -1.0316 -0.6406  1.2363
 3657TIP3    H235167   4.805   2.972  17.698 -0.4010 -1.3873 -0.6374
 3658TIP3   OH235168   5.860   5.184  18.731 -0.0514  0.2122  0.0842
 3658TIP3    H135169   5.793   5.207  18.666  1.7782 -1.3989 -2.5359
 3658TIP3    H235170   5.935   5.239  18.708  0.3167  0.3741  1.5731
 3659TIP3   OH235171   1.794   3.784  17.308  0.4073  0.2187  0.2884
 3659TIP3    H135172   1.817   3.871  17.341  0.6776 -0.3232  1.5480
 3659TIP3    H235173   1.731   3.802  17.237  0.6761  1.4445  0.3352
 3660TIP3   OH235174   6.338   5.137  17.020 -0.4280  0.4096  0.1989
 3660TIP3    H135175   6.316   5.130  16.928  1.6416 -1.8055 -0.2409
 3660TIP3    H235176   6.380   5.054  17.041 -0.6114  0.9341  3.0988
 3661TIP3   OH235177   5.029   6.503  20.266 -0.2424 -0.2916 -0.0246
 3661TIP3    H135178   5.079   6.475  20.190 -2.8731 -0.6654 -1.7699
 3661TIP3    H235179   5.053   6.595  20.278  0.8868 -0.4852 -0.7202
 3662TIP3   OH235180   6.003   0.701  19.117 -0.4964 -0.2185  0.1306
 3662TIP3    H135181   5.974   0.792  19.122 -0.4019 -0.1378 -0.7662
 3662TIP3    H235182   6.079   0.698  19.175  0.1429  0.5368 -0.6444
 3663TIP3   OH235183   5.340   4.034  17.926 -0.4716 -0.6293  0.0765
 3663TIP3    H135184   5.333   4.063  18.017 -1.9284  0.7425 -0.4319
 3663TIP3    H235185   5.249   4.021  17.898 -0.1479  0.5104 -1.6352
 3664TIP3   OH235186   3.661   6.548  19.054 -0.2442 -0.4664  0.6429
 3664TIP3    H135187   3.684   6.455  19.046  2.2982  0.1200  0.4742
 3664TIP3    H235188   3.718   6.581  19.123 -0.6402  1.1474  0.2295
 3665TIP3   OH235189   2.864   0.746  19.288  0.2700  0.1669  0.8338
 3665TIP3    H135190   2.792   0.690  19.316 -0.2113  0.1050 -0.4650
 3665TIP3    H235191   2.892   0.710  19.204  1.3389  0.6316  0.9605
 3666TIP3   OH235192   5.377   2.630  19.970 -0.5962  0.0408 -0.3388
 3666TIP3    H135193   5.378   2.674  20.055  0.5288  2.4665 -1.5027
 3666TIP3    H235194   5.284   2.626  19.946 -0.7573  1.5579 -0.0528
 3667TIP3   OH235195   5.729   0.076  17.845 -0.4623  1.0370 -0.7053
 3667TIP3    H135196   5.697   0.020  17.774 -0.5292 -2.2764  1.6890
 3667TIP3    H235197   5.821   0.051  17.856 -0.7585  0.5870  1.0833
 3668TIP3   OH235198   0.347   1.908  19.717 -0.0748 -0.6544 -0.6339
 3668TIP3    H135199   0.373   1.962  19.642 -0.0619 -0.2399 -0.3342
 3668TIP3    H235200   0.403   1.939  19.788 -0.8783 -0.2495 -0.1634
 3669TIP3   OH235201   5.996   0.837  20.055  0.3529 -0.1726  0.0025
 3669TIP3    H135202   6.012   0.752  20.096  3.0812  0.7474  1.0524
 3669TIP3    H235203   6.070   0.891  20.082  0.0436  1.8009 -2.7281
 3670TIP3   OH235204   2.136   5.973  18.009  0.1085  0.2202  0.1587
 3670TIP3    H135205   2.162   6.065  18.019  1.0421  0.0028 -0.1107
 3670TIP3    H235206   2.219   5.925  18.013  0.0148 -0.3560 -2.6369
 3671TIP3   OH235207   0.535   5.612  19.456  0.1750 -0.1307  0.0694
 3671TIP3    H135208   0.500   5.648  19.374 -2.3966 -0.5763  0.8701
 3671TIP3    H235209   0.628   5.634  19.454 -0.4299  2.7931 -1.4361
 3672TIP3   OH235210   2.481   1.632  18.090  0.0207  0.1832 -0.6120
 3672TIP3    H135211   2.431   1.693  18.037 -0.2083 -0.9627 -1.7469
 3672TIP3    H235212   2.416   1.576  18.131  0.0517  2.0031  2.2480
 3673TIP3   OH235213   4.190   5.977  17.713 -0.1335  0.3698  0.6719
 3673TIP3    H135214   4.268   5.986  17.659 -0.2383  2.8671  0.8115
 3673TIP3    H235215   4.221   5.985  17.803 -0.6474  2.9216  0.6780
 3674TIP3   OH235216   3.798   4.971  17.382 -0.2508  0.1774 -0.4071
 3674TIP3    H135217   3.838   4.936  17.302  1.9221  0.0791  0.6581
 3674TIP3    H235218   3.715   5.009  17.352  1.8021  2.8695 -3.2826
 3675TIP3   OH235219   3.087   2.389  19.084  0.3532 -0.0616  0.2036
 3675TIP3    H135220   3.084   2.407  18.990 -0.2362 -1.2550 -0.0274
 3675TIP3    H235221   3.003   2.419  19.118 -1.5139 -3.8297 -0.5275
 3676TIP3   OH235222   3.949   4.483  19.063  0.4924 -0.2476  0.0203
 3676TIP3    H135223   3.984   4.570  19.042  0.8533 -0.7905 -1.7585
 3676TIP3    H235224   3.863   4.481  19.021  1.0569 -1.2178 -1.1383
 3677TIP3   OH235225   3.741   2.199  19.118  0.4598  0.5464  0.5581
 3677TIP3    H135226   3.814   2.157  19.164 -1.0157  0.0257  2.5435
 3677TIP3    H235227   3.763   2.190  19.025  2.2068 -0.8888  1.0560
 3678TIP3   OH235228   0.279   6.014  19.376  0.6640  0.2804 -0.0030
 3678TIP3    H135229   0.186   5.997  19.365  0.6107 -0.1199  0.9868
 3678TIP3    H235230   0.319   5.981  19.296  0.0241 -0.1435 -0.1537
 3679TIP3   OH235231   2.748   1.668  17.113 -0.1232 -0.7299  0.1592
 3679TIP3    H135232   2.750   1.589  17.059 -1.0371 -0.7754  0.1701
 3679TIP3    H235233   2.823   1.659  17.171  0.0851 -1.3389 -0.1913
 3680TIP3   OH235234   4.825   5.494  17.113  0.2248 -0.0334 -0.5577
 3680TIP3    H135235   4.756   5.554  17.143  0.1217  0.1204 -1.0877
 3680TIP3    H235236   4.878   5.478  17.191  0.4666  1.0296 -0.4814
 3681TIP3   OH235237   0.809   4.819  17.955 -0.3784  0.4789 -0.3735
 3681TIP3    H135238   0.792   4.846  18.045  0.5947  0.3861 -0.1498
 3681TIP3    H235239   0.782   4.895  17.902 -0.9275  0.5417 -0.0057
 3682TIP3   OH235240   6.433   5.385  18.487 -0.2387  0.0531  0.1225
 3682TIP3    H135241   6.511   5.419  18.443  0.2676  0.3825  1.2261
 3682TIP3    H235242   6.364   5.448  18.467 -0.1020  0.0350 -0.4319
 3683TIP3   OH235243   6.578   2.872  16.536  0.3066 -0.1459 -0.3513
 3683TIP3    H135244   6.488   2.892  16.511  0.4478  0.2215 -0.5586
 3683TIP3    H235245   6.618   2.957  16.554  0.0707 -0.4060  1.6162
 3684TIP3   OH235246   6.585   2.957  17.623 -0.0773 -0.7458  0.1279
 3684TIP3    H135247   6.660   2.906  17.593 -1.1905 -2.0876 -0.4483
 3684TIP3    H235248   6.611   2.988  17.710  1.2234 -0.9870 -0.1500
 3685TIP3   OH235249   2.771   6.362  18.669  0.0615  0.3591 -0.7486
 3685TIP3    H135250   2.820   6.444  18.670 -1.0190  1.0172  0.1401
 3685TIP3    H235251   2.739   6.354  18.579 -0.8446  1.5573 -0.5634
 3686TIP3   OH235252   5.604   5.221  19.351  0.4495 -0.4063 -0.1897
 3686TIP3    H135253   5.521   5.195  19.312 -0.2235  0.7909  0.3604
 3686TIP3    H235254   5.668   5.209  19.281 -0.1467 -1.4954 -0.5759
 3687TIP3   OH235255   2.111   0.091  17.724  0.1911  0.1121 -0.6577
 3687TIP3    H135256   2.044   0.085  17.792 -0.0741  2.3011 -0.6679
 3687TIP3    H235257   2.075   0.041  17.651 -0.7214 -0.0476 -0.1132
 3688TIP3   OH235258   3.034   6.075  18.376 -0.4543  0.0453  0.1070
 3688TIP3    H135259   3.128   6.067  18.393 -0.0113  1.8155 -1.1834
 3688TIP3    H235260   3.011   6.163  18.405 -1.1606  0.5401 -1.7798
 3689TIP3   OH235261   2.607   0.677  20.362  0.4961  0.4830 -0.2362
 3689TIP3    H135262   2.576   0.642  20.446 -1.4001  2.8265  0.1376
 3689TIP3    H235263   2.589   0.770  20.367  1.4621  0.8779 -2.8257
 3690TIP3   OH235264   5.325   5.497  19.014  0.5472  0.6254 -0.2241
 3690TIP3    H135265   5.291   5.494  18.924  0.4289 -0.4281 -0.1542
 3690TIP3    H235266   5.377   5.418  19.023  2.4163  1.8139 -0.0576
 3691TIP3   OH235267   2.889   5.151  17.701  1.0329 -0.1469 -0.3558
 3691TIP3    H135268   2.912   5.103  17.621 -1.2609 -0.3954 -0.9228
 3691TIP3    H235269   2.873   5.241  17.672 -0.3805 -0.3624 -0.3218
 3692TIP3   OH235270   0.054   1.644  18.726 -0.5473 -0.7204  0.0553
 3692TIP3    H135271   0.061   1.557  18.686  0.1305 -1.1542  1.0684
 3692TIP3    H235272   0.022   1.627  18.814  0.0565  0.0196  0.4280
 3693TIP3   OH235273   3.542   3.400  19.739  0.2991  0.2501  1.5634
 3693TIP3    H135274   3.625   3.434  19.771  0.1091  1.5631  0.7329
 3693TIP3    H235275   3.563   3.313  19.705  1.1250  0.1733  2.2330
 3694TIP3   OH235276   0.498   5.334  16.725  0.1773 -0.3542 -0.3393
 3694TIP3    H135277   0.589   5.306  16.714  0.0876 -1.4110  1.3084
 3694TIP3    H235278   0.450   5.253  16.742 -0.5967  0.4496  1.6080
 3695TIP3   OH235279   0.519   3.841  20.097 -0.0579  0.2217  0.3339
 3695TIP3    H135280   0.596   3.786  20.113 -0.8125 -0.8637  0.3643
 3695TIP3    H235281   0.449   3.798  20.146 -0.4613  1.8015  1.2067
 3696TIP3   OH235282   5.488   5.157  17.397 -0.0793 -0.8622 -0.2517
 3696TIP3    H135283   5.559   5.221  17.402 -1.6116  0.9236 -0.0830
 3696TIP3    H235284   5.413   5.208  17.367 -1.1427 -2.8303 -1.1116
 3697TIP3   OH235285   2.270   1.987  17.494 -0.0543 -0.0472  0.3578
 3697TIP3    H135286   2.315   1.925  17.436  0.4240 -0.5363  1.2363
 3697TIP3    H235287   2.204   2.028  17.438  0.4859 -0.4084 -0.5677
 3698TIP3   OH235288   5.127   0.762  19.001 -0.1732 -0.2562  0.1790
 3698TIP3    H135289   5.124   0.849  19.042  3.0722 -0.6861  1.5894
 3698TIP3    H235290   5.106   0.701  19.071  0.0612 -0.7564 -0.1808
 3699TIP3   OH235291   2.300   0.286  17.461  0.0649 -0.1721  0.0150
 3699TIP3    H135292   2.321   0.293  17.368  2.2444  1.9145  0.5689
 3699TIP3    H235293   2.210   0.252  17.463  0.3329 -1.2414 -2.7838
 3700TIP3   OH235294   0.897   5.033  18.820  0.1656 -0.1877  0.1377
 3700TIP3    H135295   0.981   4.995  18.844  1.2137  1.9048  0.0250
 3700TIP3    H235296   0.868   5.079  18.898 -0.0482  0.4799 -0.3264
 3701TIP3   OH235297   5.639   0.352  18.117 -0.3362 -0.2754  0.0944
 3701TIP3    H135298   5.691   0.389  18.046 -1.4269 -2.4017 -1.9085
 3701TIP3    H235299   5.677   0.266  18.134 -1.9473 -1.0502 -0.0448
 3702TIP3   OH235300   4.356   5.081  19.003 -0.2083  0.2270 -0.0951
 3702TIP3    H135301   4.353   5.048  18.913 -0.3191  3.0533 -1.2353
 3702TIP3    H235302   4.437   5.132  19.007 -0.0530 -0.1130  1.5327
 3703TIP3   OH235303   0.165   2.708  19.073  0.2300 -0.2326  0.4146
 3703TIP3    H135304   0.237   2.658  19.112 -0.2041 -0.8800  0.3973
 3703TIP3    H235305   0.194   2.799  19.078  1.8515 -0.6014 -1.1867
 3704TIP3   OH235306   6.280   2.037  20.404 -0.6082 -0.2998 -0.2362
 3704TIP3    H135307   6.374   2.055  20.404 -0.9064  1.3764  0.5637
 3704TIP3    H235308   6.267   1.982  20.326  0.8909  0.2156 -0.8926
 3705TIP3   OH235309   4.987   2.340  17.574  0.5283 -0.1915  0.2082
 3705TIP3    H135310   5.060   2.291  17.612  1.5264  1.5530  0.6675
 3705TIP3    H235311   4.910   2.313  17.624  1.4082  0.2476  1.8614
 3706TIP3   OH235312   6.533   1.392  18.249  0.2483 -0.6630 -0.2874
 3706TIP3    H135313   6.546   1.484  18.229 -0.3175 -0.3147  0.8595
 3706TIP3    H235314   6.439   1.378  18.236 -0.0800 -0.5048  1.6644
 3707TIP3   OH235315   2.589   5.787  19.691 -0.2562 -0.2208  0.5747
 3707TIP3    H135316   2.493   5.794  19.693 -0.2226  0.2051  0.8602
 3707TIP3    H235317   2.613   5.772  19.783 -0.1172 -1.3345  0.3732
 3708TIP3   OH235318   5.933   0.018  19.700  0.1024 -0.1527  0.0150
 3708TIP3    H135319   6.026  -0.003  19.697  0.1173  0.0615 -1.5334
 3708TIP3    H235320   5.892  -0.045  19.640 -0.7633 -0.2576  0.6888
 3709TIP3   OH235321   5.385   0.794  17.595  0.6550  0.2517  0.0243
 3709TIP3    H135322   5.351   0.825  17.679  0.9807 -0.2704  0.3591
 3709TIP3    H235323   5.480   0.807  17.602  0.5649  1.4820 -0.8116
 3710TIP3   OH235324   5.341   3.833  17.438  0.3138 -0.0583 -0.0648
 3710TIP3    H135325   5.298   3.906  17.483 -1.2803 -1.4876  0.8511
 3710TIP3    H235326   5.394   3.791  17.506 -0.0417 -0.6804 -0.1633
 3711TIP3   OH235327   0.022   0.760  19.217  0.4174 -0.4075 -0.1662
 3711TIP3    H135328  -0.060   0.726  19.182  0.2452 -0.7925  0.6056
 3711TIP3    H235329   0.012   0.855  19.211 -0.0092 -0.4551 -0.2617
 3712TIP3   OH235330   0.872   1.133  19.029 -0.7505  0.2966 -0.1202
 3712TIP3    H135331   0.910   1.049  19.052 -1.2712 -0.1870 -0.9737
 3712TIP3    H235332   0.918   1.197  19.085  0.0941 -0.4657  0.0703
 3713TIP3   OH235333   6.519   2.653  20.023 -0.2662  0.7301  0.1953
 3713TIP3    H135334   6.438   2.704  20.026  0.4475  1.8386  0.9279
 3713TIP3    H235335   6.538   2.644  19.929 -2.3429 -1.4029 -0.1370
 3714TIP3   OH235336   1.442   6.278  19.990 -0.0879 -0.1285  0.2353
 3714TIP3    H135337   1.503   6.340  19.950  0.1328  0.8103  1.9426
 3714TIP3    H235338   1.368   6.332  20.019 -0.4871 -0.8578  0.6107
 3715TIP3   OH235339   5.204   3.032  19.880 -0.6145 -0.2550 -0.4270
 3715TIP3    H135340   5.276   3.028  19.942 -1.9816 -1.6085  1.1763
 3715TIP3    H235341   5.192   2.942  19.851 -1.7926 -0.0951 -0.4905
 3716TIP3   OH235342   0.444   6.407  20.079 -0.3524  0.1771  0.3562
 3716TIP3    H135343   0.455   6.337  20.015 -0.5090  1.1657 -0.7916
 3716TIP3    H235344   0.403   6.364  20.154  1.1788 -1.3147  0.4115
 3717TIP3   OH235345   3.872   0.394  20.283 -0.5011  0.2935  0.2160
 3717TIP3    H135346   3.883   0.355  20.370  0.4231  0.8821  0.3669
 3717TIP3    H235347   3.920   0.336  20.224 -1.1607 -0.1274  0.0817
 3718TIP3   OH235348   4.532   2.619  17.965  0.5811  0.5762  0.0277
 3718TIP3    H135349   4.472   2.575  18.025  0.9151  1.2313  0.8681
 3718TIP3    H235350   4.588   2.672  18.022  0.0506  2.2654 -0.9612
 3719TIP3   OH235351   5.414   5.942  17.448 -0.5178  0.5193  0.2275
 3719TIP3    H135352   5.331   5.979  17.417 -0.0181  0.8894 -0.7156
 3719TIP3    H235353   5.443   5.886  17.376 -0.3942 -0.3339  0.9318
 3720TIP3   OH235354   3.492   3.727  17.406 -0.8057 -0.2614 -0.4712
 3720TIP3    H135355   3.576   3.680  17.408 -0.6271  0.0772  0.2440
 3720TIP3    H235356   3.426   3.659  17.413 -0.7234 -0.8161 -3.7017
 3721TIP3   OH235357   5.703   1.512  19.473 -0.3081  0.4211 -0.2020
 3721TIP3    H135358   5.696   1.585  19.412  2.3928 -0.0912 -1.2742
 3721TIP3    H235359   5.739   1.552  19.553 -2.6002  0.8602  0.6931
 3722TIP3   OH235360   0.482   2.543  20.174 -0.2462  0.1705  0.1780
 3722TIP3    H135361   0.510   2.467  20.224 -0.3583  0.0249  0.0207
 3722TIP3    H235362   0.563   2.590  20.154 -0.3108  0.9778  1.6722
 3723TIP3   OH235363   5.034   6.675  19.799  0.5879  0.6439  0.1250
 3723TIP3    H135364   5.105   6.611  19.793  0.3265  0.4595 -1.1183
 3723TIP3    H235365   5.067   6.739  19.862  1.3530 -0.0772  0.4860
 3724TIP3   OH235366   4.240   0.103  19.024  0.0293  0.4238 -0.2178
 3724TIP3    H135367   4.270   0.194  19.029 -1.2922  0.8756  0.1865
 3724TIP3    H235368   4.299   0.055  19.081  1.0501  0.9429 -0.8212
 3725TIP3   OH235369   2.748   5.607  17.973 -0.1793  0.1267 -0.1775
 3725TIP3    H135370   2.701   5.594  17.891 -0.9210 -2.2488  0.5291
 3725TIP3    H235371   2.789   5.523  17.991  0.6000  0.8094  1.5139
 3726TIP3   OH235372   2.685   3.339  20.103  0.2344  0.2048  0.0741
 3726TIP3    H135373   2.770   3.300  20.122  0.5829  1.0042  0.1739
 3726TIP3    H235374   2.678   3.335  20.007  1.8784  3.1401 -0.2600
 3727TIP3   OH235375   6.064   4.631  19.296 -0.2935 -0.3011  0.4033
 3727TIP3    H135376   6.015   4.713  19.305  1.2296  0.5783  1.0673
 3727TIP3    H235377   6.007   4.575  19.245 -1.3225  1.2355 -0.2151
 3728TIP3   OH235378   5.459   3.711  18.984 -0.7143 -0.1013  0.1365
 3728TIP3    H135379   5.541   3.663  18.988 -1.1583 -1.0263 -1.0586
 3728TIP3    H235380   5.478   3.795  19.025  0.6580 -0.5142  0.3999
 3729TIP3   OH235381   3.556   5.256  18.251 -0.2099  0.3450 -0.2575
 3729TIP3    H135382   3.568   5.179  18.194 -1.5067 -1.5803  1.8854
 3729TIP3    H235383   3.469   5.289  18.227 -0.7096 -0.3993  0.4727
 3730TIP3   OH235384   5.483   1.947  17.342  0.0055 -0.3460  0.5578
 3730TIP3    H135385   5.411   1.934  17.280  1.2918  1.9391 -1.6355
 3730TIP3    H235386   5.466   2.033  17.381  1.0193 -0.2127  0.7484
 3731TIP3   OH235387   0.567   6.156  18.780 -0.0540  0.2654 -0.2382
 3731TIP3    H135388   0.598   6.126  18.865  0.4811  1.7358  0.1196
 3731TIP3    H235389   0.518   6.082  18.744 -1.6960  0.1432  2.0574
 3732TIP3   OH235390   0.214   5.620  17.305 -0.0289 -0.1823 -0.1076
 3732TIP3    H135391   0.264   5.668  17.371 -0.5417  0.0005  0.1492
 3732TIP3    H235392   0.123   5.625  17.334 -0.2623 -0.0909 -0.8275
 3733TIP3   OH235393   4.906   2.950  19.251  0.4983 -0.1692  0.2562
 3733TIP3    H135394   4.976   2.956  19.187 -0.3235  0.9261 -0.5633
 3733TIP3    H235395   4.833   2.999  19.213  0.0473  0.6970  2.1093
 3734TIP3   OH235396   5.563   3.266  18.437  0.1192 -0.2214 -0.3012
 3734TIP3    H135397   5.548   3.357  18.465 -0.6652 -0.2221 -0.7031
 3734TIP3    H235398   5.480   3.239  18.398  0.8465 -0.5671 -1.6749
 3735TIP3   OH235399   6.072   1.052  17.667  0.0387  0.1138  0.8592
 3735TIP3    H135400   6.153   1.097  17.691  0.5071  0.3043 -0.9342
 3735TIP3    H235401   6.099   0.964  17.644  0.1811  0.7921 -1.9815
 3736TIP3   OH235402   5.630   1.386  17.160  0.5514  0.0211  0.3653
 3736TIP3    H135403   5.641   1.468  17.208  2.1900 -1.4077  2.6678
 3736TIP3    H235404   5.715   1.369  17.120  0.3111 -0.6712  0.1255
 3737TIP3   OH235405   0.286   1.044  19.335 -0.1375 -0.5440  0.3060
 3737TIP3    H135406   0.284   1.037  19.430 -0.8883 -0.8975  0.2750
 3737TIP3    H235407   0.282   1.139  19.319  0.0863 -0.4775  0.6224
 3738TIP3   OH235408   2.860   3.347  16.663  0.0704 -0.4854  0.3228
 3738TIP3    H135409   2.769   3.359  16.689 -0.1024  1.4078 -0.9758
 3738TIP3    H235410   2.911   3.390  16.732 -0.1958  1.2053 -0.5045
 3739TIP3   OH235411   3.520   2.212  19.498  0.0892  0.1208  1.1559
 3739TIP3    H135412   3.441   2.250  19.461 -0.4002 -0.4782  1.5749
 3739TIP3    H235413   3.506   2.118  19.494  1.4467 -0.0583 -0.2282
 3740TIP3   OH235414   3.696   6.561  18.060 -0.5292  0.1554  0.2265
 3740TIP3    H135415   3.725   6.630  18.120  1.4189 -0.4999  0.1197
 3740TIP3    H235416   3.608   6.587  18.034 -0.5632  1.6110  1.6409
 3741TIP3   OH235417   1.167   4.682  18.514  0.2897  0.5989  0.0354
 3741TIP3    H135418   1.165   4.588  18.496 -2.5912  0.7503 -0.8209
 3741TIP3    H235419   1.210   4.720  18.437  0.2272  0.1060 -0.2450
 3742TIP3   OH235420   3.670   1.199  18.336 -0.7071 -0.0538  0.0939
 3742TIP3    H135421   3.656   1.239  18.422  0.8153 -1.4550  1.0533
 3742TIP3    H235422   3.711   1.268  18.284 -0.8193  0.5395  0.7720
 3743TIP3   OH235423   3.884   4.721  17.166  0.2161  0.2599  0.4336
 3743TIP3    H135424   3.963   4.696  17.213 -0.0300  0.8511  1.1850
 3743TIP3    H235425   3.863   4.644  17.112  1.3897  0.1730  0.0875
 3744TIP3   OH235426   3.949   4.228  18.949  0.2161  0.4343 -0.5217
 3744TIP3    H135427   3.977   4.308  18.994  2.5792 -1.0658  0.9234
 3744TIP3    H235428   3.863   4.249  18.914 -1.3417  2.2100  3.6401
 3745TIP3   OH235429   2.737   3.750  18.947 -0.3905  0.1152 -0.3243
 3745TIP3    H135430   2.777   3.671  18.982  0.0248  0.2119 -0.5768
 3745TIP3    H235431   2.792   3.821  18.979 -0.6127  0.2830 -0.3148
 3746TIP3   OH235432   4.685   3.722  19.473  0.4746 -0.4759 -0.1248
 3746TIP3    H135433   4.662   3.808  19.440  0.3981 -1.1396 -1.9051
 3746TIP3    H235434   4.763   3.696  19.424  0.7777 -1.2352  0.7146
 3747TIP3   OH235435   0.262   6.121  20.068  0.1590 -0.1310 -0.1141
 3747TIP3    H135436   0.275   6.028  20.049  0.1830 -0.3337  0.8673
 3747TIP3    H235437   0.331   6.165  20.019 -1.0012 -0.4340 -2.1741
 3748TIP3   OH235438   3.364   0.551  17.645 -0.2271 -0.1748  0.5246
 3748TIP3    H135439   3.454   0.551  17.676 -0.0725  1.4351  0.1851
 3748TIP3    H235440   3.324   0.627  17.687 -1.8208 -1.5641  1.6677
 3749TIP3   OH235441   5.630   5.463  17.122 -0.4528  0.0909 -0.0106
 3749TIP3    H135442   5.564   5.399  17.095 -1.4216  1.4626 -0.9670
 3749TIP3    H235443   5.640   5.522  17.048  1.3723  0.3265  0.3681
 3750TIP3   OH235444   4.964   5.735  17.359 -0.1827 -0.1310  0.0410
 3750TIP3    H135445   5.038   5.680  17.335  0.0486  0.4110 -0.4856
 3750TIP3    H235446   4.897   5.715  17.293 -0.0876  0.2476 -0.1660
 3751TIP3   OH235447   5.543   5.360  17.838 -0.2797  0.1787  0.5546
 3751TIP3    H135448   5.500   5.425  17.782  0.1047  0.5094  0.6447
 3751TIP3    H235449   5.471   5.306  17.871 -0.6261  0.7033  0.6679
 3752TIP3   OH235450   0.018   0.723  17.774 -0.0593  0.0029  0.2076
 3752TIP3    H135451   0.092   0.756  17.826  0.3011  3.5463 -2.2179
 3752TIP3    H235452   0.056   0.651  17.722  1.1335  0.3647  0.5400
 3753TIP3   OH235453   3.364   2.652  19.169  0.2654  0.5155  0.4765
 3753TIP3    H135454   3.361   2.619  19.079  2.6164  0.9838  0.1669
 3753TIP3    H235455   3.387   2.744  19.160  0.5677  0.5553  1.5553
 3754TIP3   OH235456   1.692   5.377  18.903  0.3364 -0.3361 -0.1675
 3754TIP3    H135457   1.739   5.325  18.838  0.9293 -1.9112  1.4357
 3754TIP3    H235458   1.603   5.384  18.869  0.3501 -2.0693 -0.6544
 3755TIP3   OH235459   2.938   3.544  19.187  0.0177  0.0872  0.2861
 3755TIP3    H135460   2.857   3.552  19.237  0.2147  1.3193  0.4223
 3755TIP3    H235461   2.909   3.543  19.096 -0.1307  0.9449  0.3181
 3756TIP3   OH235462   1.582   6.421  16.564  0.1395  0.6876 -0.2528
 3756TIP3    H135463   1.629   6.352  16.610  0.6705  2.7487  2.5252
 3756TIP3    H235464   1.639   6.444  16.491  0.2744 -1.2558 -0.8182
 3757TIP3   OH235465   6.394   3.999  17.693 -0.0577 -0.5024 -0.2344
 3757TIP3    H135466   6.395   3.903  17.688  0.5007 -0.5195  0.1817
 3757TIP3    H235467   6.478   4.022  17.734 -0.0529  0.1783 -0.6098
 3758TIP3   OH235468   6.269   2.523  16.415 -0.6102  0.3123 -0.0087
 3758TIP3    H135469   6.235   2.440  16.450 -1.7289  0.2814 -1.0987
 3758TIP3    H235470   6.232   2.590  16.473  0.3705  0.0683  0.9317
 3759TIP3   OH235471   2.054   5.394  19.217 -0.1919 -0.0127 -0.5028
 3759TIP3    H135472   2.044   5.307  19.254  0.0816 -0.2480 -0.9652
 3759TIP3    H235473   2.030   5.384  19.125 -1.2533  0.6471 -0.3103
 3760TIP3   OH235474   1.654   6.498  19.417  0.5953  0.6085 -0.2757
 3760TIP3    H135475   1.605   6.471  19.339 -2.2546  1.6453  1.0496
 3760TIP3    H235476   1.614   6.449  19.489 -1.4345  4.4177  1.4620
 3761TIP3   OH235477   6.620   5.461  19.656 -0.0095  0.8770 -0.0742
 3761TIP3    H135478   6.660   5.466  19.569  0.9865  1.4051  0.3956
 3761TIP3    H235479   6.695   5.455  19.716 -0.6881  0.1395  0.7222
 3762TIP3   OH235480   3.536   2.044  19.238  0.1671  0.5165  0.1603
 3762TIP3    H135481   3.608   2.097  19.203  0.6674  0.7173  1.4636
 3762TIP3    H235482   3.578   1.983  19.298 -0.5778 -0.4292 -0.2431
 3763TIP3   OH235483   6.397   5.571  19.721  0.0730  0.0959 -0.3139
 3763TIP3    H135484   6.468   5.507  19.717  0.1792  0.0587  1.2985
 3763TIP3    H235485   6.437   5.649  19.759 -0.1635  0.9893 -1.8529
 3764TIP3   OH235486   0.081   3.176  18.084  0.3168  0.6779  0.3737
 3764TIP3    H135487   0.124   3.180  17.998 -0.6488  1.5037 -0.0948
 3764TIP3    H235488   0.137   3.228  18.141 -0.1462  1.9854 -0.2989
 3765TIP3   OH235489   3.372   4.280  19.535 -0.2869 -0.3523 -0.0262
 3765TIP3    H135490   3.400   4.317  19.451  0.3284  0.4837  0.5284
 3765TIP3    H235491   3.283   4.314  19.548  0.4415  1.3627  0.6946
 3766TIP3   OH235492   1.444   1.161  18.336  0.0152  0.0801  0.0978
 3766TIP3    H135493   1.374   1.125  18.282 -0.7178  1.7127 -0.0941
 3766TIP3    H235494   1.515   1.179  18.275 -0.0925  0.1314 -0.0143
 3767TIP3   OH235495   4.811   2.057  20.453  0.0453 -0.4046 -0.5410
 3767TIP3    H135496   4.854   2.103  20.381 -0.4984  0.4659 -0.3259
 3767TIP3    H235497   4.814   2.119  20.526 -0.1970 -0.9327 -0.0753
 3768TIP3   OH235498   4.698   0.034  17.550 -0.3641  0.5032  0.1591
 3768TIP3    H135499   4.791   0.045  17.534  0.0148 -1.4590  0.7371
 3768TIP3    H235500   4.669   0.118  17.587  1.4746  0.6906  1.2823
 3769TIP3   OH235501   5.231   2.468  18.528  0.0411 -0.0732  0.2483
 3769TIP3    H135502   5.304   2.522  18.559  1.0008 -1.0677 -0.1993
 3769TIP3    H235503   5.218   2.495  18.437 -1.7081  1.7144  0.9702
 3770TIP3   OH235504   2.120   6.631  18.259 -0.0478 -0.0256  0.3403
 3770TIP3    H135505   2.040   6.579  18.256 -0.0791  0.0634 -0.6633
 3770TIP3    H235506   2.189   6.568  18.277 -0.3123 -0.1265  1.0499
 3771TIP3   OH235507   2.749   5.836  16.579  0.4480 -0.0552  0.0747
 3771TIP3    H135508   2.781   5.924  16.600  2.2986 -0.0584 -2.2422
 3771TIP3    H235509   2.816   5.777  16.614  1.1054 -0.2813 -1.4481
 3772TIP3   OH235510   2.218   0.973  18.929 -0.2279 -0.8955 -0.3560
 3772TIP3    H135511   2.189   0.905  18.990  1.1094  0.4812  1.9935
 3772TIP3    H235512   2.289   1.017  18.975 -1.1998  2.2850 -1.5978
 3773TIP3   OH235513   3.939   2.707  18.817  0.4112 -0.3342  0.3249
 3773TIP3    H135514   4.024   2.725  18.857  1.8582 -2.4662 -1.5517
 3773TIP3    H235515   3.925   2.613  18.829 -1.5963 -0.0842  0.3650
 3774TIP3   OH235516   1.480   3.432  16.895  0.0830 -0.0162  0.0604
 3774TIP3    H135517   1.566   3.435  16.936  1.5131 -1.2641 -2.5828
 3774TIP3    H235518   1.478   3.508  16.837 -0.3127 -0.3147 -0.3319
 3775TIP3   OH235519   6.420   3.236  20.375 -0.0927 -0.3241  0.3303
 3775TIP3    H135520   6.396   3.163  20.431  2.4857 -2.4700 -1.1255
 3775TIP3    H235521   6.386   3.213  20.288  0.5913  0.2742 -0.1171
 3776TIP3   OH235522   2.245   6.483  17.404 -0.1543 -0.0173 -0.2572
 3776TIP3    H135523   2.219   6.403  17.359  0.6471 -0.2938 -0.2514
 3776TIP3    H235524   2.165   6.534  17.411 -0.2197  0.2700 -2.4618
 3777TIP3   OH235525   1.048   3.767  19.242 -0.2029 -0.0696  0.0532
 3777TIP3    H135526   0.983   3.719  19.294 -0.7995 -1.0071 -1.4736
 3777TIP3    H235527   1.091   3.825  19.304 -3.5405  1.7495  0.8983
 3778TIP3   OH235528   0.025   0.398  20.097  0.3334  0.4298  0.1156
 3778TIP3    H135529   0.050   0.488  20.119  1.1167  0.1624  0.3419
 3778TIP3    H235530   0.099   0.363  20.048  0.0146 -0.0834 -0.0147
 3779TIP3   OH235531   1.711   4.578  19.129 -0.6494 -0.1042  0.2170
 3779TIP3    H135532   1.720   4.601  19.222 -1.5298  0.5474  0.1563
 3779TIP3    H235533   1.732   4.659  19.083 -1.3665 -0.0907 -0.1031
 3780TIP3   OH235534   1.927   6.382  17.565 -0.8078  0.1745 -0.1855
 3780TIP3    H135535   1.864   6.339  17.507  0.0220  0.1513 -1.1074
 3780TIP3    H235536   1.962   6.310  17.618 -2.1381  0.3128  0.9327
 3781TIP3   OH235537   0.311   6.196  17.761  0.1715 -0.0114 -0.2755
 3781TIP3    H135538   0.322   6.153  17.676 -0.3722 -1.9939  0.5987
 3781TIP3    H235539   0.361   6.142  17.822  0.6346  1.4346  0.6918
 3782TIP3   OH235540   3.956   3.030  19.717  0.3276 -0.2745 -0.0207
 3782TIP3    H135541   3.993   2.979  19.789 -0.7533 -0.0532  0.7328
 3782TIP3    H235542   4.030   3.076  19.679  0.9386 -0.4600  0.9193
 3783TIP3   OH235543   5.032   0.720  17.469  0.0331 -0.7218 -0.3392
 3783TIP3    H135544   5.037   0.650  17.534 -0.7807 -1.0569 -0.6250
 3783TIP3    H235545   5.055   0.677  17.386  3.1787  0.1291 -0.0405
 3784TIP3   OH235546   4.625   1.083  19.530 -0.1411  0.2627 -0.0387
 3784TIP3    H135547   4.709   1.123  19.551  0.1349  0.0869 -0.8028
 3784TIP3    H235548   4.576   1.151  19.485 -0.1479  0.1458 -0.2087
 3785TIP3   OH235549   1.717   4.985  18.603 -0.2664 -0.0601  0.2074
 3785TIP3    H135550   1.683   4.899  18.577 -0.5535 -0.2459  1.1747
 3785TIP3    H235551   1.721   5.034  18.521  0.5368 -1.2049 -0.4631
 3786TIP3   OH235552   3.386   3.313  18.708 -0.1271  0.0993 -0.6543
 3786TIP3    H135553   3.370   3.258  18.784 -3.4468  1.8720  0.1427
 3786TIP3    H235554   3.362   3.259  18.633 -0.0971 -0.6033 -0.1621
 3787TIP3   OH235555   0.226   2.054  18.750 -0.3336 -0.1116 -0.3870
 3787TIP3    H135556   0.132   2.063  18.765 -0.2413 -0.8425  0.7385
 3787TIP3    H235557   0.265   2.123  18.804 -0.2346  0.7335 -1.4852
 3788TIP3   OH235558   0.232   1.624  17.949 -0.0797 -0.1781 -0.1934
 3788TIP3    H135559   0.180   1.592  18.023  0.3772 -0.9965 -0.2200
 3788TIP3    H235560   0.310   1.568  17.948  0.3574  0.4261 -0.7305
 3789TIP3   OH235561   1.782   0.743  17.017 -0.1260 -0.5156  0.4979
 3789TIP3    H135562   1.737   0.820  16.982  0.6283 -0.4026 -0.2519
 3789TIP3    H235563   1.759   0.672  16.957 -0.3966 -0.7577  0.8869
 3790TIP3   OH235564   1.090   2.443  16.707 -0.1896  0.0753 -0.1035
 3790TIP3    H135565   1.038   2.496  16.646  0.5661 -1.2300 -1.9902
 3790TIP3    H235566   1.176   2.438  16.665  0.8835  0.4958  1.9391
 3791TIP3   OH235567   1.393   0.457  20.078  0.2973  0.0544 -0.0001
 3791TIP3    H135568   1.472   0.456  20.132 -0.1114 -1.4025  0.6053
 3791TIP3    H235569   1.367   0.549  20.076  1.0379  0.3134  1.2347
 3792TIP3   OH235570   3.273   2.568  19.403 -0.2630  0.7008  0.3626
 3792TIP3    H135571   3.319   2.580  19.320 -1.8088 -0.8918 -0.7636
 3792TIP3    H235572   3.208   2.500  19.387 -1.0013  0.7260  2.7340
 3793TIP3   OH235573   3.762   1.310  19.107 -0.5241  0.1853  0.6395
 3793TIP3    H135574   3.784   1.397  19.075 -0.6169 -0.0556 -0.1116
 3793TIP3    H235575   3.669   1.316  19.131 -0.0697  0.7918  2.3876
 3794TIP3   OH235576   2.951   1.576  19.082  0.6436 -0.3372  0.0236
 3794TIP3    H135577   2.938   1.484  19.063 -1.9016 -0.3232  1.1413
 3794TIP3    H235578   3.007   1.609  19.012  0.3698 -2.4049 -1.2265
 3795TIP3   OH235579   6.272   5.591  19.293 -0.0884 -0.4947  0.2515
 3795TIP3    H135580   6.260   5.673  19.341 -1.2358 -0.5784  0.1422
 3795TIP3    H235581   6.239   5.523  19.351  1.6646 -1.0201  0.7019
 3796TIP3   OH235582   3.552   1.420  18.494 -0.8888 -0.1472 -0.3544
 3796TIP3    H135583   3.620   1.471  18.451 -1.1243 -0.3442 -0.9665
 3796TIP3    H235584   3.471   1.467  18.474 -0.8408  0.7557  1.3465
 3797TIP3   OH235585   3.331   2.924  18.276  0.1151 -0.1269  0.7619
 3797TIP3    H135586   3.279   2.864  18.224 -0.8423  1.8042 -0.6380
 3797TIP3    H235587   3.403   2.871  18.311  0.3235 -1.6997 -1.8356
 3798TIP3   OH235588   6.538   3.901  18.364  0.0496  0.0666  0.1564
 3798TIP3    H135589   6.596   3.834  18.399  0.1102 -0.4534 -0.8882
 3798TIP3    H235590   6.474   3.852  18.312 -0.7154  0.7168  0.4606
 3799TIP3   OH235591   1.264   3.995  18.200  0.4644 -0.0930  0.0890
 3799TIP3    H135592   1.276   3.932  18.271  1.6418 -0.2217 -0.2152
 3799TIP3    H235593   1.322   4.068  18.222  0.3443  0.1573 -0.4070
 3800TIP3   OH235594   3.742   0.842  17.438  0.2389  0.1113 -0.1881
 3800TIP3    H135595   3.776   0.834  17.349  1.6682 -0.0443  0.3434
 3800TIP3    H235596   3.729   0.752  17.467 -1.9684  0.1575 -0.8262
 3801TIP3   OH235597   5.168   2.938  18.561  0.2007 -0.0716  0.1953
 3801TIP3    H135598   5.084   2.984  18.558 -0.4547 -1.2186  0.3218
 3801TIP3    H235599   5.144   2.845  18.562  1.4949 -0.4264 -0.4243
 3802TIP3   OH235600   5.643   4.149  16.775  0.1134 -0.3212 -0.3062
 3802TIP3    H135601   5.710   4.181  16.835  1.0439 -2.5045 -0.0588
 3802TIP3    H235602   5.576   4.216  16.776  1.7020  1.3442  0.4602
 3803TIP3   OH235603   4.221   6.422  18.454 -0.4677 -0.0615  0.6159
 3803TIP3    H135604   4.195   6.351  18.513 -1.0924 -1.2134 -0.9633
 3803TIP3    H235605   4.146   6.433  18.395 -0.1132  1.4707  0.3980
 3804TIP3   OH235606   3.874   1.278  18.718 -0.2158  0.9868 -0.1547
 3804TIP3    H135607   3.800   1.239  18.671  0.3631  0.5288 -0.6892
 3804TIP3    H235608   3.951   1.254  18.667  0.8886 -2.3988  2.7121
 3805TIP3   OH235609   2.673   2.848  18.352  1.0155  0.3444 -0.0879
 3805TIP3    H135610   2.634   2.767  18.320  0.6898  0.4803 -0.0388
 3805TIP3    H235611   2.601   2.894  18.395  1.2021  0.6525 -0.1021
 3806TIP3   OH235612   6.203   1.641  19.641  0.0644 -0.6938  0.4371
 3806TIP3    H135613   6.126   1.634  19.585 -1.2711  0.0109  2.0782
 3806TIP3    H235614   6.264   1.696  19.593 -0.2006 -1.7291 -1.1436
 3807TIP3   OH235615   1.645   1.905  17.792  0.2554 -0.4641  0.4665
 3807TIP3    H135616   1.701   1.914  17.715  0.5661 -0.3595  0.6997
 3807TIP3    H235617   1.697   1.851  17.852  0.8867  1.1319  1.4132
 3808TIP3   OH235618   3.553   4.102  17.153 -0.4978 -0.0484 -0.5808
 3808TIP3    H135619   3.636   4.108  17.107  0.0100 -2.0305 -0.0106
 3808TIP3    H235620   3.576   4.112  17.246 -1.0442  0.3968 -0.4815
 3809TIP3   OH235621   0.084   0.579  16.755 -0.6744  0.2246  0.2789
 3809TIP3    H135622   0.101   0.656  16.810  0.0376  1.3667 -1.4699
 3809TIP3    H235623   0.016   0.608  16.694 -0.2378 -0.4680 -0.5460
 3810TIP3   OH235624   4.889   0.470  19.725  0.0358 -0.1965  0.2517
 3810TIP3    H135625   4.796   0.448  19.720 -0.1295  0.4208  0.4805
 3810TIP3    H235626   4.925   0.405  19.785 -0.6736  0.8430  1.8644
 3811TIP3   OH235627   0.888   3.427  18.067  0.3571 -0.4220  0.3581
 3811TIP3    H135628   0.858   3.504  18.117 -0.5846 -1.7946  2.0139
 3811TIP3    H235629   0.981   3.419  18.090  0.7282  0.7638 -0.6131
 3812TIP3   OH235630   2.168   2.091  19.329  0.5616 -0.3810 -0.1852
 3812TIP3    H135631   2.131   2.159  19.386 -0.6269 -1.9628  1.0264
 3812TIP3    H235632   2.259   2.082  19.359  0.5517  0.2403  0.0490
 3813TIP3   OH235633   1.603   5.089  19.742  0.3798 -0.2638  0.1272
 3813TIP3    H135634   1.521   5.093  19.790 -0.1878 -1.9631 -0.6162
 3813TIP3    H235635   1.663   5.044  19.801  0.0404 -1.2365 -0.2491
 3814TIP3   OH235636   1.424   6.037  19.025 -0.4969  0.4909 -0.4137
 3814TIP3    H135637   1.356   6.016  18.961 -0.7112  1.4720 -0.5261
 3814TIP3    H235638   1.425   5.961  19.084 -1.9460  0.5980 -0.1936
 3815TIP3   OH235639   4.581   3.079  19.224  0.2475 -0.0395 -0.4146
 3815TIP3    H135640   4.523   3.126  19.283  1.8328  0.3866  0.8641
 3815TIP3    H235641   4.540   2.994  19.212  0.5926 -0.7510  2.5982
 3816TIP3   OH235642   0.880   1.760  16.888  0.0324 -0.1580 -0.5709
 3816TIP3    H135643   0.876   1.849  16.854  0.8711  0.8530  1.7644
 3816TIP3    H235644   0.971   1.733  16.875 -0.3115 -0.8510 -1.6325
 3817TIP3   OH235645   5.815   0.512  19.518 -0.0801  0.2253 -0.4564
 3817TIP3    H135646   5.757   0.582  19.548 -0.8852 -0.5784 -0.1034
 3817TIP3    H235647   5.763   0.433  19.524  1.4750 -0.7545  1.2730
 3818TIP3   OH235648   0.149   5.761  17.797  0.1556  0.2253 -0.3842
 3818TIP3    H135649   0.086   5.832  17.791  0.5261  0.6019  0.0776
 3818TIP3    H235650   0.102   5.690  17.840 -0.0252  0.4209 -0.2581
 3819TIP3   OH235651   1.449   2.307  17.768 -0.0336 -0.0386 -0.1536
 3819TIP3    H135652   1.500   2.387  17.784  0.0648  0.3813 -2.2616
 3819TIP3    H235653   1.359   2.337  17.759 -0.5421 -0.6298  2.3179
 3820TIP3   OH235654   0.661   6.228  17.831  0.0520  0.4697  0.5940
 3820TIP3    H135655   0.746   6.253  17.794 -0.3704  0.6937 -0.2460
 3820TIP3    H235656   0.655   6.134  17.817  0.7042  0.2314  1.8046
 3821TIP3   OH235657   1.403   5.426  18.464 -0.1134  0.8895  0.2127
 3821TIP3    H135658   1.346   5.475  18.405 -0.4743  0.4393  0.1818
 3821TIP3    H235659   1.488   5.427  18.422 -0.1834  1.2439  0.0727
 3822TIP3   OH235660   5.987   2.308  17.519  0.1861 -0.9556 -0.4053
 3822TIP3    H135661   5.963   2.376  17.457  1.3587  0.3116  0.4869
 3822TIP3    H235662   5.986   2.351  17.605  0.8393 -2.0824  0.1961
 3823TIP3   OH235663   1.865   3.208  18.058  0.1167 -0.3652 -0.3969
 3823TIP3    H135664   1.878   3.124  18.102  1.8097  0.6215  1.1678
 3823TIP3    H235665   1.954   3.241  18.043 -0.4979  0.8727 -1.5308
 3824TIP3   OH235666   1.178   5.005  20.046 -0.4700 -0.2089  0.0501
 3824TIP3    H135667   1.262   4.971  20.075  0.6704  2.2208 -0.1417
 3824TIP3    H235668   1.130   5.024  20.127  0.7367  1.9141  0.3483
 3825TIP3   OH235669   0.919   2.484  17.980  0.1071 -0.2909  0.0618
 3825TIP3    H135670   1.009   2.460  17.960 -0.1664 -1.6222  0.3760
 3825TIP3    H235671   0.891   2.423  18.048 -1.2382 -0.3111 -0.4641
 3826TIP3   OH235672   5.426   3.906  16.745 -0.7399 -0.3133  0.3713
 3826TIP3    H135673   5.362   3.848  16.787 -1.5007 -0.3696 -0.8278
 3826TIP3    H235674   5.374   3.965  16.691  0.1687  0.2116  0.0460
 3827TIP3   OH235675   1.229   5.750  16.094  0.0508  0.2395 -0.0877
 3827TIP3    H135676   1.324   5.753  16.082  0.3826 -1.4775  1.5191
 3827TIP3    H235677   1.203   5.841  16.108  1.4420  0.7442 -0.6247
 3828TIP3   OH235678   4.009   0.590  17.652  0.2088 -0.3642 -0.1376
 3828TIP3    H135679   4.071   0.651  17.692 -0.3987 -0.7110  1.3869
 3828TIP3    H235680   3.995   0.523  17.719 -2.4272  0.1255 -0.1081
 3829TIP3   OH235681   0.325   3.773  19.529 -0.6928 -0.1109 -0.3318
 3829TIP3    H135682   0.325   3.866  19.553 -1.4640 -0.2158  0.0936
 3829TIP3    H235683   0.341   3.772  19.435 -0.1144  0.4245 -0.2437
 3830TIP3   OH235684   3.671   1.115  17.520 -0.1677  0.0648  0.2589
 3830TIP3    H135685   3.692   1.023  17.504 -0.1783 -0.0530  0.8793
 3830TIP3    H235686   3.593   1.131  17.467  0.8456  0.2195 -1.2457
 3831TIP3   OH235687   1.893   3.866  18.001 -0.1118  0.3283  0.4053
 3831TIP3    H135688   1.905   3.936  17.936  2.5658  0.0768  0.5013
 3831TIP3    H235689   1.906   3.785  17.951 -1.7832 -0.0836  0.5779
 3832TIP3   OH235690   5.889   6.253  18.188 -0.1245 -0.0583  0.3005
 3832TIP3    H135691   5.956   6.315  18.158  0.1154 -0.2849  0.3715
 3832TIP3    H235692   5.928   6.210  18.264 -0.6508  0.3580  0.8111
 3833TIP3   OH235693   2.275   0.924  17.934 -0.1880  0.1767  0.1350
 3833TIP3    H135694   2.305   0.855  17.875 -0.1677 -0.3860  0.7948
 3833TIP3    H235695   2.334   0.919  18.009 -0.4258  0.6605  0.3585
 3834TIP3   OH235696   5.745   2.996  17.692  0.1563  0.1215 -0.0438
 3834TIP3    H135697   5.834   3.016  17.664  0.5769  0.3324  1.3633
 3834TIP3    H235698   5.703   2.958  17.615  2.4113 -3.0040  0.0760
 3835TIP3   OH235699   2.146   4.148  19.954  0.5318  0.6943 -0.0581
 3835TIP3    H135700   2.159   4.202  20.033  0.9648 -0.1585  0.4631
 3835TIP3    H235701   2.051   4.137  19.949  0.5798 -0.9836  1.5710
 3836TIP3   OH235702   4.330   0.551  20.137  0.4191 -0.8561  0.7238
 3836TIP3    H135703   4.417   0.533  20.101  0.2218  0.2850 -0.3745
 3836TIP3    H235704   4.345   0.620  20.202  0.2814 -0.3263  0.1985
 3837TIP3   OH235705   4.354   5.937  20.009  0.2429 -0.1121 -0.2822
 3837TIP3    H135706   4.421   6.004  20.025  0.0662 -0.2387  1.1591
 3837TIP3    H235707   4.291   5.949  20.080 -0.6492 -0.7642 -0.9370
 3838TIP3   OH235708   5.328   2.959  19.281  0.4652 -0.3802 -0.0595
 3838TIP3    H135709   5.384   2.955  19.358  0.3302  0.5071  0.0954
 3838TIP3    H235710   5.290   3.047  19.283  0.0425 -0.5310 -0.8469
 3839TIP3   OH235711   6.110   2.018  20.010 -0.1859 -0.2003  0.4165
 3839TIP3    H135712   6.132   1.948  20.071  0.1100 -0.2290  0.2787
 3839TIP3    H235713   6.134   1.983  19.924  1.5463  0.6976  0.4995
 3840TIP3   OH235714   2.255   3.341  19.056  0.3828  0.1767 -0.0941
 3840TIP3    H135715   2.210   3.261  19.029 -0.9698  0.5434  0.9602
 3840TIP3    H235716   2.244   3.401  18.982 -1.5829  0.5139  0.4174
 3841TIP3   OH235717   2.120   2.191  17.319  0.4876  0.5705 -0.2748
 3841TIP3    H135718   2.110   2.100  17.291  0.5345  1.0395 -1.9108
 3841TIP3    H235719   2.209   2.215  17.293  1.3192  0.4679  2.1462
 3842TIP3   OH235720   1.971   0.538  18.426  0.1781  0.3003 -0.1239
 3842TIP3    H135721   1.926   0.581  18.499  0.1412 -0.1316  0.1106
 3842TIP3    H235722   2.015   0.463  18.466  0.4395  0.2580 -0.4905
 3843TIP3   OH235723   1.289   1.554  18.455 -0.0667 -0.2340 -0.0677
 3843TIP3    H135724   1.288   1.554  18.359  2.0526 -2.6563 -0.2088
 3843TIP3    H235725   1.233   1.627  18.479 -1.3623 -0.0273 -3.1331
 3844TIP3   OH235726   3.180   3.829  18.427 -0.0651 -0.5695 -0.2338
 3844TIP3    H135727   3.177   3.803  18.519  1.5612 -1.6112 -0.4251
 3844TIP3    H235728   3.217   3.753  18.382 -0.7031 -0.0302 -1.7357
 3845TIP3   OH235729   0.680   5.579  18.457 -0.5891 -0.2766 -0.6461
 3845TIP3    H135730   0.661   5.494  18.497  0.0546 -0.0521  0.1507
 3845TIP3    H235731   0.599   5.628  18.466  0.0626  0.4470  2.1473
 3846TIP3   OH235732   2.242   3.479  18.811 -0.5832 -0.2721  0.4818
 3846TIP3    H135733   2.246   3.534  18.733 -0.3749  0.2397  0.8490
 3846TIP3    H235734   2.310   3.514  18.868  1.0755 -2.2711 -0.1562
 3847TIP3   OH235735   3.324   3.188  18.204  0.1433 -0.2872  0.2861
 3847TIP3    H135736   3.285   3.103  18.222  1.2950 -0.9315 -0.1909
 3847TIP3    H235737   3.365   3.179  18.118  0.3022  0.7366  0.2371
 3848TIP3   OH235738   0.592   6.030  19.318  0.1534 -0.1847 -0.6606
 3848TIP3    H135739   0.549   5.973  19.381 -0.8896  0.0303 -1.1466
 3848TIP3    H235740   0.525   6.095  19.295  0.3348 -0.5504 -2.3539
 3849TIP3   OH235741   1.511   5.630  18.245  0.4453  0.2419 -0.0283
 3849TIP3    H135742   1.574   5.567  18.210 -0.5906 -0.1100 -1.3765
 3849TIP3    H235743   1.425   5.593  18.222 -0.2819  0.5820  1.9600
 3850TIP3   OH235744   1.933   2.282  17.490 -0.1847 -0.0275 -0.0659
 3850TIP3    H135745   1.909   2.371  17.464  0.2890  0.1786  0.1961
 3850TIP3    H235746   1.963   2.241  17.408  2.1581  0.9032  0.2755
 3851TIP3   OH235747   2.573   2.641  18.201 -0.3833 -0.0969 -0.4342
 3851TIP3    H135748   2.612   2.674  18.120  1.6283 -0.1489  0.4632
 3851TIP3    H235749   2.514   2.572  18.173 -0.4936  0.5661 -1.9251
 3852TIP3   OH235750   2.077   0.687  20.007  0.0180 -0.2071  0.1484
 3852TIP3    H135751   2.036   0.671  19.922  1.9722 -0.6917 -0.7677
 3852TIP3    H235752   2.005   0.687  20.069 -1.3652 -0.7806 -1.3848
 3853TIP3   OH235753   2.206   6.312  19.069 -0.5232 -0.1421 -0.0738
 3853TIP3    H135754   2.218   6.404  19.048  0.2400  0.3581  2.2551
 3853TIP3    H235755   2.295   6.279  19.081 -0.7911 -1.1821 -0.8029
 3854TIP3   OH235756   4.390   2.433  20.652 -0.2595 -0.0628  0.7622
 3854TIP3    H135757   4.305   2.390  20.637  0.0728 -0.6659  0.5908
 3854TIP3    H235758   4.454   2.362  20.649  0.2278  0.3524  1.1671
 3855TIP3   OH235759   2.969   0.191  19.054  0.2883 -0.4595  0.4771
 3855TIP3    H135760   2.958   0.168  18.962  0.3362  0.6651  0.1699
 3855TIP3    H235761   3.028   0.125  19.089  3.3588  1.1467 -1.2468
 3856TIP3   OH235762   3.918   4.424  18.185 -0.5751 -0.6756  0.2004
 3856TIP3    H135763   4.011   4.447  18.181 -0.6185 -0.4014  0.7220
 3856TIP3    H235764   3.914   4.353  18.249 -0.5776 -1.4735 -0.6697
 3857TIP3   OH235765   3.607   6.006  19.322 -0.0715 -0.8389 -0.0473
 3857TIP3    H135766   3.658   6.078  19.285 -1.9913  0.6629  0.0564
 3857TIP3    H235767   3.628   6.007  19.415  0.7146 -1.1259 -0.2155
 3858TIP3   OH235768   2.291   1.118  17.694 -0.0798 -0.3540 -0.2942
 3858TIP3    H135769   2.203   1.118  17.731  0.3831  0.8307  0.8874
 3858TIP3    H235770   2.346   1.080  17.763  0.5008 -0.0562 -0.5863
 3859TIP3   OH235771   1.530   5.410  19.975  0.5000 -0.2072  0.0347
 3859TIP3    H135772   1.436   5.419  19.984  0.7065  2.0065  0.5825
 3859TIP3    H235773   1.544   5.319  19.949 -1.6687 -0.9564  1.2934
 3860TIP3   OH235774   3.350   5.129  20.356 -0.0189 -0.3654 -0.2541
 3860TIP3    H135775   3.295   5.168  20.288 -0.1915 -1.1536 -0.5653
 3860TIP3    H235776   3.330   5.181  20.434  0.4123  0.7494 -0.8480
 3861TIP3   OH235777   1.029   4.769  19.304  0.3592 -0.2924  0.5761
 3861TIP3    H135778   0.959   4.743  19.363 -0.7155 -1.5147 -1.1414
 3861TIP3    H235779   1.043   4.693  19.248  1.5607  0.6953 -0.5327
 3862TIP3   OH235780   6.600   2.795  19.793 -0.3055 -0.0069 -0.2231
 3862TIP3    H135781   6.512   2.827  19.814 -0.2637 -1.0841  1.8123
 3862TIP3    H235782   6.587   2.734  19.721 -1.1343  0.3159 -0.3607
 3863TIP3   OH235783   4.275   3.839  17.689 -0.1748 -0.3302  0.1500
 3863TIP3    H135784   4.244   3.907  17.630  1.4210  1.0524  0.8257
 3863TIP3    H235785   4.367   3.860  17.704  0.7901 -3.4541 -0.6887
 3864TIP3   OH235786   4.353   0.075  17.620 -0.1529  0.6765  0.6266
 3864TIP3    H135787   4.295   0.033  17.557 -1.5687  2.1946  0.8621
 3864TIP3    H235788   4.377   0.004  17.681 -1.0723 -0.1598  0.0445
 3865TIP3   OH235789   4.944   6.036  17.390  0.3874 -0.2972  0.4741
 3865TIP3    H135790   4.993   5.956  17.371 -0.7337 -0.5467 -1.5904
 3865TIP3    H235791   4.853   6.008  17.400  0.3290  0.4069  2.4974
 3866TIP3   OH235792   0.582   5.817  17.109  0.2160  0.0776  0.0346
 3866TIP3    H135793   0.639   5.746  17.136 -0.3122  0.6352  2.8852
 3866TIP3    H235794   0.498   5.774  17.089 -0.2746 -0.1166  2.3022
 3867TIP3   OH235795   2.836   1.365  18.099  0.4834  0.4632 -0.0419
 3867TIP3    H135796   2.923   1.403  18.110  1.2220 -0.7560 -1.3555
 3867TIP3    H235797   2.823   1.359  18.004 -0.7582  0.0137  0.1289
 3868TIP3   OH235798   0.047   1.972  19.624  0.0647 -0.5013  0.1819
 3868TIP3    H135799   0.073   1.880  19.619  0.0093 -0.5171  0.1847
 3868TIP3    H235800   0.115   2.013  19.678  1.7056  0.0606 -2.1552
 3869TIP3   OH235801   5.651   4.745  18.381 -0.3178 -0.0037 -0.1163
 3869TIP3    H135802   5.663   4.796  18.461 -0.1669 -0.5728  0.2318
 3869TIP3    H235803   5.740   4.727  18.350 -0.3635 -0.2766 -0.0931
 3870TIP3   OH235804   1.127   2.610  20.259  0.2907 -0.2306  0.3403
 3870TIP3    H135805   1.196   2.578  20.317  0.9569 -0.3996 -0.5345
 3870TIP3    H235806   1.168   2.614  20.173 -0.1571  1.7299  0.1781
 3871TIP3   OH235807   0.838   3.620  19.077  0.1075  0.0112  0.4999
 3871TIP3    H135808   0.792   3.687  19.128 -2.0531 -0.2480 -0.9730
 3871TIP3    H235809   0.886   3.669  19.011  0.6355  0.1965  1.0052
 3872TIP3   OH235810   0.227   3.703  17.124  0.1150  0.9242  0.4779
 3872TIP3    H135811   0.302   3.721  17.181  1.9825 -0.6673 -1.3208
 3872TIP3    H235812   0.235   3.766  17.053  0.0882  0.4150  0.0113
 3873TIP3   OH235813   1.950   5.688  20.096  0.2168 -0.4679  0.1525
 3873TIP3    H135814   1.867   5.695  20.143  0.8529  0.4110  1.1763
 3873TIP3    H235815   2.000   5.623  20.145  0.4745 -0.3510  0.0458
 3874TIP3   OH235816   5.888   2.622  19.126  0.3142  0.5152 -0.2182
 3874TIP3    H135817   5.949   2.631  19.199  1.0224  0.3782 -0.7773
 3874TIP3    H235818   5.854   2.533  19.135  1.1588  0.1385 -0.6158
 3875TIP3   OH235819   4.638   2.343  18.674 -0.4621  0.4253  0.1834
 3875TIP3    H135820   4.700   2.299  18.732  1.5012  2.2335 -0.4232
 3875TIP3    H235821   4.587   2.272  18.635  1.0229 -1.1155  0.9170
 3876TIP3   OH235822   1.745   1.699  19.373  0.2142  0.2962 -0.2164
 3876TIP3    H135823   1.797   1.695  19.454  1.7569 -0.4742 -1.1809
 3876TIP3    H235824   1.758   1.613  19.333 -2.2394 -0.1091 -0.3048
 3877TIP3   OH235825   2.918   2.858  18.540  0.4660 -0.0195 -0.1673
 3877TIP3    H135826   2.967   2.804  18.477  0.5876  0.1632 -0.2271
 3877TIP3    H235827   2.827   2.829  18.530  0.4771  0.0470 -0.4661
 3878TIP3   OH235828   5.336   0.798  17.316 -0.4742 -0.5275  0.4292
 3878TIP3    H135829   5.384   0.733  17.265 -0.2524 -0.3739  0.4408
 3878TIP3    H235830   5.301   0.749  17.390  0.2240 -0.5149  0.7779
 3879TIP3   OH235831   4.815   3.293  17.677 -0.3774 -0.0614 -0.3852
 3879TIP3    H135832   4.850   3.207  17.700 -1.4911 -0.4200  0.0538
 3879TIP3    H235833   4.859   3.354  17.737 -2.0544 -0.7833  1.7091
 3880TIP3   OH235834   1.750   3.422  18.308 -0.2309  1.0616 -0.1702
 3880TIP3    H135835   1.699   3.394  18.231  1.5461 -1.0818 -0.6662
 3880TIP3    H235836   1.741   3.349  18.370  1.9839  0.7024 -0.1931
 3881TIP3   OH235837   3.915   2.667  18.324 -0.5721  0.1286  0.2087
 3881TIP3    H135838   3.898   2.750  18.369 -1.6309 -0.7463  1.4976
 3881TIP3    H235839   4.011   2.662  18.319 -0.4909  1.8122 -0.7032
 3882TIP3   OH235840   4.533   0.261  17.552 -0.2831  0.5898  0.1284
 3882TIP3    H135841   4.469   0.192  17.569  1.0798 -1.0524 -1.0726
 3882TIP3    H235842   4.545   0.304  17.637 -0.8796 -0.9089  1.0029
 3883TIP3   OH235843   4.077   1.096  19.551 -0.1403 -0.1606 -0.0894
 3883TIP3    H135844   4.101   1.140  19.469 -0.8080  1.5729  0.6013
 3883TIP3    H235845   4.158   1.055  19.581  0.5651  0.7392 -0.7071
 3884TIP3   OH235846   5.101   6.353  18.085 -0.5973  0.1631  0.2714
 3884TIP3    H135847   5.007   6.360  18.070 -0.8247 -1.3788  0.8001
 3884TIP3    H235848   5.126   6.270  18.044  0.3120  0.0106  1.0783
 3885TIP3   OH235849   0.892   0.618  19.960  0.4994 -0.3597 -0.8674
 3885TIP3    H135850   0.899   0.710  19.935  1.1099 -0.0711  0.3184
 3885TIP3    H235851   0.981   0.584  19.952  0.3927 -0.6843 -0.6837
 3886TIP3   OH235852   0.976   2.027  17.434  0.5451 -0.3492  0.6152
 3886TIP3    H135853   1.060   1.982  17.425  0.9399  0.6695 -1.3378
 3886TIP3    H235854   0.916   1.960  17.465  1.6214 -1.6393  0.0234
 3887TIP3   OH235855   3.629   3.943  19.654 -0.2094 -0.5012 -0.8527
 3887TIP3    H135856   3.601   3.855  19.678 -0.0933 -0.5354 -0.8407
 3887TIP3    H235857   3.555   3.999  19.675  0.1134 -0.4387  0.1833
 3888TIP3   OH235858   5.005   3.956  20.126 -0.6056  0.9787 -0.2137
 3888TIP3    H135859   5.057   4.016  20.180 -0.5895  0.3038  0.5328
 3888TIP3    H235860   5.002   3.875  20.176 -1.4265  0.6459 -0.7786
 3889TIP3   OH235861   5.983   1.069  17.356  0.1441  0.4294  0.1850
 3889TIP3    H135862   5.902   1.056  17.405 -0.3036 -0.2173 -0.7151
 3889TIP3    H235863   6.026   0.984  17.356  0.5539  0.6295  0.1646
 3890TIP3   OH235864   5.812   1.397  17.593 -0.2851  0.2060  0.2688
 3890TIP3    H135865   5.792   1.490  17.599 -1.4950 -0.0188  0.0404
 3890TIP3    H235866   5.742   1.361  17.538  0.1101 -0.8557  0.4343
 3891TIP3   OH235867   5.534   3.672  16.901 -0.3547  0.0297  0.3994
 3891TIP3    H135868   5.502   3.606  16.839  0.6546 -0.1758  0.0853
 3891TIP3    H235869   5.590   3.623  16.961 -3.4721 -0.3556  3.2777
 3892TIP3   OH235870   1.324   1.691  19.239 -0.2980 -0.3954  0.4440
 3892TIP3    H135871   1.357   1.780  19.253  0.8085 -0.4062 -1.6834
 3892TIP3    H235872   1.242   1.703  19.191 -0.5292 -0.5170  0.8044
 3893TIP3   OH235873   2.288   1.657  18.737  0.1511  0.2694  0.0146
 3893TIP3    H135874   2.299   1.632  18.829  0.8350  2.8836  0.7452
 3893TIP3    H235875   2.193   1.662  18.725  0.0578  0.0375  0.6180
 3894TIP3   OH235876   6.502   1.145  16.622 -0.4818 -0.1710 -0.0203
 3894TIP3    H135877   6.408   1.129  16.614 -0.4024 -0.7217  0.1081
 3894TIP3    H235878   6.537   1.126  16.534 -0.9201  3.2944 -1.0843
 3895TIP3   OH235879   4.199   1.701  20.185  0.1487 -0.0313  0.9300
 3895TIP3    H135880   4.116   1.672  20.149  1.4243 -0.7805 -1.6561
 3895TIP3    H235881   4.243   1.620  20.212  0.1113  0.3537  2.2403
 3896TIP3   OH235882   2.624   3.932  18.771 -0.2759 -0.3371 -0.3689
 3896TIP3    H135883   2.659   3.864  18.828 -1.5697 -0.1404  0.7126
 3896TIP3    H235884   2.601   3.885  18.690  1.0465 -0.7167 -0.5538
 3897TIP3   OH235885   2.055   1.049  20.195 -0.0961 -0.9825 -0.9620
 3897TIP3    H135886   2.055   1.119  20.260 -0.2583 -0.4617 -1.5050
 3897TIP3    H235887   2.091   0.973  20.240 -1.9109 -1.1642  0.2883
 3898TIP3   OH235888   2.288   3.727  18.278 -0.4349 -0.2643 -0.2955
 3898TIP3    H135889   2.257   3.641  18.307 -2.5375  0.6382  0.3278
 3898TIP3    H235890   2.283   3.782  18.356  1.4700  0.3196 -0.5414
 3899TIP3   OH235891   3.912   2.836  19.534 -0.2648  0.2892  0.1870
 3899TIP3    H135892   3.850   2.774  19.572  0.5802 -0.3922  0.4537
 3899TIP3    H235893   3.947   2.884  19.609 -1.3261  1.5106 -0.0555
 3900TIP3   OH235894   2.975   1.615  19.541  0.3894 -0.2373 -0.0360
 3900TIP3    H135895   2.905   1.564  19.500 -0.6243  1.2848 -0.2877
 3900TIP3    H235896   3.013   1.556  19.606 -1.2804 -1.0494  0.2621
 3901TIP3   OH235897   0.311   4.225  17.978  0.0707 -0.1231  0.0718
 3901TIP3    H135898   0.274   4.137  17.972 -0.7638  0.2489 -0.4676
 3901TIP3    H235899   0.330   4.238  18.071 -1.3296 -0.2732  0.4013
 3902TIP3   OH235900   5.361   2.049  18.525 -0.4159  0.3213  0.2338
 3902TIP3    H135901   5.405   2.052  18.610  0.6223 -1.5219 -0.1879
 3902TIP3    H235902   5.420   1.998  18.470 -2.1723 -0.5127 -0.9475
 3903TIP3   OH235903   6.605   1.921  18.657  0.2204  0.3060  0.2759
 3903TIP3    H135904   6.656   1.844  18.635 -2.1946 -1.3052 -0.0264
 3903TIP3    H235905   6.598   1.970  18.575 -1.6977 -1.3750 -0.6672
 3904TIP3   OH235906   2.269   4.309  19.317  0.4468 -1.2504 -0.3027
 3904TIP3    H135907   2.365   4.303  19.310  0.9883 -0.5697  3.9626
 3904TIP3    H235908   2.240   4.218  19.329  1.2576 -1.2225  2.8589
 3905TIP3   OH235909   3.827   4.161  18.629 -0.0370 -0.2095  0.4094
 3905TIP3    H135910   3.912   4.162  18.585  0.4506 -0.5921  1.3097
 3905TIP3    H235911   3.820   4.249  18.667 -1.5723  1.0174 -2.4070
 3906TIP3   OH235912   5.024   4.674  17.298 -0.4271  0.1800 -0.7746
 3906TIP3    H135913   5.052   4.671  17.389  0.3935  0.0237 -1.0236
 3906TIP3    H235914   4.944   4.726  17.299  0.0921  0.9844 -0.0862
 3907TIP3   OH235915   2.950   3.567  19.656 -0.2669 -0.0858  0.3401
 3907TIP3    H135916   2.872   3.617  19.631 -0.7183 -0.6849  0.5396
 3907TIP3    H235917   2.981   3.529  19.573  1.1640  1.9892 -0.1626
 3908TIP3   OH235918   4.055   2.519  17.868  0.4633  0.0108 -0.2347
 3908TIP3    H135919   4.139   2.492  17.832  0.2982  0.6131 -1.1039
 3908TIP3    H235920   4.063   2.614  17.879  0.0571  0.0089  0.1120
 3909TIP3   OH235921   2.309   5.243  19.006 -0.3869  0.0623 -0.7438
 3909TIP3    H135922   2.378   5.271  19.066 -0.1738 -0.1488 -0.8867
 3909TIP3    H235923   2.355   5.193  18.938 -0.7743 -0.7735 -0.4039
 3910TIP3   OH235924   2.474   1.507  18.620  0.5991  0.9307  0.0409
 3910TIP3    H135925   2.399   1.564  18.635  0.6076  0.7052  0.9961
 3910TIP3    H235926   2.457   1.430  18.674  1.0367  0.4420 -0.5098
 3911TIP3   OH235927   1.952   5.238  18.519 -0.7250 -0.2319  0.0972
 3911TIP3    H135928   1.972   5.318  18.470 -1.2296 -0.3111 -0.2360
 3911TIP3    H235929   1.952   5.169  18.453  0.1936 -0.5930  0.4552
 3912TIP3   OH235930   4.133   2.554  19.732 -0.4482 -0.3661 -0.7463
 3912TIP3    H135931   4.087   2.570  19.815 -0.4487 -1.4423 -0.5292
 3912TIP3    H235932   4.063   2.536  19.669 -0.3717 -1.0981 -0.6243
 3913TIP3   OH235933   4.637   5.528  18.994 -0.5896 -0.4193 -0.1243
 3913TIP3    H135934   4.564   5.500  19.050  0.9769 -0.4429  2.0308
 3913TIP3    H235935   4.595   5.572  18.920 -2.7752  0.2464  1.4113
 3914TIP3   OH235936   2.271   4.040  19.265 -0.6147  0.2977  0.6063
 3914TIP3    H135937   2.280   3.980  19.191 -1.4160  0.7708  0.1176
 3914TIP3    H235938   2.239   3.985  19.336  1.3939 -0.4423  1.0319
 3915TIP3   OH235939   1.928   1.859  17.878 -0.8233  0.0228  0.1614
 3915TIP3    H135940   1.981   1.908  17.814  0.0444 -0.7365  0.2817
 3915TIP3    H235941   1.943   1.767  17.856 -0.4003 -0.2592  1.5392
 3916TIP3   OH235942   3.530   1.792  18.445 -0.3788  0.3088  0.0355
 3916TIP3    H135943   3.490   1.819  18.363  0.1038  2.7039  0.5091
 3916TIP3    H235944   3.463   1.740  18.489 -1.6264  1.1895 -0.7602
 3917TIP3   OH235945   0.881   0.211  17.807  0.0945 -0.5645  0.4665
 3917TIP3    H135946   0.876   0.304  17.833  0.2072 -0.2488 -0.6027
 3917TIP3    H235947   0.950   0.175  17.863 -1.2476 -0.4928  2.2603
 3918TIP3   OH235948   5.313   4.483  18.259  0.2420  0.0776 -0.1515
 3918TIP3    H135949   5.365   4.428  18.318  2.7762 -0.6486 -2.8123
 3918TIP3    H235950   5.237   4.430  18.237 -0.0282 -0.1862  1.2846
 3919TIP3   OH235951   6.486   5.679  18.633  0.1292  0.7873 -0.0689
 3919TIP3    H135952   6.533   5.753  18.595 -1.9443  2.8609  1.1046
 3919TIP3    H235953   6.428   5.649  18.562  1.8117 -0.6130 -0.9387
 3920TIP3   OH235954   6.210   1.106  17.952 -0.4958 -0.4952  0.4402
 3920TIP3    H135955   6.203   1.200  17.937 -1.2106 -0.0798  2.8638
 3920TIP3    H235956   6.303   1.087  17.942 -0.7503 -0.3960 -3.9266
 3921TIP3   OH235957   5.250   1.552  19.119 -0.0629  0.1007  0.0730
 3921TIP3    H135958   5.213   1.599  19.045 -0.5901  0.3218  0.4700
 3921TIP3    H235959   5.339   1.586  19.128  0.0061  0.0614 -0.4613
 3922TIP3   OH235960   6.518   5.401  18.781  0.1815  0.4810 -0.2979
 3922TIP3    H135961   6.515   5.485  18.735  1.2142  1.0828  0.6900
 3922TIP3    H235962   6.572   5.418  18.859 -1.4865 -0.4907  1.1500
 3923TIP3   OH235963   2.469   2.181  18.059  0.2195 -0.0212  0.4584
 3923TIP3    H135964   2.475   2.142  17.971  0.5746  1.3713 -0.1630
 3923TIP3    H235965   2.546   2.149  18.105 -0.2478 -1.2027  0.4797
 3924TIP3   OH235966   2.847   0.283  19.799  0.3015 -0.0541  0.0657
 3924TIP3    H135967   2.783   0.213  19.788  0.3665 -0.3322  1.2511
 3924TIP3    H235968   2.887   0.266  19.885 -1.1386  2.5953  1.3900
 3925TIP3   OH235969   4.474   2.138  18.864  0.0934  0.2311 -0.6771
 3925TIP3    H135970   4.417   2.182  18.802  0.3513 -0.0747 -1.1326
 3925TIP3    H235971   4.503   2.208  18.924 -0.2346  0.5029 -0.8360
 3926TIP3   OH235972   2.935   2.749  17.734  0.0208 -0.1612  0.0661
 3926TIP3    H135973   2.997   2.754  17.661 -0.6637 -0.0202 -0.5104
 3926TIP3    H235974   2.874   2.680  17.709 -0.3520  0.0452  0.4072
 3927TIP3   OH235975   2.712   1.592  17.458 -0.3968 -0.4048  0.4322
 3927TIP3    H135976   2.805   1.590  17.479  0.0921 -3.6311 -1.2887
 3927TIP3    H235977   2.700   1.674  17.410  1.5085  0.2022  0.9164
 3928TIP3   OH235978   6.342   5.427  17.249 -0.6349  0.0338  0.4218
 3928TIP3    H135979   6.345   5.420  17.154  0.6841 -1.8719  0.5547
 3928TIP3    H235980   6.434   5.422  17.276 -0.9153  1.3810  1.7834
 3929TIP3   OH235981   5.758   1.457  17.863 -0.2264 -0.3959  0.6796
 3929TIP3    H135982   5.799   1.410  17.791 -2.0896 -0.0591 -0.7026
 3929TIP3    H235983   5.701   1.392  17.905  0.0742 -0.3255  1.2048
 3930TIP3   OH235984   0.723   5.687  17.654  0.2345 -0.3170 -0.1116
 3930TIP3    H135985   0.788   5.658  17.718  0.8017  0.1196 -0.4821
 3930TIP3    H235986   0.742   5.635  17.576  0.5878  0.3028 -0.4425
 3931TIP3   OH235987   3.278   2.856  17.560  0.0269 -0.0590  0.2409
 3931TIP3    H135988   3.292   2.763  17.539 -1.1590  0.1856 -1.8447
 3931TIP3    H235989   3.356   2.900  17.528 -1.2595  0.1555 -2.9329
 3932TIP3   OH235990   3.018   5.522  18.112 -0.3658 -1.0421  0.0068
 3932TIP3    H135991   3.082   5.457  18.140 -0.1475 -0.3233  1.2514
 3932TIP3    H235992   2.945   5.511  18.172 -0.4954 -0.4133 -0.0306
 3933TIP3   OH235993   1.079   1.329  17.869  0.2871 -0.2311  0.2413
 3933TIP3    H135994   1.122   1.249  17.839 -0.4389 -0.5861  0.1318
 3933TIP3    H235995   0.985   1.309  17.866  0.1559 -0.6875  3.8002
 3934TIP3   OH235996   3.326   0.229  19.584  0.3667  0.1935  0.2859
 3934TIP3    H135997   3.242   0.274  19.592 -0.5765 -1.5562  0.7841
 3934TIP3    H235998   3.347   0.202  19.673 -0.1693 -2.1440 -0.2381
 3935TIP3   OH235999   6.688   3.458  19.711 -0.2356  0.1950  0.5006
 3935TIP3    H136000   6.668   3.546  19.679 -0.7938 -0.5671 -1.3446
 3935TIP3    H236001   6.736   3.473  19.793  1.0510  2.2199 -0.5527
 3936TIP3   OH236002   0.111   3.968  19.385  0.0993 -0.0796  0.4414
 3936TIP3    H136003   0.180   4.007  19.332 -0.1562  0.2767  0.3671
 3936TIP3    H236004   0.155   3.942  19.466  0.7874 -1.8936 -0.4665
 3937TIP3   OH236005   6.401   2.980  19.716 -0.2372  0.0703  0.0131
 3937TIP3    H136006   6.313   3.002  19.684  0.0790  0.0969 -0.8520
 3937TIP3    H236007   6.450   3.062  19.711 -0.0881 -0.0018  0.2593
 3938TIP3   OH236008   3.274   2.013  19.264  0.8514 -0.1295 -0.7346
 3938TIP3    H136009   3.260   1.955  19.339 -0.5018  0.7279 -0.2855
 3938TIP3    H236010   3.369   2.025  19.261  0.8528  1.7762  2.4396
 3939TIP3   OH236011   1.714   2.631  20.078  0.7150 -0.2477  0.3093
 3939TIP3    H136012   1.676   2.544  20.089 -0.3136  0.1985  0.3926
 3939TIP3    H236013   1.770   2.642  20.154 -1.1162  0.1369  1.6725
 3940TIP3   OH236014   6.433   3.519  18.280 -0.3152  0.2270 -0.2272
 3940TIP3    H136015   6.385   3.597  18.252 -0.5748  0.5315  1.0103
 3940TIP3    H236016   6.452   3.534  18.372  0.3634 -0.8141 -0.1729
 3941TIP3   OH236017   6.646   3.105  16.656  0.4012 -0.1234  0.5481
 3941TIP3    H136018   6.642   3.046  16.731  0.2263 -0.6468  0.1334
 3941TIP3    H236019   6.727   3.154  16.667 -0.0580  0.4350  1.5423
 3942TIP3   OH236020   2.004   0.304  18.810  0.3800  0.0024  0.5827
 3942TIP3    H136021   1.943   0.374  18.786  0.6827  0.6669  1.7054
 3942TIP3    H236022   2.034   0.270  18.726 -0.4694  0.6010  0.0137
 3943TIP3   OH236023   6.497   0.661  17.382 -0.1300  0.4133 -0.1621
 3943TIP3    H136024   6.515   0.690  17.471  3.5877  1.5088 -1.0936
 3943TIP3    H236025   6.487   0.566  17.388  1.8127  0.2565  1.2548
 3944TIP3   OH236026   1.119   3.324  19.157  0.4504  0.2302 -0.0583
 3944TIP3    H136027   1.169   3.306  19.236 -0.1607 -2.2605 -0.1543
 3944TIP3    H236028   1.041   3.371  19.187  0.9445  0.6373  0.5995
 3945TIP3   OH236029   4.500   0.099  16.738  0.2340  0.4714 -0.2342
 3945TIP3    H136030   4.538   0.116  16.652  0.1251  0.6992 -0.2398
 3945TIP3    H236031   4.410   0.072  16.719  0.5987 -0.8132 -0.2656
 3946TIP3   OH236032   0.108   0.437  17.238  0.7241 -0.5944 -0.0881
 3946TIP3    H136033   0.028   0.420  17.187 -0.8359  0.9727  1.6551
 3946TIP3    H236034   0.097   0.385  17.318  0.5586  0.8942  0.9157
 3947TIP3   OH236035   0.086   5.688  18.886 -0.2758 -0.1679 -0.4453
 3947TIP3    H136036   0.082   5.783  18.892 -0.1140 -0.2237  0.7562
 3947TIP3    H236037   0.172   5.669  18.850  0.0412  0.1180  0.1494
 3948TIP3   OH236038   6.605   5.003  18.471 -0.4406 -0.0078 -0.4335
 3948TIP3    H136039   6.613   5.007  18.376 -0.8288 -0.5555 -0.4987
 3948TIP3    H236040   6.658   5.075  18.504 -0.3168  0.1899 -1.0680
 3949TIP3   OH236041   2.517   3.451  19.093  0.4616 -0.4724 -0.1536
 3949TIP3    H136042   2.431   3.409  19.091 -0.5906  1.5663 -0.8514
 3949TIP3    H236043   2.543   3.448  19.185 -1.2738  0.5768  0.4118
 3950TIP3   OH236044   2.558   4.293  18.662  0.3207  0.4735 -0.0696
 3950TIP3    H136045   2.569   4.386  18.639  1.5669  0.5785  0.8548
 3950TIP3    H236046   2.643   4.266  18.696 -0.1920 -0.8618  0.2275
 3951TIP3   OH236047   0.113   0.872  18.244  0.4199  0.3494 -0.5957
 3951TIP3    H136048   0.099   0.960  18.208  1.8164  0.7401 -0.2499
 3951TIP3    H236049   0.027   0.844  18.274  0.4521  3.0413  2.4787
 3952TIP3   OH236050   4.395   6.180  17.586 -0.0017 -0.6131 -0.1886
 3952TIP3    H136051   4.438   6.218  17.509  3.2101 -1.3492  1.1033
 3952TIP3    H236052   4.316   6.233  17.597  2.2778  3.3055 -0.6684
 3953TIP3   OH236053   5.625   4.969  17.243 -0.6168 -0.0164  0.3140
 3953TIP3    H136054   5.593   4.989  17.156 -0.4339  2.6733  0.7805
 3953TIP3    H236055   5.582   5.033  17.300  0.0444 -1.0438  2.0602
 3954TIP3   OH236056   3.516   3.018  19.885 -0.5832 -0.0253  0.6735
 3954TIP3    H136057   3.459   3.090  19.912  0.6339  0.6903  1.4593
 3954TIP3    H236058   3.523   3.027  19.790 -1.2736  0.2398  0.6410
 3955TIP3   OH236059   4.903   2.858  20.061  0.2858  0.2006 -0.4782
 3955TIP3    H136060   4.844   2.783  20.065 -0.0759  0.4997  0.0781
 3955TIP3    H236061   4.958   2.842  19.985  0.8326 -1.0792  0.1548
 3956TIP3   OH236062   1.019   3.806  19.785 -0.0667 -0.4129 -0.0518
 3956TIP3    H136063   1.087   3.819  19.852 -2.2782 -0.8564  2.4662
 3956TIP3    H236064   1.005   3.893  19.748  1.1277 -0.1335  0.1056
 3957TIP3   OH236065   0.085   2.830  18.095  0.0009 -0.6270  0.2192
 3957TIP3    H136066   0.116   2.825  18.186 -1.1622  1.1517  0.7513
 3957TIP3    H236067  -0.007   2.804  18.099 -0.3378  0.4212 -0.2564
 3958TIP3   OH236068   0.431   1.401  18.922 -0.1995  0.1587 -0.4319
 3958TIP3    H136069   0.468   1.482  18.957 -0.6976  0.0933  0.2825
 3958TIP3    H236070   0.441   1.409  18.827  2.5464 -0.3209 -0.2523
 3959TIP3   OH236071   6.321   3.183  20.112  0.1719  0.6450 -0.0766
 3959TIP3    H136072   6.305   3.221  20.026 -0.1444 -1.1429 -0.8501
 3959TIP3    H236073   6.250   3.119  20.124  0.6241  0.3466  1.1969
 3960TIP3   OH236074   3.467   4.907  18.536  0.2323 -0.1780  0.2609
 3960TIP3    H136075   3.430   4.856  18.608  1.2745 -0.3511  0.6947
 3960TIP3    H236076   3.540   4.954  18.575  0.0070  0.7511 -0.4033
 3961TIP3   OH236077   6.367   0.562  20.113  0.0884  0.1672 -0.2310
 3961TIP3    H136078   6.429   0.498  20.078 -0.6711 -0.9938  0.4755
 3961TIP3    H236079   6.420   0.639  20.134  1.2733 -0.7666  0.2664
 3962TIP3   OH236080   0.358   5.864  19.137 -0.5033  0.8122  0.9943
 3962TIP3    H136081   0.323   5.884  19.050 -0.9234 -0.0657  0.9474
 3962TIP3    H236082   0.412   5.786  19.123 -2.0682 -0.4661  1.8325
 3963TIP3   OH236083   4.346   5.514  18.033 -0.3499 -0.0588 -0.0691
 3963TIP3    H136084   4.312   5.453  18.099 -1.0746  1.4636  1.0164
 3963TIP3    H236085   4.274   5.575  18.017 -0.0512 -0.1626 -2.0306
 3964TIP3   OH236086   3.961   5.114  17.766  0.1946  0.0926  0.4446
 3964TIP3    H136087   3.900   5.052  17.727 -1.0755  1.2987  0.4284
 3964TIP3    H236088   4.039   5.062  17.787 -0.2831 -1.1957 -0.8378
 3965TIP3   OH236089   4.060   1.831  19.093 -0.2333 -0.1996  0.0881
 3965TIP3    H136090   4.038   1.813  19.184 -0.2287  1.8316  0.5365
 3965TIP3    H236091   3.976   1.847  19.050 -0.1828 -0.4000 -0.0875
 3966TIP3   OH236092   1.168   5.280  18.738  0.0034  0.0540  0.1577
 3966TIP3    H136093   1.160   5.352  18.676  1.4793 -0.8270 -1.1324
 3966TIP3    H236094   1.139   5.316  18.821 -2.0576  1.2889 -1.0096
 3967TIP3   OH236095   6.006   6.350  19.679 -0.0117 -0.0654  0.0996
 3967TIP3    H136096   6.048   6.270  19.646 -1.2697 -2.0389  2.8614
 3967TIP3    H236097   6.078   6.402  19.714  0.6686 -0.7088 -0.3033
 3968TIP3   OH236098   1.904   0.594  19.449 -0.6777  0.1988  0.1304
 3968TIP3    H136099   1.812   0.568  19.457 -0.6769  0.2779  0.3865
 3968TIP3    H236100   1.904   0.663  19.383 -0.4724 -1.6235 -1.8769
 3969TIP3   OH236101   5.179   5.202  19.139 -0.6360  0.1331 -0.3608
 3969TIP3    H136102   5.147   5.276  19.192  0.3699  0.8477 -0.7208
 3969TIP3    H236103   5.149   5.223  19.050 -0.2939  0.1349 -0.4741
 3970TIP3   OH236104   5.007   1.511  19.950  0.2946  0.1625  0.1535
 3970TIP3    H136105   5.094   1.524  19.913  0.6401 -2.5653 -0.2665
 3970TIP3    H236106   5.022   1.460  20.030 -0.8696  0.2267  0.4334
 3971TIP3   OH236107   4.145   4.046  19.219 -0.3104  0.2785  0.5818
 3971TIP3    H136108   4.205   3.972  19.224 -0.6261 -0.0587 -0.3451
 3971TIP3    H236109   4.060   4.010  19.244 -0.5124  0.2554 -0.1079
 3972TIP3   OH236110   4.176   2.884  18.579 -0.1274  0.1948 -0.6025
 3972TIP3    H136111   4.081   2.879  18.568  0.0094  0.8046 -2.3479
 3972TIP3    H236112   4.211   2.862  18.493  1.3388 -0.2557  0.0814
 3973TIP3   OH236113   5.231   4.719  19.542  0.4664 -0.4201  0.0948
 3973TIP3    H136114   5.261   4.776  19.471 -0.0281 -1.2704 -0.8131
 3973TIP3    H236115   5.196   4.779  19.608  0.6858  0.3637 -0.4904
 3974TIP3   OH236116   3.786   2.185  20.001  0.3347 -0.4789  0.0627
 3974TIP3    H136117   3.839   2.255  19.961 -0.9303  0.5838  0.1563
 3974TIP3    H236118   3.696   2.205  19.973 -0.3265 -0.8490  1.8063
 3975TIP3   OH236119   5.302   2.879  19.028  0.4127 -0.3050 -0.0254
 3975TIP3    H136120   5.229   2.940  19.022  0.8571  0.2450  0.0824
 3975TIP3    H236121   5.349   2.905  19.107 -0.0688 -1.5528  0.7109
 3976TIP3   OH236122   4.360   0.287  18.706  0.6060  0.3446 -0.1431
 3976TIP3    H136123   4.336   0.301  18.614 -0.6254  0.6018  0.2022
 3976TIP3    H236124   4.417   0.361  18.727  0.8368  0.3246 -0.6708
 3977TIP3   OH236125   4.923   5.264  18.437 -0.3910 -0.2113  0.1319
 3977TIP3    H136126   4.888   5.246  18.350  2.6287  1.8389 -1.6652
 3977TIP3    H236127   4.975   5.186  18.458 -0.5072 -0.4002 -0.2731
 3978TIP3   OH236128   5.668   4.518  19.651  0.1713 -0.1605  0.3821
 3978TIP3    H136129   5.704   4.439  19.610 -0.5075 -0.7631  0.9275
 3978TIP3    H236130   5.738   4.583  19.642 -0.1785 -0.0346 -2.3442
 3979TIP3   OH236131   2.470   0.820  18.836  0.9601  0.0143  0.0313
 3979TIP3    H136132   2.463   0.896  18.894  0.1507 -1.2529  1.6867
 3979TIP3    H236133   2.402   0.833  18.771  0.1448  0.2246  0.9109
 3980TIP3   OH236134   4.349   4.894  19.384 -0.0026  0.3701  0.1060
 3980TIP3    H136135   4.335   4.830  19.453  0.0120  0.1039 -0.1333
 3980TIP3    H236136   4.438   4.926  19.398 -0.6198  1.6439  1.2825
 3981TIP3   OH236137   4.993   2.680  17.711  0.0432  0.6924  0.1156
 3981TIP3    H136138   4.970   2.695  17.619  1.2885 -0.8582 -0.4907
 3981TIP3    H236139   5.078   2.722  17.721  0.1160  0.4634  0.4470
 3982TIP3   OH236140   4.586   1.755  18.030 -0.6628 -0.3136  0.3118
 3982TIP3    H136141   4.642   1.677  18.029 -0.1339  0.0514  0.5228
 3982TIP3    H236142   4.647   1.827  18.015 -0.6827  0.3386  2.9500
 3983TIP3   OH236143   0.615   0.164  17.850  0.0921 -0.1123  0.1170
 3983TIP3    H136144   0.613   0.196  17.940  0.0969 -0.0448  0.0938
 3983TIP3    H236145   0.678   0.221  17.806  0.4322 -0.4341  0.1787
 3984TIP3   OH236146   5.432   2.857  19.826 -0.3654  0.3357 -0.3445
 3984TIP3    H136147   5.450   2.931  19.883  0.6918  0.2415 -0.5364
 3984TIP3    H236148   5.440   2.780  19.882  1.9373  0.1499 -0.8289
 3985TIP3   OH236149   0.176   5.358  19.902  0.5579  0.1651 -0.0893
 3985TIP3    H136150   0.132   5.279  19.869 -0.4870  0.3153  0.8661
 3985TIP3    H236151   0.122   5.386  19.976  1.7865  0.8949  0.5587
 3986TIP3   OH236152   3.800   3.405  19.844  0.3322 -0.2604 -0.0964
 3986TIP3    H136153   3.885   3.371  19.871 -1.0389 -2.8021  1.3890
 3986TIP3    H236154   3.782   3.362  19.761 -0.2356 -1.1799  0.4784
 3987TIP3   OH236155   2.979   6.595  18.567 -0.7705 -0.1459 -0.4706
 3987TIP3    H136156   3.065   6.631  18.544 -0.9343  0.7857  0.3495
 3987TIP3    H236157   2.922   6.622  18.495 -0.5815  0.0233 -0.5578
 3988TIP3   OH236158   5.304   5.975  18.980  0.2740  0.0201 -0.2400
 3988TIP3    H136159   5.216   5.944  19.000  0.5995 -0.2620  0.8151
 3988TIP3    H236160   5.290   6.056  18.930 -0.5752 -0.4476 -0.7899
 3989TIP3   OH236161   0.695   6.074  17.067 -0.0769  0.3519 -0.2312
 3989TIP3    H136162   0.784   6.060  17.034  0.9273  0.6308  2.1988
 3989TIP3    H236163   0.662   5.986  17.085 -0.0341  0.2918 -0.4389
 3990TIP3   OH236164   4.148   1.926  20.319  0.3820 -0.2266  0.0620
 3990TIP3    H136165   4.077   1.883  20.365  1.0751 -0.7456  0.6715
 3990TIP3    H236166   4.188   1.856  20.267  0.8649 -0.0928  0.2485
 3991TIP3   OH236167   0.958   2.864  18.905  0.0911 -0.0006  0.4688
 3991TIP3    H136168   1.037   2.914  18.885  0.3524  0.1801  1.8464
 3991TIP3    H236169   0.990   2.786  18.951 -0.5735  0.8317  2.4791
 3992TIP3   OH236170   1.596   2.453  18.449 -0.0312 -0.1960  0.3421
 3992TIP3    H136171   1.660   2.383  18.462  0.3794 -0.1957 -1.3424
 3992TIP3    H236172   1.553   2.431  18.366 -2.5213 -0.3864  1.5887
 3993TIP3   OH236173   3.405   2.543  20.138 -0.0569  0.0966  0.2055
 3993TIP3    H136174   3.391   2.631  20.174  0.1530  0.0079  0.5033
 3993TIP3    H236175   3.317   2.504  20.137 -0.2773  0.5946 -0.6825
 3994TIP3   OH236176   1.202   2.019  16.627 -0.2941 -0.9147 -0.7530
 3994TIP3    H136177   1.127   1.970  16.593 -2.2397  1.4882 -0.1870
 3994TIP3    H236178   1.198   2.006  16.722  1.1801 -2.2472 -0.8234
 3995TIP3   OH236179   4.086   6.337  17.597  0.3665  0.5547 -0.4538
 3995TIP3    H136180   4.035   6.270  17.550 -1.3751  1.6323 -0.1784
 3995TIP3    H236181   4.099   6.300  17.684  0.9566 -0.1533 -0.8275
 3996TIP3   OH236182   5.849   0.888  19.247 -0.0396 -0.1947  0.2227
 3996TIP3    H136183   5.904   0.926  19.315  0.3026  3.5546 -1.9092
 3996TIP3    H236184   5.762   0.881  19.288  0.5304  0.2812  1.5554
 3997TIP3   OH236185   1.214   4.893  19.455  0.0429  0.2598 -0.1632
 3997TIP3    H136186   1.187   4.984  19.443 -0.7159  0.5112  2.7718
 3997TIP3    H236187   1.139   4.842  19.424 -0.9340  0.7704  1.2529
 3998TIP3   OH236188   0.109   1.429  18.153 -0.4510 -0.0905 -0.1003
 3998TIP3    H136189   0.197   1.432  18.190 -0.4011 -0.4063 -0.1910
 3998TIP3    H236190   0.052   1.453  18.227 -0.1454  2.7831 -0.6832
 3999TIP3   OH236191   0.519   0.696  16.617 -0.4729  0.2552  0.6035
 3999TIP3    H136192   0.537   0.766  16.679 -0.2710  1.1428 -0.4240
 3999TIP3    H236193   0.509   0.740  16.533 -0.6091 -0.9233 -0.0232
 4000TIP3   OH236194   6.260   0.435  16.037 -0.3029 -0.0086  0.6137
 4000TIP3    H136195   6.309   0.463  15.960  0.3225 -1.4261  0.4568
 4000TIP3    H236196   6.175   0.407  16.003 -0.0285 -0.6311  0.4233
 4001TIP3   OH236197   4.821   1.239  19.987 -0.4074 -0.3532  0.1560
 4001TIP3    H136198   4.833   1.162  20.044 -1.1247  0.1812  1.0528
 4001TIP3    H236199   4.763   1.297  20.037 -1.3880 -0.0380 -1.2916
 4002TIP3   OH236200   4.273   1.950  20.614 -0.5703 -0.4320  0.1932
 4002TIP3    H136201   4.247   2.038  20.642 -2.3291 -0.5005 -0.9945
 4002TIP3    H236202   4.190   1.902  20.608  0.1180 -1.5099 -1.2843
 4003TIP3   OH236203   1.216   2.951  18.953 -0.3690  0.0872 -0.3765
 4003TIP3    H136204   1.245   2.886  18.888 -0.0295  1.0374 -1.1921
 4003TIP3    H236205   1.258   2.924  19.034  1.8274  0.6994 -1.2552
 4004TIP3   OH236206   6.205   0.711  18.400  0.1602 -0.2460 -0.5285
 4004TIP3    H136207   6.264   0.657  18.348  0.8680 -2.2599  2.1346
 4004TIP3    H236208   6.238   0.702  18.490 -2.5716  0.8077  0.6745
 4005TIP3   OH236209   3.706   1.739  18.695  0.3729  0.2580  0.7707
 4005TIP3    H136210   3.668   1.818  18.656  1.8925 -0.2945 -2.1621
 4005TIP3    H236211   3.632   1.681  18.709 -0.5301  1.4406  0.9891
 4006TIP3   OH236212   4.490   6.190  20.044  0.2087 -0.1918  0.4651
 4006TIP3    H136213   4.531   6.256  20.100  1.6673 -0.4045 -0.3014
 4006TIP3    H236214   4.533   6.201  19.959  0.9767 -2.5702  0.4882
 4007TIP3   OH236215   5.171   1.077  17.915 -0.6648  0.1330 -0.6091
 4007TIP3    H136216   5.084   1.089  17.953 -0.1148 -0.8328  1.0994
 4007TIP3    H236217   5.171   0.987  17.883  0.2768 -0.5513  1.1675
 4008TIP3   OH236218   1.933   1.603  17.828  0.1763 -0.0075 -0.5571
 4008TIP3    H136219   1.849   1.592  17.874  0.0193  0.7043 -0.6590
 4008TIP3    H236220   1.982   1.523  17.848 -0.3475 -0.2254 -0.1147
 4009TIP3   OH236221   1.921   6.302  19.001  0.1583  0.4894 -0.2780
 4009TIP3    H136222   2.014   6.297  18.979  0.6422  0.5637  1.5610
 4009TIP3    H236223   1.918   6.286  19.095 -1.5724  1.7106 -0.0752
 4010TIP3   OH236224   4.075   3.398  17.661  0.4564  0.9029  0.3074
 4010TIP3    H136225   4.099   3.314  17.700 -0.1816  1.7161  2.6245
 4010TIP3    H236226   4.087   3.385  17.567  0.0719 -1.8542  0.5520
 4011TIP3   OH236227   1.451   6.377  19.600  0.2799 -0.2149  0.3892
 4011TIP3    H136228   1.374   6.327  19.627  2.2070 -3.0080  1.1881
 4011TIP3    H236229   1.471   6.434  19.675 -1.3388  1.0448 -0.0986
 4012TIP3   OH236230   4.202   6.110  19.798  0.4436  0.0941 -1.0171
 4012TIP3    H136231   4.135   6.151  19.853  1.6952  2.3963 -1.0943
 4012TIP3    H236232   4.245   6.046  19.855 -0.5308 -0.0329 -0.4048
 4013TIP3   OH236233   4.601   6.065  18.064 -0.1814 -0.0402  0.6458
 4013TIP3    H136234   4.565   5.977  18.050 -0.8516 -0.1481  2.6727
 4013TIP3    H236235   4.594   6.108  17.979 -3.3206 -0.7308  0.4500
 4014TIP3   OH236236   3.750   3.157  18.440 -0.2374  0.2967 -0.6298
 4014TIP3    H136237   3.661   3.146  18.474 -1.5334  1.8473 -3.1136
 4014TIP3    H236238   3.748   3.114  18.354  0.8486  1.7018 -1.4152
 4015TIP3   OH236239   4.019   3.501  20.109 -0.7165 -0.0250 -0.2649
 4015TIP3    H136240   4.067   3.543  20.038 -0.4489 -0.1032 -0.1317
 4015TIP3    H236241   4.086   3.454  20.159 -0.5618  1.7947  1.3191
 4016TIP3   OH236242   4.263   6.659  18.243 -0.3689 -0.0220  0.8028
 4016TIP3    H136243   4.184   6.702  18.212 -0.1643  0.2187  0.6078
 4016TIP3    H236244   4.280   6.698  18.328  0.6335  1.3763  0.0062
 4017TIP3   OH236245   6.538   4.472  18.363  0.1754  0.3164  0.3944
 4017TIP3    H136246   6.522   4.442  18.453  1.3878 -0.9389  0.2272
 4017TIP3    H236247   6.495   4.406  18.308  2.3919 -0.9062  0.0248
 4018TIP3   OH236248   6.509   5.778  19.816 -0.0983  0.5521 -0.3368
 4018TIP3    H136249   6.518   5.831  19.737 -0.6384  0.6303 -0.3482
 4018TIP3    H236250   6.487   5.842  19.885 -2.7636  0.1590 -0.7263
 4019TIP3   OH236251   5.587   1.185  18.752 -0.0210  0.1930  0.2546
 4019TIP3    H136252   5.597   1.098  18.714 -1.3860 -0.4154  1.2015
 4019TIP3    H236253   5.535   1.234  18.687  0.4802  0.2062 -0.1386
 4020TIP3   OH236254   5.701   5.345  17.406 -0.5602 -0.4657  0.5569
 4020TIP3    H136255   5.781   5.383  17.442 -0.9502 -0.0789  1.0425
 4020TIP3    H236256   5.700   5.374  17.315  0.3668 -1.3399  0.2484
 4021TIP3   OH236257   1.703   0.847  19.426  0.0096  0.2496  0.1843
 4021TIP3    H136258   1.623   0.892  19.398  0.7776  0.4669 -1.7958
 4021TIP3    H236259   1.753   0.835  19.346  1.1002 -1.6548  1.0828
 4022TIP3   OH236260   6.513   4.337  18.884  0.3021 -0.2510  0.3629
 4022TIP3    H136261   6.557   4.260  18.849  0.8619 -0.9020  2.3436
 4022TIP3    H236262   6.572   4.409  18.864  1.6717 -0.9169  1.7727
 4023TIP3   OH236263   5.262   6.263  17.239  0.4407  0.9453 -0.1863
 4023TIP3    H136264   5.185   6.311  17.268  0.2770  0.2974  0.4816
 4023TIP3    H236265   5.332   6.328  17.238 -0.2062  1.6662 -1.3025
 4024TIP3   OH236266   6.144   1.936  16.169  0.4337 -0.1539  0.0624
 4024TIP3    H136267   6.222   1.890  16.136 -0.2715 -1.9541  0.7519
 4024TIP3    H236268   6.088   1.866  16.204 -1.0019  1.2011  0.6062
 4025TIP3   OH236269   5.143   3.732  19.169  0.3957 -0.0854  0.3937
 4025TIP3    H136270   5.185   3.811  19.136 -0.4956 -0.3018 -1.3994
 4025TIP3    H236271   5.058   3.729  19.125 -0.2262 -1.2698  1.5615
 4026TIP3   OH236272   4.064   1.165  18.072 -0.3691  0.7799 -0.2538
 4026TIP3    H136273   4.146   1.152  18.024  0.0441 -1.0186  0.8411
 4026TIP3    H236274   4.085   1.139  18.162 -2.2006  0.0223 -0.0082
 4027TIP3   OH236275   2.695   3.608  19.502 -0.2778 -0.1887 -0.7003
 4027TIP3    H136276   2.633   3.645  19.564 -0.8977  0.3810 -1.6403
 4027TIP3    H236277   2.643   3.549  19.447  0.2015 -0.4651 -0.8709
 4028TIP3   OH236278   6.577   1.190  18.605  0.5676  0.3947 -0.6122
 4028TIP3    H136279   6.543   1.170  18.517  0.3080  0.1349 -0.4570
 4028TIP3    H236280   6.539   1.122  18.661 -1.5332  2.1274  0.2191
 4029TIP3   OH236281   0.423   0.218  20.387  0.6084  0.1487  0.1263
 4029TIP3    H136282   0.339   0.188  20.355  1.5827 -1.1294 -1.3849
 4029TIP3    H236283   0.417   0.211  20.482 -0.2563 -2.0669 -0.0302
 4030TIP3   OH236284   4.649   2.428  17.401 -0.5750  0.5404 -0.2265
 4030TIP3    H136285   4.606   2.357  17.449 -2.9580  2.6120  0.8876
 4030TIP3    H236286   4.591   2.447  17.328  1.3961 -0.3674 -2.1429
 4031TIP3   OH236287   4.524   4.544  19.391  0.0693  0.3300  0.8514
 4031TIP3    H136288   4.435   4.542  19.358  0.2853 -0.6521  0.2749
 4031TIP3    H236289   4.532   4.627  19.437 -0.9311  0.7176  0.3263
 4032TIP3   OH236290   0.321   6.136  17.481  0.5617 -0.2323  0.4239
 4032TIP3    H136291   0.261   6.208  17.461  1.0599 -0.2182 -1.1577
 4032TIP3    H236292   0.265   6.059  17.490  0.0451  0.2872  1.9348
 4033TIP3   OH236293   2.320   0.157  19.061 -0.1620 -0.0611  0.2443
 4033TIP3    H136294   2.339   0.133  18.970 -0.3951 -0.8658  0.3944
 4033TIP3    H236295   2.298   0.250  19.058  0.7930  0.1573 -0.3743
 4034TIP3   OH236296   0.842   1.711  20.265  0.1745 -0.0062 -0.4329
 4034TIP3    H136297   0.750   1.724  20.289  0.5043  0.9169  0.3877
 4034TIP3    H236298   0.880   1.798  20.270  0.8648 -0.2047 -1.8197
 4035TIP3   OH236299   6.160   6.250  19.274  0.1141 -0.6184 -0.2800
 4035TIP3    H136300   6.239   6.296  19.246  0.6858 -0.0081  2.0905
 4035TIP3    H236301   6.128   6.206  19.195  2.1771  0.0441 -1.5578
 4036TIP3   OH236302   0.024   1.854  20.305 -0.0937  0.3737  0.3065
 4036TIP3    H136303  -0.048   1.795  20.283 -0.4939  0.8055  0.4302
 4036TIP3    H236304   0.102   1.812  20.270 -0.2647 -0.5959  1.0401
 4037TIP3   OH236305   0.181   2.310  15.920 -0.5076  0.1342 -0.1541
 4037TIP3    H136306   0.275   2.319  15.934 -0.3230  2.1159 -2.1377
 4037TIP3    H236307   0.173   2.227  15.871  0.0055 -0.7825  1.2565
 4038TIP3   OH236308   0.451   2.456  19.916  0.1396 -0.1454 -0.4746
 4038TIP3    H136309   0.461   2.501  20.001 -1.1332 -0.7793  0.0400
 4038TIP3    H236310   0.523   2.393  19.914  2.5080  2.3731 -1.5920
 4039TIP3   OH236311   6.205   4.035  19.937  0.6185 -0.3061  0.1581
 4039TIP3    H136312   6.186   4.128  19.930 -1.7878 -0.6696  0.6431
 4039TIP3    H236313   6.288   4.023  19.891  0.3940  1.8815 -0.9434
 4040TIP3   OH236314   3.328   4.033  18.725 -0.0629 -0.8913  0.0504
 4040TIP3    H136315   3.415   3.995  18.714 -0.4149 -1.4206 -0.9971
 4040TIP3    H236316   3.315   4.037  18.820  1.8121  0.8864  0.3017
 4041TIP3   OH236317   0.287   2.090  18.491 -0.1989 -0.1519  0.4325
 4041TIP3    H136318   0.265   2.065  18.581 -4.5125 -0.0258 -0.3393
 4041TIP3    H236319   0.244   2.175  18.479 -1.1599 -0.8967 -2.1405
 4042TIP3   OH236320   6.551   3.757  17.747 -0.2332 -0.0946  0.7912
 4042TIP3    H136321   6.554   3.668  17.710  1.1773 -0.0633  0.7861
 4042TIP3    H236322   6.622   3.803  17.703 -2.5042  1.8364 -1.1221
 4043TIP3   OH236323   3.598   0.023  18.546 -0.3245  0.5828 -0.7547
 4043TIP3    H136324   3.609   0.015  18.641 -2.5316  0.6597 -0.4436
 4043TIP3    H236325   3.536  -0.047  18.523 -1.1087  1.6047 -1.8529
 4044TIP3   OH236326   1.277   5.086  17.302  0.1993 -0.0378 -1.1861
 4044TIP3    H136327   1.198   5.063  17.254 -1.3400 -1.5759  1.8221
 4044TIP3    H236328   1.335   5.011  17.289  0.0132 -0.2008 -1.0779
 4045TIP3   OH236329   3.068   5.221  17.967  0.6092  0.1523 -0.1296
 4045TIP3    H136330   3.040   5.160  17.898  3.1767 -0.7784 -0.4584
 4045TIP3    H236331   3.040   5.307  17.936  1.8933 -0.2033 -2.5247
 4046TIP3   OH236332   5.409   2.933  19.541  0.0444 -0.4395  0.1248
 4046TIP3    H136333   5.343   2.871  19.510  1.0954 -2.1842  1.1910
 4046TIP3    H236334   5.426   2.908  19.631  1.2228  0.7961  0.2916
 4047TIP3   OH236335   6.062   6.303  20.083 -0.6703 -0.2586 -0.3522
 4047TIP3    H136336   6.091   6.308  20.174 -0.0311  2.8060 -0.6068
 4047TIP3    H236337   5.971   6.273  20.088 -0.0310 -2.1565  1.0747
 4048TIP3   OH236338   0.857   0.413  19.539 -0.0075  0.3408 -0.5877
 4048TIP3    H136339   0.831   0.447  19.625  0.4885  0.5078 -0.4960
 4048TIP3    H236340   0.902   0.331  19.559 -1.0232 -0.2777 -0.7936
 4049TIP3   OH236341   4.382   5.799  17.579  0.0912 -0.2188  0.2402
 4049TIP3    H136342   4.410   5.744  17.507  0.5217 -1.0706  1.0358
 4049TIP3    H236343   4.460   5.808  17.634 -0.7008 -1.1370  1.5599
 4050TIP3   OH236344   0.703   1.590  18.430 -0.7367  0.3569  1.1087
 4050TIP3    H136345   0.787   1.548  18.413 -1.1961 -0.3245  0.4590
 4050TIP3    H236346   0.672   1.549  18.511 -1.6525 -1.3784 -0.0451
 4051TIP3   OH236347   4.662   0.687  18.249 -0.1188  0.5668 -0.0199
 4051TIP3    H136348   4.746   0.661  18.213 -1.0296  0.1830 -1.9840
 4051TIP3    H236349   4.612   0.606  18.256 -0.6244  0.8998  0.2935
 4052TIP3   OH236350   5.988   6.117  18.407 -0.0722 -0.5607 -0.2577
 4052TIP3    H136351   5.982   6.060  18.484  0.2779 -0.0345  0.1642
 4052TIP3    H236352   6.072   6.161  18.416 -0.1805 -0.2437 -0.7720
 4053TIP3   OH236353   1.971   4.774  20.198  0.0009  0.2880  0.1266
 4053TIP3    H136354   1.898   4.829  20.169  0.4523  0.1614 -1.3391
 4053TIP3    H236355   1.930   4.692  20.225 -0.3424 -0.3942 -2.2098
 4054TIP3   OH236356   0.055   6.345  20.071 -0.3679 -0.2712  0.2920
 4054TIP3    H136357   0.030   6.434  20.096 -0.2958 -0.3196  0.5331
 4054TIP3    H236358  -0.027   6.295  20.076 -0.8973  0.2439 -1.9798
 4055TIP3   OH236359   5.255   0.408  17.986 -0.6520  0.3057  0.0025
 4055TIP3    H136360   5.324   0.454  17.939 -1.2186  1.5120  0.3352
 4055TIP3    H236361   5.296   0.325  18.013  0.4156  0.6601 -0.4766
 4056TIP3   OH236362   1.787   4.257  17.967 -0.0592 -0.5701 -0.0197
 4056TIP3    H136363   1.858   4.312  18.001  0.3181 -0.7173 -0.5646
 4056TIP3    H236364   1.821   4.221  17.885 -1.0289 -0.0689 -0.6651
 4057TIP3   OH236365   3.068   2.689  18.380 -0.5917 -0.0320  0.1933
 4057TIP3    H136366   3.080   2.725  18.292  1.2951 -1.7400 -0.3173
 4057TIP3    H236367   3.058   2.595  18.366  1.3568 -0.5467  1.8925
 4058TIP3   OH236368   4.416   4.981  18.736  0.1039 -0.1750  0.4981
 4058TIP3    H136369   4.446   5.029  18.659  1.4526  0.2221  1.2319
 4058TIP3    H236370   4.377   4.901  18.701  1.3838 -0.3688 -0.5800
 4059TIP3   OH236371   2.325   5.031  19.884  0.4054  0.1095 -0.0675
 4059TIP3    H136372   2.259   5.031  19.953 -0.5925 -0.1872 -1.0022
 4059TIP3    H236373   2.326   5.121  19.852 -1.1226 -0.3326 -1.4913
 4060TIP3   OH236374   4.586   5.788  17.806 -0.4509 -0.1812  0.1909
 4060TIP3    H136375   4.640   5.867  17.799 -0.7235  0.1323  1.4259
 4060TIP3    H236376   4.650   5.717  17.813 -0.1975  0.0519  0.2685
 4061TIP3   OH236377   1.911   2.075  18.414  0.0475  0.0270  0.0696
 4061TIP3    H136378   1.875   2.161  18.438 -0.8881 -0.2553 -0.2867
 4061TIP3    H236379   1.982   2.095  18.353  0.8398  0.6119  1.1270
 4062TIP3   OH236380   0.494   2.508  19.613  0.0421 -0.3274 -0.0047
 4062TIP3    H136381   0.403   2.484  19.595 -0.1776 -1.6286  2.4368
 4062TIP3    H236382   0.487   2.595  19.654 -0.3728 -1.2183  1.9480
 4063TIP3   OH236383   0.728   2.780  19.519 -0.3870  0.1469  0.3174
 4063TIP3    H136384   0.646   2.805  19.563 -0.5590  0.5030 -0.2036
 4063TIP3    H236385   0.700   2.718  19.451 -0.1006 -0.5310  0.7996
 4064TIP3   OH236386   0.139   1.962  17.321  0.1265 -0.2725 -0.0436
 4064TIP3    H136387   0.113   2.042  17.275 -2.2074 -2.0144 -1.9954
 4064TIP3    H236388   0.164   1.992  17.408 -0.7171  2.5827 -0.6742
 4065TIP3   OH236389   3.107   5.085  19.955  0.2761  0.3370 -0.4599
 4065TIP3    H136390   3.174   5.017  19.958  0.7169  0.7245 -1.2873
 4065TIP3    H236391   3.024   5.037  19.951  0.6501 -0.2376 -3.0988
 4066TIP3   OH236392   3.111   5.487  18.395  0.2060 -0.2005 -0.4054
 4066TIP3    H136393   3.064   5.560  18.356 -1.6364 -1.7613 -1.2434
 4066TIP3    H236394   3.070   5.475  18.481 -0.1524 -0.8260 -0.6569
 4067TIP3   OH236395   6.494   6.588  17.672  0.2201  0.2845  0.1355
 4067TIP3    H136396   6.585   6.559  17.675  0.4517  0.9828  0.0064
 4067TIP3    H236397   6.455   6.553  17.753  0.4003 -0.6313 -0.1608
 4068TIP3   OH236398   2.743   5.752  19.478  0.0641  0.3300 -0.4168
 4068TIP3    H136399   2.681   5.766  19.549 -0.9672  1.1900 -1.4441
 4068TIP3    H236400   2.817   5.810  19.498  0.8700 -1.1577  1.1353
 4069TIP3   OH236401   6.521   4.295  20.117 -0.1181  0.3841 -0.1726
 4069TIP3    H136402   6.563   4.380  20.106  0.4889  0.1853  0.4762
 4069TIP3    H236403   6.429   4.315  20.130  0.1854  1.0434  1.1454
 4070TIP3   OH236404   5.391   0.532  19.049  0.6808  0.2389  0.0389
 4070TIP3    H136405   5.296   0.543  19.042  0.5088 -0.5117  0.9486
 4070TIP3    H236406   5.404   0.437  19.041  0.9212 -0.1869  3.9053
 4071TIP3   OH236407   6.649   1.020  16.829 -0.2147  0.1054  0.0489
 4071TIP3    H136408   6.679   1.101  16.869 -1.2436  0.3971  0.2365
 4071TIP3    H236409   6.579   1.046  16.769 -1.4892 -0.7696  1.1086
 4072TIP3   OH236410   0.030   1.498  16.775 -0.0134 -0.0600  0.3637
 4072TIP3    H136411  -0.048   1.443  16.770 -0.2318  0.2736 -0.0303
 4072TIP3    H236412   0.019   1.562  16.704  2.4767 -2.3722 -2.3492
 4073TIP3   OH236413   5.786   3.707  18.768  0.0673  0.4449  0.0200
 4073TIP3    H136414   5.841   3.635  18.736 -1.0909 -0.0003 -1.0773
 4073TIP3    H236415   5.750   3.675  18.850  1.7731  0.9348  1.0176
 4074TIP3   OH236416   1.941   4.758  19.816  0.4656 -0.2662  0.0647
 4074TIP3    H136417   1.858   4.784  19.856  0.6233 -0.5283  0.5695
 4074TIP3    H236418   1.994   4.838  19.816  0.8431 -0.4908  1.3450
 4075TIP3   OH236419   5.220   2.547  17.564  0.4801 -0.0098  0.1461
 4075TIP3    H136420   5.282   2.507  17.625  0.2640  0.0973  0.4320
 4075TIP3    H236421   5.135   2.537  17.605  0.2569 -0.4703 -0.4082
 4076TIP3   OH236422   3.586   4.222  18.934 -0.1305 -0.1170 -0.5112
 4076TIP3    H136423   3.558   4.135  18.905 -1.0578  0.0225 -0.0773
 4076TIP3    H236424   3.555   4.281  18.867  1.8946 -0.2366 -1.6442
 4077TIP3   OH236425   4.271   1.390  17.636 -0.1422 -0.1216 -0.2151
 4077TIP3    H136426   4.324   1.423  17.708 -1.3246 -0.2210  0.7323
 4077TIP3    H236427   4.184   1.427  17.651 -0.5097 -0.4676 -1.3758
 4078TIP3   OH236428   4.847   2.282  20.612  0.1873 -0.1938 -0.0496
 4078TIP3    H136429   4.810   2.353  20.665  1.1655 -2.5217  4.2378
 4078TIP3    H236430   4.934   2.313  20.587 -0.1100  0.8158  0.1366
 4079TIP3   OH236431   5.030   2.329  18.067  0.4697  0.6430  0.6753
 4079TIP3    H136432   4.994   2.384  17.997 -2.0878 -1.4334  0.2082
 4079TIP3    H236433   5.012   2.377  18.147 -1.3945  0.7534  0.2481
 4080TIP3   OH236434   6.269   3.309  19.871 -0.1917  0.1256  0.5513
 4080TIP3    H136435   6.259   3.265  19.786  0.2400 -0.5852  0.8608
 4080TIP3    H236436   6.303   3.396  19.848  1.9810 -0.7792  0.0906
 4081TIP3   OH236437   2.394   5.735  18.101 -0.1014 -0.3148  0.1759
 4081TIP3    H136438   2.455   5.665  18.125  1.9626  1.6526  1.0073
 4081TIP3    H236439   2.412   5.805  18.164 -2.9323  0.5555  0.1274
 4082TIP3   OH236440   0.733   2.747  18.784  0.3405  0.1724 -0.1880
 4082TIP3    H136441   0.657   2.786  18.826  0.4978 -1.4318  1.7193
 4082TIP3    H236442   0.808   2.780  18.833  0.6552 -0.4728 -0.2228
 4083TIP3   OH236443   5.758   0.325  17.033  0.0690  0.1836 -0.4859
 4083TIP3    H136444   5.824   0.257  17.048 -0.2687 -0.3100 -1.2021
 4083TIP3    H236445   5.676   0.284  17.058  0.0061  0.7345  0.2161
 4084TIP3   OH236446   5.624   5.729  19.073  0.2044  0.5740 -0.0543
 4084TIP3    H136447   5.635   5.777  18.991 -0.1777 -1.1896 -1.1907
 4084TIP3    H236448   5.530   5.727  19.088  0.2913  1.1433  0.5975
 4085TIP3   OH236449   2.955   4.392  18.041 -0.3613  0.0638  0.3321
 4085TIP3    H136450   3.045   4.412  18.016 -0.0570 -0.8799  0.6288
 4085TIP3    H236451   2.929   4.465  18.098 -0.3324  1.1319 -0.9739
 4086TIP3   OH236452   4.641   4.892  20.013  0.1100  0.0883  0.1334
 4086TIP3    H136453   4.709   4.842  20.058  0.0745 -1.4825 -1.4408
 4086TIP3    H236454   4.679   4.979  20.000  0.8432 -0.0219  1.4254
 4087TIP3   OH236455   2.397   5.745  17.716  0.1737  0.1314  0.1347
 4087TIP3    H136456   2.328   5.734  17.781  1.2447 -0.1274  1.2761
 4087TIP3    H236457   2.393   5.837  17.692 -1.5305 -0.1879 -0.9785
 4088TIP3   OH236458   4.692   2.350  18.067 -0.0184  0.2568 -0.0001
 4088TIP3    H136459   4.735   2.310  17.991 -1.0241  3.5333 -2.5570
 4088TIP3    H236460   4.742   2.430  18.082 -0.9566  0.5654  1.6618
 4089TIP3   OH236461   0.544   2.516  18.578 -0.0600  0.2822  0.2471
 4089TIP3    H136462   0.639   2.529  18.568  0.1381 -1.3233 -0.2581
 4089TIP3    H236463   0.535   2.423  18.598 -1.5728  0.2922 -0.2655
 4090TIP3   OH236464   5.851   5.538  18.896  0.3160 -0.1322  0.4018
 4090TIP3    H136465   5.874   5.446  18.905 -1.6244 -0.6377  0.7155
 4090TIP3    H236466   5.868   5.576  18.982 -3.0454 -1.2932  1.7594
 4091TIP3   OH236467   4.393   0.553  19.499 -0.2782  0.4407  0.2398
 4091TIP3    H136468   4.347   0.491  19.442  0.3184 -0.7721  1.0225
 4091TIP3    H236469   4.386   0.637  19.454 -2.8595  0.2486  0.1063
 4092TIP3   OH236470   5.473   4.483  18.975  0.2889 -0.2289  0.0243
 4092TIP3    H136471   5.545   4.544  18.992  0.3589 -0.2198 -0.2933
 4092TIP3    H236472   5.513   4.412  18.923  0.1816 -0.4809  0.2822
 4093TIP3   OH236473   0.233   0.964  17.110  0.1388  0.1471  0.3856
 4093TIP3    H136474   0.192   0.907  17.045  0.9685 -0.6594  0.5511
 4093TIP3    H236475   0.198   0.933  17.194  1.4574 -0.9023  0.5757
 4094TIP3   OH236476   4.261   2.641  18.646  0.3412 -0.0654 -0.2381
 4094TIP3    H136477   4.182   2.594  18.619 -0.1139  0.8120 -0.4599
 4094TIP3    H236478   4.236   2.733  18.644  0.8846  0.1394  1.3178
 4095TIP3   OH236479   0.364   4.722  18.023  0.1546 -0.4483 -0.1174
 4095TIP3    H136480   0.279   4.683  18.005 -0.4905  0.0684  1.6086
 4095TIP3    H236481   0.369   4.798  17.966 -0.0565 -1.0889 -1.0088
 4096TIP3   OH236482   5.692   2.936  19.145  0.1258 -0.0407 -0.2569
 4096TIP3    H136483   5.625   2.998  19.113  1.5015  2.3468  1.1865
 4096TIP3    H236484   5.694   2.867  19.079 -3.2271  0.1379 -0.7326
 4097TIP3   OH236485   4.637   4.415  19.875  0.0723 -0.2700 -0.8295
 4097TIP3    H136486   4.723   4.421  19.915  1.2250 -1.8208 -2.8504
 4097TIP3    H236487   4.580   4.466  19.932  2.1850  0.2964  0.9125
 4098TIP3   OH236488   6.064   2.698  20.126 -0.1730 -0.0737 -0.2948
 4098TIP3    H136489   6.064   2.613  20.170 -0.9452 -0.6563 -1.3752
 4098TIP3    H236490   5.978   2.704  20.084 -0.1575  1.2751 -0.1914
 4099TIP3   OH236491   0.076   4.785  19.984 -0.2589 -0.3381  0.4312
 4099TIP3    H136492   0.116   4.701  19.960  0.6240  0.6032 -1.6769
 4099TIP3    H236493   0.134   4.820  20.052 -0.7551 -1.4950  1.4866
 4100TIP3   OH236494   6.141   0.257  19.282 -0.2027 -0.0499 -0.6602
 4100TIP3    H136495   6.075   0.325  19.298  1.0214  1.3062 -1.2122
 4100TIP3    H236496   6.186   0.246  19.365 -0.0225  0.2363 -0.7186
 4101TIP3   OH236497   2.641   3.153  19.611 -0.0776 -0.0168 -0.1254
 4101TIP3    H136498   2.665   3.163  19.518  0.8999  0.8622  0.2031
 4101TIP3    H236499   2.610   3.063  19.618 -1.1600  0.2160 -1.5220
 4102TIP3   OH236500   3.424   5.210  19.770 -0.2573  0.1813  0.4093
 4102TIP3    H136501   3.382   5.135  19.726  1.2549 -0.3437 -0.2051
 4102TIP3    H236502   3.489   5.240  19.707  0.5498  0.7268  1.4927
 4103TIP3   OH236503   5.878   4.830  19.321 -0.6315  0.1462 -0.3393
 4103TIP3    H136504   5.877   4.906  19.380  0.8403  0.2664 -0.4457
 4103TIP3    H236505   5.826   4.858  19.246 -1.6132  0.3873  0.4033
 4104TIP3   OH236506   1.672   2.945  17.806  0.1239  0.3315  0.3258
 4104TIP3    H136507   1.603   2.975  17.864 -0.2592 -1.1552  0.6836
 4104TIP3    H236508   1.630   2.936  17.720  0.4409  1.5462  0.0232
 4105TIP3   OH236509   4.577   2.832  19.645 -0.5321  0.0766 -0.3844
 4105TIP3    H136510   4.546   2.747  19.675  1.5094 -0.2085  1.0937
 4105TIP3    H236511   4.502   2.870  19.599 -1.6964 -2.2136 -0.4979
 4106TIP3   OH236512   4.288   3.977  18.185  0.0304  0.1093 -0.8952
 4106TIP3    H136513   4.219   3.923  18.146  0.7171  0.3412 -2.5569
 4106TIP3    H236514   4.251   4.065  18.189 -0.4523 -0.1278  0.1091
 4107TIP3   OH236515   6.337   4.134  19.620  0.0771 -0.5690 -0.1498
 4107TIP3    H136516   6.288   4.215  19.628  1.1265 -0.0143  1.0445
 4107TIP3    H236517   6.429   4.161  19.614  0.4956 -1.6483  0.8477
 4108TIP3   OH236518   3.189   5.780  20.271 -0.2572 -0.2148  0.1452
 4108TIP3    H136519   3.181   5.721  20.346 -0.8250  0.3386  0.5380
 4108TIP3    H236520   3.139   5.858  20.297 -1.7523 -0.6025 -1.4219
 4109TIP3   OH236521   2.768   4.111  19.422  1.0441 -0.3100  0.6059
 4109TIP3    H136522   2.713   4.093  19.499 -2.1057  0.6335 -1.2762
 4109TIP3    H236523   2.740   4.046  19.357  1.8056  0.5239 -0.5867
 4110TIP3   OH236524   4.504   5.310  17.197 -0.1682 -0.5035  0.2722
 4110TIP3    H136525   4.496   5.268  17.112  0.4590 -1.9630  0.8987
 4110TIP3    H236526   4.438   5.379  17.197  0.3363  0.0279 -1.6726
 4111TIP3   OH236527   4.866   3.802  18.410  0.5760  0.9003  0.1819
 4111TIP3    H136528   4.912   3.885  18.401  0.7442  1.0479  2.0811
 4111TIP3    H236529   4.919   3.751  18.471 -0.2687 -0.0611  0.1469
 4112TIP3   OH236530   1.713   6.594  17.643 -0.0443  0.0269  0.4910
 4112TIP3    H136531   1.778   6.525  17.633 -0.4742 -0.2763 -0.2463
 4112TIP3    H236532   1.656   6.564  17.714 -1.2485 -1.2163 -0.9184
 4113TIP3   OH236533   4.565   5.244  19.010 -0.1879  0.0218 -0.3206
 4113TIP3    H136534   4.516   5.321  19.039 -0.6840 -0.3412 -0.1949
 4113TIP3    H236535   4.623   5.278  18.941 -0.3940  0.5085 -0.2571
 4114TIP3   OH236536   0.589   1.792  17.241 -0.4866  0.6713 -0.3209
 4114TIP3    H136537   0.545   1.712  17.212  1.4256 -0.6154  0.1688
 4114TIP3    H236538   0.628   1.828  17.161  0.6120 -0.1859 -0.1913
 4115TIP3   OH236539   6.616   1.487  17.575 -0.4998  0.4735  0.2157
 4115TIP3    H136540   6.702   1.450  17.594  0.1514  1.6618 -0.2551
 4115TIP3    H236541   6.554   1.427  17.616  0.5334 -0.5687  0.3150
 4116TIP3   OH236542   4.690   5.098  18.373 -0.3106 -0.3691  0.5987
 4116TIP3    H136543   4.713   5.092  18.280  0.7560 -2.7392  0.9354
 4116TIP3    H236544   4.774   5.085  18.419 -0.7327  1.2659  1.9215
 4117TIP3   OH236545   6.072   4.334  19.482  0.0597  1.0008 -0.2912
 4117TIP3    H136546   6.124   4.412  19.500  1.8071 -0.2646  0.4155
 4117TIP3    H236547   6.114   4.293  19.407 -0.0744  0.1010  0.1082
 4118TIP3   OH236548   4.748   0.323  17.330  0.3891 -0.0217  0.5239
 4118TIP3    H136549   4.741   0.242  17.278 -1.3613  1.4261 -1.6833
 4118TIP3    H236550   4.688   0.309  17.403 -1.5081 -0.0009 -0.9587
 4119TIP3   OH236551   3.522   6.326  19.279  0.1040 -0.1660  0.2890
 4119TIP3    H136552   3.555   6.401  19.328  3.0692 -2.0198  1.3623
 4119TIP3    H236553   3.479   6.271  19.345  0.0105 -0.5150 -0.0611
 4120TIP3   OH236554   6.026   0.356  20.302 -0.1246 -0.1607 -0.6222
 4120TIP3    H136555   6.067   0.271  20.288 -0.5998 -0.1811 -2.0656
 4120TIP3    H236556   5.933   0.336  20.315 -0.0841  0.0699  0.0481
 4121TIP3   OH236557   1.740   4.106  19.229  0.3195 -0.0626  0.1365
 4121TIP3    H136558   1.657   4.153  19.230  1.1632  1.4919  0.9785
 4121TIP3    H236559   1.795   4.157  19.169  0.6536 -1.1277 -0.4895
 4122TIP3   OH236560   2.938   1.164  17.686  0.2029 -0.6922  0.4760
 4122TIP3    H136561   2.983   1.247  17.674 -0.6090 -0.2909  0.1651
 4122TIP3    H236562   3.009   1.101  17.703  0.7518  0.2615  1.9613
 4123TIP3   OH236563   4.491   4.351  19.142  0.0680 -0.3016  0.3859
 4123TIP3    H136564   4.508   4.350  19.237 -0.1011 -1.5536  0.4231
 4123TIP3    H236565   4.574   4.324  19.103  0.8156  2.2562  0.0038
 4124TIP3   OH236566   1.562   2.253  19.774  0.3772 -0.0569 -0.0718
 4124TIP3    H136567   1.603   2.203  19.703 -0.1478 -1.3261  0.4810
 4124TIP3    H236568   1.624   2.247  19.847  0.3645  0.1900 -0.0410
 4125TIP3   OH236569   0.472   4.431  17.207  0.0593 -0.1119 -0.0606
 4125TIP3    H136570   0.434   4.401  17.125 -1.7692 -1.1090  1.1064
 4125TIP3    H236571   0.441   4.521  17.217 -0.7064 -0.3855  0.0933
 4126TIP3   OH236572   1.500   3.004  19.947  0.0290 -0.2035 -0.1255
 4126TIP3    H136573   1.519   2.979  20.037 -2.2291 -1.1577  0.1772
 4126TIP3    H236574   1.476   2.922  19.904 -1.3153  0.5462 -0.8946
 4127TIP3   OH236575   4.964   5.775  16.841 -0.4663 -0.2393  0.2108
 4127TIP3    H136576   4.881   5.737  16.812  0.1202 -2.1786  0.9008
 4127TIP3    H236577   5.006   5.805  16.761 -2.2425  1.7705 -0.0583
 4128TIP3   OH236578   4.725   6.161  18.977  0.1176 -0.1446  0.7869
 4128TIP3    H136579   4.794   6.097  18.995 -0.0759 -0.5192  0.2057
 4128TIP3    H236580   4.690   6.181  19.064  2.5481  1.9045  1.4249
 4129TIP3   OH236581   5.238   3.156  19.626  0.6246  0.5462  0.4815
 4129TIP3    H136582   5.217   3.098  19.699  0.5239  0.3582  0.3050
 4129TIP3    H236583   5.329   3.135  19.603  0.2426 -0.3379 -0.2990
 4130TIP3   OH236584   6.247   6.076  18.110  0.3490 -0.1357 -0.0891
 4130TIP3    H136585   6.179   6.058  18.046  0.3428  1.3639 -0.5508
 4130TIP3    H236586   6.237   6.169  18.130  0.5660 -0.4943  1.8578
 4131TIP3   OH236587   6.246   2.826  17.207  0.1772  0.0081 -0.3021
 4131TIP3    H136588   6.177   2.802  17.144 -0.7694 -0.6235  0.9274
 4131TIP3    H236589   6.322   2.846  17.153 -1.4314  2.4586 -1.8250
 4132TIP3   OH236590   4.369   2.056  17.882  0.1611  0.0426 -0.1830
 4132TIP3    H136591   4.315   2.123  17.841 -2.0282  0.1104  2.5735
 4132TIP3    H236592   4.308   2.002  17.932  2.5492 -0.2169  2.7021
 4133TIP3   OH236593   2.390   2.452  20.102 -0.2584 -0.3469  0.1420
 4133TIP3    H136594   2.467   2.422  20.055  0.2924  1.1655  0.0365
 4133TIP3    H236595   2.425   2.499  20.178 -0.9663  1.9698 -0.8738
 4134TIP3   OH236596   5.375   2.335  19.495  0.2204 -0.5420  0.7370
 4134TIP3    H136597   5.466   2.331  19.522 -0.0970 -0.1149  1.9300
 4134TIP3    H236598   5.377   2.379  19.410  1.1134 -0.4783  0.7807
 4135TIP3   OH236599   1.283   2.798  19.172  0.5457  0.0124  0.0750
 4135TIP3    H136600   1.355   2.738  19.150  0.3273 -0.4701  0.6410
 4135TIP3    H236601   1.303   2.828  19.261  0.5576  0.6532 -0.1387
 4136TIP3   OH236602   5.710   3.818  18.396  0.2715  0.6783  0.3492
 4136TIP3    H136603   5.714   3.730  18.358 -2.0054  1.5136 -2.1579
 4136TIP3    H236604   5.772   3.869  18.344 -0.9136  1.2484 -0.5527
 4137TIP3   OH236605   2.143   3.964  18.748  0.2645 -0.7124 -0.3224
 4137TIP3    H136606   2.112   3.934  18.663 -1.1813  0.3053 -0.1857
 4137TIP3    H236607   2.172   4.054  18.732 -1.4638  0.0398  0.5345
 4138TIP3   OH236608   4.507   4.220  17.576  0.1642  0.1022  0.4218
 4138TIP3    H136609   4.431   4.204  17.521  0.5846 -0.5116  0.0237
 4138TIP3    H236610   4.486   4.302  17.622 -0.9439 -0.3154  0.6838
 4139TIP3   OH236611   0.677   0.569  18.932 -0.1147  0.3138 -0.2635
 4139TIP3    H136612   0.662   0.543  18.841 -1.2108  1.2712 -0.3723
 4139TIP3    H236613   0.627   0.505  18.983  1.1629 -0.7275 -0.2634
 4140TIP3   OH236614   5.440   2.936  18.611  0.2830  0.1622 -0.2377
 4140TIP3    H136615   5.476   2.977  18.690  1.6864 -0.0718 -0.7309
 4140TIP3    H236616   5.346   2.947  18.619  0.3518 -0.3468  1.7469
 4141TIP3   OH236617   1.150   0.122  17.167  0.1124  0.0752 -0.2062
 4141TIP3    H136618   1.188   0.142  17.252 -1.1804  0.1695  0.3812
 4141TIP3    H236619   1.171   0.198  17.113 -0.4341  0.7800  0.5284
 4142TIP3   OH236620   2.319   3.837  10.631  0.3045  0.1540 -0.1479
 4142TIP3    H136621   2.320   3.919  10.583  1.1476  0.0113 -0.3831
 4142TIP3    H236622   2.250   3.848  10.697  1.0092  1.3853  0.4139
 4143TIP3   OH236623   0.973   3.751  18.877  0.0767  0.9707  0.4414
 4143TIP3    H136624   1.003   3.823  18.823 -0.2956 -0.1701 -1.3539
 4143TIP3    H236625   1.017   3.674  18.841 -2.7739 -0.3406 -0.4829
 4144TIP3   OH236626   4.885   6.585  18.254 -0.8262 -0.0623  0.4729
 4144TIP3    H136627   4.875   6.558  18.345 -1.3067 -1.8106 -0.0598
 4144TIP3    H236628   4.834   6.521  18.204  0.3659  0.1647 -1.1180
 4145TIP3   OH236629   1.899   3.160  16.690 -0.9206  0.0529 -0.5932
 4145TIP3    H136630   1.944   3.118  16.617 -1.0931  1.8755 -1.8075
 4145TIP3    H236631   1.969   3.197  16.743 -0.8602  0.5466 -1.0063
 4146TIP3   OH236632   4.896   1.672  16.889 -0.2314 -0.2827 -0.1139
 4146TIP3    H136633   4.959   1.697  16.822 -0.3436  0.4427  0.0419
 4146TIP3    H236634   4.859   1.755  16.919 -0.6931 -0.6503  0.3437
 4147TIP3   OH236635   3.798   3.513  18.392  0.1780 -0.1603  0.7752
 4147TIP3    H136636   3.711   3.504  18.431 -0.0764  1.6178  0.6793
 4147TIP3    H236637   3.815   3.607  18.392  1.2833 -0.3205 -0.9957
 4148TIP3   OH236638   0.313   2.433  17.037 -0.7662 -0.2356  0.5388
 4148TIP3    H136639   0.389   2.485  17.011 -1.7679  0.4122 -1.2455
 4148TIP3    H236640   0.333   2.345  17.007  0.1512 -0.5323  1.9450
 4149TIP3   OH236641   0.219   3.921  17.964  0.1821  0.2419  0.5682
 4149TIP3    H136642   0.169   3.955  18.039  0.3600 -0.9588  1.2674
 4149TIP3    H236643   0.158   3.862  17.920  0.1517  0.7788 -0.1215
 4150TIP3   OH236644   1.675   1.664  18.399 -0.4036 -0.2891 -0.1313
 4150TIP3    H136645   1.642   1.610  18.327  1.0485  0.7643 -1.6567
 4150TIP3    H236646   1.605   1.726  18.417 -0.9993 -0.9141 -0.2380
 4151TIP3   OH236647   3.862   2.979  18.774 -0.3145  0.1797  0.1202
 4151TIP3    H136648   3.803   2.984  18.849 -1.5685  0.5526 -0.8637
 4151TIP3    H236649   3.890   2.887  18.772 -1.6940 -0.2582 -0.0020
 4152TIP3   OH236650   4.584   5.891  18.838 -0.3367 -0.0322  0.4504
 4152TIP3    H136651   4.665   5.916  18.793 -0.7875  0.0496 -0.3346
 4152TIP3    H236652   4.515   5.939  18.791 -0.7188  0.9482  1.9466
 4153TIP3   OH236653   6.024   2.147  18.086  0.9183  0.2014 -0.2896
 4153TIP3    H136654   5.941   2.194  18.077  2.0088  2.4627  0.6787
 4153TIP3    H236655   6.032   2.129  18.180  1.4297 -0.2357 -0.4070
 4154TIP3   OH236656   4.483   4.312  19.659 -0.2269 -0.2125  0.0929
 4154TIP3    H136657   4.395   4.344  19.676 -0.4849 -1.7815  2.0824
 4154TIP3    H236658   4.536   4.350  19.729  0.0291 -1.6732  0.7312
 4155TIP3   OH236659   3.356   4.960  19.640 -0.2209  0.1354 -0.3471
 4155TIP3    H136660   3.280   4.903  19.630  0.0023 -0.0483 -1.0594
 4155TIP3    H236661   3.340   5.033  19.580 -0.2869  0.5913  0.2164
 4156TIP3   OH236662   2.335   1.053  19.167  0.0609 -0.2768  0.0601
 4156TIP3    H136663   2.358   1.115  19.235  0.7430  0.1587 -0.5552
 4156TIP3    H236664   2.323   0.970  19.213  0.7191 -0.0357  0.6821
 4157TIP3   OH236665   0.810   0.321  19.280 -0.0509  0.0827 -0.1321
 4157TIP3    H136666   0.785   0.387  19.345 -0.0887  0.1770 -0.2427
 4157TIP3    H236667   0.845   0.248  19.332  1.1019  0.6616 -0.0611
 4158TIP3   OH236668   0.562   3.536  17.878 -0.0412 -0.2479  0.3081
 4158TIP3    H136669   0.566   3.494  17.964 -1.3580 -1.3060 -0.1045
 4158TIP3    H236670   0.530   3.625  17.896  2.0876  0.4056  1.1208
 4159TIP3   OH236671   2.500   2.214  19.845  0.2191 -0.2038  0.1456
 4159TIP3    H136672   2.577   2.157  19.843  1.3762  1.2466  1.1975
 4159TIP3    H236673   2.469   2.210  19.935  2.2143  3.1165  1.1470
 4160TIP3   OH236674   5.483   0.841  18.804 -0.0105 -0.4618  0.3599
 4160TIP3    H136675   5.532   0.892  18.741 -0.7305 -0.8204 -0.5120
 4160TIP3    H236676   5.529   0.757  18.808  1.0280  0.1250  1.6093
 4161TIP3   OH236677   4.581   4.475  18.362 -0.7030  0.1310  0.9124
 4161TIP3    H136678   4.594   4.541  18.430 -2.8362  1.2179  0.3490
 4161TIP3    H236679   4.514   4.417  18.398 -0.2171 -0.6297  0.6154
 4162TIP3   OH236680   3.568   2.202  20.367 -0.2467 -0.1312 -0.0609
 4162TIP3    H136681   3.617   2.266  20.418 -1.8257  1.7788 -0.8190
 4162TIP3    H236682   3.570   2.235  20.277 -0.2452 -1.7045 -0.6730
 4163TIP3   OH236683   3.494   3.679  18.624  0.7148 -0.6786  0.0320
 4163TIP3    H136684   3.551   3.618  18.576  0.9275 -2.2740  2.1765
 4163TIP3    H236685   3.405   3.645  18.609  0.3787  0.9409 -2.0872
 4164TIP3   OH236686   3.209   6.454  19.717  0.7754  0.3955 -0.0382
 4164TIP3    H136687   3.214   6.467  19.812  2.0447  0.5347 -0.1034
 4164TIP3    H236688   3.247   6.534  19.680 -1.0642  1.0091 -0.7280
 4165TIP3   OH236689   0.705   2.089  17.621  0.7209  0.3849  0.2187
 4165TIP3    H136690   0.611   2.096  17.608  0.5396  0.6559  1.5575
 4165TIP3    H236691   0.728   2.003  17.587 -0.3747 -0.5691  1.7682
 4166TIP3   OH236692   4.771   2.276  17.721 -0.4390 -0.9906 -0.3853
 4166TIP3    H136693   4.709   2.203  17.717 -0.3869 -1.0039 -0.9113
 4166TIP3    H236694   4.715   2.354  17.717 -0.5719 -0.9722  1.0432
 4167TIP3   OH236695   1.534   1.437  19.426 -0.7422 -0.5324 -0.3035
 4167TIP3    H136696   1.547   1.528  19.400  1.8998  0.1576  2.6894
 4167TIP3    H236697   1.576   1.386  19.357  0.3072  0.7328 -0.6475
 4168TIP3   OH236698   6.507   4.356  17.412 -0.0515  0.1693  0.4890
 4168TIP3    H136699   6.570   4.419  17.376  0.1680  0.1118  0.7716
 4168TIP3    H236700   6.488   4.297  17.339  0.6403 -0.1418  0.5600
 4169TIP3   OH236701   1.066   4.543  17.457 -0.4277  0.4431 -0.1004
 4169TIP3    H136702   1.142   4.576  17.408  0.8520 -0.0382  1.4522
 4169TIP3    H236703   1.029   4.474  17.401  1.7052 -0.9109  0.0297
 4170TIP3   OH236704   1.090   4.397  19.576 -0.1868  0.5815 -0.0768
 4170TIP3    H136705   1.092   4.451  19.654 -1.4882  0.1378  0.2861
 4170TIP3    H236706   1.140   4.446  19.511  1.1838  0.8102  1.0992
 4171TIP3   OH236707   0.544   0.934  19.848 -0.3316 -0.6077  0.0268
 4171TIP3    H136708   0.499   0.980  19.919 -0.9545  1.6933 -1.7214
 4171TIP3    H236709   0.615   0.993  19.823 -0.3629 -1.1657 -1.4734
 4172TIP3   OH236710   2.938   6.370  18.357 -0.1837 -0.1295 -0.0823
 4172TIP3    H136711   2.940   6.442  18.294 -1.7661 -0.9556 -1.1547
 4172TIP3    H236712   2.847   6.365  18.385  0.0912 -1.1256  0.6915
 4173TIP3   OH236713   2.841   2.321  17.652  0.2799 -0.0770  0.0579
 4173TIP3    H136714   2.844   2.299  17.559 -2.3497  2.2830 -0.7295
 4173TIP3    H236715   2.748   2.313  17.676  0.6443  0.8948  2.0364
 4174TIP3   OH236716   0.461   4.918  17.023  0.0546 -0.1695 -0.7026
 4174TIP3    H136717   0.408   4.898  16.945 -0.6369 -1.2805  0.0250
 4174TIP3    H236718   0.509   4.997  16.999 -2.7409  1.5628 -0.9934
 4175TIP3   OH236719   1.426   2.868  18.437 -0.7126 -0.3906  0.6960
 4175TIP3    H136720   1.472   2.905  18.362  0.1612  0.4485  1.6209
 4175TIP3    H236721   1.335   2.895  18.425 -0.7587 -1.0183 -0.5079
 4176TIP3   OH236722   5.097   4.024  17.147  0.1401  0.1686  0.1997
 4176TIP3    H136723   5.177   4.056  17.191 -1.0611  1.5342  1.4970
 4176TIP3    H236724   5.084   4.084  17.074  1.3967 -1.3121 -1.3347
 4177TIP3   OH236725   2.193   5.503  18.460  0.3481  0.7758  0.1229
 4177TIP3    H136726   2.233   5.488  18.374 -0.1048 -0.1498  0.0596
 4177TIP3    H236727   2.267   5.522  18.518  0.6380  1.6433 -0.5099
 4178TIP3   OH236728   3.421   2.532  20.437 -0.1993 -0.8629 -0.1645
 4178TIP3    H136729   3.339   2.578  20.456  1.1009  1.6001 -0.0160
 4178TIP3    H236730   3.440   2.554  20.346  0.4570 -1.1201 -0.0961
 4179TIP3   OH236731   5.710   4.255  20.235 -0.2187 -0.1439 -0.4556
 4179TIP3    H136732   5.651   4.230  20.164 -2.1804  1.9620  0.3198
 4179TIP3    H236733   5.711   4.178  20.292 -1.2044 -0.7059 -1.1484
 4180TIP3   OH236734   3.041   3.448  19.429  0.3283 -0.2561 -0.0386
 4180TIP3    H136735   3.134   3.470  19.425  0.2903 -0.2412 -0.8539
 4180TIP3    H236736   3.003   3.488  19.351 -0.5634  0.6266  0.8172
 4181TIP3   OH236737   5.178   4.160  20.235 -0.3754 -0.6061  0.9517
 4181TIP3    H136738   5.262   4.125  20.206  0.0383  1.5451 -0.7228
 4181TIP3    H236739   5.199   4.213  20.312  0.3819  2.0455 -0.9305
 4182TIP3   OH236740   0.518   6.553  16.704  0.2893  0.3145 -0.4093
 4182TIP3    H136741   0.497   6.465  16.735 -0.9026  0.8454  0.3598
 4182TIP3    H236742   0.504   6.549  16.609 -0.3087 -0.1853 -0.3065
 4183TIP3   OH236743   4.287   3.436  18.270  0.7470 -0.2638 -0.0303
 4183TIP3    H136744   4.199   3.464  18.246  0.0911 -0.9939  1.4094
 4183TIP3    H236745   4.344   3.508  18.244 -0.5458  1.1845  0.9940
 4184TIP3   OH236746   2.235   4.896  19.466  0.1068 -0.4324 -0.2790
 4184TIP3    H136747   2.292   4.890  19.389 -0.2483 -1.7776 -0.4449
 4184TIP3    H236748   2.192   4.811  19.472 -2.2384  0.6802 -0.4034
 4185TIP3   OH236749   3.164   0.475  17.209 -0.2622 -0.5996 -0.0066
 4185TIP3    H136750   3.125   0.428  17.136  0.2260  0.4957 -1.0053
 4185TIP3    H236751   3.205   0.552  17.169 -0.7448  0.4984  1.5067
 4186TIP3   OH236752   5.040   2.403  18.679  0.0039 -0.5359  0.4093
 4186TIP3    H136753   5.128   2.411  18.641 -0.0454 -1.8114 -0.0379
 4186TIP3    H236754   4.981   2.419  18.605 -0.2037  1.9984  1.0591
 4187TIP3   OH236755   4.712   0.909  18.409  0.0255 -0.3536  0.3833
 4187TIP3    H136756   4.674   0.869  18.487 -3.1618 -2.5155 -2.0196
 4187TIP3    H236757   4.721   0.836  18.347  1.3857  1.4363 -1.6736
 4188TIP3   OH236758   3.924   4.868  17.955  0.1249  0.7554 -0.1115
 4188TIP3    H136759   4.007   4.908  17.928  0.1315  0.1641 -1.0097
 4188TIP3    H236760   3.922   4.784  17.909 -1.3203  1.0929 -0.7176
 4189TIP3   OH236761   6.587   1.031  17.245 -0.5164  0.0202  0.0803
 4189TIP3    H136762   6.624   1.117  17.228  1.1706 -0.5592  0.6419
 4189TIP3    H236763   6.649   0.989  17.305 -0.8228 -1.8999 -0.8527
 4190TIP3   OH236764   4.781   1.769  19.354 -0.5164  0.6081  0.0585
 4190TIP3    H136765   4.863   1.808  19.323  0.4079 -1.2434  0.0626
 4190TIP3    H236766   4.713   1.821  19.311  0.6609  1.3711 -0.9740
 4191TIP3   OH236767   4.212   3.560  19.914 -0.7568 -0.0404  0.4547
 4191TIP3    H136768   4.195   3.634  19.857  0.7262 -0.9122 -1.2149
 4191TIP3    H236769   4.284   3.513  19.873 -1.6541 -2.4546  1.4093
 4192TIP3   OH236770   2.758   5.374  19.580 -0.2411 -0.0070 -0.4588
 4192TIP3    H136771   2.685   5.433  19.563  0.7852  0.9596 -1.6998
 4192TIP3    H236772   2.824   5.429  19.622  0.4135 -0.4717 -0.8757
 4193TIP3   OH236773   3.256   3.432  19.765 -0.2883 -0.3022  0.4145
 4193TIP3    H136774   3.222   3.374  19.696 -0.6404 -0.1704  0.4772
 4193TIP3    H236775   3.351   3.433  19.751 -0.4348  0.4310 -0.6303
 4194TIP3   OH236776   2.933   0.649  18.368  0.1859 -0.0008 -0.1900
 4194TIP3    H136777   2.869   0.677  18.434 -1.1838 -2.0375 -0.5838
 4194TIP3    H236778   3.014   0.636  18.417  0.1902  1.9597  0.4330
 4195TIP3   OH236779   0.536   1.505  19.466  0.7911 -0.1762  0.0402
 4195TIP3    H136780   0.468   1.572  19.462 -0.5779 -1.2514  2.7821
 4195TIP3    H236781   0.603   1.543  19.523  0.2175 -0.9004  1.2345
 4196TIP3   OH236782   0.377   4.031  18.939 -0.5318  0.2777  0.6748
 4196TIP3    H136783   0.424   4.108  18.910  0.3582 -0.2828  0.5897
 4196TIP3    H236784   0.444   3.964  18.949 -1.3009 -0.5289  0.6002
 4197TIP3   OH236785   4.233   2.212  19.915 -0.4822  0.3434 -0.1260
 4197TIP3    H136786   4.190   2.204  19.999 -0.1036 -1.5560 -0.0659
 4197TIP3    H236787   4.172   2.174  19.852  0.3708 -0.8393 -0.2776
 4198TIP3   OH236788   6.015   2.932  19.218 -0.0674 -0.0423 -0.1179
 4198TIP3    H136789   6.042   2.847  19.252  0.4835 -0.0134 -0.4755
 4198TIP3    H236790   5.919   2.927  19.216 -0.0189 -1.0727 -1.1824
 4199TIP3   OH236791   4.153   5.338  18.216  0.3752 -0.1677 -0.1201
 4199TIP3    H136792   4.197   5.391  18.282  0.4785 -0.6371  0.1961
 4199TIP3    H236793   4.065   5.325  18.250  1.2893 -3.0336  1.5383
 4200TIP3   OH236794   6.590   4.260  19.694  0.0677  0.3603 -0.1798
 4200TIP3    H136795   6.537   4.339  19.706  1.2494  1.4412 -1.6715
 4200TIP3    H236796   6.633   4.272  19.609  2.0630 -0.8339  0.5819
 4201TIP3   OH236797   5.344   4.378  19.913  0.1762 -0.0336 -0.1945
 4201TIP3    H136798   5.347   4.348  19.823 -0.0751  0.3033 -0.3183
 4201TIP3    H236799   5.400   4.456  19.914  0.3729 -0.1769 -0.0058
 4202TIP3   OH236800   0.344   1.706  19.464 -0.3576 -0.2321 -0.0325
 4202TIP3    H136801   0.429   1.734  19.498 -0.8054 -0.4437  1.3054
 4202TIP3    H236802   0.299   1.788  19.443 -1.0810  0.0775  2.4394
 4203TIP3   OH236803   2.647   5.974  18.478 -0.0213 -0.4456 -1.0237
 4203TIP3    H136804   2.698   5.936  18.549 -2.9416 -5.0592 -0.9685
 4203TIP3    H236805   2.678   5.930  18.399 -1.7184 -1.0755 -1.3981
 4204TIP3   OH236806   5.519   1.523  19.734  0.0496 -0.3438 -0.0338
 4204TIP3    H136807   5.587   1.461  19.706 -0.7975 -0.4764 -1.9407
 4204TIP3    H236808   5.534   1.601  19.682 -0.6732 -0.0191  0.2277
 4205TIP3   OH236809   4.075   1.329  16.782  0.2022 -0.1347 -0.5865
 4205TIP3    H136810   4.011   1.306  16.714 -0.6912  0.1016  0.1508
 4205TIP3    H236811   4.160   1.310  16.743 -0.3571 -1.4827 -1.2226
 4206TIP3   OH236812   0.408   4.966  17.615 -0.1422  0.6572  0.3525
 4206TIP3    H136813   0.482   5.018  17.583  0.0224  0.4924  0.4698
 4206TIP3    H236814   0.388   4.906  17.543  1.6564 -1.2610  1.3774
 4207TIP3   OH236815   5.287   1.197  18.932 -0.2356 -0.4598  0.1801
 4207TIP3    H136816   5.288   1.201  18.836 -1.8077  1.1849  0.1908
 4207TIP3    H236817   5.365   1.246  18.958 -2.1230  3.0995 -0.2806
 4208TIP3   OH236818   4.985   0.257  19.903 -0.6827 -0.3097  0.1376
 4208TIP3    H136819   4.971   0.257  19.997 -1.4051 -1.4679  0.0578
 4208TIP3    H236820   5.078   0.276  19.892 -0.6165 -0.0573  1.0752
 4209TIP3   OH236821   3.339   0.421  16.813  0.4526 -0.1298 -0.0775
 4209TIP3    H136822   3.429   0.387  16.814  0.9506  0.8726 -2.8212
 4209TIP3    H236823   3.323   0.443  16.721 -1.1543  3.4478  0.8772
 4210TIP3   OH236824   1.772   4.823  18.972 -0.4364  0.4032 -0.0319
 4210TIP3    H136825   1.713   4.894  18.946  0.6511  1.1007 -0.6882
 4210TIP3    H236826   1.785   4.772  18.892 -2.1881 -1.3195  0.7174
 4211TIP3   OH236827   2.390   3.360  19.811 -0.3772  0.0839 -0.2935
 4211TIP3    H136828   2.352   3.399  19.732  1.1940 -1.4227 -1.8903
 4211TIP3    H236829   2.349   3.273  19.817  0.3863 -0.2808 -0.1774
 4212TIP3   OH236830   1.721   1.372  17.650 -0.5762  0.2260  0.3392
 4212TIP3    H136831   1.740   1.361  17.557  0.4393 -0.2293  0.5919
 4212TIP3    H236832   1.714   1.283  17.684 -0.3320  0.3861  0.8190
 4213TIP3   OH236833   1.902   5.129  17.359 -0.7583 -0.3774  0.1202
 4213TIP3    H136834   1.815   5.115  17.323  0.7937 -2.2288 -3.4284
 4213TIP3    H236835   1.928   5.215  17.327 -1.0135 -0.1012  0.6418
 4214TIP3   OH236836   1.760   3.232  19.026 -0.1555  0.9504  0.1775
 4214TIP3    H136837   1.688   3.295  19.031 -0.7504  0.1851  2.5609
 4214TIP3    H236838   1.836   3.280  19.058 -0.1503  1.0432  0.0274
 4215TIP3   OH236839   0.742   4.074  17.595  0.7967 -0.0554  0.5819
 4215TIP3    H136840   0.823   4.064  17.546  0.1176 -0.0655 -0.5863
 4215TIP3    H236841   0.732   4.168  17.607  1.3524 -0.0929  1.3953
 4216TIP3   OH236842   5.221   2.082  19.567  0.1137 -0.2571  0.2060
 4216TIP3    H136843   5.295   2.028  19.597  1.1338  1.4304  0.8726
 4216TIP3    H236844   5.259   2.169  19.555 -1.1080  0.0000 -2.4085
 4217TIP3   OH236845   5.582   0.704  19.552  0.2826 -0.0128 -0.0581
 4217TIP3    H136846   5.620   0.749  19.627  1.3790  0.1530 -0.6955
 4217TIP3    H236847   5.563   0.774  19.489  0.6706 -0.2857 -0.4863
 4218TIP3   OH236848   3.524   5.822  18.971 -0.0001  0.1789  0.1481
 4218TIP3    H136849   3.449   5.882  18.966  0.7988  1.2765  0.9635
 4218TIP3    H236850   3.586   5.857  18.907 -1.0505 -2.1096 -2.3344
 4219TIP3   OH236851   5.701   0.864  19.746 -0.2690  0.0140 -0.1906
 4219TIP3    H136852   5.678   0.864  19.839 -2.1560  0.4949 -0.6146
 4219TIP3    H236853   5.796   0.875  19.745  0.1261 -2.4807  1.7057
 4220TIP3   OH236854   2.091   6.113  19.785  0.2616  0.4061  0.1554
 4220TIP3    H136855   2.000   6.086  19.770  0.5426  0.0920 -1.1978
 4220TIP3    H236856   2.110   6.172  19.712  1.1116  0.5446  0.4808
 4221TIP3   OH236857   4.784   5.866  19.035  0.0063 -0.5184 -0.6875
 4221TIP3    H136858   4.703   5.858  18.985 -1.0124  0.8961  0.6665
 4221TIP3    H236859   4.760   5.840  19.124  1.3517 -1.2306 -0.5038
 4222TIP3   OH236860   6.255   2.389  17.041  0.2492  0.4972  0.1152
 4222TIP3    H136861   6.180   2.427  16.995 -1.8342 -1.2329  1.8575
 4222TIP3    H236862   6.295   2.464  17.086 -1.5585  1.2572  0.5938
 4223TIP3   OH236863   2.732   1.110  19.038 -0.3611  0.4116  1.0775
 4223TIP3    H136864   2.686   1.106  18.954  0.4745  0.1629  0.6162
 4223TIP3    H236865   2.709   1.028  19.082  0.2080 -0.0436  0.5390
 4224TIP3   OH236866   4.542   6.447  20.276 -0.0158 -0.1930 -0.1058
 4224TIP3    H136867   4.506   6.531  20.306 -1.1276 -0.0405 -1.7074
 4224TIP3    H236868   4.611   6.472  20.214 -1.2107 -0.3891 -1.5823
 4225TIP3   OH236869   3.170   4.618  19.803 -0.6431 -0.1925  0.1699
 4225TIP3    H136870   3.260   4.634  19.773 -0.1714 -1.4629  0.8344
 4225TIP3    H236871   3.141   4.543  19.752 -0.4459 -1.2977  1.6465
 4226TIP3   OH236872   3.208   2.335  17.320  0.1224 -0.0329 -0.1097
 4226TIP3    H136873   3.298   2.355  17.345 -0.4253  0.9053  1.2433
 4226TIP3    H236874   3.205   2.351  17.226  1.0999  1.0674  0.0252
 4227TIP3   OH236875   3.779   5.818  18.827  0.0180 -0.0272 -0.1086
 4227TIP3    H136876   3.857   5.827  18.772 -0.8740  1.2837 -1.2218
 4227TIP3    H236877   3.794   5.879  18.899 -0.8422  1.7989 -1.4146
 4228TIP3   OH236878   4.091   3.333  19.808 -0.0162  0.6719 -0.8938
 4228TIP3    H136879   4.163   3.389  19.835 -0.7905  1.8444 -1.1554
 4228TIP3    H236880   4.076   3.274  19.882  2.3502 -0.8359 -1.5183
 4229TIP3   OH236881   0.205   1.905  19.039 -0.5881  0.4399  0.2792
 4229TIP3    H136882   0.262   1.842  19.083 -3.4187 -0.8006  2.5276
 4229TIP3    H236883   0.198   1.871  18.949 -0.4890 -1.3471  0.9106
 4230TIP3   OH236884   5.843   3.779  19.519 -0.2872  0.0528 -0.1414
 4230TIP3    H136885   5.879   3.692  19.536  0.1942  0.8078  3.5341
 4230TIP3    H236886   5.774   3.789  19.585 -0.1839  2.5489 -0.3273
 4231TIP3   OH236887   3.138   6.423  18.781  0.1607 -0.2035  0.3912
 4231TIP3    H136888   3.059   6.464  18.745  1.3302  0.6952 -1.3112
 4231TIP3    H236889   3.115   6.403  18.871 -2.3885 -1.0164 -0.3406
 4232TIP3   OH236890   2.853   6.361  17.694  0.5640  0.8796 -0.0069
 4232TIP3    H136891   2.826   6.431  17.754 -0.7928  0.1890  0.2243
 4232TIP3    H236892   2.842   6.281  17.744 -1.0851  0.2372 -1.2889
 4233TIP3   OH236893   2.173   0.158  20.109  0.5482 -0.4370 -0.2898
 4233TIP3    H136894   2.092   0.201  20.137  1.8440  1.8493  0.2197
 4233TIP3    H236895   2.146   0.101  20.037 -1.5036  0.2664 -0.1557
 4234TIP3   OH236896   5.593   1.699  17.104 -0.5316 -0.3698  0.5270
 4234TIP3    H136897   5.648   1.704  17.025 -1.0108  1.6328  0.2457
 4234TIP3    H236898   5.656   1.696  17.176 -0.0162  0.7461  0.1579
 4235TIP3   OH236899   2.154   1.137  16.708 -0.0645  0.3581 -0.0346
 4235TIP3    H136900   2.137   1.226  16.678  1.7130  1.9857  3.2339
 4235TIP3    H236901   2.250   1.129  16.707 -0.1984 -2.2290 -1.8811
 4236TIP3   OH236902   2.002   4.158  19.376 -0.2105  0.1915  0.5171
 4236TIP3    H136903   1.922   4.133  19.331  0.1054  0.7248 -0.3556
 4236TIP3    H236904   1.976   4.170  19.467 -1.8851  3.6095 -0.2608
 4237TIP3   OH236905   2.995   2.990  20.157  0.4516 -0.3167 -0.0003
 4237TIP3    H136906   3.087   2.991  20.131  0.1144  1.4592 -1.2942
 4237TIP3    H236907   2.968   3.081  20.153 -0.9960 -0.5943  1.8844
 4238TIP3   OH236908   5.500   1.367  19.353 -0.0096 -0.2036  0.5900
 4238TIP3    H136909   5.551   1.366  19.272 -0.1853  2.6407  0.3119
 4238TIP3    H236910   5.561   1.398  19.420 -0.1165 -1.5974  1.3557
 4239TIP3   OH236911   6.478   2.932  18.454 -0.0221  0.4910 -0.5196
 4239TIP3    H136912   6.422   2.980  18.392 -1.8651  1.2968  1.6039
 4239TIP3    H236913   6.559   2.983  18.458 -0.2543  0.9677 -1.5131
 4240TIP3   OH236914   2.331   2.270  17.827 -0.1036  0.2804 -0.1521
 4240TIP3    H136915   2.242   2.302  17.817 -0.1685 -0.2844 -1.6384
 4240TIP3    H236916   2.329   2.218  17.908 -1.2117 -0.0435 -0.3754
 4241TIP3   OH236917   4.716   3.286  18.203 -0.0186  0.1705  0.1335
 4241TIP3    H136918   4.657   3.240  18.144 -0.9708  0.4900  0.7995
 4241TIP3    H236919   4.674   3.372  18.215 -0.0503 -0.0291  1.5576
 4242TIP3   OH236920   3.157   3.029  17.772  1.0111  0.3632 -0.0268
 4242TIP3    H136921   3.206   3.105  17.738 -0.6843  1.4993 -0.0637
 4242TIP3    H236922   3.184   2.957  17.715  1.0142  1.4263 -1.4505
 4243TIP3   OH236923   6.590   1.673  19.870 -0.2817 -0.3002  0.2895
 4243TIP3    H136924   6.640   1.637  19.796  0.1510  0.2543  0.3044
 4243TIP3    H236925   6.641   1.749  19.899 -1.2505  0.4146  0.1700
 4244TIP3   OH236926   1.579   6.103  19.837 -0.1216 -0.0955  0.7766
 4244TIP3    H136927   1.536   6.018  19.846 -0.3162 -0.0175  0.6098
 4244TIP3    H236928   1.510   6.167  19.854  0.1995  0.0263  1.6424
 4245TIP3   OH236929   6.483   3.248  18.334 -0.2220 -0.3397  0.5460
 4245TIP3    H136930   6.430   3.322  18.305 -0.7628 -0.6499  0.7251
 4245TIP3    H236931   6.573   3.279  18.328 -0.0818 -0.9201 -3.2904
 4246TIP3   OH236932   6.142   0.611  17.093  0.4624 -0.4172  0.4198
 4246TIP3    H136933   6.140   0.647  17.181  0.1020 -0.6296  0.5037
 4246TIP3    H236934   6.231   0.627  17.061  0.4426  0.1113  0.6304
 4247TIP3   OH236935   0.224   0.739  18.864  0.4387 -0.1171  0.1025
 4247TIP3    H136936   0.135   0.705  18.852  0.0498  1.1298 -0.8005
 4247TIP3    H236937   0.217   0.798  18.939  0.2498  0.7319 -0.5617
 4248TIP3   OH236938   3.465   1.568  18.755  0.1179  0.1708  0.2645
 4248TIP3    H136939   3.381   1.601  18.722  0.2137  1.1101  0.9346
 4248TIP3    H236940   3.482   1.490  18.702 -1.7084 -0.6744  0.8391
 4249TIP3   OH236941   5.569   5.445  20.075  0.2221 -0.3370  0.0284
 4249TIP3    H136942   5.520   5.485  20.147  0.2347  0.4774 -0.3997
 4249TIP3    H236943   5.545   5.353  20.078 -0.5258 -0.1374  0.4709
 4250TIP3   OH236944   4.452   0.087  18.409  0.2165 -0.6668 -0.1454
 4250TIP3    H136945   4.465   0.020  18.476 -0.4075  0.1523  0.8245
 4250TIP3    H236946   4.537   0.092  18.364  0.3157 -1.9830 -0.1420
 4251TIP3   OH236947   0.154   6.355  19.774 -1.2624  0.5489 -0.1817
 4251TIP3    H136948   0.090   6.295  19.736 -1.2096  0.7366 -0.5698
 4251TIP3    H236949   0.137   6.351  19.868 -2.0702  0.8441 -0.3049
 4252TIP3   OH236950   4.978   4.250  17.595  0.6426 -0.3657 -0.0568
 4252TIP3    H136951   4.915   4.318  17.619  1.7444  0.3251  0.9617
 4252TIP3    H236952   4.942   4.170  17.633  0.7548  0.1544  1.1677
 4253TIP3   OH236953   0.405   1.709  20.271  0.0129  0.0115  0.2841
 4253TIP3    H136954   0.353   1.695  20.192 -0.3357  0.1978  0.4805
 4253TIP3    H236955   0.421   1.621  20.305 -0.1345 -0.0487  0.1975
 4254TIP3   OH236956   5.675   1.294  19.758 -0.6378  0.8756  0.1202
 4254TIP3    H136957   5.618   1.225  19.726 -0.4836  1.1717 -0.8368
 4254TIP3    H236958   5.748   1.295  19.697 -1.8196  3.4976 -1.4238
 4255TIP3   OH236959   2.789   4.818  17.755  0.0553  0.3753  0.0937
 4255TIP3    H136960   2.880   4.837  17.775  0.3402 -0.3311 -0.5113
 4255TIP3    H236961   2.787   4.804  17.661 -0.5714 -0.1790  0.1816
 4256TIP3   OH236962   0.848   2.300  17.546  0.2685  0.1884 -0.3379
 4256TIP3    H136963   0.904   2.228  17.520  0.4009  0.3728 -0.5694
 4256TIP3    H236964   0.778   2.260  17.598 -0.0688 -0.1988 -1.0810
 4257TIP3   OH236965   6.055   4.028  17.316  0.1463  0.5286 -0.2203
 4257TIP3    H136966   6.074   3.935  17.308 -1.2849  0.1028  0.8544
 4257TIP3    H236967   6.022   4.053  17.230  0.6260  0.0776 -0.5413
 4258TIP3   OH236968   4.102   3.958  17.903  0.1402  0.4584 -0.3810
 4258TIP3    H136969   4.136   4.046  17.918 -0.2989  0.6111 -0.2609
 4258TIP3    H236970   4.142   3.930  17.821 -0.2381  1.0352 -0.7668
 4259TIP3   OH236971   2.973   5.794  16.767  0.1411  0.1570  0.0689
 4259TIP3    H136972   2.983   5.889  16.771  1.7081  0.0925 -1.2242
 4259TIP3    H236973   3.063   5.760  16.774 -0.0105 -1.0391 -2.4667
 4260TIP3   OH236974   0.595   3.396  18.128  0.9673 -0.2913  0.5591
 4260TIP3    H136975   0.634   3.317  18.165  2.4216 -0.1206 -0.5213
 4260TIP3    H236976   0.646   3.467  18.167  0.4749  0.0450  0.5899
 4261TIP3   OH236977   2.470   5.775  20.128  0.4281 -0.3928 -0.5332
 4261TIP3    H136978   2.381   5.741  20.120  0.3743 -0.4620  0.2423
 4261TIP3    H236979   2.459   5.867  20.150  0.5534 -0.3482 -0.6550
 4262TIP3   OH236980   4.262   4.542  20.262  0.0979  0.1676  0.0643
 4262TIP3    H136981   4.176   4.506  20.240  1.0895 -1.5247 -1.3593
 4262TIP3    H236982   4.257   4.560  20.356 -1.2655 -1.5482  0.3804
 4263TIP3   OH236983   2.000   4.585  17.786 -0.0790 -0.0812 -0.3046
 4263TIP3    H136984   2.052   4.587  17.706 -0.6642  0.9386 -0.6741
 4263TIP3    H236985   1.934   4.517  17.771  1.6477 -2.0689  0.5308
 4264TIP3   OH236986   0.278   3.177  17.873  0.3528 -0.1698  0.0909
 4264TIP3    H136987   0.273   3.267  17.843 -2.2028  0.2444  1.5292
 4264TIP3    H236988   0.337   3.180  17.949  0.8170  0.1445 -0.2767
 4265TIP3   OH236989   0.803   5.645  19.471  0.6668 -0.6446  0.1305
 4265TIP3    H136990   0.816   5.715  19.407 -0.9265  0.8682  1.3455
 4265TIP3    H236991   0.857   5.671  19.546 -0.5318 -0.2395  0.8898
 4266TIP3   OH236992   5.634   2.160  17.787 -0.2750 -0.2657  0.4377
 4266TIP3    H136993   5.711   2.142  17.842 -0.5027 -2.2329  0.2020
 4266TIP3    H236994   5.588   2.231  17.832  0.9235 -0.0412  1.3567
 4267TIP3   OH236995   2.257   0.154  19.328  0.2596  0.8462  0.1635
 4267TIP3    H136996   2.260   0.059  19.338  0.2008  0.7731 -0.4592
 4267TIP3    H236997   2.307   0.171  19.248 -0.0653  1.3073  0.0571
 4268TIP3   OH236998   1.362   2.288  16.873  0.0103  0.1429  0.1465
 4268TIP3    H136999   1.370   2.301  16.778 -2.7722 -1.2516 -0.3712
 4268TIP3    H237000   1.343   2.195  16.883  0.5789  0.2004  2.1518
 4269TIP3   OH237001   4.366   5.332  17.479  0.3991  0.1352 -0.0389
 4269TIP3    H137002   4.301   5.352  17.412  2.3308  2.8613 -1.2889
 4269TIP3    H237003   4.450   5.352  17.438  1.8130  0.0246  2.5803
 4270TIP3   OH237004   4.118   4.958  19.536 -0.0968  0.5047  0.1120
 4270TIP3    H137005   4.149   5.044  19.566 -0.6257  1.2709 -1.3883
 4270TIP3    H237006   4.173   4.939  19.460 -0.4092 -0.1759  0.0558
 4271TIP3   OH237007   1.738   4.909  20.043  0.6011 -0.4111  0.1907
 4271TIP3    H137008   1.749   4.957  20.125 -1.5511 -1.1122  0.9636
 4271TIP3    H237009   1.782   4.963  19.977  2.0037  0.3803  1.7208
 4272TIP3   OH237010   2.340   6.478  17.669  0.0403  0.0242 -0.0661
 4272TIP3    H137011   2.382   6.398  17.636 -2.0105 -1.3050  0.3586
 4272TIP3    H237012   2.288   6.510  17.595 -1.8808 -1.0399  0.7730
 4273TIP3   OH237013   3.616   4.848  19.723  0.1548  0.2039  0.2141
 4273TIP3    H137014   3.700   4.879  19.689 -1.2743  0.5253 -3.4549
 4273TIP3    H237015   3.551   4.899  19.675 -2.1919 -0.2982  2.6646
 4274TIP3   OH237016   4.695   4.107  18.806  0.1171  0.0549 -0.2396
 4274TIP3    H137017   4.749   4.035  18.839 -1.1435 -0.6651  0.3032
 4274TIP3    H237018   4.724   4.119  18.716  1.0473 -0.4400 -0.0211
 4275TIP3   OH237019   2.057   0.631  17.440  0.1869  0.0725  0.0763
 4275TIP3    H137020   2.036   0.586  17.522  1.4398  0.3196  0.5449
 4275TIP3    H237021   2.009   0.714  17.447 -0.7439 -0.4341 -0.0341
 4276TIP3   OH237022   6.681   2.404  19.694  0.0835 -0.3794  0.0886
 4276TIP3    H137023   6.599   2.392  19.645  0.9520 -1.0889 -1.2723
 4276TIP3    H237024   6.678   2.338  19.763 -0.8738  0.1867  0.6003
 4277TIP3   OH237025   1.040   5.719  18.036 -0.3282 -0.1715 -0.0448
 4277TIP3    H137026   1.016   5.740  17.946 -1.4435 -0.0114  0.2820
 4277TIP3    H237027   1.132   5.693  18.030  0.1810  1.6609 -0.9373
 4278TIP3   OH237028   1.765   5.760  19.329 -0.5430  0.3479  0.4425
 4278TIP3    H137029   1.808   5.793  19.250 -2.5559  1.5698 -0.2458
 4278TIP3    H237030   1.720   5.680  19.300 -1.0185  0.6203  0.4128
 4279TIP3   OH237031   3.119   3.908  17.932  0.1497  0.0743 -0.6035
 4279TIP3    H137032   3.093   3.927  17.842 -0.9344 -1.4900 -0.6553
 4279TIP3    H237033   3.081   3.979  17.983  0.7038  0.9276 -1.3511
 4280TIP3   OH237034   6.173   4.133  17.547  0.3731 -0.4968 -0.2020
 4280TIP3    H137035   6.131   4.077  17.482  1.3554 -1.1292 -0.3043
 4280TIP3    H237036   6.240   4.078  17.587  1.8613  0.7967 -0.7921
 4281TIP3   OH237037   4.448   4.107  17.983 -0.0641  0.3469  0.3555
 4281TIP3    H137038   4.486   4.182  18.028  0.0827 -0.2384  1.2193
 4281TIP3    H237039   4.385   4.070  18.045 -0.2448 -0.1598 -0.1181
 4282TIP3   OH237040   5.765   0.720  18.285  0.4003 -0.0576 -0.3311
 4282TIP3    H137041   5.833   0.744  18.348 -0.4760  1.1410  0.2141
 4282TIP3    H237042   5.807   0.658  18.226  1.4174 -0.7893  1.1014
 4283TIP3   OH237043   2.571   5.549  18.214 -0.1276 -0.2878 -0.1674
 4283TIP3    H137044   2.626   5.476  18.185  0.6088  0.3425 -0.4049
 4283TIP3    H237045   2.605   5.574  18.299  0.1472  0.2856 -0.4367
 4284TIP3   OH237046   1.804   4.532  20.581  0.0500  0.0673 -0.0510
 4284TIP3    H137047   1.721   4.485  20.595 -0.2864 -0.1022 -2.3005
 4284TIP3    H237048   1.865   4.464  20.552  0.3834  0.5458 -0.4725
 4285TIP3   OH237049   4.178   0.679  18.181  0.8923 -0.2063  0.1299
 4285TIP3    H137050   4.234   0.730  18.123 -1.5753  2.0695 -0.4188
 4285TIP3    H237051   4.170   0.732  18.260 -0.1873 -0.6338  0.3280
 4286TIP3   OH237052   5.509   1.690  19.181  0.2182  0.0407 -0.6288
 4286TIP3    H137053   5.431   1.717  19.229  0.2864  2.1733 -1.5790
 4286TIP3    H237054   5.582   1.718  19.238  0.3093 -1.1170 -0.1582
 4287TIP3   OH237055   1.966   5.804  17.059 -0.0203  0.2380 -0.2678
 4287TIP3    H137056   1.915   5.776  16.983  0.0658  0.6891 -0.4944
 4287TIP3    H237057   1.965   5.728  17.117  0.5257 -0.3862 -1.0328
 4288TIP3   OH237058   4.206   4.472  17.442  0.0116  0.6309 -0.1144
 4288TIP3    H137059   4.224   4.379  17.428  0.6957  0.9560 -1.5820
 4288TIP3    H237060   4.290   4.515  17.427 -0.3608  1.5280  0.2756
 4289TIP3   OH237061   1.613   2.464  16.872  0.1896 -0.0030 -0.2867
 4289TIP3    H137062   1.568   2.543  16.842 -0.9025 -0.7070 -0.5855
 4289TIP3    H237063   1.544   2.412  16.912  0.9535 -0.6788  0.1776
 4290TIP3   OH237064   0.380   4.745  17.458  0.3609  0.1970 -0.4476
 4290TIP3    H137065   0.351   4.706  17.376 -1.6713 -0.1907  0.3936
 4290TIP3    H237066   0.346   4.687  17.526  0.6981  1.3094  0.7101
 4291TIP3   OH237067   0.863   2.974  19.314  0.1597  0.5903  0.0288
 4291TIP3    H137068   0.958   2.978  19.309  0.2628  2.4106  1.8825
 4291TIP3    H237069   0.844   2.944  19.403 -1.0122  0.1275 -0.3458
 4292TIP3   OH237070   2.053   6.054  18.598  0.2133  0.3405 -0.3032
 4292TIP3    H137071   1.988   6.042  18.529 -0.7618 -1.8545  0.8778
 4292TIP3    H237072   2.002   6.077  18.676  0.9302 -0.4959  0.4328
 4293TIP3   OH237073   0.654   4.671  19.174 -0.2068 -0.9986 -0.4792
 4293TIP3    H137074   0.643   4.737  19.243 -0.8863 -1.4028 -0.2005
 4293TIP3    H237075   0.671   4.590  19.220 -1.3032 -1.4007 -0.7582
 4294TIP3   OH237076   4.625   6.601  19.946  0.2321 -0.1304  0.4219
 4294TIP3    H137077   4.689   6.664  19.915  0.5075 -0.7272 -0.2567
 4294TIP3    H237078   4.622   6.534  19.877 -0.8192 -0.3161  0.6302
 4295TIP3   OH237079   2.226   3.954  19.022 -0.7523 -0.2509  0.3032
 4295TIP3    H137080   2.309   4.000  19.011 -0.6369 -0.0136  1.9965
 4295TIP3    H237081   2.181   3.967  18.939  0.0842  1.2733  0.0527
 4296TIP3   OH237082   4.628   2.740  19.133 -0.3643 -0.1094 -0.6230
 4296TIP3    H137083   4.534   2.756  19.143  0.2776  3.3033  1.7379
 4296TIP3    H237084   4.664   2.752  19.221  2.3796 -0.6827 -1.5615
 4297TIP3   OH237085   2.573   1.729  20.221  0.0425  0.3024  0.0432
 4297TIP3    H137086   2.624   1.741  20.141  0.7017 -0.5361  0.3163
 4297TIP3    H237087   2.572   1.815  20.263  0.4814  0.5301 -0.4063
 4298TIP3   OH237088   6.185   4.191  19.284 -0.0604 -0.2534  0.0596
 4298TIP3    H137089   6.248   4.128  19.320 -0.6101 -0.0476  1.4345
 4298TIP3    H237090   6.229   4.228  19.208  1.9882  0.7406  1.6270
 4299TIP3   OH237091   4.357   4.752  18.357  0.2316 -0.5461 -0.6219
 4299TIP3    H137092   4.385   4.813  18.426  0.2704 -0.0855 -1.0339
 4299TIP3    H237093   4.426   4.759  18.290  0.2221 -1.0272 -0.6843
 4300TIP3   OH237094   5.811   3.595  18.223  0.0186 -0.2677 -0.5086
 4300TIP3    H137095   5.864   3.514  18.225  0.7342  0.1948 -0.3614
 4300TIP3    H237096   5.842   3.640  18.144 -0.1972 -0.0142 -0.4458
 4301TIP3   OH237097   1.637   3.857  19.238  0.2245  0.0136  0.0651
 4301TIP3    H137098   1.693   3.930  19.213  1.2595 -1.1305 -1.1846
 4301TIP3    H237099   1.698   3.785  19.255 -0.8083 -1.4633 -1.9385
 4302TIP3   OH237100   5.494   0.996  17.241  0.4977 -0.5872 -0.0798
 4302TIP3    H137101   5.448   0.918  17.272 -1.9820  0.7741 -0.0487
 4302TIP3    H237102   5.424   1.056  17.214  1.9789  2.9615  3.0250
 4303TIP3   OH237103   4.528   2.429  16.813  0.6966 -0.1844  0.1651
 4303TIP3    H137104   4.542   2.334  16.822 -2.0313 -0.7783 -0.8447
 4303TIP3    H237105   4.582   2.468  16.882  1.6071 -2.4837  0.8611
 4304TIP3   OH237106   2.458   1.640  16.688  0.0397  0.3999  0.2689
 4304TIP3    H137107   2.462   1.545  16.691  0.3354  0.3399 -1.3435
 4304TIP3    H237108   2.431   1.666  16.777  0.0617 -1.1607  0.7544
 4305TIP3   OH237109   5.213   0.589  16.999 -0.4967  0.0019  0.7532
 4305TIP3    H137110   5.191   0.579  16.907  0.4680 -0.6656  0.5789
 4305TIP3    H237111   5.306   0.612  16.999 -1.0709  2.7294  1.4418
 4306TIP3   OH237112   1.263   1.333  19.406  0.3636 -0.4924 -0.2539
 4306TIP3    H137113   1.351   1.369  19.400  0.1274  0.1935  0.2296
 4306TIP3    H237114   1.264   1.279  19.485 -0.4444  1.9661  1.6002
 4307TIP3   OH237115   4.590   3.299  18.598  0.1274 -0.0217  0.2968
 4307TIP3    H137116   4.516   3.358  18.610  0.0900 -0.5072  3.0295
 4307TIP3    H237117   4.637   3.301  18.681  1.8862 -1.5020 -0.5804
 4308TIP3   OH237118   1.993   1.998  18.911  0.1862  0.6586  0.4126
 4308TIP3    H137119   1.993   1.907  18.941 -0.6747  0.4890 -0.0708
 4308TIP3    H237120   1.937   2.043  18.974  0.6441  0.8681  0.6741
 4309TIP3   OH237121   0.393   1.326  19.331 -0.1035  0.0318  0.2206
 4309TIP3    H137122   0.447   1.380  19.389  1.3360 -0.3702 -0.7067
 4309TIP3    H237123   0.447   1.311  19.254 -1.8062  0.1751 -1.0645
 4310TIP3   OH237124   5.494   4.492  19.416 -0.2237  0.6708  0.1710
 4310TIP3    H137125   5.568   4.540  19.380 -0.4686 -0.4491 -1.9913
 4310TIP3    H237126   5.447   4.556  19.469  2.1618  1.4405  1.4633
 4311TIP3   OH237127   4.718   4.591  18.976 -0.7908  0.0544 -0.1011
 4311TIP3    H137128   4.628   4.587  18.944 -1.3343  0.8527  1.2572
 4311TIP3    H237129   4.710   4.609  19.070  0.7135 -3.1554  0.7755
 4312TIP3   OH237130   1.409   0.784  18.730  0.2867 -0.0901  0.8540
 4312TIP3    H137131   1.447   0.869  18.708 -0.0727 -0.5148 -1.6904
 4312TIP3    H237132   1.314   0.801  18.734 -0.2523 -0.9408 -3.5916
 4313TIP3   OH237133   0.452   5.025  18.821  0.2904  0.0463  0.3464
 4313TIP3    H137134   0.451   4.947  18.876 -0.8725 -0.3066 -0.1507
 4313TIP3    H237135   0.467   5.098  18.881  0.8058 -0.4982  0.8851
 4314TIP3   OH237136   6.271   5.594  17.478  0.5532 -0.1032  0.4638
 4314TIP3    H137137   6.192   5.553  17.515 -0.1982  0.3404 -0.5971
 4314TIP3    H237138   6.277   5.558  17.389  0.8917  0.7295  0.1414
 4315TIP3   OH237139   2.952   1.333  18.636  0.3961 -0.2776 -0.0037
 4315TIP3    H137140   2.997   1.316  18.553  0.8892  0.2172  0.1506
 4315TIP3    H237141   2.871   1.377  18.610  0.7591  0.2921 -0.2166
 4316TIP3   OH237142   0.615   4.293  17.353 -0.1225  0.8072  0.0033
 4316TIP3    H137143   0.637   4.213  17.306  2.7050  0.9877  0.8734
 4316TIP3    H237144   0.560   4.342  17.292  1.7713  0.1874 -2.3631
 4317TIP3   OH237145   1.261   2.208  18.742  0.0084 -0.7902 -0.1288
 4317TIP3    H137146   1.256   2.216  18.647  1.1999 -1.3924 -0.2578
 4317TIP3    H237147   1.259   2.298  18.774  0.4911 -0.5396 -0.7810
 4318TIP3   OH237148   1.715   4.893  19.489  0.4577 -0.4822  0.6508
 4318TIP3    H137149   1.791   4.845  19.457  1.1507 -0.3448  2.0294
 4318TIP3    H237150   1.750   4.978  19.517 -0.5208  0.3195 -0.4254
 4319TIP3   OH237151   2.585   3.688  18.613  0.6502  0.0819  0.3803
 4319TIP3    H137152   2.534   3.620  18.657 -0.0779  0.8231  0.7109
 4319TIP3    H237153   2.661   3.642  18.577 -0.8431 -1.2968 -1.1864
 4320TIP3   OH237154   6.662   1.532  17.294 -0.0677  0.4347 -0.0994
 4320TIP3    H137155   6.653   1.449  17.248 -0.5943  0.6685 -0.4273
 4320TIP3    H237156   6.669   1.507  17.386 -0.5053  0.0355 -0.1677
 4321TIP3   OH237157   1.638   0.970  19.843 -0.3982 -0.0681 -0.9860
 4321TIP3    H137158   1.686   1.046  19.810 -0.9531 -0.2938 -2.3715
 4321TIP3    H237159   1.607   0.925  19.765 -2.0687 -0.4414 -0.1604
 4322TIP3   OH237160   3.871   1.575  18.147 -0.7516  0.2590  0.3228
 4322TIP3    H137161   3.924   1.652  18.128  0.9458 -0.5852  1.4250
 4322TIP3    H237162   3.838   1.589  18.235 -0.3397 -0.3101  0.5750
 4323TIP3   OH237163   1.499   5.310  18.151 -0.0048 -0.3780 -0.5391
 4323TIP3    H137164   1.521   5.357  18.071  2.1869  0.2700  0.3666
 4323TIP3    H237165   1.500   5.218  18.126  1.3084 -0.2214 -1.1362
 4324TIP3   OH237166   6.537   5.544  19.333  0.2662  0.0187 -0.8737
 4324TIP3    H137167   6.442   5.549  19.327  0.3059 -0.1332 -1.7851
 4324TIP3    H237168   6.563   5.485  19.262  0.7995 -2.5634  1.2963
 4325TIP3   OH237169   6.642   4.136  18.761 -0.1583 -0.1301 -0.0204
 4325TIP3    H137170   6.662   4.045  18.737 -1.9723 -0.3545 -0.9139
 4325TIP3    H237171   6.716   4.186  18.728 -0.8505 -0.8734 -3.0358
 4326TIP3   OH237172   1.451   4.393  18.054  0.2793  0.6076 -0.5922
 4326TIP3    H137173   1.427   4.463  17.993  0.7137  1.0059 -0.3136
 4326TIP3    H237174   1.367   4.361  18.087  0.0977  1.9213  0.3019
 4327TIP3   OH237175   1.915   0.937  18.258  0.6733 -0.5336  0.2498
 4327TIP3    H137176   1.852   0.971  18.322 -1.6016 -3.2715 -0.3332
 4327TIP3    H237177   1.969   0.876  18.307  2.4162  1.1497  0.5471
 4328TIP3   OH237178   6.366   4.597  20.027 -0.7697 -0.5165 -0.3021
 4328TIP3    H137179   6.399   4.681  20.057 -0.2531 -0.0954 -1.9679
 4328TIP3    H237180   6.346   4.610  19.934 -2.1807 -1.7887 -0.2241
 4329TIP3   OH237181   6.624   0.050  18.324 -0.8533 -0.4063 -0.5621
 4329TIP3    H137182   6.640  -0.041  18.350  1.7960  0.5111  1.5011
 4329TIP3    H237183   6.574   0.088  18.395  1.5580  0.6799  0.6875
 4330TIP3   OH237184   3.117   0.083  18.432  0.6676 -0.7694  0.0536
 4330TIP3    H137185   3.205   0.120  18.443  0.4501  0.0762 -0.9029
 4330TIP3    H237186   3.123   0.030  18.352 -0.6815  2.7571 -2.6741
 4331TIP3   OH237187   2.638   0.346  19.508  0.0336  0.2656 -0.3096
 4331TIP3    H137188   2.619   0.279  19.574 -0.3229  0.1096 -0.5627
 4331TIP3    H237189   2.699   0.304  19.448 -1.0716 -0.2509 -1.1160
 4332TIP3   OH237190   6.619   3.022  19.109 -0.2711  0.2706 -0.4321
 4332TIP3    H137191   6.566   3.102  19.122  0.2352  0.5525 -0.0695
 4332TIP3    H237192   6.556   2.958  19.076 -0.9047  0.5320  0.2185
 4333TIP3   OH237193   1.952   2.491  19.185 -0.4840  0.2901 -0.2873
 4333TIP3    H137194   1.954   2.570  19.131 -0.0565  1.0456  0.7988
 4333TIP3    H237195   1.924   2.422  19.126  4.1156  0.1208 -2.7241
 4334TIP3   OH237196   0.041   4.373  17.867  0.0549  0.4374  0.3074
 4334TIP3    H137197   0.105   4.313  17.828 -2.6219 -1.8802 -0.8936
 4334TIP3    H237198  -0.008   4.407  17.792 -0.1298  2.2226  1.1836
 4335TIP3   OH237199   4.273   1.169  18.634 -0.2062 -0.3145  0.7939
 4335TIP3    H137200   4.363   1.175  18.602 -0.1768  0.6992  1.0449
 4335TIP3    H237201   4.282   1.149  18.727 -0.2581 -0.5632  0.7491
 4336TIP3   OH237202   1.129   6.029  17.178  0.1393 -0.6315  0.2938
 4336TIP3    H137203   1.186   5.979  17.120 -0.6171 -0.5300 -0.5500
 4336TIP3    H237204   1.075   6.081  17.119  0.3487  0.5721  1.1324
 4337TIP3   OH237205   1.117   0.463  20.014 -0.4761  0.5918 -0.0640
 4337TIP3    H137206   1.200   0.452  20.062 -0.2744  0.0193 -0.5356
 4337TIP3    H237207   1.053   0.414  20.065 -0.5729  1.2023  0.4116
 4338TIP3   OH237208   0.929   4.469  16.828 -0.6607  0.2291 -0.0783
 4338TIP3    H137209   0.960   4.493  16.740 -0.0877 -0.4443 -0.0747
 4338TIP3    H237210   0.919   4.552  16.874  0.8124  0.5088 -0.2063
 4339TIP3   OH237211   3.997   1.520  19.116  0.6414  0.5858  0.4297
 4339TIP3    H137212   3.966   1.601  19.077 -0.7535 -0.7170 -1.3533
 4339TIP3    H237213   4.049   1.478  19.047 -1.6859 -1.6755 -0.1112
 4340TIP3   OH237214   2.982   6.594  17.379 -0.3014  0.2860 -0.6168
 4340TIP3    H137215   2.959   6.502  17.396  0.8311 -0.0574 -0.8778
 4340TIP3    H237216   3.028   6.592  17.296 -0.5381  1.1471 -0.7746
 4341TIP3   OH237217   4.335   6.398  19.597  0.1340 -0.2311  0.1078
 4341TIP3    H137218   4.324   6.485  19.558 -1.4074 -0.7728 -0.7802
 4341TIP3    H237219   4.261   6.388  19.656 -0.5001 -1.4257 -0.8264
 4342TIP3   OH237220   5.755   5.950  19.960 -0.2328 -0.2432  0.1404
 4342TIP3    H137221   5.687   5.904  19.911  0.1892 -1.4746  0.6590
 4342TIP3    H237222   5.830   5.891  19.958 -0.2073 -0.3672  2.2522
 4343TIP3   OH237223   6.576   3.185  18.689 -0.5874  0.6013 -0.1602
 4343TIP3    H137224   6.603   3.208  18.778 -0.0282 -1.5409  0.2878
 4343TIP3    H237225   6.641   3.225  18.632 -0.0027  0.6301  0.5181
 4344TIP3   OH237226   0.376   6.646  17.514  0.2691 -0.5894  0.0288
 4344TIP3    H137227   0.471   6.651  17.502  0.0729  2.3458 -0.8615
 4344TIP3    H237228   0.361   6.682  17.602 -0.0759 -0.6429 -0.0079
 4345TIP3   OH237229   1.635   3.583  19.395 -0.0630  0.7265  0.4954
 4345TIP3    H137230   1.547   3.618  19.382 -0.2146  0.6140  1.1593
 4345TIP3    H237231   1.667   3.628  19.473  0.0257 -0.0473  0.9239
 4346TIP3   OH237232   0.083   4.862  18.876  0.0266 -0.2434  0.4237
 4346TIP3    H137233   0.001   4.905  18.850  0.5885  0.4531 -0.2524
 4346TIP3    H237234   0.130   4.848  18.794  0.4123 -1.0209  0.7638
 4347TIP3   OH237235   3.650   1.094  19.299  0.1883  0.3392 -0.4990
 4347TIP3    H137236   3.705   1.017  19.288 -0.2238  0.0679 -0.7188
 4347TIP3    H237237   3.626   1.119  19.209 -0.4739  0.1267 -0.3932
 4348TIP3   OH237238   0.568   4.883  19.337  0.1173  0.3869 -0.1021
 4348TIP3    H137239   0.487   4.924  19.366  0.4667 -0.3499  2.1208
 4348TIP3    H237240   0.607   4.848  19.417  1.3014 -1.6547 -1.4728
 4349TIP3   OH237241   1.504   5.150  18.833 -0.5584 -0.4605 -0.0736
 4349TIP3    H137242   1.567   5.110  18.774 -1.0204 -0.4833 -0.5569
 4349TIP3    H237243   1.475   5.229  18.788 -0.0012  0.1788  0.6667
 4350TIP3   OH237244   3.190   5.240  18.991 -0.7325  0.1734 -0.4353
 4350TIP3    H137245   3.249   5.315  18.991  0.7654 -0.9421 -1.4305
 4350TIP3    H237246   3.131   5.255  18.917  1.6290 -1.0729 -2.7260
 4351TIP3   OH237247   5.477   5.289  16.961 -0.0640  0.5287 -0.4156
 4351TIP3    H137248   5.545   5.223  16.976 -1.3611 -0.4856  1.2976
 4351TIP3    H237249   5.444   5.269  16.873 -0.4551 -1.1377  0.0848
 4352TIP3   OH237250   3.864   0.973  18.540  0.1452 -0.5226 -0.3662
 4352TIP3    H137251   3.785   0.965  18.486 -0.8621  0.7417  0.8381
 4352TIP3    H237252   3.901   1.058  18.516  0.2490 -0.4005  0.2128
 4353TIP3   OH237253   5.495   0.164  18.363  0.0829  0.0407 -0.2552
 4353TIP3    H137254   5.567   0.217  18.398  1.3717 -2.2321  0.7748
 4353TIP3    H237255   5.420   0.188  18.417  0.6022  0.8567  0.1392
 4354TIP3   OH237256   0.184   0.084  20.315 -0.1364  0.1473 -0.1470
 4354TIP3    H137257   0.160   0.001  20.274 -1.2599 -0.2979  1.3390
 4354TIP3    H237258   0.103   0.135  20.314  0.8700  1.8110 -2.2923
 4355TIP3   OH237259   3.776   0.656  19.856  0.3203 -0.2096  0.5041
 4355TIP3    H137260   3.792   0.632  19.948 -1.2572  0.9826  1.1341
 4355TIP3    H237261   3.811   0.582  19.806  1.3180 -0.8427  2.0406
 4356TIP3   OH237262   0.076   4.193  19.030 -0.2742  0.3333  0.2096
 4356TIP3    H137263   0.122   4.146  19.100 -0.9816 -0.6175  0.0748
 4356TIP3    H237264  -0.013   4.205  19.065 -0.3954  0.6117 -0.1904
 4357TIP3   OH237265   5.055   5.421  19.261 -0.3239 -0.1986 -0.2623
 4357TIP3    H137266   5.011   5.382  19.337 -0.7504 -0.3261 -0.5761
 4357TIP3    H237267   4.987   5.428  19.194  0.8460 -3.6220 -2.0199
 4358TIP3   OH237268   2.930   5.708  18.364 -0.2719 -0.3979 -0.7986
 4358TIP3    H137269   2.872   5.781  18.344 -0.3812 -0.8144 -2.0667
 4358TIP3    H237270   2.873   5.644  18.407  0.2073  0.9807  2.2120
 4359TIP3   OH237271   4.047   2.344  18.081 -0.8074  0.2255 -0.2836
 4359TIP3    H137272   4.024   2.375  17.993 -0.2749 -1.4780 -1.0603
 4359TIP3    H237273   4.023   2.252  18.081  3.5781 -1.1544 -0.3959
 4360TIP3   OH237274   3.869   5.301  19.227 -0.2868 -0.0206  0.1403
 4360TIP3    H137275   3.847   5.386  19.266 -0.0279  0.1185 -0.0110
 4360TIP3    H237276   3.876   5.319  19.133  0.3914 -0.0709  0.1753
 4361TIP3   OH237277   1.387   0.905  19.150 -0.1963  0.2960 -0.4139
 4361TIP3    H137278   1.310   0.960  19.134  0.4896  1.3707 -0.1317
 4361TIP3    H237279   1.366   0.857  19.230  1.0852  3.8675  2.3079
 4362TIP3   OH237280   3.367   3.413  18.377 -0.1151 -0.1329 -0.1643
 4362TIP3    H137281   3.314   3.480  18.334 -1.2912  0.3805  1.9146
 4362TIP3    H237282   3.358   3.335  18.321 -1.1150  0.6344 -1.1100
 4363TIP3   OH237283   6.682   6.141  19.645 -0.1499  0.2457  0.2268
 4363TIP3    H137284   6.591   6.124  19.620 -0.1021  0.4756 -0.1118
 4363TIP3    H237285   6.693   6.094  19.727 -0.7403  0.6789  0.5572
 4364TIP3   OH237286   4.145   3.590  18.470  0.1363 -0.9982 -0.0095
 4364TIP3    H137287   4.175   3.667  18.422 -2.3700  0.4836  0.6360
 4364TIP3    H237288   4.077   3.551  18.416  0.9984 -2.5256 -0.0754
 4365TIP3   OH237289   2.995   0.096  18.797 -0.1367 -0.2159 -0.6112
 4365TIP3    H137290   2.947   0.031  18.745  1.4215  0.1085 -2.5714
 4365TIP3    H237291   3.086   0.085  18.772  0.3139  2.0165 -0.2315
 4366TIP3   OH237292   1.820   6.067  18.106  0.3029  0.3549 -0.3292
 4366TIP3    H137293   1.891   6.030  18.158  0.9521  0.4514 -1.1302
 4366TIP3    H237294   1.758   5.995  18.095  1.7170 -0.6651 -2.1742
 4367TIP3   OH237295   5.748   3.652  19.043  0.0057 -0.1671  0.3141
 4367TIP3    H137296   5.768   3.744  19.056  0.6172 -0.0367 -1.3544
 4367TIP3    H237297   5.722   3.621  19.129 -0.7937  1.6971  0.7926
 4368TIP3   OH237298   2.224   0.843  19.814 -0.3160  0.2108  0.5018
 4368TIP3    H137299   2.188   0.821  19.900  1.2288 -0.7779  0.9313
 4368TIP3    H237300   2.318   0.831  19.824 -0.0015  1.1847 -1.0271
 4369TIP3   OH237301   0.421   5.438  17.268 -0.3905 -0.2082 -0.8192
 4369TIP3    H137302   0.356   5.508  17.264 -0.4992 -0.3331 -1.4216
 4369TIP3    H237303   0.499   5.476  17.226 -0.5989 -0.5928 -1.5835
 4370TIP3   OH237304   4.106   5.614  20.167 -0.1959  0.4453  0.2536
 4370TIP3    H137305   4.078   5.551  20.102 -0.4910  1.4967 -0.6754
 4370TIP3    H237306   4.053   5.595  20.245  0.1152 -0.7800  0.1799
 4371TIP3   OH237307   5.519   2.257  18.965 -0.3327 -0.4491  0.1325
 4371TIP3    H137308   5.576   2.224  19.035 -0.6798  1.6320  1.5065
 4371TIP3    H237309   5.431   2.257  19.003 -0.1902  3.2950  0.8991
 4372TIP3   OH237310   4.488   2.943  20.272  0.0820  0.4946 -0.0958
 4372TIP3    H137311   4.545   2.877  20.311 -2.0785 -1.0032  0.6926
 4372TIP3    H237312   4.547   2.999  20.222  2.1647 -1.2483  0.2770
 4373TIP3   OH237313   4.182   6.359  19.313 -0.0030  0.3092  0.3023
 4373TIP3    H137314   4.221   6.364  19.400 -0.2298 -1.0143  0.5015
 4373TIP3    H237315   4.245   6.403  19.256  0.9530 -0.2456  0.8936
 4374TIP3   OH237316   6.085   5.796  19.116  0.1830 -0.2524 -0.6371
 4374TIP3    H137317   6.138   5.720  19.089  0.2658 -0.4988  0.2010
 4374TIP3    H237318   6.111   5.812  19.206  1.9603  2.2840 -1.4943
 4375TIP3   OH237319   2.750   6.453  19.295 -0.1398  0.2651 -0.5919
 4375TIP3    H137320   2.696   6.514  19.245  0.1591  1.0376  0.0223
 4375TIP3    H237321   2.695   6.375  19.304 -1.4580  1.2740  0.6056
 4376TIP3   OH237322   3.067   2.289  20.350  0.2106 -0.4111 -0.0446
 4376TIP3    H137323   3.119   2.283  20.430  0.4827  1.3947 -0.0441
 4376TIP3    H237324   3.066   2.200  20.315  1.1501 -0.9781  1.3066
 4377TIP3   OH237325   2.687   6.335  18.978  0.1088  0.4394 -0.0984
 4377TIP3    H137326   2.611   6.279  18.961  0.6231 -0.7967  1.3620
 4377TIP3    H237327   2.716   6.363  18.891 -0.2209 -1.5312 -0.9001
 4378TIP3   OH237328   6.257   4.701  17.469  0.2018  0.0168  0.3780
 4378TIP3    H137329   6.323   4.704  17.400  0.0919 -1.9409  0.1140
 4378TIP3    H237330   6.286   4.629  17.526 -1.4395 -0.5841  0.5075
 4379TIP3   OH237331   5.540   4.032  17.772  0.0690 -0.0087  0.5185
 4379TIP3    H137332   5.457   4.035  17.819  0.0123 -1.7845  0.6096
 4379TIP3    H237333   5.601   3.993  17.835  0.1490 -1.7866 -0.5772
 4380TIP3   OH237334   4.607   6.132  19.553 -0.4627  0.2086  0.3114
 4380TIP3    H137335   4.672   6.062  19.552  0.6805  1.2407 -1.1201
 4380TIP3    H237336   4.523   6.086  19.561  0.1609 -1.4274 -1.7225
 4381TIP3   OH237337   1.678   2.502  17.775 -0.5615 -0.4040  0.2158
 4381TIP3    H137338   1.652   2.499  17.683  1.3831 -0.1246 -0.3759
 4381TIP3    H237339   1.701   2.593  17.791 -0.2689 -0.5767  0.8105
 4382TIP3   OH237340   4.131   2.453  19.346  0.1127  0.2702 -0.4169
 4382TIP3    H137341   4.053   2.421  19.391  1.5091 -1.6983  0.7854
 4382TIP3    H237342   4.188   2.376  19.341  2.1626  1.7479 -0.8061
 4383TIP3   OH237343   4.140   4.340  19.297  0.2612  0.1404 -0.0102
 4383TIP3    H137344   4.160   4.431  19.274  0.4320  1.3498  4.1068
 4383TIP3    H237345   4.045   4.333  19.289  0.2514  0.6853 -0.3987
 4384TIP3   OH237346   4.473   3.858  20.079 -0.3447 -0.3751  0.4415
 4384TIP3    H137347   4.562   3.838  20.050 -0.0443 -0.8902  1.6807
 4384TIP3    H237348   4.446   3.781  20.129 -1.9036 -0.6891 -0.8148
 4385TIP3   OH237349   2.932   6.444  19.680 -0.2011 -0.6235 -0.0974
 4385TIP3    H137350   3.025   6.456  19.695 -0.5979  1.1756  1.2660
 4385TIP3    H237351   2.927   6.371  19.617  2.0795 -0.8086 -0.1512
 4386TIP3   OH237352   1.874   1.916  18.643  0.4717  0.0698  0.7793
 4386TIP3    H137353   1.888   1.971  18.566 -1.2592 -0.2722  0.1849
 4386TIP3    H237354   1.895   1.973  18.717 -0.2802  1.2139  0.1394
 4387TIP3   OH237355   2.020   1.057  17.742 -0.5929  0.8270  0.0162
 4387TIP3    H137356   2.044   1.046  17.834 -0.2121 -0.1935 -0.1875
 4387TIP3    H237357   1.988   1.147  17.736  1.5217  1.6816  0.6823
 4388TIP3   OH237358   2.097   5.232  18.031 -0.1645  0.0451  0.7945
 4388TIP3    H137359   2.028   5.218  17.967  0.7416 -1.1155  0.0389
 4388TIP3    H237360   2.083   5.321  18.063 -2.4383 -0.4094  1.2182
 4389TIP3   OH237361   3.259   3.179  19.892  0.1805 -0.7794 -0.5603
 4389TIP3    H137362   3.227   3.269  19.898  0.4799 -0.7546  0.8302
 4389TIP3    H237363   3.223   3.147  19.809  2.8160  1.6628 -2.8468
 4390TIP3   OH237364   4.251   1.961  18.144  0.2961  0.4807 -0.0014
 4390TIP3    H137365   4.187   2.026  18.174 -0.0075  0.1418  0.0829
 4390TIP3    H237366   4.317   1.959  18.214  0.3262  0.7223 -0.0218
 4391TIP3   OH237367   4.116   4.511  18.797 -0.5531 -0.2280  0.2480
 4391TIP3    H137368   4.045   4.553  18.845  0.1962  0.2700  0.9432
 4391TIP3    H237369   4.194   4.562  18.820  0.6054 -2.6155  2.0054
 4392TIP3   OH237370   6.599   6.202  17.826  0.2054  0.3902 -0.0929
 4392TIP3    H137371   6.614   6.220  17.733  0.8437  0.7340  0.0667
 4392TIP3    H237372   6.506   6.216  17.839  0.0714  0.1304 -0.7269
 4393TIP3   OH237373   6.076   6.647  18.579  0.0781 -0.3266 -0.0679
 4393TIP3    H137374   6.104   6.626  18.489  0.0408  1.8981 -0.6437
 4393TIP3    H237375   6.006   6.711  18.568 -0.0643 -0.1723  1.5618
 4394TIP3   OH237376   3.633   1.537  19.342  0.5372 -0.3387  0.1610
 4394TIP3    H137377   3.631   1.582  19.258  0.0131  0.9270  0.8278
 4394TIP3    H237378   3.723   1.548  19.373  0.2255  0.9668  0.6705
 4395TIP3   OH237379   3.923   5.264  19.598 -0.0547  0.0374 -0.1239
 4395TIP3    H137380   4.001   5.268  19.654  1.1002 -0.9158 -1.5884
 4395TIP3    H237381   3.948   5.313  19.520 -1.1668  0.2386 -0.3621
 4396TIP3   OH237382   4.111   6.208  18.890 -0.6059 -0.3050 -0.3443
 4396TIP3    H137383   4.160   6.128  18.910 -0.7049 -0.5360 -1.0222
 4396TIP3    H237384   4.171   6.278  18.917 -0.9770 -0.5864  1.3474
 4397TIP3   OH237385   6.666   0.645  18.077  0.1443 -0.0881 -1.0342
 4397TIP3    H137386   6.697   0.575  18.134 -2.2091 -0.2279  0.2082
 4397TIP3    H237387   6.624   0.708  18.136  0.9638  1.7103 -2.2604
 4398TIP3   OH237388   4.054   1.403  19.343 -0.0264  0.0121  0.7678
 4398TIP3    H137389   4.020   1.315  19.328  1.0801 -0.5188  1.2822
 4398TIP3    H237390   4.016   1.455  19.273 -0.9759 -0.7924  0.6608
 4399TIP3   OH237391   5.594   6.227  19.305 -0.0958 -0.1843  0.3986
 4399TIP3    H137392   5.678   6.272  19.299 -0.2661  0.0434 -0.5219
 4399TIP3    H237393   5.582   6.187  19.218 -0.8504 -0.3630  0.5736
 4400TIP3   OH237394   3.169   2.622  20.458  0.8018 -0.8410 -0.5035
 4400TIP3    H137395   3.093   2.667  20.421 -0.0038 -0.1232  1.7924
 4400TIP3    H237396   3.135   2.539  20.490  0.8895 -0.4129  0.7615
 4401TIP3   OH237397   1.245   6.434  19.133 -0.3174 -0.3159 -0.2807
 4401TIP3    H137398   1.252   6.495  19.059  0.4402 -0.0408  0.0053
 4401TIP3    H237399   1.207   6.486  19.204 -0.2359 -0.3425 -0.2166
 4402TIP3   OH237400   1.348   0.846  16.622 -0.0817  0.4700  0.0543
 4402TIP3    H137401   1.405   0.922  16.606  1.0779 -0.4426 -0.3459
 4402TIP3    H237402   1.263   0.872  16.588  0.0264  1.9619  0.8599
 4403TIP3   OH237403   1.181   2.395  17.769  0.4432  0.1343  0.6252
 4403TIP3    H137404   1.170   2.311  17.725  1.3455 -0.5066  1.5685
 4403TIP3    H237405   1.127   2.456  17.719 -1.1465 -1.2362  0.5920
 4404TIP3   OH237406   2.091   3.157  18.448 -0.1330 -0.0445  0.1114
 4404TIP3    H137407   2.109   3.076  18.496 -1.8573 -0.3373  0.3516
 4404TIP3    H237408   2.098   3.133  18.356 -0.3069 -0.4032  0.1872
 4405TIP3   OH237409   4.746   0.265  19.443 -0.1618 -0.2523 -0.2323
 4405TIP3    H137410   4.836   0.256  19.474  0.1334  0.7274 -0.7907
 4405TIP3    H237411   4.707   0.330  19.502 -0.3907 -0.3773 -0.2439
 4406TIP3   OH237412   4.163   0.616  19.911  0.3292  0.2872 -0.3295
 4406TIP3    H137413   4.172   0.712  19.911  0.4403  0.2769 -0.2804
 4406TIP3    H237414   4.218   0.587  19.983 -0.7489  0.2738  0.5183
 4407TIP3   OH237415   4.501   4.049  19.128 -0.1411 -1.0392  0.3414
 4407TIP3    H137416   4.481   3.985  19.060  0.5539 -0.5898 -0.2980
 4407TIP3    H237417   4.572   4.010  19.178  0.5053 -0.6318 -0.2516
 4408TIP3   OH237418   6.464   3.461  18.825 -0.2268 -0.1379 -0.1572
 4408TIP3    H137419   6.423   3.378  18.850 -2.4024  0.5278 -1.2110
 4408TIP3    H237420   6.450   3.518  18.901  0.4903 -0.4575  0.2253
 4409TIP3   OH237421   5.123   3.365  18.178  0.7503 -0.0939  0.0322
 4409TIP3    H137422   5.156   3.327  18.259 -0.3223 -1.9922 -0.3643
 4409TIP3    H237423   5.201   3.403  18.136  1.3296  0.8326  1.8502
 4410TIP3   OH237424   3.869   3.770  18.504 -0.0848 -0.4586  0.5441
 4410TIP3    H137425   3.855   3.705  18.573 -0.0845  1.3690  2.3771
 4410TIP3    H237426   3.928   3.834  18.544  0.0627  0.5833 -1.2479
 4411TIP3   OH237427   3.736   3.715  17.649  0.5785 -0.2340  0.2574
 4411TIP3    H137428   3.736   3.668  17.566  1.0573  1.0311 -0.4918
 4411TIP3    H237429   3.673   3.668  17.704 -0.0358 -0.8554 -0.9509
 4412TIP3   OH237430   3.331   2.137  18.580  0.6207 -0.3941  0.3420
 4412TIP3    H137431   3.402   2.150  18.643  0.3874 -1.7220  0.9019
 4412TIP3    H237432   3.258   2.189  18.614  0.4401 -1.2319  1.2873
 4413TIP3   OH237433   6.084   6.045  19.938  0.6466  0.7971  0.0482
 4413TIP3    H137434   6.079   6.132  19.977 -0.3007  0.4122  0.8044
 4413TIP3    H237435   5.999   6.005  19.955  1.7418 -1.0596  1.5808
 4414TIP3   OH237436   4.073   0.303  18.788 -0.1259 -0.4863  0.6141
 4414TIP3    H137437   4.162   0.267  18.784  0.2438  0.3046  1.2359
 4414TIP3    H237438   4.086   0.398  18.778 -0.8094 -0.2755  1.5449
 4415TIP3   OH237439   0.405   0.655  18.020  0.6909 -1.0729 -0.6464
 4415TIP3    H137440   0.339   0.644  18.089 -0.2827  2.2900 -0.8556
 4415TIP3    H237441   0.488   0.640  18.065  0.0189 -0.1072  1.0537
 4416TIP3   OH237442   3.860   2.375  17.729 -0.2350 -0.0835 -0.0405
 4416TIP3    H137443   3.892   2.341  17.646 -1.3776  0.0326 -0.5576
 4416TIP3    H237444   3.937   2.412  17.772  0.1768  0.9087 -1.5604
 4417TIP3   OH237445   6.389   0.492  18.760 -0.5128 -0.4225  0.6799
 4417TIP3    H137446   6.326   0.480  18.831 -0.9457 -1.4599  0.1573
 4417TIP3    H237447   6.341   0.543  18.694  0.8374  3.2527  2.2670
 4418TIP3   OH237448   5.951   5.901  18.622 -0.0065 -0.1990 -0.2167
 4418TIP3    H137449   5.971   5.900  18.715 -2.1152  0.2319  0.2990
 4418TIP3    H237450   5.961   5.810  18.595  1.7915 -0.1388  0.1076
 4419TIP3   OH237451   4.879   4.216  19.227 -0.7086  0.4305 -0.3240
 4419TIP3    H137452   4.817   4.212  19.154  0.4172 -0.0253 -1.2941
 4419TIP3    H237453   4.852   4.293  19.277 -2.4425 -0.1469 -0.3390
 4420TIP3   OH237454   1.469   3.590  17.430 -0.0466 -0.0545  0.3297
 4420TIP3    H137455   1.500   3.679  17.418  0.6216 -0.4789 -1.3993
 4420TIP3    H237456   1.538   3.547  17.480  0.5594 -0.1037 -0.5409
 4421TIP3   OH237457   0.006   4.344  17.000  0.1733 -0.3900 -0.4859
 4421TIP3    H137458   0.055   4.340  16.918 -1.2379  0.2972 -1.4020
 4421TIP3    H237459   0.003   4.254  17.031  0.1620 -0.7677 -1.5409
 4422TIP3   OH237460   2.891   1.070  20.123 -0.6569 -0.1502  1.1935
 4422TIP3    H137461   2.957   1.025  20.175  0.1542  0.8501  1.0529
 4422TIP3    H237462   2.809   1.024  20.143  0.3500 -2.8343 -0.2801
 4423TIP3   OH237463   5.952   5.432  17.150  1.0039  0.0126  0.2745
 4423TIP3    H137464   5.867   5.412  17.112 -0.0287 -0.9193  2.8483
 4423TIP3    H237465   6.015   5.409  17.082 -0.7065 -1.1408 -0.9985
 4424TIP3   OH237466   4.040   2.155  17.268 -0.0692 -0.2728 -0.2080
 4424TIP3    H137467   4.122   2.155  17.317  0.3539  0.2448 -0.8870
 4424TIP3    H237468   4.049   2.229  17.208 -0.7033 -0.6910 -0.8339
 4425TIP3   OH237469   3.966   2.217  18.465  0.0351 -0.2841 -0.0313
 4425TIP3    H137470   3.923   2.144  18.421  0.1166 -0.5350  0.3065
 4425TIP3    H237471   4.047   2.230  18.415 -0.8382  0.7775 -1.2295
 4426TIP3   OH237472   3.324   2.840  17.050 -0.5453 -0.4128 -0.6241
 4426TIP3    H137473   3.269   2.788  17.109 -0.7015  0.2829 -0.1405
 4426TIP3    H237474   3.412   2.805  17.063  0.0646  1.8843  2.6426
 4427TIP3   OH237475   0.798   5.719  18.169 -0.0163 -0.1710 -0.2454
 4427TIP3    H137476   0.773   5.796  18.117  0.3113  0.0237 -0.1208
 4427TIP3    H237477   0.879   5.688  18.128 -0.7137 -1.1013 -0.9632
 4428TIP3   OH237478   5.213   1.960  18.267  0.6762 -0.2124  0.1373
 4428TIP3    H137479   5.211   2.021  18.341  2.4970 -0.6173  0.5636
 4428TIP3    H237480   5.289   1.904  18.284  1.4364 -0.0248 -2.2685
 4429TIP3   OH237481   5.900   4.661  19.630  0.2822 -0.6854 -0.0988
 4429TIP3    H137482   5.973   4.718  19.606 -0.9964  1.3797  0.6011
 4429TIP3    H237483   5.923   4.628  19.717  0.7146 -0.6246 -0.1872
 4430TIP3   OH237484   0.757   3.595  17.701  0.1276 -0.3972  0.3745
 4430TIP3    H137485   0.769   3.689  17.708 -0.3748 -0.1715 -1.3506
 4430TIP3    H237486   0.685   3.575  17.761 -0.8064  0.5672 -0.3985
 4431TIP3   OH237487   4.547   2.635  18.730  0.3466 -0.1190 -0.4747
 4431TIP3    H137488   4.475   2.652  18.669  0.5250 -2.1454 -1.3421
 4431TIP3    H237489   4.576   2.547  18.707  1.2904 -0.4184  1.7063
 4432TIP3   OH237490   1.270   6.132  19.371  0.1663 -0.4152  0.5771
 4432TIP3    H137491   1.288   6.170  19.285 -1.0046  0.7070  0.7961
 4432TIP3    H237492   1.234   6.045  19.352  0.9447 -0.6237 -0.0119
 4433TIP3   OH237493   6.175   1.520  20.148  0.2318 -0.3895 -0.2539
 4433TIP3    H137494   6.192   1.561  20.064  2.1401 -2.6054 -1.0693
 4433TIP3    H237495   6.085   1.490  20.143 -0.1130  0.7296 -0.9285
 4434TIP3   OH237496   2.708   6.410  20.176  0.2403 -0.3649  0.9925
 4434TIP3    H137497   2.613   6.402  20.165  0.2366 -0.6817  1.2489
 4434TIP3    H237498   2.730   6.491  20.130  0.0082 -0.8856 -0.0746
 4435TIP3   OH237499   4.260   2.774  18.115  0.5958  0.1824  0.4912
 4435TIP3    H137500   4.307   2.804  18.192  3.3151  0.2695 -1.0538
 4435TIP3    H237501   4.294   2.828  18.044 -0.7385 -0.8424 -1.0018
 4436TIP3   OH237502   1.014   1.606  18.007  0.0875  0.3556  0.5929
 4436TIP3    H137503   1.081   1.671  18.028  1.2204 -0.5869  0.0189
 4436TIP3    H237504   1.042   1.527  18.054 -1.4731  0.3520  1.5855
 4437TIP3   OH237505   2.689   5.728  19.962  0.8208  0.7728 -0.1585
 4437TIP3    H137506   2.720   5.637  19.961  0.1211  0.4381  1.9976
 4437TIP3    H237507   2.610   5.726  20.017  0.4702  2.6000 -0.5147
 4438TIP3   OH237508   2.615   2.902  19.125  0.2305 -0.1674  0.2705
 4438TIP3    H137509   2.544   2.840  19.138  0.1506 -0.0321  0.4836
 4438TIP3    H237510   2.695   2.849  19.127  0.0912 -0.4403 -0.8216
 4439TIP3   OH237511   1.834   6.528  18.850  0.0595 -0.3766 -0.0024
 4439TIP3    H137512   1.826   6.592  18.921  2.1808 -0.2371  0.1675
 4439TIP3    H237513   1.827   6.443  18.893  2.9791 -0.3416  0.7279
 4440TIP3   OH237514   2.099   0.418  19.608  0.8454 -0.0872 -0.2104
 4440TIP3    H137515   2.064   0.504  19.586  1.3324 -0.0735 -0.9649
 4440TIP3    H237516   2.130   0.426  19.699 -0.2474  0.1593  0.1520
 4441TIP3   OH237517   3.009   2.412  19.407  0.1525 -0.3058  0.0098
 4441TIP3    H137518   2.972   2.422  19.495  0.8585  1.9656  0.1117
 4441TIP3    H237519   2.942   2.448  19.348  0.8370  0.7889 -0.1082
 4442TIP3   OH237520   5.912   4.928  18.879 -0.0119  0.4035 -0.1929
 4442TIP3    H137521   5.984   4.874  18.846  0.5097 -0.1239  1.6837
 4442TIP3    H237522   5.858   4.945  18.801  0.4482 -1.8232 -1.0889
 4443TIP3   OH237523   0.115   3.857  17.618 -0.0620 -0.6279  0.5524
 4443TIP3    H137524   0.106   3.927  17.682 -0.9001 -0.6048  0.4243
 4443TIP3    H237525   0.209   3.854  17.598 -0.1460  1.3090 -0.3753
 4444TIP3   OH237526   6.025   3.551  19.222  0.0277 -0.0774  0.0208
 4444TIP3    H137527   5.988   3.624  19.272 -1.9434 -1.3154  0.4859
 4444TIP3    H237528   6.037   3.481  19.287 -0.2018 -0.8841 -0.7838
 4445TIP3   OH237529   2.955   0.768  19.038  0.1160  0.3126  0.2702
 4445TIP3    H137530   2.891   0.832  19.008 -0.2124  0.2119  0.7481
 4445TIP3    H237531   3.017   0.819  19.091 -0.9720  0.0207  1.8981
 4446TIP3   OH237532   5.392   0.434  18.232  0.1573  0.4312  0.0176
 4446TIP3    H137533   5.436   0.451  18.316 -0.1867  0.0123  0.2881
 4446TIP3    H237534   5.458   0.389  18.179  0.0298 -0.2975  0.4625
 4447TIP3   OH237535   2.296   2.517  19.791 -0.2890  0.3068 -0.0764
 4447TIP3    H137536   2.316   2.520  19.884 -1.5973 -0.1500  0.2461
 4447TIP3    H237537   2.380   2.531  19.747  0.1729  1.6657  1.1549
 4448TIP3   OH237538   2.072   3.454  17.687  0.2747  0.0142  0.0086
 4448TIP3    H137539   2.135   3.404  17.739 -0.0783  0.0747  0.5042
 4448TIP3    H237540   1.998   3.467  17.746 -1.3532 -2.3111 -1.3837
 4449TIP3   OH237541   3.612   2.936  18.032  0.4892  0.6989 -0.1366
 4449TIP3    H137542   3.549   3.002  18.004  1.2433  2.0453  1.2437
 4449TIP3    H237543   3.661   2.915  17.952 -0.4948  0.9541 -0.8315
 4450TIP3   OH237544   2.457   1.818  18.303 -0.0399  0.1551 -0.5907
 4450TIP3    H137545   2.364   1.798  18.312  0.0833 -0.2497 -0.1994
 4450TIP3    H237546   2.488   1.760  18.234 -0.0348  0.1417 -0.5769
 4451TIP3   OH237547   5.294   6.382  19.465  0.0256  0.0731 -0.2314
 4451TIP3    H137548   5.290   6.424  19.551  0.2818 -0.6724  0.1584
 4451TIP3    H237549   5.354   6.438  19.414 -1.2991  1.3662 -0.4339
 4452TIP3   OH237550   4.781   4.780  17.327 -0.0432 -0.5152  0.2555
 4452TIP3    H137551   4.707   4.732  17.290  0.6884 -1.3819 -0.1097
 4452TIP3    H237552   4.766   4.871  17.299 -1.9162 -0.3067  1.7209
 4453TIP3   OH237553   1.569   6.353  18.246  0.3116  0.2122  0.5689
 4453TIP3    H137554   1.629   6.297  18.296  0.1750 -0.1649  0.3071
 4453TIP3    H237555   1.623   6.428  18.221  0.6752 -0.1151  0.3548
 4454TIP3   OH237556   1.712   3.732  19.619  0.1433 -0.0114  0.1403
 4454TIP3    H137557   1.677   3.816  19.645  1.3562  0.1689  1.2969
 4454TIP3    H237558   1.729   3.686  19.701  0.1266 -1.1213 -0.4580
 4455TIP3   OH237559   4.008   4.427  20.210  0.2579 -0.1614  0.0328
 4455TIP3    H137560   3.949   4.449  20.138 -2.0192 -2.2323  1.0860
 4455TIP3    H237561   3.993   4.333  20.225 -0.7829  0.4558  4.2499
 4456TIP3   OH237562   0.917   0.125  17.560 -0.3746 -0.7602  0.4747
 4456TIP3    H137563   0.903   0.194  17.495  2.3087 -1.4920 -1.0034
 4456TIP3    H237564   0.882   0.162  17.642 -2.0458  0.9684 -0.9285
 4457TIP3   OH237565   5.186   3.139  16.867  0.3036  0.8581 -0.2944
 4457TIP3    H137566   5.165   3.060  16.917 -1.9805  1.2791 -0.4417
 4457TIP3    H237567   5.172   3.113  16.776  0.3217  1.2086 -0.3971
 4458TIP3   OH237568   0.892   2.030  18.906 -0.5899 -0.2859 -0.4351
 4458TIP3    H137569   0.811   2.079  18.899 -0.5110  0.0610  0.7502
 4458TIP3    H237570   0.958   2.096  18.928 -0.3351 -0.7952  0.3708
 4459TIP3   OH237571   0.014   4.547  17.348 -0.2502 -0.0578  0.7241
 4459TIP3    H137572   0.068   4.531  17.270  1.3741  0.2212  1.7376
 4459TIP3    H237573   0.021   4.641  17.363 -0.0109 -0.1928  1.5435
 4460TIP3   OH237574   3.411   2.207  17.962 -0.0454  0.2988  0.3986
 4460TIP3    H137575   3.478   2.206  18.032  0.6551  1.1766 -0.2390
 4460TIP3    H237576   3.428   2.288  17.914 -0.2596 -0.4944 -1.0447
 4461TIP3   OH237577   5.043   1.832  19.964  0.4783 -0.0961  0.0250
 4461TIP3    H137578   4.998   1.887  19.899 -1.0433 -1.1334  0.1534
 4461TIP3    H237579   5.000   1.853  20.046  1.4038  0.1284  0.4623
 4462TIP3   OH237580   3.483   4.060  19.949  0.5726 -0.0462 -0.0428
 4462TIP3    H137581   3.469   3.966  19.961 -2.4896  0.0956 -1.4957
 4462TIP3    H237582   3.470   4.075  19.856 -1.0027  2.0626  0.4320
 4463TIP3   OH237583   4.508   5.891  20.319 -0.2598 -0.0143 -0.1200
 4463TIP3    H137584   4.521   5.871  20.412  2.4385  0.7972 -0.2292
 4463TIP3    H237585   4.571   5.961  20.301 -2.3045  1.4691 -2.0745
 4464TIP3   OH237586   3.484   0.237  20.144 -0.0947 -0.1113  0.1127
 4464TIP3    H137587   3.508   0.150  20.175 -0.1077  0.5595  2.1102
 4464TIP3    H237588   3.564   0.273  20.106 -0.2179 -1.1564 -1.2033
 4465TIP3   OH237589   5.537   1.696  19.963 -0.5516  0.2078 -0.5457
 4465TIP3    H137590   5.494   1.666  19.883 -1.2178  1.6211 -0.7558
 4465TIP3    H237591   5.468   1.740  20.012  0.4872  2.0235 -0.6198
 4466TIP3   OH237592   6.346   0.269  20.208  0.3340  0.2391 -0.0733
 4466TIP3    H137593   6.328   0.362  20.225  1.8939  0.0668  3.2245
 4466TIP3    H237594   6.259   0.230  20.197 -0.6606  1.4907  2.5049
 4467TIP3   OH237595   1.198   3.413  18.432  0.3715  0.0173 -0.2484
 4467TIP3    H137596   1.171   3.347  18.495 -0.4916 -0.2918 -0.9200
 4467TIP3    H237597   1.285   3.384  18.402  0.9515  0.3703  1.0478
 4468TIP3   OH237598   0.540   2.180  20.239 -0.3972 -0.5036 -0.4717
 4468TIP3    H137599   0.447   2.200  20.242 -0.3820 -0.5549  0.6363
 4468TIP3    H237600   0.582   2.251  20.289  0.0439 -1.0576 -0.0314
 4469TIP3   OH237601   1.077   1.507  19.302  0.7365  0.1269 -0.4236
 4469TIP3    H137602   1.106   1.505  19.211 -1.0219 -0.6882 -1.0240
 4469TIP3    H237603   1.155   1.486  19.353  1.2149 -2.2849 -1.9447
 4470TIP3   OH237604   6.613   3.501  17.369  0.5346 -0.1037  0.1486
 4470TIP3    H137605   6.578   3.422  17.409  0.4273 -0.2772 -0.2913
 4470TIP3    H237606   6.651   3.473  17.286 -1.1555  0.5720 -0.9058
 4471TIP3   OH237607   2.563   1.418  19.985 -0.0553  0.2028  0.3831
 4471TIP3    H137608   2.641   1.385  20.030 -0.1592  1.2466  1.3803
 4471TIP3    H237609   2.562   1.372  19.901  1.9732  0.6164  0.0863
 4472TIP3   OH237610   0.375   1.875  18.320 -0.3199  0.3801 -0.6254
 4472TIP3    H137611   0.370   1.961  18.361 -3.1134 -0.0571  0.1961
 4472TIP3    H237612   0.333   1.887  18.234 -0.9747 -0.1936 -0.3947
 4473TIP3   OH237613   3.306   6.547  16.827  0.4706  0.2544 -0.2701
 4473TIP3    H137614   3.276   6.503  16.747  1.1010 -0.1177 -0.3082
 4473TIP3    H237615   3.237   6.611  16.846 -0.3799 -0.6220 -0.3076
 4474TIP3   OH237616   5.920   4.999  18.164 -0.2950  0.2985 -0.0522
 4474TIP3    H137617   5.830   4.987  18.136 -0.8377  0.8547  1.3466
 4474TIP3    H237618   5.915   5.004  18.260  1.2436  0.1217  0.0699
 4475TIP3   OH237619   0.429   6.261  19.264 -0.0159 -0.1891  0.1395
 4475TIP3    H137620   0.476   6.312  19.330  1.7454 -0.3901 -0.8982
 4475TIP3    H237621   0.372   6.325  19.221  0.2437  0.3527  0.5895
 4476TIP3   OH237622   4.572   2.472  17.738  0.3482  0.3150 -0.3903
 4476TIP3    H137623   4.606   2.529  17.669 -1.0612  1.1225 -0.4652
 4476TIP3    H237624   4.570   2.529  17.816  2.2674 -0.6819  0.4622
 4477TIP3   OH237625   0.467   0.469  20.105 -0.2104  0.2056  0.0104
 4477TIP3    H137626   0.484   0.431  20.191  2.8705  0.7685 -0.2350
 4477TIP3    H237627   0.463   0.394  20.045 -0.4646 -0.0651  0.3603
 4478TIP3   OH237628   3.528   3.639  18.940  0.5046  0.1378  0.2560
 4478TIP3    H137629   3.544   3.703  18.871 -1.0549  0.0342 -0.2310
 4478TIP3    H237630   3.470   3.574  18.900 -0.2777 -0.0272  1.5877
 4479TIP3   OH237631   0.993   6.137  16.921  0.4386  0.1224  0.3659
 4479TIP3    H137632   1.023   6.127  16.831  0.8474 -0.4142  0.5558
 4479TIP3    H237633   0.992   6.231  16.936 -1.2910  0.3152 -0.7493
 4480TIP3   OH237634   3.476   6.586  19.446  0.2830  0.4044  0.1997
 4480TIP3    H137635   3.483   6.594  19.541  1.8920 -2.8251  0.4959
 4480TIP3    H237636   3.384   6.604  19.427 -0.5857 -0.9825  2.6835
 4481TIP3   OH237637   1.292   4.158  19.359  0.1795  0.0778  0.5112
 4481TIP3    H137638   1.346   4.218  19.411  0.6490 -0.8667  1.1247
 4481TIP3    H237639   1.348   4.135  19.284 -0.2088  0.8224 -0.0265
 4482TIP3   OH237640   1.976   5.681  17.473  0.1948 -0.1730  0.0577
 4482TIP3    H137641   1.942   5.662  17.385 -0.3076 -1.6250  0.5363
 4482TIP3    H237642   1.901   5.714  17.521  0.8760  2.4132 -0.5252
 4483TIP3   OH237643   2.124   5.883  18.850  0.0637 -0.1154  0.6660
 4483TIP3    H137644   2.057   5.919  18.907 -0.9856 -0.1106 -0.5279
 4483TIP3    H237645   2.198   5.944  18.859 -0.4606  0.4564  1.2100
 4484TIP3   OH237646   1.634   6.465  17.887 -0.0519  0.0738 -0.0337
 4484TIP3    H137647   1.666   6.503  17.969 -2.3043 -1.9081  1.9289
 4484TIP3    H237648   1.684   6.384  17.877  1.0036  0.8437 -1.2994
 4485TIP3   OH237649   1.532   1.453  17.430 -0.8852 -0.7344 -0.0116
 4485TIP3    H137650   1.555   1.361  17.443  0.7613 -0.4976 -0.9020
 4485TIP3    H237651   1.500   1.482  17.515 -2.3339 -2.3507  0.0414
 4486TIP3   OH237652   5.431   4.274  18.425  0.6192  0.2239  1.0493
 4486TIP3    H137653   5.501   4.213  18.450  1.0969  0.5367  0.4757
 4486TIP3    H237654   5.445   4.350  18.481  0.1951 -0.0617  1.5612
 4487TIP3   OH237655   0.137   2.937  19.801 -0.4623 -0.1810 -0.7518
 4487TIP3    H137656   0.060   2.881  19.813 -0.7300  0.1864 -0.7210
 4487TIP3    H237657   0.165   2.921  19.711 -0.7193 -0.1435 -0.8404
 4488TIP3   OH237658   0.212   4.894  16.638 -0.1965 -0.1819 -0.3671
 4488TIP3    H137659   0.163   4.970  16.607 -1.2439 -0.8717 -0.4253
 4488TIP3    H237660   0.192   4.825  16.576  2.4864  0.0243 -1.5945
 4489TIP3   OH237661   0.231   4.182  17.261 -1.0122  0.2246 -0.0136
 4489TIP3    H137662   0.270   4.255  17.215  0.7988  1.4746  3.1463
 4489TIP3    H237663   0.295   4.111  17.252 -1.4172 -0.0672 -0.6863
 4490TIP3   OH237664   1.162   0.473  16.644 -0.0665 -0.2060 -1.1946
 4490TIP3    H137665   1.121   0.390  16.622 -1.6171  0.3890 -0.6977
 4490TIP3    H237666   1.108   0.509  16.714  0.1682  1.5147 -1.8330
 4491TIP3   OH237667   4.525   4.643  20.036 -0.3222  0.2276  0.0922
 4491TIP3    H137668   4.507   4.663  20.128  1.2660  1.4183  0.1926
 4491TIP3    H237669   4.532   4.729  19.994 -0.7472 -0.3027 -1.0894
 4492TIP3   OH237670   3.635   3.663  19.182 -0.0094 -0.3594  0.0004
 4492TIP3    H137671   3.580   3.733  19.217  0.3403 -0.0107 -0.1477
 4492TIP3    H237672   3.602   3.648  19.094  0.2571 -0.0169 -0.1577
 4493TIP3   OH237673   6.611   2.788  20.340  0.0387 -0.0887 -0.0010
 4493TIP3    H137674   6.645   2.756  20.256 -0.5663  0.6742 -0.5460
 4493TIP3    H237675   6.689   2.794  20.396  0.6431  0.5390 -0.8821
 4494TIP3   OH237676   1.145   0.584  17.998 -0.7657 -0.2854  0.3636
 4494TIP3    H137677   1.185   0.580  17.911 -1.8906 -0.3037 -0.1699
 4494TIP3    H237678   1.196   0.523  18.051 -1.8593 -2.5200 -1.0400
 4495TIP3   OH237679   3.135   4.401  19.569 -0.3226 -0.6599 -0.0399
 4495TIP3    H137680   3.045   4.371  19.561 -0.3068 -0.8004  0.2864
 4495TIP3    H237681   3.149   4.456  19.492 -0.8221 -0.2978  0.1213
 4496TIP3   OH237682   0.317   2.438  19.071  0.5108  0.1469 -0.0472
 4496TIP3    H137683   0.355   2.423  18.985  0.6380  0.8996 -0.1250
 4496TIP3    H237684   0.227   2.467  19.054 -0.1982 -1.7714  0.1407
 4497TIP3   OH237685   6.274   4.366  18.286  0.4300  0.2269 -0.1191
 4497TIP3    H137686   6.258   4.290  18.343 -0.2610  0.0907 -0.4868
 4497TIP3    H237687   6.245   4.441  18.337 -2.1651 -0.0628 -1.0110
 4498TIP3   OH237688   1.318   3.858  17.947 -0.0649 -0.1062  0.2828
 4498TIP3    H137689   1.295   3.769  17.973  1.1273  0.0818  2.2218
 4498TIP3    H237690   1.261   3.914  18.000 -0.1950  0.2929 -0.2686
 4499TIP3   OH237691   0.286   5.243  17.449 -0.0341 -0.3544  0.6212
 4499TIP3    H137692   0.347   5.316  17.440  0.7055 -0.9870  0.4466
 4499TIP3    H237693   0.314   5.179  17.384  0.3400 -1.4850  1.8434
 4500TIP3   OH237694   6.233   0.238  19.549  0.2343  0.0722 -0.0567
 4500TIP3    H137695   6.171   0.261  19.618 -0.1104  0.6149 -0.5409
 4500TIP3    H237696   6.300   0.306  19.552 -0.1369  0.4689 -0.6915
 4501TIP3   OH237697   1.722   0.393  18.963  0.0392  0.4318 -0.0909
 4501TIP3    H137698   1.628   0.396  18.980  0.0033 -0.5324 -0.0801
 4501TIP3    H237699   1.761   0.366  19.047  0.3173  0.7105 -0.1280
 4502TIP3   OH237700   2.401   1.866  19.207  0.4226  0.2767  0.1857
 4502TIP3    H137701   2.372   1.782  19.243 -1.5671  0.3767 -1.0149
 4502TIP3    H237702   2.399   1.926  19.282 -0.6569 -0.1858  0.5487
 4503TIP3   OH237703   2.465   5.237  18.606  0.4522 -0.0256  0.4503
 4503TIP3    H137704   2.444   5.197  18.690 -0.0438  1.0514  0.8617
 4503TIP3    H237705   2.555   5.267  18.615  0.6127 -0.4738  0.3643
 4504TIP3   OH237706   1.600   3.287  18.118  0.3698  0.1516  0.2818
 4504TIP3    H137707   1.570   3.354  18.056 -1.4355 -0.0402  0.8807
 4504TIP3    H237708   1.684   3.258  18.083 -0.7337 -0.2092 -2.2940
 4505TIP3   OH237709   1.490   5.803  19.194  0.1218  0.0968  0.0374
 4505TIP3    H137710   1.523   5.717  19.221 -1.8031  0.2402  3.3229
 4505TIP3    H237711   1.470   5.848  19.275 -2.1339  2.3751 -1.6221
 4506TIP3   OH237712   1.749   3.183  19.444  0.1699  0.1546 -0.6216
 4506TIP3    H137713   1.806   3.258  19.460  0.2911 -0.2423  0.9663
 4506TIP3    H237714   1.804   3.106  19.462 -0.5757 -0.2566 -0.0443
 4507TIP3   OH237715   5.994   1.596  19.472  0.3154 -0.0446 -0.2575
 4507TIP3    H137716   5.989   1.544  19.391  1.2134 -0.1790 -0.2443
 4507TIP3    H237717   5.933   1.668  19.459 -1.9480 -1.7409  0.2136
 4508TIP3   OH237718   5.081   2.095  19.804 -0.3548 -0.0290 -0.2932
 4508TIP3    H137719   5.057   2.185  19.827 -2.1719 -0.5126 -0.1162
 4508TIP3    H237720   5.154   2.105  19.743  0.9331  1.4586  1.3920
 4509TIP3   OH237721   4.425   2.212  18.514 -0.4028  0.2846  0.3211
 4509TIP3    H137722   4.436   2.197  18.420  0.4037 -0.9094  0.5855
 4509TIP3    H237723   4.391   2.129  18.547 -0.0348  0.4679  1.1793
 4510TIP3   OH237724   4.448   6.055  18.699 -0.2761  0.2869  0.4810
 4510TIP3    H137725   4.376   6.117  18.690 -1.2308 -0.5827  1.8109
 4510TIP3    H237726   4.526   6.110  18.703 -0.8963  1.2758 -0.4345
 4511TIP3   OH237727   2.498   3.032  19.345 -0.4642  0.1345  0.1992
 4511TIP3    H137728   2.501   2.954  19.399 -3.4687 -0.5311 -0.3848
 4511TIP3    H237729   2.559   3.014  19.273  0.5680 -0.6590  1.2431
 4512TIP3   OH237730   3.568   2.462  17.884 -0.3788  0.5659 -0.3677
 4512TIP3    H137731   3.644   2.520  17.892 -1.0486  1.2949  1.1712
 4512TIP3    H237732   3.493   2.521  17.881 -0.9912 -0.1913 -0.2611
 4513TIP3   OH237733   4.785   4.133  18.524  0.0783  0.1784 -0.3723
 4513TIP3    H137734   4.805   4.226  18.518  0.4941  0.1453  0.3271
 4513TIP3    H237735   4.869   4.089  18.510 -0.1528 -0.0979 -0.8953
 4514TIP3   OH237736   4.689   0.327  18.483  0.4293  0.2338 -0.5273
 4514TIP3    H137737   4.762   0.285  18.437  0.2377 -0.5761 -0.1202
 4514TIP3    H237738   4.731   0.374  18.556  0.4617 -1.5032  0.6403
 4515TIP3   OH237739   2.550   6.565  19.084  0.3296  0.0230  0.0706
 4515TIP3    H137740   2.484   6.538  19.020  0.3819 -1.4126  0.5926
 4515TIP3    H237741   2.631   6.569  19.034  0.7344 -2.8978  0.3340
 4516TIP3   OH237742   6.678   3.669  18.443 -0.0109 -0.0738  0.4402
 4516TIP3    H137743   6.758   3.623  18.420 -1.0046 -0.8430 -1.8043
 4516TIP3    H237744   6.630   3.607  18.498  1.1281  0.6221  2.3025
 4517TIP3   OH237745   6.677   5.421  20.111  0.2931 -0.1117  0.3260
 4517TIP3    H137746   6.669   5.355  20.179 -0.4082 -1.9211 -1.4081
 4517TIP3    H237747   6.590   5.422  20.069  1.3491 -0.8701 -2.0626
 4518TIP3   OH237748   1.471   3.545  17.976 -0.1714  0.4446  1.0065
 4518TIP3    H137749   1.503   3.600  18.048 -0.2165 -0.4961  1.7744
 4518TIP3    H237750   1.376   3.558  17.977  0.0166  2.1887 -0.3888
 4519TIP3   OH237751   5.174   1.751  18.781  0.0479  0.3790  0.0849
 4519TIP3    H137752   5.105   1.694  18.815  1.4751 -1.1264  0.6171
 4519TIP3    H237753   5.175   1.826  18.841  0.4136 -0.7178  1.5172
 4520TIP3   OH237754   0.960   2.242  18.294  0.0452 -0.2863  0.0700
 4520TIP3    H137755   1.011   2.218  18.216  0.1533  1.0442 -0.2903
 4520TIP3    H237756   0.954   2.161  18.344  1.0994 -0.8615 -0.6892
 4521TIP3   OH237757   1.338   5.668  19.741 -0.1077  0.3412  0.1015
 4521TIP3    H137758   1.416   5.652  19.688  0.3345  2.8683 -0.1268
 4521TIP3    H237759   1.368   5.723  19.813 -1.1634 -1.1008  1.7229
 4522TIP3   OH237760   0.799   4.083  20.151  0.3009  0.0960 -0.4751
 4522TIP3    H137761   0.815   4.148  20.083 -0.1636  2.1066  1.2230
 4522TIP3    H237762   0.855   4.110  20.224 -1.0241 -0.5017  0.8220
 4523TIP3   OH237763   0.260   0.619  17.106 -0.5181 -0.0367  0.0298
 4523TIP3    H137764   0.205   0.559  17.157 -0.9957  0.8520  0.5904
 4523TIP3    H237765   0.200   0.689  17.079 -0.1461 -0.2077 -1.3046
 4524TIP3   OH237766   1.819   6.614  19.788  0.1272 -0.1591  0.2225
 4524TIP3    H137767   1.801   6.638  19.697 -2.4050 -2.0015  0.1090
 4524TIP3    H237768   1.884   6.544  19.782 -0.5769 -0.7871 -0.2682
 4525TIP3   OH237769   3.435   1.475  17.305  0.6057  0.0677  0.2907
 4525TIP3    H137770   3.421   1.494  17.212  1.1001  1.2634  0.4485
 4525TIP3    H237771   3.348   1.450  17.337  0.0585  1.3458 -0.1223
 4526TIP3   OH237772   1.004   5.051  19.839 -0.0448  0.9685  0.4283
 4526TIP3    H137773   1.061   5.017  19.909  0.3114 -0.0266 -0.3101
 4526TIP3    H237774   1.064   5.065  19.765 -0.4334  1.9014  0.2855
 4527TIP3   OH237775   2.596   2.036  18.442  0.0294  0.2945  0.4181
 4527TIP3    H137776   2.631   1.962  18.492 -0.3972  0.2301  0.6278
 4527TIP3    H237777   2.612   2.012  18.351  0.8924  0.4543  0.5176
 4528TIP3   OH237778   2.130   6.234  17.272 -0.3569  0.1080  0.0117
 4528TIP3    H137779   2.207   6.207  17.322 -0.0427 -0.2930 -0.6854
 4528TIP3    H237780   2.086   6.153  17.249 -1.7885  0.3737  1.6091
 4529TIP3   OH237781   1.239   5.292  19.972  0.1802 -0.3570 -0.7581
 4529TIP3    H137782   1.146   5.284  19.996  0.3833 -2.7181 -0.4924
 4529TIP3    H237783   1.238   5.314  19.879 -0.6829 -1.1603 -0.9627
 4530TIP3   OH237784   4.478   0.478  19.206 -0.2132 -0.2150 -0.3929
 4530TIP3    H137785   4.420   0.453  19.134  1.5042 -1.5048 -1.3837
 4530TIP3    H237786   4.542   0.407  19.212  1.3707  1.2103  0.5681
 4531TIP3   OH237787   2.781   2.604  18.792 -0.4697 -0.1968  0.0646
 4531TIP3    H137788   2.748   2.515  18.783  3.4858 -1.9029  0.3705
 4531TIP3    H237789   2.720   2.647  18.851 -2.0837 -2.9390  0.5494
 4532TIP3   OH237790   0.297   2.285  20.229  0.0933 -0.6033 -0.5852
 4532TIP3    H137791   0.274   2.325  20.146  1.1458  0.3887 -0.4194
 4532TIP3    H237792   0.231   2.318  20.291  0.1240 -0.2563 -0.7396
 4533TIP3   OH237793   4.158   2.271  20.603 -0.2302 -0.0523  0.7176
 4533TIP3    H137794   4.066   2.271  20.629 -0.2124  1.1683  0.8292
 4533TIP3    H237795   4.156   2.270  20.507 -0.3778  0.5880  0.7111
 4534TIP3   OH237796   0.061   6.504  19.440  0.5704  0.2375  0.0635
 4534TIP3    H137797   0.143   6.553  19.438  1.0742 -0.6071 -2.1127
 4534TIP3    H237798   0.086   6.414  19.422 -0.7919 -0.1153 -0.1482
 4535TIP3   OH237799   1.935   6.688  17.945 -0.3873 -0.0741  0.3505
 4535TIP3    H137800   1.869   6.654  18.006  0.2138 -1.5145  0.2312
 4535TIP3    H237801   1.976   6.760  17.992 -0.6993 -0.4359  1.2017
 4536TIP3   OH237802   4.070   3.188  20.052  0.2543  0.3004  0.3192
 4536TIP3    H137803   4.114   3.104  20.064 -0.5012 -0.2370 -0.5646
 4536TIP3    H237804   4.129   3.252  20.091  0.8880 -0.6300  0.9111
 4537TIP3   OH237805   4.256   4.313  18.975  0.3459  0.3340 -0.0347
 4537TIP3    H137806   4.304   4.268  18.906 -0.5835 -0.6825 -0.0427
 4537TIP3    H237807   4.187   4.361  18.928  0.4460  0.5984  0.0899
 4538TIP3   OH237808   3.774   5.538  18.857  0.5208 -0.3694 -0.5081
 4538TIP3    H137809   3.867   5.518  18.871  1.0263  1.5930 -0.7475
 4538TIP3    H237810   3.774   5.628  18.823 -1.5354  0.1003  0.5964
 4539TIP3   OH237811   0.876   4.822  17.626 -0.0758  0.9909 -0.2676
 4539TIP3    H137812   0.875   4.814  17.722  3.0948 -0.0814 -0.2045
 4539TIP3    H237813   0.952   4.877  17.608  1.7235 -1.9084 -2.2221
 4540TIP3   OH237814   2.613   6.369  17.068 -0.0328 -0.2730 -0.7250
 4540TIP3    H137815   2.578   6.283  17.090  0.1974 -0.0120  0.7445
 4540TIP3    H237816   2.705   6.353  17.047 -0.1947 -0.4847 -1.3107
 4541TIP3   OH237817   4.988   5.394  17.315  0.5028 -0.5621 -0.6291
 4541TIP3    H137818   4.974   5.406  17.409 -0.7071 -1.0052 -0.7332
 4541TIP3    H237819   4.941   5.313  17.294  0.1998 -0.1204 -1.7378
 4542TIP3   OH237820   4.551   1.252  18.631 -0.1616  0.2772 -0.2156
 4542TIP3    H137821   4.547   1.327  18.691  0.7779  0.1532  0.0233
 4542TIP3    H237822   4.592   1.183  18.683 -3.4822 -1.3246  0.4950
 4543TIP3   OH237823   6.491   6.146  17.347  0.4919  0.2212  0.5319
 4543TIP3    H137824   6.534   6.061  17.357 -1.0107 -0.7389 -0.6463
 4543TIP3    H237825   6.458   6.146  17.257  0.3521  2.0202  0.5398
 4544TIP3   OH237826   4.706   5.758  16.809 -0.4183  0.7171 -0.0204
 4544TIP3    H137827   4.651   5.775  16.885 -0.1550  0.2403  0.2797
 4544TIP3    H237828   4.683   5.670  16.781  0.3798  0.4016  0.2730
 4545TIP3   OH237829   4.737   2.101  19.272 -0.2449  0.2852 -0.1284
 4545TIP3    H137830   4.791   2.180  19.263  0.3755 -0.1905 -0.5921
 4545TIP3    H237831   4.711   2.102  19.364  2.5986 -0.7568  0.7962
 4546TIP3   OH237832   6.610   5.919  17.760 -0.1077  0.5322  0.1601
 4546TIP3    H137833   6.534   5.955  17.805  0.2624  0.2853  1.0041
 4546TIP3    H237834   6.574   5.867  17.688 -0.6954  1.1071  0.0309
 4547TIP3   OH237835   2.904   2.173  18.573  0.2983 -0.0879  0.0960
 4547TIP3    H137836   2.913   2.106  18.640 -0.2993 -0.5920 -0.3157
 4547TIP3    H237837   2.911   2.125  18.490  0.8924  0.5053 -0.2093
 4548TIP3   OH237838   3.620   1.764  19.047  0.5870  0.4863  0.3937
 4548TIP3    H137839   3.705   1.792  19.012 -0.4431  0.9101 -2.0175
 4548TIP3    H237840   3.603   1.681  19.002 -1.1342  1.4021 -0.7790
 4549TIP3   OH237841   5.798   3.875  19.179 -0.4812 -0.4398 -0.0274
 4549TIP3    H137842   5.866   3.866  19.246 -1.2751 -3.1745  0.5392
 4549TIP3    H237843   5.728   3.924  19.222  0.9945  2.3999 -0.6126
 4550TIP3   OH237844   3.766   6.442  20.081 -0.0575  0.0261  0.3780
 4550TIP3    H137845   3.805   6.383  20.145  0.3896  0.0406  0.1224
 4550TIP3    H237846   3.829   6.514  20.074  0.3091 -0.3930 -0.7077
 4551TIP3   OH237847   1.797   2.549  18.186 -0.3149 -0.3842  0.3325
 4551TIP3    H137848   1.856   2.570  18.114  0.3389 -1.0402  0.6587
 4551TIP3    H237849   1.765   2.633  18.216  0.0220 -0.0504 -0.2149
 4552TIP3   OH237850   5.163   4.936  19.739 -0.5933  0.0550 -0.2233
 4552TIP3    H137851   5.200   4.854  19.770 -0.4343 -0.2257 -1.1232
 4552TIP3    H237852   5.201   5.003  19.796 -0.3557 -0.4415  0.2122
 4553TIP3   OH237853   3.847   5.506  18.125  0.1111  0.3507 -0.0977
 4553TIP3    H137854   3.891   5.482  18.044 -0.2543 -1.1020  0.1047
 4553TIP3    H237855   3.914   5.551  18.177 -0.1052  2.8773 -1.8437
 4554TIP3   OH237856   0.615   1.677  18.149  0.8149  0.0812 -0.7477
 4554TIP3    H137857   0.583   1.608  18.207 -0.8656  1.2381 -0.2101
 4554TIP3    H237858   0.702   1.699  18.183  0.3958 -0.1672  0.5330
 4555TIP3   OH237859   0.707   3.224  19.317 -0.7382 -0.3409 -0.1228
 4555TIP3    H137860   0.779   3.161  19.309  0.3610  0.7137  0.9236
 4555TIP3    H237861   0.748   3.309  19.300 -1.7672  0.2795  0.3876
 4556TIP3   OH237862   3.513   5.724  19.659  0.3805  0.2597  0.3450
 4556TIP3    H137863   3.427   5.740  19.620 -0.5567 -0.1023  2.1732
 4556TIP3    H237864   3.494   5.687  19.745  2.3405  2.1350  1.6605
 4557TIP3   OH237865   2.839   1.582  17.762 -0.3291 -0.2100  0.8673
 4557TIP3    H137866   2.934   1.592  17.751 -0.3061 -0.6669  0.6271
 4557TIP3    H237867   2.809   1.668  17.792  0.0141  0.2459 -0.0597
 4558TIP3   OH237868   2.329   0.461  17.642 -0.0633  0.5330  0.2789
 4558TIP3    H137869   2.324   0.406  17.563 -0.5388  1.2152 -0.1847
 4558TIP3    H237870   2.328   0.551  17.608  0.0744  0.8318  1.0529
 4559TIP3   OH237871   0.701   5.437  19.786  0.0560  0.2423 -0.1771
 4559TIP3    H137872   0.759   5.505  19.821  0.1962  0.1105 -0.1524
 4559TIP3    H237873   0.724   5.358  19.836 -1.3494  0.5818  1.0609
 4560TIP3   OH237874   1.856   1.280  18.002 -0.3955  0.1624 -0.3898
 4560TIP3    H137875   1.934   1.254  17.953 -0.6954 -1.1325 -0.2185
 4560TIP3    H237876   1.890   1.311  18.086  0.0375  1.2833 -0.9588
 4561TIP3   OH237877   1.891   5.972  17.476 -0.4452 -0.5671  0.1092
 4561TIP3    H137878   1.848   6.022  17.545 -0.7605  0.0356 -0.5012
 4561TIP3    H237879   1.819   5.939  17.422 -0.1788  0.9893 -1.2894
 4562TIP3   OH237880   1.487   0.412  19.537  0.2838  0.3380  0.4065
 4562TIP3    H137881   1.394   0.430  19.553  0.0945 -0.8734  0.7093
 4562TIP3    H237882   1.513   0.353  19.607  1.2559  0.5477  0.2336
 4563TIP3   OH237883   0.057   4.469  19.425 -0.2314  0.0762 -0.1056
 4563TIP3    H137884   0.043   4.377  19.403  1.3653 -0.6124  1.4974
 4563TIP3    H237885   0.137   4.493  19.380 -0.3291  0.5135 -0.0532
 4564TIP3   OH237886   0.687   0.089  18.639  0.1603  0.4055 -0.4911
 4564TIP3    H137887   0.649   0.091  18.727 -0.2638  1.1195 -0.6813
 4564TIP3    H237888   0.642   0.017  18.595 -0.3429  0.6786 -0.4328
 4565TIP3   OH237889   2.228   4.565  17.168 -0.5144 -0.4686 -0.6028
 4565TIP3    H137890   2.272   4.522  17.241  0.0820  0.2002 -0.5511
 4565TIP3    H237891   2.226   4.657  17.193 -2.7943 -0.5854 -0.1864
 4566TIP3   OH237892   2.423   4.667  19.528 -0.6558  0.0073 -0.4801
 4566TIP3    H137893   2.408   4.631  19.615  0.0890  0.9268  0.0519
 4566TIP3    H237894   2.403   4.595  19.468 -2.9643 -0.0949  0.3207
 4567TIP3   OH237895   0.578   5.358  18.560 -0.1633  0.8104 -0.1854
 4567TIP3    H137896   0.595   5.272  18.597 -1.0278  1.0186  0.7619
 4567TIP3    H237897   0.496   5.348  18.511 -1.2293  1.4519  1.3744
 4568TIP3   OH237898   2.237   1.252  19.511 -0.1584 -0.0694  0.1101
 4568TIP3    H137899   2.239   1.192  19.585 -0.6373 -1.6415 -1.0934
 4568TIP3    H237900   2.321   1.240  19.467 -0.4480 -0.2240 -0.4102
 4569TIP3   OH237901   1.633   2.149  18.058  0.2517 -0.1927  0.2049
 4569TIP3    H137902   1.675   2.113  18.136  0.9691  1.0527  0.4133
 4569TIP3    H237903   1.625   2.074  17.999  0.0655 -1.0620  1.3095
 4570TIP3   OH237904   4.250   3.251  19.277  0.2621  0.7216 -0.2487
 4570TIP3    H137905   4.240   3.194  19.201  0.7564  0.6714 -0.2827
 4570TIP3    H237906   4.316   3.208  19.331 -0.8287  0.2187  0.7293
 4571TIP3   OH237907   4.862   1.734  19.609 -0.2193 -0.2073  0.0939
 4571TIP3    H137908   4.825   1.799  19.668 -0.0781  0.0522 -0.0985
 4571TIP3    H237909   4.809   1.741  19.529 -0.9889 -1.1804  0.4985
 4572TIP3   OH237910   6.578   1.178  19.040 -0.2547  0.4842 -0.5867
 4572TIP3    H137911   6.647   1.138  19.093 -0.8155 -2.6034 -1.9470
 4572TIP3    H237912   6.624   1.218  18.967  0.2056  0.0708 -0.5281
 4573TIP3   OH237913   0.814   3.086  18.978  0.3818 -0.2315 -0.4817
 4573TIP3    H137914   0.876   3.019  18.948 -1.1952 -2.3140  0.6291
 4573TIP3    H237915   0.822   3.083  19.073 -1.3659 -0.5338 -0.3238
 4574TIP3   OH237916   1.098   1.769  18.421  0.5230 -0.3287  0.1695
 4574TIP3    H137917   1.130   1.843  18.370 -0.3374 -0.4287 -0.5563
 4574TIP3    H237918   1.070   1.807  18.504  2.7078 -0.2813  0.9569
 4575TIP3   OH237919   4.041   5.388  20.021 -0.5924 -0.1823  0.2772
 4575TIP3    H137920   4.123   5.338  20.020  0.0588  0.7643  1.8511
 4575TIP3    H237921   3.983   5.341  19.962  1.4604 -0.2189 -1.8312
 4576TIP3   OH237922   2.679   4.502  19.194 -0.7754  0.4793  0.1241
 4576TIP3    H137923   2.710   4.429  19.247 -2.2696  0.0879  0.5197
 4576TIP3    H237924   2.668   4.574  19.256 -0.1342  0.7902 -0.1124
 4577TIP3   OH237925   2.220   4.179  18.068  0.3487 -0.3996 -0.2858
 4577TIP3    H137926   2.203   4.089  18.039  2.0142 -0.6587 -0.5804
 4577TIP3    H237927   2.178   4.233  18.001  3.2469 -1.0027 -2.8063
 4578TIP3   OH237928   3.908   4.073  19.577 -0.5789  0.5704 -0.3099
 4578TIP3    H137929   3.953   3.998  19.538 -0.6741  0.4527 -0.1938
 4578TIP3    H237930   3.821   4.040  19.600 -0.4013  0.5388  0.3385
 4579TIP3   OH237931   6.083   3.876  17.742  0.1687 -0.7307  0.0205
 4579TIP3    H137932   6.150   3.924  17.790  0.6065 -2.5189  1.3205
 4579TIP3    H237933   6.000   3.919  17.766  0.7401  1.1809 -1.2101
 4580TIP3   OH237934   2.816   4.496  19.963 -0.5643  0.0283 -0.3553
 4580TIP3    H137935   2.902   4.499  20.005  0.1316  1.4692 -1.8141
 4580TIP3    H237936   2.754   4.496  20.037  0.6391  1.2860  0.7092
 4581TIP3   OH237937   6.036   2.467  18.182  0.1252 -0.0167  0.0344
 4581TIP3    H137938   6.025   2.523  18.104 -0.2642  0.9575  0.7616
 4581TIP3    H237939   6.099   2.401  18.155  1.5856  1.5120 -0.4988
 4582TIP3   OH237940   2.301   5.083  17.974  0.7385  0.1058  0.3286
 4582TIP3    H137941   2.223   5.120  18.015  0.1373 -0.5583 -0.1776
 4582TIP3    H237942   2.292   4.989  17.985 -0.4382 -0.3017 -2.9053
 4583TIP3   OH237943   0.486   3.114  18.966 -0.6856 -0.1082 -1.3066
 4583TIP3    H137944   0.558   3.177  18.958  1.2301 -2.2139 -2.0643
 4583TIP3    H237945   0.456   3.123  19.056  0.5162  0.8724 -0.9758
 4584TIP3   OH237946   1.043   0.060  18.342 -0.4222 -0.1941 -0.2439
 4584TIP3    H137947   0.986  -0.012  18.314 -0.7524  0.3854 -1.0876
 4584TIP3    H237948   1.081   0.029  18.425  0.0436 -1.6671 -0.9587
 4585TIP3   OH237949   2.897   0.508  17.948  0.6523  0.3373  0.1025
 4585TIP3    H137950   2.927   0.490  18.037  0.8573 -0.9593 -0.1935
 4585TIP3    H237951   2.803   0.491  17.950  0.5304  1.0247  0.2383
 4586TIP3   OH237952   4.263   2.335  18.722  0.1805  0.3715  0.1321
 4586TIP3    H137953   4.326   2.343  18.650  0.1479 -0.9242 -0.0573
 4586TIP3    H237954   4.184   2.377  18.689 -0.0169 -0.7116 -0.8247
 4587TIP3   OH237955   1.056   2.198  18.008  0.0503  0.0381 -0.2451
 4587TIP3    H137956   1.144   2.195  17.970  0.2481  0.1355  0.1961
 4587TIP3    H237957   1.002   2.148  17.947  0.3816  0.1035 -0.5982
 4588TIP3   OH237958   4.479   5.574  19.907  0.2875 -0.4568  0.0355
 4588TIP3    H137959   4.436   5.627  19.839 -0.4616 -1.0248  0.0545
 4588TIP3    H237960   4.424   5.586  19.984  0.2460 -1.0664  0.1070
 4589TIP3   OH237961   6.651   5.510  19.029  0.6503  0.2486 -0.7074
 4589TIP3    H137962   6.717   5.441  19.022  0.6685  0.2578 -0.6229
 4589TIP3    H237963   6.694   5.587  18.993  0.8230  0.3499 -0.2876
 4590TIP3   OH237964   3.566   3.096  20.233 -0.4122 -0.3761 -0.5939
 4590TIP3    H137965   3.656   3.123  20.214 -0.8948  1.0761 -0.9752
 4590TIP3    H237966   3.525   3.175  20.269 -2.1050 -0.3584 -2.3928
 4591TIP3   OH237967   2.606   3.842  17.911 -0.2237 -0.2824  0.6322
 4591TIP3    H137968   2.629   3.856  17.819  1.5418 -0.8980  0.9285
 4591TIP3    H237969   2.573   3.927  17.941  3.4336  1.4086  0.5384
 4592TIP3   OH237970   4.045   4.603  19.438  0.4095  0.0698 -0.8378
 4592TIP3    H137971   3.966   4.634  19.480 -0.0160 -1.2294 -0.6189
 4592TIP3    H237972   4.066   4.521  19.484  1.0766 -0.3287 -1.8049
 4593TIP3   OH237973   1.071   1.102  18.110 -0.1011 -0.2136 -0.3455
 4593TIP3    H137974   1.063   1.007  18.119 -0.8987 -0.1458 -0.2727
 4593TIP3    H237975   1.136   1.114  18.041  1.2719 -0.7894  0.8178
 4594TIP3   OH237976   4.116   4.931  18.186  0.2102  0.3059 -0.2955
 4594TIP3    H137977   4.115   4.854  18.242  0.9749  0.4544 -0.0647
 4594TIP3    H237978   4.036   4.924  18.133 -1.2073  0.7880  1.6737
 4595TIP3   OH237979   2.102   5.806  19.890  0.7799  0.2904  0.1261
 4595TIP3    H137980   2.089   5.901  19.896  0.5029  0.2646 -0.0440
 4595TIP3    H237981   2.051   5.770  19.963  0.5490  0.2433 -0.0584
 4596TIP3   OH237982   4.264   4.561  19.233  0.2772  0.0705 -0.0449
 4596TIP3    H137983   4.215   4.619  19.291  1.3208  0.3910  0.5331
 4596TIP3    H237984   4.259   4.604  19.147 -2.2351 -0.9721 -0.5325
 4597TIP3   OH237985   6.493   0.860  18.654  0.1031  0.6851 -0.1938
 4597TIP3    H137986   6.587   0.880  18.652  0.5868 -1.2286  1.0129
 4597TIP3    H237987   6.477   0.811  18.574  0.7522 -1.2607  0.8109
 4598TIP3   OH237988   3.113   0.105  16.975  0.0595 -0.2533  0.1270
 4598TIP3    H137989   3.040   0.079  16.918  1.5472 -0.8349 -1.5764
 4598TIP3    H237990   3.118   0.200  16.964 -0.7408 -0.1262  0.6849
 4599TIP3   OH237991   4.673   0.588  17.422  0.4061  0.6203 -0.4190
 4599TIP3    H137992   4.734   0.524  17.385  1.1745  0.8417  0.4180
 4599TIP3    H237993   4.727   0.640  17.482 -0.4811  1.2293 -0.1284
 4600TIP3   OH237994   6.572   3.030  18.137 -0.3171 -0.2329  0.3126
 4600TIP3    H137995   6.523   3.092  18.191 -0.0785 -0.0905  0.3650
 4600TIP3    H237996   6.631   3.085  18.085 -1.3025 -0.2691 -0.8910
 4601TIP3   OH237997   5.756   2.600  17.698 -0.6030  0.4377  0.3963
 4601TIP3    H137998   5.695   2.630  17.765  0.4462  0.6417  1.2851
 4601TIP3    H237999   5.825   2.555  17.746 -0.4157 -0.4589 -0.6538
 4602TIP3   OH238000   4.475   6.373  18.969 -0.6561  0.1278  0.4491
 4602TIP3    H138001   4.555   6.398  18.923  0.1050  0.8031  2.0463
 4602TIP3    H238002   4.405   6.389  18.906  0.4719 -0.9413 -1.1609
 4603TIP3   OH238003   6.449   0.799  19.339  0.2113  0.3235 -1.0173
 4603TIP3    H138004   6.522   0.754  19.380 -0.1381 -0.7211 -1.4953
 4603TIP3    H238005   6.458   0.890  19.367  1.5780  0.1814 -0.9339
 4604TIP3   OH238006   0.613   1.822  16.935  0.1644 -0.6071  0.5351
 4604TIP3    H138007   0.602   1.901  16.883 -0.4852 -0.7627  0.4225
 4604TIP3    H238008   0.697   1.786  16.906 -0.2335 -0.7466 -0.4993
 4605TIP3   OH238009   2.673   3.328  16.881  0.1480 -0.1153  0.3413
 4605TIP3    H138010   2.637   3.372  16.957  0.0423 -1.7364  1.2671
 4605TIP3    H238011   2.613   3.349  16.810  1.1142  2.7324  0.2619
 4606TIP3   OH238012   5.259   4.748  18.193  0.0805  0.1626 -0.7387
 4606TIP3    H138013   5.163   4.749  18.196  0.0524  1.3713 -1.4177
 4606TIP3    H238014   5.283   4.666  18.237 -1.2509 -0.0937 -0.4271
 4607TIP3   OH238015   1.770   0.295  18.447  0.0372 -0.3325  0.3602
 4607TIP3    H138016   1.789   0.204  18.467 -0.9024 -0.1889  2.0855
 4607TIP3    H238017   1.777   0.341  18.531 -3.3659  0.4658  0.3489
 4608TIP3   OH238018   4.217   5.095  17.218  0.0004 -0.5217 -0.0675
 4608TIP3    H138019   4.284   5.030  17.240  0.4428 -0.7918 -2.0148
 4608TIP3    H238020   4.250   5.137  17.139 -1.3757  0.4914 -0.1376
 4609TIP3   OH238021   5.156   1.963  18.963 -0.0978 -0.1361  0.1272
 4609TIP3    H138022   5.111   2.038  18.925 -1.8835 -0.4592  1.4565
 4609TIP3    H238023   5.133   1.967  19.056  0.8563 -1.5950  0.4494
 4610TIP3   OH238024   1.693   0.586  19.729  0.1426  0.0300 -0.0558
 4610TIP3    H138025   1.664   0.676  19.719  1.5563  0.4716 -0.3901
 4610TIP3    H238026   1.649   0.539  19.658 -0.0967  0.5804 -0.2740
 4611TIP3   OH238027   6.169   2.724  19.317  0.2064  0.0830  0.1586
 4611TIP3    H138028   6.213   2.642  19.294 -0.8402 -0.4774  0.0957
 4611TIP3    H238029   6.159   2.720  19.412  1.4275  0.8112  0.3436
 4612TIP3   OH238030   4.035   3.727  17.531  0.2748 -0.2471  0.3076
 4612TIP3    H138031   3.970   3.725  17.460  1.6292  0.7178 -1.0197
 4612TIP3    H238032   4.075   3.814  17.525 -0.1375  0.2105  2.8360
 4613TIP3   OH238033   4.734   0.525  19.093  0.7852 -0.6085  0.1877
 4613TIP3    H138034   4.672   0.553  19.161 -0.0365 -2.1441  0.1012
 4613TIP3    H238035   4.778   0.606  19.067 -0.4794  0.3744  0.9642
 4614TIP3   OH238036   1.101   4.221  19.117 -0.5501 -0.0468 -0.0922
 4614TIP3    H138037   1.045   4.144  19.108  0.2449 -0.9952  2.3933
 4614TIP3    H238038   1.153   4.204  19.195  2.8124  1.0532 -1.8936
 4615TIP3   OH238039   4.968   4.755  18.201  0.1621  0.0431  0.4076
 4615TIP3    H138040   4.954   4.696  18.127  1.8017  1.9008 -1.5021
 4615TIP3    H238041   4.880   4.781  18.227 -0.4608 -0.8275 -0.7234
 4616TIP3   OH238042   5.506   4.925  20.177  0.0547  0.6282 -0.2349
 4616TIP3    H138043   5.510   4.853  20.241 -0.7971  0.2058 -0.6402
 4616TIP3    H238044   5.567   4.899  20.108 -0.3108  0.2447 -0.4194
 4617TIP3   OH238045   5.471   6.633  19.593 -0.1608  0.0988 -0.1300
 4617TIP3    H138046   5.530   6.614  19.519 -0.5996  2.3093 -1.1354
 4617TIP3    H238047   5.521   6.693  19.649 -0.1114 -0.9789  1.0239
 4618TIP3   OH238048   2.519   2.668  18.907  0.1234 -0.4100  0.5340
 4618TIP3    H138049   2.475   2.649  18.990  0.3636  1.0524  1.0220
 4618TIP3    H238050   2.449   2.668  18.842 -0.7591  2.2276  1.3546
 4619TIP3   OH238051   3.629   2.961  17.205 -0.2531 -0.0014 -0.3156
 4619TIP3    H138052   3.616   2.868  17.188  0.7199 -0.3545  0.7465
 4619TIP3    H238053   3.551   2.987  17.254 -1.0242  0.0145 -1.5159
 4620TIP3   OH238054   6.262   0.625  18.090 -0.1118  0.3516 -0.0738
 4620TIP3    H138055   6.318   0.560  18.133 -1.3594 -1.2526 -0.7527
 4620TIP3    H238056   6.320   0.673  18.032  1.1641  1.0091  1.6536
 4621TIP3   OH238057   6.149   5.181  18.114  0.0812 -0.5595 -0.2226
 4621TIP3    H138058   6.091   5.111  18.144 -1.0286  0.2539 -0.4039
 4621TIP3    H238059   6.235   5.158  18.150  0.3270 -3.2844 -2.2414
 4622TIP3   OH238060   5.591   1.107  18.211  0.1485 -0.0865 -0.4538
 4622TIP3    H138061   5.525   1.138  18.149  1.1745 -0.6877 -1.9335
 4622TIP3    H238062   5.554   1.027  18.248 -0.6001  0.4348 -0.0464
 4623TIP3   OH238063   3.480   3.789  20.009 -0.0516 -0.3271  0.5738
 4623TIP3    H138064   3.409   3.725  20.005  0.9099 -1.4658  1.0277
 4623TIP3    H238065   3.557   3.741  19.979  0.4720  0.9952 -0.2955
 4624TIP3   OH238066   5.990   3.261  19.987 -0.1782 -0.1711 -0.0863
 4624TIP3    H138067   6.050   3.247  19.914  0.3995  0.3375  0.2721
 4624TIP3    H238068   6.032   3.329  20.039 -0.6059 -0.4846  0.6903
 4625TIP3   OH238069   3.606   2.465  19.024  0.0103 -0.0915 -0.0504
 4625TIP3    H138070   3.521   2.430  18.997  0.6205 -0.9785 -0.8818
 4625TIP3    H238071   3.634   2.407  19.095  0.8194 -1.0816 -1.1331
 4626TIP3   OH238072   0.846   2.446  18.418 -0.0531  0.3664 -0.5096
 4626TIP3    H138073   0.826   2.509  18.349  0.5456 -0.9181 -1.9235
 4626TIP3    H238074   0.903   2.382  18.376  0.4857 -0.3735  1.2479
 4627TIP3   OH238075   6.570   0.360  17.020  0.0318 -0.2697 -0.0082
 4627TIP3    H138076   6.665   0.358  17.005  0.0805 -1.0242  0.3369
 4627TIP3    H238077   6.549   0.272  17.052 -0.5449  0.3273  1.3338
 4628TIP3   OH238078   6.529   5.834  16.496 -0.2261  0.5444  0.0565
 4628TIP3    H138079   6.513   5.760  16.555  2.0462  0.2851  0.4420
 4628TIP3    H238080   6.523   5.796  16.408  0.2236  0.0480  0.2365
 4629TIP3   OH238081   2.727   3.532  20.355 -0.6601  0.4166  0.3628
 4629TIP3    H138082   2.664   3.513  20.425 -1.0204 -1.5847 -0.4591
 4629TIP3    H238083   2.738   3.449  20.309  0.7436  1.3249 -1.0211
 4630TIP3   OH238084   1.546   3.154  17.368 -0.2685  0.0110  0.0322
 4630TIP3    H138085   1.483   3.134  17.299 -0.3851 -0.8212  0.3643
 4630TIP3    H238086   1.575   3.243  17.349 -1.4066  0.3441 -0.2284
 4631TIP3   OH238087   2.196   4.421  19.580  0.2150 -0.3079  0.1042
 4631TIP3    H138088   2.284   4.389  19.600 -0.3925 -2.3362 -0.2764
 4631TIP3    H238089   2.179   4.390  19.492 -2.3605 -3.5180  1.5404
 4632TIP3   OH238090   6.061   3.976  18.626  0.1228  0.0432  0.1125
 4632TIP3    H138091   5.971   4.000  18.649 -0.0139  0.3017 -0.6678
 4632TIP3    H238092   6.052   3.897  18.572  0.4562 -0.7046  1.1197
 4633TIP3   OH238093   4.322   2.707  20.532 -0.1993  0.0249  0.4443
 4633TIP3    H138094   4.340   2.624  20.576 -0.0574 -0.7667 -1.0318
 4633TIP3    H238095   4.315   2.771  20.603 -0.0277 -1.1887  1.5988
 4634TIP3   OH238096   1.683   3.955  17.718  0.1739  0.4961 -0.3229
 4634TIP3    H138097   1.609   3.978  17.662 -0.3811  1.6430  0.8207
 4634TIP3    H238098   1.695   4.032  17.775  1.6908 -0.0109  0.1030
 4635TIP3   OH238099   0.704   6.239  18.545 -0.0981 -0.5183 -0.4016
 4635TIP3    H138100   0.688   6.215  18.636  0.8801  0.8178  0.1417
 4635TIP3    H238101   0.654   6.174  18.495 -2.0049 -0.2940  1.0900
 4636TIP3   OH238102   6.473   6.017  18.545  0.3744 -0.1628  0.6358
 4636TIP3    H138103   6.484   6.108  18.574 -1.3910  0.2687  0.0777
 4636TIP3    H238104   6.561   5.988  18.523  1.1680  0.9597  2.1078
 4637TIP3   OH238105   5.573   1.723  17.505 -0.1125 -0.2461  0.6449
 4637TIP3    H138106   5.557   1.795  17.444 -0.1800  0.5396  1.5773
 4637TIP3    H238107   5.510   1.737  17.576 -0.1707 -1.2618  0.8087
 4638TIP3   OH238108   1.654   1.103  18.130 -0.0397 -0.2349 -0.2022
 4638TIP3    H138109   1.748   1.120  18.137 -0.2642  0.6256  1.3984
 4638TIP3    H238110   1.648   1.013  18.100  1.2974 -0.2546 -0.4825
 4639TIP3   OH238111   5.977   1.430  19.236  0.5444 -0.2448 -0.1119
 4639TIP3    H138112   5.954   1.341  19.208  1.8140  0.1148 -2.5072
 4639TIP3    H238113   5.900   1.483  19.214 -0.4000 -0.7457  1.7388
 4640TIP3   OH238114   3.583   3.624  18.087 -0.9211 -0.7563  0.0252
 4640TIP3    H138115   3.648   3.666  18.144  2.7953 -2.5370 -2.4714
 4640TIP3    H238116   3.535   3.698  18.048 -0.7880  0.6272  2.2945
 4641TIP3   OH238117   4.054   1.178  18.502 -0.2259  0.3450 -0.7813
 4641TIP3    H138118   4.132   1.187  18.557 -0.9304 -3.6740  1.2259
 4641TIP3    H238119   4.085   1.133  18.424  0.0082  2.1677 -1.7972
 4642TIP3   OH238120   2.443   3.816  19.267  0.3722 -0.7630 -0.3137
 4642TIP3    H138121   2.460   3.884  19.332  1.5056 -0.8200 -0.5203
 4642TIP3    H238122   2.397   3.748  19.316 -0.4293 -0.0279 -0.0151
 4643TIP3   OH238123   4.274   5.876  18.593 -0.2938 -0.4322 -0.3173
 4643TIP3    H138124   4.324   5.812  18.542  1.6240  0.0694  0.8223
 4643TIP3    H238125   4.340   5.938  18.625 -1.9741  1.7836 -0.8397
 4644TIP3   OH238126   0.171   4.922  19.512 -0.6617  0.2462 -0.2025
 4644TIP3    H138127   0.206   4.929  19.601  0.2687  0.4178 -0.5731
 4644TIP3    H238128   0.129   5.006  19.496 -0.5861  0.3193 -0.0210
 4645TIP3   OH238129   6.185   2.455  17.685  0.6121 -0.1054  0.0159
 4645TIP3    H138130   6.238   2.376  17.697 -0.7493 -1.0013  0.3023
 4645TIP3    H238131   6.216   2.492  17.603 -0.6431 -2.5381 -1.6814
 4646TIP3   OH238132   4.033   3.857  19.498  0.6432  0.7575  0.5600
 4646TIP3    H138133   4.099   3.850  19.429 -0.4962  1.7945 -0.7084
 4646TIP3    H238134   3.983   3.775  19.492  1.4599  0.1912  1.1924
 4647TIP3   OH238135   5.563   2.740  17.857 -0.1889  0.1314 -0.1931
 4647TIP3    H138136   5.546   2.774  17.945 -2.0000 -1.6222  0.2061
 4647TIP3    H238137   5.537   2.812  17.799  0.8178  1.2237  0.6521
 4648TIP3   OH238138   3.906   0.499  19.670 -0.8778  0.5609  0.2361
 4648TIP3    H138139   3.996   0.515  19.698 -1.3378 -0.8982  2.8904
 4648TIP3    H238140   3.909   0.506  19.574  2.0651  0.4050  0.2203
 4649TIP3   OH238141   1.316   5.549  17.275  0.3563 -0.0183  0.2463
 4649TIP3    H138142   1.391   5.606  17.263 -0.0401  0.4183 -0.2182
 4649TIP3    H238143   1.255   5.575  17.206 -0.4670  0.0338  0.9725
 4650TIP3   OH238144   0.865   5.939  18.649 -0.2078 -0.1420  0.4875
 4650TIP3    H138145   0.946   5.986  18.629 -0.4666  0.7183  1.4042
 4650TIP3    H238146   0.818   5.937  18.565 -0.3060  1.4740  0.4776
 4651TIP3   OH238147   2.642   2.036  20.207  0.2468  0.2080  0.4656
 4651TIP3    H138148   2.665   2.088  20.284  2.0053  0.9543 -0.5085
 4651TIP3    H238149   2.725   2.017  20.165 -0.5597 -1.3742 -0.5316
 4652TIP3   OH238150   4.519   3.460  17.402  0.2142 -0.2514 -0.0871
 4652TIP3    H138151   4.576   3.537  17.404  0.1532 -0.2066 -0.0530
 4652TIP3    H238152   4.562   3.399  17.342  0.0863 -0.0519 -0.3843
 4653TIP3   OH238153   1.184   3.212  18.882  0.1432 -0.2454  0.5100
 4653TIP3    H138154   1.127   3.234  18.955  1.2705  0.0238  1.3325
 4653TIP3    H238155   1.199   3.118  18.890 -1.7742 -0.7515 -0.9079
 4654TIP3   OH238156   1.624   3.257  20.236  0.5022 -0.8899 -0.5390
 4654TIP3    H138157   1.622   3.345  20.273  1.1362 -1.3664  0.7078
 4654TIP3    H238158   1.717   3.235  20.230  0.3427 -2.2525  1.2005
 4655TIP3   OH238159   5.619   0.565  18.865 -0.1178 -0.2325  0.0712
 4655TIP3    H138160   5.528   0.558  18.893 -0.6343  1.1462 -1.1239
 4655TIP3    H238161   5.668   0.582  18.946 -1.2546  1.3460  0.4822
 4656TIP3   OH238162   0.991   2.533  17.535  0.0779  0.2444 -0.2314
 4656TIP3    H138163   0.943   2.604  17.492 -0.3907  0.2976  0.3749
 4656TIP3    H238164   0.923   2.470  17.561  0.3574  0.2195  0.4442
 4657TIP3   OH238165   5.702   2.108  18.059  0.4167  0.2019  0.2095
 4657TIP3    H138166   5.730   2.093  18.149 -0.2153  0.1950  0.4069
 4657TIP3    H238167   5.610   2.132  18.066  0.7560  1.7853 -0.2963
 4658TIP3   OH238168   6.526   2.198  16.739 -0.3458  0.4722  0.2408
 4658TIP3    H138169   6.515   2.248  16.820 -0.6220  1.6193 -0.4769
 4658TIP3    H238170   6.437   2.179  16.710 -0.2596  0.6459 -0.1368
 4659TIP3   OH238171   2.439   1.349  16.640  0.3479 -0.0350  0.4354
 4659TIP3    H138172   2.503   1.337  16.570  1.3648  0.5807  1.2278
 4659TIP3    H238173   2.411   1.261  16.662 -0.0891 -0.2340 -0.8261
 4660TIP3   OH238174   6.063   2.346  16.559  0.0976 -0.3952  0.4357
 4660TIP3    H138175   6.001   2.357  16.486 -1.7108  0.2751  1.9845
 4660TIP3    H238176   6.024   2.276  16.611 -0.3146  1.1643  2.3281
 4661TIP3   OH238177   6.309   3.259  18.951 -0.1817 -0.1017 -0.1048
 4661TIP3    H138178   6.344   3.265  19.040 -1.0461 -1.8129  0.4010
 4661TIP3    H238179   6.231   3.203  18.960  0.0968 -0.8666 -2.0335
 4662TIP3   OH238180   4.357   0.038  19.770 -0.6189  0.0955 -0.1344
 4662TIP3    H138181   4.426  -0.024  19.797 -0.5096  0.6775  0.9650
 4662TIP3    H238182   4.392   0.079  19.691 -0.8495 -1.4917 -1.1013
 4663TIP3   OH238183   4.158   1.547  19.548  0.4571 -0.4382  0.3264
 4663TIP3    H138184   4.194   1.475  19.599 -2.6430 -2.8634 -0.5438
 4663TIP3    H238185   4.138   1.508  19.462 -0.3839  1.7319 -0.5474
 4664TIP3   OH238186   4.523   1.807  20.209 -0.6005 -0.2760  0.4850
 4664TIP3    H138187   4.464   1.802  20.133  0.5627 -1.1338 -0.4092
 4664TIP3    H238188   4.480   1.868  20.269 -1.9861 -0.2494 -0.4831
 4665TIP3   OH238189   3.424   1.314  20.251 -0.4500  0.2523 -0.1621
 4665TIP3    H138190   3.481   1.262  20.195  0.0386 -0.7374  1.1892
 4665TIP3    H238191   3.381   1.250  20.307  0.6731  1.2902  2.0199
 4666TIP3   OH238192   0.491   0.079  19.656  0.0710 -0.8521 -0.0859
 4666TIP3    H138193   0.575   0.067  19.699  0.6427 -0.1364 -0.9826
 4666TIP3    H238194   0.438   0.004  19.685  0.8089 -0.9919  0.9422
 4667TIP3   OH238195   5.832   6.671  19.070  0.2867  0.9496  0.3840
 4667TIP3    H138196   5.924   6.652  19.051 -0.0082  0.2985 -0.4650
 4667TIP3    H238197   5.828   6.766  19.079  0.8955  1.0588 -0.4381
 4668TIP3   OH238198   4.647   1.414  17.617  0.5593  0.1430 -0.3022
 4668TIP3    H138199   4.564   1.437  17.657  0.4202 -1.3383  0.3265
 4668TIP3    H238200   4.672   1.332  17.660  2.0202  0.2272 -0.9460
 4669TIP3   OH238201   5.521   0.273  19.800  0.6122  0.2293 -0.5777
 4669TIP3    H138202   5.490   0.314  19.881 -0.6336 -0.6110 -0.5952
 4669TIP3    H238203   5.491   0.331  19.731 -1.6629 -0.8885 -0.6431
 4670TIP3   OH238204   0.630   1.525  17.678 -0.0734 -0.3511  0.3574
 4670TIP3    H138205   0.701   1.564  17.627  0.8293 -2.5123 -0.1183
 4670TIP3    H238206   0.657   1.435  17.694 -1.2442 -0.3131  3.0183
 4671TIP3   OH238207   3.211   2.903  19.258  0.7846  0.2711 -0.5220
 4671TIP3    H138208   3.184   2.878  19.346 -0.1425 -2.0142 -1.3728
 4671TIP3    H238209   3.307   2.904  19.262  0.7708  2.1490  0.9390
 4672TIP3   OH238210   5.546   1.243  19.055 -0.0003 -0.1474  0.2245
 4672TIP3    H138211   5.581   1.220  18.969 -0.3275 -0.0824  0.0690
 4672TIP3    H238212   5.599   1.317  19.085 -0.8368  0.8150 -0.5940
 4673TIP3   OH238213   5.209   3.794  18.380  0.5654  0.2589  0.4534
 4673TIP3    H138214   5.262   3.862  18.421  0.0845  2.3159 -2.1102
 4673TIP3    H238215   5.270   3.751  18.319  0.1550  0.3057  0.0102
 4674TIP3   OH238216   1.942   5.984  19.023 -0.0848  0.0863  0.2084
 4674TIP3    H138217   1.922   5.901  19.065  0.7066 -0.7494 -1.0111
 4674TIP3    H238218   1.913   6.050  19.086 -1.3722 -1.0890  0.9130
 4675TIP3   OH238219   1.107   3.560  19.649 -0.4239  0.4616  0.6532
 4675TIP3    H138220   1.098   3.635  19.708 -0.8251  0.8263  0.1439
 4675TIP3    H238221   1.176   3.506  19.687 -0.4127  0.8901  1.2398
 4676TIP3   OH238222   6.060   1.625  17.266  0.3466 -0.1062  0.0963
 4676TIP3    H138223   6.140   1.580  17.293  0.2334 -0.6582 -0.4799
 4676TIP3    H238224   6.074   1.716  17.295  1.3803 -0.0895 -0.3979
 4677TIP3   OH238225   1.208   4.660  20.031  0.2418  0.2403 -0.8615
 4677TIP3    H138226   1.130   4.640  20.082  0.7233  0.0573 -0.1961
 4677TIP3    H238227   1.208   4.756  20.023 -0.6489  0.1729 -1.8239
 4678TIP3   OH238228   2.085   5.380  20.114  0.1543 -0.0965 -0.5099
 4678TIP3    H138229   2.107   5.361  20.205  2.2756 -1.7481 -1.2765
 4678TIP3    H238230   1.996   5.345  20.103  1.0448 -2.8249  0.1850
 4679TIP3   OH238231   4.409   2.024  19.473 -0.0309  0.0221 -0.2358
 4679TIP3    H138232   4.430   1.947  19.420  0.4154  0.6739 -1.0387
 4679TIP3    H238233   4.332   1.998  19.523 -0.8335 -0.4371 -1.6432
 4680TIP3   OH238234   0.303   4.902  20.117  0.5698 -0.2803 -0.0137
 4680TIP3    H138235   0.380   4.844  20.122  0.2160 -0.6663  1.0611
 4680TIP3    H238236   0.339   4.985  20.087  2.0313  0.5646  3.5516
 4681TIP3   OH238237   4.084   1.771  19.346 -0.0657  0.1132  0.1081
 4681TIP3    H138238   4.041   1.698  19.390  0.7506  0.4652  1.5497
 4681TIP3    H238239   4.132   1.816  19.415  3.4117 -0.7730 -1.4940
 4682TIP3   OH238240   2.405   2.444  18.085 -0.0130 -0.3789  0.2749
 4682TIP3    H138241   2.342   2.439  18.157 -2.6101 -0.2637 -1.8654
 4682TIP3    H238242   2.431   2.353  18.069  1.3840 -0.3317  1.9038
 4683TIP3   OH238243   1.382   5.124  18.441 -0.3788  0.6911  0.4256
 4683TIP3    H138244   1.311   5.080  18.487 -0.3710  0.4557  0.2142
 4683TIP3    H238245   1.363   5.217  18.451 -1.1481  0.6266 -0.2946
 4684TIP3   OH238246   2.203   3.695  19.076  0.3308 -0.0712  0.2526
 4684TIP3    H138247   2.298   3.691  19.068  0.5795  1.8028  1.4618
 4684TIP3    H238248   2.182   3.788  19.067 -0.8580  0.2289  4.1603
 4685TIP3   OH238249   5.743   4.715  17.962 -0.1527  0.3200 -0.1130
 4685TIP3    H138250   5.779   4.725  17.874 -0.1189  0.2054 -0.1117
 4685TIP3    H238251   5.721   4.804  17.988  2.4035  0.7463  0.8628
 4686TIP3   OH238252   3.241   2.626  17.189 -0.1665  0.2115 -0.0112
 4686TIP3    H138253   3.229   2.542  17.146 -1.2916  0.3520 -0.0061
 4686TIP3    H238254   3.233   2.607  17.282 -3.2084  0.6693 -0.0745
 4687TIP3   OH238255   3.337   0.941  19.952 -0.5079 -0.2793  0.8118
 4687TIP3    H138256   3.303   0.935  19.863 -1.4163 -1.8855  1.2142
 4687TIP3    H238257   3.432   0.932  19.943 -0.6597 -1.3273  0.0387
 4688TIP3   OH238258   1.450   4.130  18.327  0.0420  0.7636 -0.0875
 4688TIP3    H138259   1.476   4.219  18.349  0.2281  0.4077  1.2218
 4688TIP3    H238260   1.502   4.074  18.384 -0.9349 -0.1269 -0.0198
 4689TIP3   OH238261   1.549   0.775  18.955  0.2445  0.0192 -0.2808
 4689TIP3    H138262   1.490   0.804  19.024  0.6557 -0.2285  0.1789
 4689TIP3    H238263   1.492   0.763  18.878 -0.2824 -0.1023  0.1214
 4690TIP3   OH238264   5.401   0.470  17.272 -0.0716 -0.1373 -0.0623
 4690TIP3    H138265   5.344   0.513  17.336  0.5658 -0.1962  0.5594
 4690TIP3    H238266   5.488   0.471  17.313 -0.1833 -2.7725  0.3536
 4691TIP3   OH238267   4.590   3.084  17.997 -0.1361 -0.0185  0.1830
 4691TIP3    H138268   4.671   3.052  18.037  1.3344  1.3648 -1.5310
 4691TIP3    H238269   4.608   3.088  17.904 -2.1999  0.3597 -0.2612
 4692TIP3   OH238270   1.147   3.098  19.750  0.4898 -0.4384  0.2436
 4692TIP3    H138271   1.176   3.159  19.682  0.7482  0.8473  1.4638
 4692TIP3    H238272   1.055   3.080  19.729 -0.0075  1.4629  0.5995
 4693TIP3   OH238273   0.702   6.203  19.544 -0.1114  0.4237 -0.5483
 4693TIP3    H138274   0.698   6.177  19.452  0.9112  0.0037 -0.4902
 4693TIP3    H238275   0.623   6.255  19.558 -1.3602 -1.2403 -1.1138
 4694TIP3   OH238276   5.029   1.506  17.066  0.7488 -0.3253 -0.2137
 4694TIP3    H138277   5.051   1.439  17.000 -0.4590 -1.3023  0.3431
 4694TIP3    H238278   4.973   1.568  17.019  0.1722 -0.8342 -0.2081
 4695TIP3   OH238279   5.459   0.774  18.041  0.4860  0.3108 -0.7976
 4695TIP3    H138280   5.374   0.729  18.042  0.7402 -0.2548  1.3984
 4695TIP3    H238281   5.471   0.804  18.131  2.2580  1.1164 -1.2516
 4696TIP3   OH238282   0.909   6.121  16.200  0.5995 -0.1395 -0.2519
 4696TIP3    H138283   0.905   6.153  16.290  0.7432 -0.4745 -0.1239
 4696TIP3    H238284   0.890   6.198  16.146  3.6582  0.8848 -0.0917
 4697TIP3   OH238285   6.413   5.627  19.029  0.3174 -0.3765 -0.4485
 4697TIP3    H138286   6.492   5.573  19.019  0.6378  0.1729 -0.9766
 4697TIP3    H238287   6.360   5.581  19.095  0.3752 -1.5876 -1.2055
 4698TIP3   OH238288   2.077   4.142  17.569  0.1382 -0.2639  0.5232
 4698TIP3    H138289   2.064   4.210  17.503  1.2013  0.7912  1.3450
 4698TIP3    H238290   2.160   4.101  17.546  0.1907 -0.3363  0.8298
 4699TIP3   OH238291   2.187   0.407  18.986 -0.4107 -0.2836 -0.3420
 4699TIP3    H138292   2.117   0.355  18.945 -0.2374 -0.4123 -0.4753
 4699TIP3    H238293   2.192   0.486  18.932  1.3528 -1.4289 -1.9703
 4700TIP3   OH238294   5.563   4.176  20.016  0.0750 -0.2392  0.3432
 4700TIP3    H138295   5.467   4.169  20.012  0.1203 -0.6101 -0.2510
 4700TIP3    H238296   5.589   4.192  19.925  0.6094 -0.6299  0.4228
 4701TIP3   OH238297   6.624   1.583  18.995 -0.3779 -0.6993  0.0291
 4701TIP3    H138298   6.700   1.528  19.013 -0.9326 -0.8696  2.0604
 4701TIP3    H238299   6.631   1.655  19.057 -0.9839  0.2244 -0.9407
 4702TIP3   OH238300   5.910   3.342  18.358  0.3370 -0.4674  0.0653
 4702TIP3    H138301   5.849   3.331  18.286  2.6519 -0.7352 -2.0004
 4702TIP3    H238302   5.894   3.267  18.416  0.3552 -1.9350 -1.7333
 4703TIP3   OH238303   3.709   3.008  17.793 -0.5364 -0.4191 -0.0874
 4703TIP3    H138304   3.704   3.096  17.830  0.1118 -1.1422  1.8103
 4703TIP3    H238305   3.798   3.001  17.758 -0.5190 -0.3867 -0.0482
 4704TIP3   OH238306   3.699   3.193  19.662 -0.5689 -0.1105 -0.6210
 4704TIP3    H138307   3.766   3.133  19.694  0.1807  1.2168  0.4139
 4704TIP3    H238308   3.705   3.187  19.566  1.5419  0.4775 -0.5756
 4705TIP3   OH238309   3.417   2.403  18.376 -0.0122  0.7228 -0.1127
 4705TIP3    H138310   3.505   2.408  18.338 -0.2469  0.1636 -0.7410
 4705TIP3    H238311   3.371   2.478  18.338  0.2005  1.0583  0.2702
 4706TIP3   OH238312   1.997   3.280  19.163 -0.2278 -0.1557 -0.4868
 4706TIP3    H138313   1.974   3.298  19.254 -1.0273  1.2070 -0.9281
 4706TIP3    H238314   2.024   3.364  19.128  0.0455 -0.6555 -1.5211
 4707TIP3   OH238315   5.439   0.826  16.405  0.2534 -0.0429 -0.2092
 4707TIP3    H138316   5.441   0.778  16.488  0.6019 -0.4854 -0.4719
 4707TIP3    H238317   5.414   0.761  16.340  2.4697 -0.3008 -0.8509
 4708TIP3   OH238318   6.483   2.492  18.976  0.4367  0.0874  0.5243
 4708TIP3    H138319   6.535   2.563  18.937 -1.0662  0.2989 -1.2810
 4708TIP3    H238320   6.504   2.415  18.924  1.7323 -0.7523  2.2066
 4709TIP3   OH238321   6.679   6.407  18.094  0.3872 -0.0124 -0.0760
 4709TIP3    H138322   6.697   6.319  18.061 -1.9105 -0.4731 -0.2982
 4709TIP3    H238323   6.613   6.442  18.034  0.9953  1.7307  0.2249
 4710TIP3   OH238324   3.176   0.756  17.717 -0.3791 -0.2279  0.1109
 4710TIP3    H138325   3.131   0.783  17.797 -0.6425 -1.1086  0.2714
 4710TIP3    H238326   3.211   0.837  17.681 -1.8144  0.4394  0.1532
 4711TIP3   OH238327   2.515   4.119  18.435 -0.2835  0.3681  0.1132
 4711TIP3    H138328   2.519   4.182  18.507 -0.4361  1.1217 -0.5267
 4711TIP3    H238329   2.604   4.086  18.427 -0.1694  0.6162  0.3477
 4712TIP3   OH238330   4.751   6.340  17.437 -0.1038  0.3241  0.0932
 4712TIP3    H138331   4.825   6.355  17.378  0.1083 -0.1027  0.2474
 4712TIP3    H238332   4.701   6.270  17.395 -1.3875  1.7684 -0.8993
 4713TIP3   OH238333   2.109   1.423  18.637 -0.0346 -0.0873  0.0605
 4713TIP3    H138334   2.048   1.496  18.644 -0.7624 -0.7663  1.2077
 4713TIP3    H238335   2.131   1.401  18.727 -1.3930 -2.5087 -0.1112
 4714TIP3   OH238336   1.692   4.098  19.777 -0.2592  0.2573  0.2447
 4714TIP3    H138337   1.690   4.099  19.681  0.0690 -0.5722  0.2175
 4714TIP3    H238338   1.676   4.188  19.802 -0.4288  0.4717 -0.5941
 4715TIP3   OH238339   3.367   4.051  19.697 -0.2029  0.0891 -0.0870
 4715TIP3    H138340   3.279   4.018  19.711 -0.2645 -0.7964 -2.2263
 4715TIP3    H238341   3.357   4.124  19.635  0.5122  0.2695 -0.0052
 4716TIP3   OH238342   0.701   5.334  19.527  0.1696  0.5506 -0.2586
 4716TIP3    H138343   0.708   5.358  19.619  0.3688 -0.0893 -0.1057
 4716TIP3    H238344   0.640   5.399  19.490 -0.0808  0.6736  0.3647
 4717TIP3   OH238345   0.818   4.190  18.777 -0.0440 -0.6368  0.1267
 4717TIP3    H138346   0.780   4.112  18.817  0.1694 -0.7784  0.0559
 4717TIP3    H238347   0.904   4.161  18.746  0.3679 -0.1745  0.8096
 4718TIP3   OH238348   2.883   3.391  18.268  0.1975  0.5671 -0.0648
 4718TIP3    H138349   2.912   3.350  18.349  0.8712 -1.1224 -1.1035
 4718TIP3    H238350   2.788   3.381  18.269  0.1405  1.1746  0.8288
 4719TIP3   OH238351   4.898   1.297  19.267  0.1698  0.1777 -0.1146
 4719TIP3    H138352   4.941   1.378  19.297 -0.3643  0.0574  1.0644
 4719TIP3    H238353   4.898   1.303  19.172 -0.7134  2.0391 -0.0394
 4720TIP3   OH238354   2.534   4.828  20.018 -0.2230  0.4410 -0.3262
 4720TIP3    H138355   2.594   4.811  19.946  1.6873  0.5954  1.1443
 4720TIP3    H238356   2.451   4.788  19.991  0.9376 -1.0830 -1.7879
 4721TIP3   OH238357   0.351   3.257  18.726  0.0368 -0.5711 -0.0133
 4721TIP3    H138358   0.285   3.190  18.745 -1.1665  0.4994 -0.2542
 4721TIP3    H238359   0.410   3.254  18.801  0.3215 -2.2470 -0.2688
 4722TIP3   OH238360   2.024   0.630  16.749  0.2356  0.3824 -0.2520
 4722TIP3    H138361   2.081   0.553  16.745 -0.8010 -0.4535  0.6109
 4722TIP3    H238362   2.058   0.680  16.823 -0.4490 -0.3781  0.5922
 4723TIP3   OH238363   0.364   6.539  19.792  0.1712 -0.1977  0.2832
 4723TIP3    H138364   0.284   6.492  19.766 -1.4894  1.5690  1.8654
 4723TIP3    H238365   0.383   6.508  19.881 -1.1550  2.1715  1.5029
 4724TIP3   OH238366   1.766   3.651  19.883 -0.1621  0.0595  0.0984
 4724TIP3    H138367   1.833   3.669  19.950 -1.0313  0.3205  0.9168
 4724TIP3    H238368   1.716   3.577  19.918  0.0648 -0.5365 -0.7910
 4725TIP3   OH238369   0.199   5.588  19.717  0.1583 -0.4911 -0.5103
 4725TIP3    H138370   0.148   5.558  19.792  0.3473  1.2676  0.3842
 4725TIP3    H238371   0.288   5.557  19.734  0.1026 -0.5040 -0.2397
 4726TIP3   OH238372   5.579   2.506  18.248 -0.1970 -0.0344  0.0568
 4726TIP3    H138373   5.633   2.585  18.244  0.3493 -0.3992  0.0490
 4726TIP3    H238374   5.590   2.464  18.163 -1.9990  0.8366 -0.6524
 4727TIP3   OH238375   4.083   0.039  19.853 -0.2094  0.0540 -0.0400
 4727TIP3    H138376   4.051   0.094  19.781 -1.3879  0.0502  0.4567
 4727TIP3    H238377   4.178   0.039  19.843 -0.3663 -0.3917 -1.9148
 4728TIP3   OH238378   4.743   4.778  18.384 -0.0703 -0.3977  0.3953
 4728TIP3    H138379   4.704   4.728  18.456 -0.7537  0.1574  0.4268
 4728TIP3    H238380   4.789   4.850  18.427  0.0232 -0.4033  0.3053
 4729TIP3   OH238381   6.006   0.831  18.736 -0.0709  0.7565  0.4128
 4729TIP3    H138382   6.057   0.911  18.725 -2.1209  1.8592 -2.2106
 4729TIP3    H238383   5.933   0.857  18.792  0.0693  0.2773  0.8255
 4730TIP3   OH238384   6.126   2.828  17.448 -0.4961 -0.1621 -0.0888
 4730TIP3    H138385   6.169   2.846  17.365 -0.6447 -0.1783 -0.1696
 4730TIP3    H238386   6.053   2.889  17.451  1.1083  1.8080  1.3147
 4731TIP3   OH238387   3.556   1.728  17.665 -0.4673  0.6195 -0.4081
 4731TIP3    H138388   3.534   1.636  17.650  0.1586  0.4457 -0.2807
 4731TIP3    H238389   3.490   1.776  17.616 -0.2764  0.0961 -1.2084
 4732TIP3   OH238390   6.235   2.212  16.259 -0.4622 -0.5682 -0.2086
 4732TIP3    H138391   6.153   2.243  16.297 -1.1759 -1.6611 -0.8146
 4732TIP3    H238392   6.221   2.119  16.243  0.3641 -0.4704 -1.7071
 4733TIP3   OH238393   2.758   0.321  20.379 -0.3699  0.5164  0.0296
 4733TIP3    H138394   2.840   0.283  20.411 -0.9476  1.2940  2.6607
 4733TIP3    H238395   2.785   0.403  20.338  0.2622  0.2602 -0.0876
 4734TIP3   OH238396   5.954   1.015  16.654 -0.1438 -0.3969 -0.4410
 4734TIP3    H138397   5.966   0.921  16.647 -0.1521 -0.3484 -1.2287
 4734TIP3    H238398   6.041   1.052  16.638 -0.3428 -0.2384 -1.2291
 4735TIP3   OH238399   1.005   4.190  20.306  0.6307  0.5680  0.1013
 4735TIP3    H138400   1.035   4.217  20.393  2.4137  0.0649 -0.3205
 4735TIP3    H238401   1.062   4.237  20.245  0.0675  0.1416 -0.7737
 4736TIP3   OH238402   0.216   1.534  16.976 -0.0363  0.1135  0.2375
 4736TIP3    H138403   0.182   1.557  16.890  1.6676  1.9635 -0.0198
 4736TIP3    H238404   0.176   1.597  17.035  1.2390  0.9241  0.2637
 4737TIP3   OH238405   5.898   6.482  17.466 -0.4296  0.6826  0.1172
 4737TIP3    H138406   5.963   6.510  17.402 -0.6518  0.9888  0.0287
 4737TIP3    H238407   5.856   6.406  17.427  0.7795 -0.3408  0.7276
 4738TIP3   OH238408   5.664   5.491  19.421 -0.4093 -0.0335  0.3005
 4738TIP3    H138409   5.608   5.413  19.413 -1.2499  0.4910  0.8476
 4738TIP3    H238410   5.720   5.473  19.496  0.3196 -0.6484 -0.3710
 4739TIP3   OH238411   0.670   5.122  18.653  0.5037  0.1618 -0.2979
 4739TIP3    H138412   0.746   5.105  18.708  0.8598 -2.3609 -1.4070
 4739TIP3    H238413   0.599   5.072  18.694 -0.1163  1.0385 -0.2654
 4740TIP3   OH238414   3.974   5.427  17.890 -0.0168  0.0346 -0.1108
 4740TIP3    H138415   3.966   5.346  17.840 -1.9960 -0.1178  0.3783
 4740TIP3    H238416   4.067   5.433  17.911  0.2154 -1.9765 -0.3786
 4741TIP3   OH238417   1.093   0.002  17.757  0.3541  0.8069  0.3823
 4741TIP3    H138418   1.036   0.071  17.724  0.2184  0.8697  0.7423
 4741TIP3    H238419   1.034  -0.073  17.771 -0.0197  1.4555  2.5992
 4742TIP3   OH238420   4.947   0.826  18.207  0.3553  0.1342 -0.0142
 4742TIP3    H138421   4.923   0.765  18.137  0.7442  0.5463 -0.5128
 4742TIP3    H238422   4.982   0.770  18.276  0.4026 -0.2341 -0.3331
 4743TIP3   OH238423   1.955   5.461  18.102  0.2033  0.4117  0.6000
 4743TIP3    H138424   1.974   5.555  18.098 -0.2825  0.6633  3.0383
 4743TIP3    H238425   1.864   5.455  18.075  0.5124  0.4930 -0.5215
 4744TIP3   OH238426   2.608   4.738  18.379 -0.3721 -0.3176  0.2285
 4744TIP3    H138427   2.562   4.655  18.376 -2.6411  0.7787  1.8164
 4744TIP3    H238428   2.540   4.803  18.393  1.4389  1.7093  0.2332
 4745TIP3   OH238429   0.858   5.936  16.697  0.0418 -0.6423 -0.4974
 4745TIP3    H138430   0.830   5.930  16.605  1.3803  1.8767 -1.1385
 4745TIP3    H238431   0.822   6.019  16.728  0.6455 -0.8777  0.8853
 4746TIP3   OH238432   1.190   4.387  17.045 -0.2770  0.0874  0.6174
 4746TIP3    H138433   1.114   4.433  17.082  0.1318  1.6047 -0.3265
 4746TIP3    H238434   1.214   4.323  17.112 -0.3464  1.8355  2.4290
 4747TIP3   OH238435   0.115   1.360  19.411 -0.1082 -0.6687 -0.8382
 4747TIP3    H138436   0.089   1.268  19.411  1.4213 -1.2570  2.1870
 4747TIP3    H238437   0.203   1.360  19.373  0.1940 -0.6083 -0.1582
 4748TIP3   OH238438   1.504   1.077  18.813  0.3262 -0.2360  0.7431
 4748TIP3    H138439   1.547   1.028  18.884 -1.7411 -2.3973  0.6141
 4748TIP3    H238440   1.436   1.127  18.857 -2.9492 -3.8045  0.2625
 4749TIP3   OH238441   0.151   5.702  18.142 -0.9213 -0.2340  0.0776
 4749TIP3    H138442   0.098   5.781  18.149 -1.9995 -0.9350  0.0968
 4749TIP3    H238443   0.215   5.710  18.212 -0.8349  0.7362 -0.0891
 4750TIP3   OH238444   3.616   5.500  19.111 -0.1187  0.4868 -0.0841
 4750TIP3    H138445   3.685   5.506  19.045 -0.0430  0.1312 -0.0432
 4750TIP3    H238446   3.627   5.578  19.166  0.5361  0.2056  0.1936
 4751TIP3   OH238447   6.565   1.404  19.664 -0.3162  0.0652 -0.3382
 4751TIP3    H138448   6.657   1.382  19.655 -0.6603 -0.7207 -2.6831
 4751TIP3    H238449   6.522   1.321  19.683 -0.6596  0.2334 -0.3671
 4752TIP3   OH238450   2.701   2.024  19.196 -0.2730 -0.0017  0.2634
 4752TIP3    H138451   2.781   2.055  19.239 -0.1744 -0.4394  0.3908
 4752TIP3    H238452   2.630   2.065  19.245 -0.1994 -1.3021  1.4902
 4753TIP3   OH238453   3.983   3.241  18.767  0.3392 -0.0597  0.1732
 4753TIP3    H138454   3.942   3.157  18.785 -0.5125  0.6261  1.6979
 4753TIP3    H238455   3.972   3.254  18.673 -1.0576 -0.8775  0.1992
 4754TIP3   OH238456   5.918   3.102  18.753  0.0530 -0.1089 -0.0967
 4754TIP3    H138457   5.842   3.159  18.757  0.3712  0.4177 -1.1124
 4754TIP3    H238458   5.971   3.128  18.828 -0.1960  0.3704 -0.0809
 4755TIP3   OH238459   0.810   3.853  17.745 -0.0797 -0.0424 -0.7880
 4755TIP3    H138460   0.749   3.907  17.696 -0.7730  0.7163  0.8156
 4755TIP3    H238461   0.897   3.884  17.719 -0.4342  0.4459 -1.3961
 4756TIP3   OH238462   0.376   2.809  17.600  0.0773 -0.0546  0.2717
 4756TIP3    H138463   0.453   2.835  17.549  0.5101 -1.6125  0.0638
 4756TIP3    H238464   0.411   2.751  17.668 -0.8859 -0.6299  0.2936
 4757TIP3   OH238465   0.811   5.831  18.883  0.3618  0.0392 -0.0386
 4757TIP3    H138466   0.752   5.903  18.908  1.3587  0.6158  0.7605
 4757TIP3    H238467   0.843   5.856  18.797  0.9253  0.7103  0.3594
 4758TIP3   OH238468   3.219   0.339  20.195 -0.1385 -0.0875 -0.1152
 4758TIP3    H138469   3.143   0.324  20.138 -0.2185  2.6644 -0.8436
 4758TIP3    H238470   3.295   0.324  20.139 -0.0978 -1.6869  0.3061
 4759TIP3   OH238471   1.949   4.360  17.465 -0.1955 -0.1844  0.2378
 4759TIP3    H138472   1.953   4.346  17.371  1.0676  0.5072  0.1758
 4759TIP3    H238473   1.978   4.450  17.478 -3.3461  0.8396  1.0503
 4760TIP3   OH238474   3.425   0.480  19.726  0.6827  0.0675 -0.3896
 4760TIP3    H138475   3.417   0.396  19.772  1.8698 -0.2018 -0.6488
 4760TIP3    H238476   3.472   0.536  19.787  2.9218 -0.5104 -1.4811
 4761TIP3   OH238477   6.660   4.481  17.620 -0.3789  0.3222  0.4534
 4761TIP3    H138478   6.585   4.434  17.582 -0.2153  0.5097 -0.1181
 4761TIP3    H238479   6.705   4.518  17.544 -0.7962  1.8466  0.9111
 4762TIP3   OH238480   6.370   1.975  18.415 -0.3154  0.1544  1.0337
 4762TIP3    H138481   6.287   1.963  18.462 -1.1424  0.0815 -0.3792
 4762TIP3    H238482   6.412   1.889  18.420 -0.3945  0.1461  1.6277
 4763TIP3   OH238483   0.043   5.088  17.465  0.4854 -0.4418  0.0309
 4763TIP3    H138484   0.108   5.127  17.523  0.1017  1.8390 -0.9642
 4763TIP3    H238485  -0.041   5.114  17.502  0.2289  0.3875 -1.0877
 4764TIP3   OH238486   1.767   0.184  18.179  0.3925  0.7761  0.3027
 4764TIP3    H138487   1.734   0.096  18.201  0.2576  0.7500  0.0033
 4764TIP3    H238488   1.745   0.237  18.255 -0.8141  0.8755 -0.0843
 4765TIP3   OH238489   0.012   0.262  17.524  0.0696  0.5848 -0.5310
 4765TIP3    H138490   0.090   0.232  17.478  0.1492 -0.6148  0.3399
 4765TIP3    H238491   0.015   0.217  17.608 -1.8636  0.0384 -0.7082
 4766TIP3   OH238492   0.084   3.443  18.261 -0.1117 -0.1480 -0.5049
 4766TIP3    H138493   0.051   3.428  18.173  2.1553  0.2711 -1.5043
 4766TIP3    H238494   0.160   3.500  18.248  1.3509 -1.5071  1.5360
 4767TIP3   OH238495   2.863   3.151  18.876 -0.1529  0.1133 -0.3825
 4767TIP3    H138496   2.798   3.086  18.847 -0.4850 -0.0364  0.6538
 4767TIP3    H238497   2.940   3.133  18.823 -0.2133 -1.2016 -0.0590
 4768TIP3   OH238498   1.100   0.725  19.594  0.5027  0.1290  0.0610
 4768TIP3    H138499   1.132   0.654  19.649 -0.7161 -0.6406 -0.1806
 4768TIP3    H238500   1.024   0.688  19.549 -0.5422  1.7776  0.3933
 4769TIP3   OH238501   1.652   0.949  16.908 -0.2497  0.1265  0.6683
 4769TIP3    H138502   1.587   1.017  16.888 -0.1911  0.0819  0.3067
 4769TIP3    H238503   1.736   0.996  16.907 -0.1011 -0.1106 -0.5679
 4770TIP3   OH238504   6.168   1.061  18.736  0.1321 -0.1139  0.0458
 4770TIP3    H138505   6.084   1.107  18.743  1.1085  1.8485 -0.3161
 4770TIP3    H238506   6.226   1.107  18.796  1.0425 -1.2447  0.0729
 4771TIP3   OH238507   6.110   2.182  18.359  0.5459 -0.1043  0.1131
 4771TIP3    H138508   6.185   2.240  18.375  0.3419 -0.0767  1.0744
 4771TIP3    H238509   6.128   2.105  18.413 -0.7582  0.4814  1.4513
 4772TIP3   OH238510   3.405   0.839  20.298  0.1746 -0.5844  0.1373
 4772TIP3    H138511   3.490   0.844  20.255  0.6673 -2.4896  0.7815
 4772TIP3    H238512   3.364   0.761  20.262 -2.5100  1.6243 -2.1053
 4773TIP3   OH238513   0.486   0.747  18.725 -0.3343  0.0440 -0.0604
 4773TIP3    H138514   0.490   0.652  18.723 -0.5563  0.0485 -1.5689
 4773TIP3    H238515   0.416   0.767  18.788 -0.8500 -0.8068 -0.3469
 4774TIP3   OH238516   2.829   0.259  19.333 -0.4457  0.0928 -1.1954
 4774TIP3    H138517   2.888   0.316  19.283 -0.5062 -0.8814 -2.4469
 4774TIP3    H238518   2.782   0.210  19.266 -2.5001  0.6478 -0.2166
 4775TIP3   OH238519   0.134   0.392  19.573 -0.1825 -0.5349  0.0146
 4775TIP3    H138520   0.062   0.422  19.517 -1.1322 -0.9306  0.9849
 4775TIP3    H238521   0.206   0.453  19.555 -0.0948 -1.2238 -2.3637
 4776TIP3   OH238522   4.531   1.934  17.676 -0.4110 -0.2290  0.0115
 4776TIP3    H138523   4.501   1.981  17.754  1.4143  1.2684 -0.1202
 4776TIP3    H238524   4.581   1.860  17.711 -1.6395 -0.9816  0.2258
 4777TIP3   OH238525   0.798   2.082  18.507 -0.3798 -0.0554  0.7420
 4777TIP3    H138526   0.764   1.996  18.482 -0.6468  0.1254  0.4813
 4777TIP3    H238527   0.864   2.063  18.574  0.5956 -0.5665 -0.3350
 4778TIP3   OH238528   5.806   5.011  19.764  0.1395 -0.2240 -0.3942
 4778TIP3    H138529   5.898   5.023  19.786  0.3258  0.8756 -1.7224
 4778TIP3    H238530   5.801   5.024  19.670 -1.4267  0.0578 -0.2988
 4779TIP3   OH238531   2.284   3.178  17.651 -0.1726 -0.1365  0.1731
 4779TIP3    H138532   2.307   3.185  17.559  0.9769 -2.8684  0.1673
 4779TIP3    H238533   2.363   3.204  17.698 -1.4455  3.5908  0.5921
 4780TIP3   OH238534   1.494   2.344  17.303  0.1742 -0.3993  0.4835
 4780TIP3    H138535   1.489   2.254  17.271  0.0263 -0.8212  1.6518
 4780TIP3    H238536   1.422   2.389  17.258 -1.0580 -1.3755  1.4153
 4781TIP3   OH238537   1.332   5.917  17.635  0.0760 -0.6804 -0.1547
 4781TIP3    H138538   1.395   5.863  17.586  0.8331  0.4104 -0.4452
 4781TIP3    H238539   1.305   5.984  17.571 -1.1380 -0.9476  0.0758
 4782TIP3   OH238540   1.344   0.303  17.392 -0.0377  0.3790 -0.1940
 4782TIP3    H138541   1.278   0.310  17.461  0.7905  0.0523  0.6619
 4782TIP3    H238542   1.406   0.238  17.425 -0.5118 -1.0885 -2.0201
 4783TIP3   OH238543   6.325   1.283  19.955 -0.0504 -0.2720  0.4384
 4783TIP3    H138544   6.362   1.303  20.040  1.3175 -1.4939  0.1666
 4783TIP3    H238545   6.255   1.347  19.944  0.7310  0.8778  1.8045
 4784TIP3   OH238546   0.125   4.136  19.798  0.5299 -0.1113 -0.4727
 4784TIP3    H138547   0.034   4.162  19.788  0.1195 -1.3380 -0.0513
 4784TIP3    H238548   0.174   4.196  19.741 -0.5642  0.3381 -0.9511
 4785TIP3   OH238549   2.738   1.231  18.327 -0.0457 -0.0729 -0.3627
 4785TIP3    H138550   2.824   1.219  18.368  0.4724  1.2318 -0.9950
 4785TIP3    H238551   2.758   1.261  18.239 -1.1372  1.2388 -0.1995
 4786TIP3   OH238552   3.856   4.272  19.416  0.0098 -0.1720  0.5891
 4786TIP3    H138553   3.799   4.240  19.345  0.9998 -0.8902  0.0813
 4786TIP3    H238554   3.846   4.207  19.485 -0.3738  0.1183  0.8080
 4787TIP3   OH238555   1.788   0.035  19.549 -0.4471  0.6391 -0.5737
 4787TIP3    H138556   1.853   0.065  19.487  0.1599 -1.6942 -1.1539
 4787TIP3    H238557   1.737  -0.031  19.502  0.1057 -1.3067  1.3420
 4788TIP3   OH238558   4.840   2.958  19.573 -0.5754  0.1677  0.2937
 4788TIP3    H138559   4.764   2.901  19.580  0.7129 -1.4359  2.4108
 4788TIP3    H238560   4.872   2.945  19.484 -2.8384  1.0640 -0.7157
 4789TIP3   OH238561   1.971   4.412  17.206  0.2340 -0.5690 -0.2931
 4789TIP3    H138562   2.041   4.470  17.175 -0.0796 -0.9449 -1.8008
 4789TIP3    H238563   2.007   4.324  17.196  0.3558 -0.6864  1.0686
 4790TIP3   OH238564   2.739   4.994  19.397  0.5095 -0.5067 -0.4106
 4790TIP3    H138565   2.748   5.073  19.343 -1.4384 -0.0745 -0.1865
 4790TIP3    H238566   2.797   5.009  19.471  0.3362  0.6483 -0.4789
 4791TIP3   OH238567   2.888   0.515  19.675  0.2179 -0.5200 -0.2831
 4791TIP3    H138568   2.983   0.524  19.677  0.1476  0.2775 -0.1789
 4791TIP3    H238569   2.871   0.431  19.717  0.7510  0.3822  1.8688
 4792TIP3   OH238570   3.530   6.137  17.961 -0.2074 -0.3770 -0.9511
 4792TIP3    H138571   3.566   6.104  18.043  0.4730  0.8577 -0.7346
 4792TIP3    H238572   3.589   6.207  17.935 -1.9294  1.1309 -1.0314
 4793TIP3   OH238573   5.226   4.058  19.449  0.2531 -0.4967  0.0806
 4793TIP3    H138574   5.194   4.118  19.517  0.9309 -0.4185  0.3374
 4793TIP3    H238575   5.214   4.105  19.367  1.8633  0.5029  0.3645
 4794TIP3   OH238576   0.794   0.141  17.235 -0.0274 -0.0089  0.1415
 4794TIP3    H138577   0.880   0.183  17.243  0.1380 -0.6101  2.3928
 4794TIP3    H238578   0.799   0.091  17.154  2.1326 -0.7991  0.6798
 4795TIP3   OH238579   0.586   1.827  19.013 -0.2598  0.4517 -0.0865
 4795TIP3    H138580   0.590   1.732  19.012  0.5134  0.4664  0.9993
 4795TIP3    H238581   0.593   1.852  18.921  0.2507 -0.5092 -0.3183
 4796TIP3   OH238582   4.425   3.388  17.096  0.2598 -0.3438 -0.6100
 4796TIP3    H138583   4.480   3.329  17.147  0.3499  0.2331 -0.0254
 4796TIP3    H238584   4.481   3.463  17.075 -0.3868  0.4291  0.3229
 4797TIP3   OH238585   3.162   0.141  19.980 -0.2952  0.1347  0.2714
 4797TIP3    H138586   3.147   0.054  20.015  3.4915 -0.0790  1.8833
 4797TIP3    H238587   3.084   0.191  20.004 -1.1758 -2.0035  2.1594
 4798TIP3   OH238588   1.921   0.086  16.971 -0.1269 -0.0786 -0.0073
 4798TIP3    H138589   1.845   0.138  16.947 -0.0935  0.9743  1.9613
 4798TIP3    H238590   1.946   0.040  16.891 -1.5053  1.2444 -1.2335
 4799TIP3   OH238591   0.915   6.270  19.314 -0.2552 -0.3610 -0.1464
 4799TIP3    H138592   0.862   6.350  19.312  0.7607  0.3265 -1.5614
 4799TIP3    H238593   0.946   6.259  19.224  1.5463 -1.0284  0.4929
 4800TIP3   OH238594   3.960   3.328  18.501 -0.4269 -0.0345 -0.2812
 4800TIP3    H138595   3.888   3.265  18.500  0.2514 -0.8174 -0.4317
 4800TIP3    H238596   3.923   3.407  18.460 -1.2064 -0.4048 -0.3145
 4801TIP3   OH238597   5.215   4.900  17.716  0.2183 -0.1732 -0.0001
 4801TIP3    H138598   5.246   4.878  17.804 -1.3690  2.2128  1.2631
 4801TIP3    H238599   5.293   4.935  17.672  1.3112 -2.4523 -0.0439
 4802TIP3   OH238600   2.694   6.487  19.796 -0.4830  0.5801 -0.2308
 4802TIP3    H138601   2.767   6.454  19.743 -0.7547  2.0656 -1.5881
 4802TIP3    H238602   2.617   6.445  19.759 -0.4715 -0.0429  0.4176
 4803TIP3   OH238603   6.573   2.068  20.379  0.1838  0.4952 -0.1676
 4803TIP3    H138604   6.619   1.988  20.353  1.2270  1.5366 -1.7569
 4803TIP3    H238605   6.617   2.097  20.459  0.8231  0.2761 -0.4332
 4804TIP3   OH238606   1.431   3.168  17.630 -0.4658 -0.1727  0.0581
 4804TIP3    H138607   1.501   3.144  17.569 -0.9066 -2.0683  0.2096
 4804TIP3    H238608   1.352   3.167  17.576 -0.7027 -0.7131  0.4032
 4805TIP3   OH238609   6.508   1.666  17.902  0.9499 -0.2158  0.0386
 4805TIP3    H138610   6.574   1.598  17.891  1.6289  0.5082 -0.4172
 4805TIP3    H238611   6.428   1.628  17.866  0.9948 -1.2641  1.0083
 4806TIP3   OH238612   2.469   4.373  19.603 -0.9014 -0.3958 -0.1388
 4806TIP3    H138613   2.527   4.337  19.535 -1.5674 -0.1914 -0.8279
 4806TIP3    H238614   2.526   4.428  19.657 -0.7293  1.1044 -1.7657
 4807TIP3   OH238615   6.401   0.575  17.020 -0.3469 -0.1927 -0.1507
 4807TIP3    H138616   6.437   0.663  17.013 -1.6748  0.4489  0.7572
 4807TIP3    H238617   6.476   0.517  17.004  0.2299  1.0586 -2.2836
 4808TIP3   OH238618   6.444   4.878  17.954 -0.3422 -0.1052  0.2606
 4808TIP3    H138619   6.467   4.796  17.909  0.2688 -0.2592  0.8376
 4808TIP3    H238620   6.437   4.853  18.046 -2.4447  0.0262  0.1744
 4809TIP3   OH238621   2.788   5.989  19.167  0.0071 -0.0667 -0.4425
 4809TIP3    H138622   2.828   6.070  19.135  1.7331 -1.0468 -0.9097
 4809TIP3    H238623   2.756   5.945  19.088 -1.1799  0.2626 -0.1634
 4810TIP3   OH238624   5.786   1.647  17.297  0.3989  0.5853  0.5782
 4810TIP3    H138625   5.879   1.625  17.291 -0.0544 -1.5399  0.3944
 4810TIP3    H238626   5.776   1.689  17.383  1.6082  1.4464  0.3161
 4811TIP3   OH238627   6.199   5.165  17.689  0.5334  0.5506  0.4434
 4811TIP3    H138628   6.264   5.171  17.759  1.6395  1.5026 -0.6158
 4811TIP3    H238629   6.228   5.091  17.635  0.1050  0.2827  0.5724
 4812TIP3   OH238630   0.835   1.926  19.459 -0.5527 -0.6579 -0.0880
 4812TIP3    H138631   0.897   1.934  19.386  1.3018 -0.4555  1.4217
 4812TIP3    H238632   0.854   1.840  19.497 -0.6229 -0.2659  0.8743
 4813TIP3   OH238633   0.314   0.205  19.263  0.0655 -0.4109 -0.3238
 4813TIP3    H138634   0.282   0.292  19.238  2.0042 -0.0719 -1.9475
 4813TIP3    H238635   0.354   0.218  19.349 -0.4466  0.0927 -0.1541
 4814TIP3   OH238636   2.450   4.395  18.223 -0.1829  0.5606 -0.7485
 4814TIP3    H138637   2.514   4.366  18.288 -0.1012 -0.5773 -1.3067
 4814TIP3    H238638   2.382   4.327  18.224 -0.4378  0.7930 -1.4869
 4815TIP3   OH238639   5.115   5.060  18.533  0.5455  0.1594 -0.7345
 4815TIP3    H138640   5.182   5.062  18.600 -0.9928 -1.6190  0.9724
 4815TIP3    H238641   5.162   5.042  18.452  2.2660  0.7121  0.1078
 4816TIP3   OH238642   0.935   4.959  17.337  0.2166  0.0170 -0.4147
 4816TIP3    H138643   0.888   4.886  17.296 -1.3801  1.1259 -0.6918
 4816TIP3    H238644   0.986   4.997  17.266 -0.0526  0.0152 -0.6126
 4817TIP3   OH238645   0.812   2.391  18.684 -0.3588  0.0801  0.0563
 4817TIP3    H138646   0.840   2.412  18.595 -0.0101 -1.5569 -0.2598
 4817TIP3    H238647   0.824   2.296  18.691 -2.3150 -0.1281  1.1737
 4818TIP3   OH238648   2.811   4.187  16.801  0.2405  0.5038 -0.1201
 4818TIP3    H138649   2.899   4.191  16.838  0.5558 -0.1189 -0.7758
 4818TIP3    H238650   2.786   4.095  16.810 -1.5609  1.1302  2.7751
 4819TIP3   OH238651   1.833   0.473  18.683 -0.4873 -0.3010  0.0561
 4819TIP3    H138652   1.795   0.463  18.770  1.8655  0.9193  1.3201
 4819TIP3    H238653   1.827   0.567  18.664  0.4608 -0.3176 -0.3858
 4820TIP3   OH238654   1.884   5.115  18.212 -0.1825  0.8482  0.7099
 4820TIP3    H138655   1.800   5.151  18.240  0.1244  1.8741  0.3481
 4820TIP3    H238656   1.915   5.176  18.145 -1.2172 -1.8266 -2.5038
 4821TIP3   OH238657   1.000   0.256  19.724  0.3977  0.0552 -0.2183
 4821TIP3    H138658   0.956   0.283  19.804  0.1675 -1.1714  0.0994
 4821TIP3    H238659   1.060   0.187  19.752  0.6781 -0.0392 -1.0249
 4822TIP3   OH238660   5.648   0.966  18.615  0.9332 -0.3469  0.7923
 4822TIP3    H138661   5.678   1.034  18.555  1.0522  0.9882  2.2966
 4822TIP3    H238662   5.697   0.888  18.589 -0.3933 -0.3791 -2.0367
 4823TIP3   OH238663   1.602   2.990  20.313 -0.4843 -0.0025  0.4357
 4823TIP3    H138664   1.640   3.008  20.400 -1.2349 -0.3857  0.8532
 4823TIP3    H238665   1.568   3.075  20.285  1.6312  0.6171 -0.4519
 4824TIP3   OH238666   4.985   1.024  17.353  0.1232  0.5215  0.1414
 4824TIP3    H138667   4.922   1.094  17.337 -0.3157  0.1403  0.1809
 4824TIP3    H238668   4.932   0.949  17.379  0.6016  0.2267  0.2910
 4825TIP3   OH238669   4.427   0.157  19.530 -0.0175  0.5771 -0.1147
 4825TIP3    H138670   4.353   0.201  19.488  0.6233  0.5398 -1.3455
 4825TIP3    H238671   4.503   0.210  19.504  0.5018  0.0006  0.2181
 4826TIP3   OH238672   6.476   4.890  19.626  0.1855  0.4914  0.5852
 4826TIP3    H138673   6.515   4.978  19.625  0.7758  0.4477  4.1777
 4826TIP3    H238674   6.550   4.831  19.616 -0.0669  0.3439 -0.6069
 4827TIP3   OH238675   0.880   3.007  16.991 -0.3610  0.2421  0.2232
 4827TIP3    H138676   0.877   2.989  16.897  1.0707  0.1934  0.1542
 4827TIP3    H238677   0.973   2.996  17.014 -0.7319 -0.0386  1.6964
 4828TIP3   OH238678   1.487   3.639  18.411 -0.7223  0.3359 -0.5021
 4828TIP3    H138679   1.397   3.621  18.383 -0.7606  0.7148 -0.6340
 4828TIP3    H238680   1.488   3.617  18.504 -0.8180 -0.1446 -0.6126
 4829TIP3   OH238681   0.012   5.851  18.544  0.1472 -0.1574 -0.1542
 4829TIP3    H138682  -0.005   5.774  18.490  1.4504  0.3558 -1.3621
 4829TIP3    H238683   0.083   5.897  18.499 -0.2071  1.4585  0.8386
 4830TIP3   OH238684   6.237   2.715  20.360  0.3582  0.0111 -0.7636
 4830TIP3    H138685   6.294   2.645  20.329  0.0359 -0.6266  0.0302
 4830TIP3    H238686   6.188   2.742  20.283  1.0118 -0.1200 -1.2412
 4831TIP3   OH238687   6.684   4.816  17.397  0.0824  0.4469 -0.3018
 4831TIP3    H138688   6.624   4.828  17.470 -1.4505  0.4371 -1.5100
 4831TIP3    H238689   6.724   4.902  17.383 -1.5099  1.1033 -1.0191
 4832TIP3   OH238690   2.454   2.590  19.470 -0.2308  0.2454 -0.4837
 4832TIP3    H138691   2.380   2.532  19.486 -0.4777  0.9908  1.3466
 4832TIP3    H238692   2.527   2.549  19.516  0.4184 -0.2377 -1.8828
 4833TIP3   OH238693   4.003   4.405  19.610  0.0758  0.0759 -0.0186
 4833TIP3    H138694   3.976   4.332  19.666  0.5074 -0.1069 -0.0449
 4833TIP3    H238695   3.923   4.432  19.566 -0.4425  0.7323  1.2673
 4834TIP3   OH238696   5.898   1.174  19.181  0.3428  0.0824 -0.4729
 4834TIP3    H138697   5.805   1.170  19.159 -0.1924 -0.5377  1.6472
 4834TIP3    H238698   5.934   1.092  19.149  0.2151  0.3846 -1.4282
 4835TIP3   OH238699   1.922   5.737  18.712  0.2493 -0.1532 -0.8386
 4835TIP3    H138700   1.992   5.786  18.755 -0.7214  0.9350 -0.4232
 4835TIP3    H238701   1.907   5.661  18.769 -0.0237  0.4991 -0.0066
 4836TIP3   OH238702   3.708   4.630  19.018  0.2181 -0.1896 -0.2918
 4836TIP3    H138703   3.731   4.598  19.105 -2.7538 -0.5133  0.4887
 4836TIP3    H238704   3.674   4.718  19.033 -1.3153 -0.6435 -0.9268
 4837TIP3   OH238705   5.169   5.620  19.957 -0.0793  0.2577  0.4339
 4837TIP3    H138706   5.243   5.654  20.006 -1.6108  1.2776  2.1558
 4837TIP3    H238707   5.124   5.698  19.924 -2.7017 -0.0037  3.0155
 4838TIP3   OH238708   1.572   1.026  18.560  0.2237  0.1218  0.5372
 4838TIP3    H138709   1.496   1.056  18.511  1.2774  0.5970 -0.8649
 4838TIP3    H238710   1.550   1.042  18.651 -0.4376  2.4513  0.0174
 4839TIP3   OH238711   4.092   3.323  17.384  0.2566 -0.6033  0.0351
 4839TIP3    H138712   4.043   3.390  17.336  1.4168 -0.3960 -0.9044
 4839TIP3    H238713   4.101   3.251  17.321  0.0527 -1.1705  0.6400
 4840TIP3   OH238714   0.865   4.177  19.857  0.0544 -0.2513  0.1919
 4840TIP3    H138715   0.840   4.085  19.858  1.7934 -0.7783 -0.7207
 4840TIP3    H238716   0.820   4.213  19.781  1.1021 -0.9033 -0.7594
 4841TIP3   OH238717   1.519   4.209  17.590 -0.1328 -0.2864 -0.1633
 4841TIP3    H138718   1.511   4.240  17.500  1.3079 -2.1933 -1.0304
 4841TIP3    H238719   1.435   4.232  17.630 -1.4297 -0.6811 -2.4226
 4842TIP3   OH238720   5.049   5.897  18.999  0.1408  0.3532  0.4991
 4842TIP3    H138721   5.041   5.841  18.921  1.3166  1.7032 -0.6599
 4842TIP3    H238722   4.963   5.892  19.041  0.3680 -2.7338  0.8053
 4843TIP3   OH238723   0.582   6.166  17.389 -0.1639  1.0619  0.5187
 4843TIP3    H138724   0.492   6.138  17.407 -0.6205  0.9230 -1.6846
 4843TIP3    H238725   0.633   6.085  17.390 -0.5469  0.7873 -0.7335
 4844TIP3   OH238726   5.010   2.368  19.799 -0.4459 -0.5684 -0.0240
 4844TIP3    H138727   4.970   2.352  19.713  0.6690  0.1277 -0.6839
 4844TIP3    H238728   5.100   2.393  19.780  0.1657 -1.5514  1.4175
 4845TIP3   OH238729   1.496   0.802  17.487  0.0797 -0.6533 -0.3454
 4845TIP3    H138730   1.479   0.709  17.472  0.2977 -0.5857 -1.0469
 4845TIP3    H238731   1.552   0.828  17.414  1.3762 -0.3564  0.7034
 4846TIP3   OH238732   3.901   2.262  20.287  0.0497 -0.0529  0.5277
 4846TIP3    H138733   3.838   2.221  20.347 -0.2479 -2.3914 -1.2577
 4846TIP3    H238734   3.847   2.293  20.214  0.7296 -0.0296  0.0359
 4847TIP3   OH238735   5.275   5.861  18.621  0.1145 -0.7424  0.1380
 4847TIP3    H138736   5.223   5.900  18.691  1.2203  0.7140  0.1951
 4847TIP3    H238737   5.319   5.935  18.579 -0.9095 -1.4830 -2.4739
 4848TIP3   OH238738   1.281   0.731  17.738  0.3077 -0.4619  0.5682
 4848TIP3    H138739   1.250   0.777  17.660 -1.3701  0.3284  1.6471
 4848TIP3    H238740   1.328   0.797  17.788 -0.0393 -0.5332  0.9954
 4849TIP3   OH238741   3.369   3.925  19.036  0.5731 -0.9474 -0.6425
 4849TIP3    H138742   3.329   3.840  19.019 -1.5046 -0.5460  1.6001
 4849TIP3    H238743   3.413   3.914  19.120  0.8686  0.0038 -0.6648
 4850TIP3   OH238744   1.234   4.442  18.381 -0.6318  0.5373  0.4153
 4850TIP3    H138745   1.320   4.481  18.393 -0.6870  1.0408 -0.7045
 4850TIP3    H238746   1.215   4.400  18.465  1.6229 -1.4147  0.0650
 4851TIP3   OH238747   3.162   4.251  19.888  0.4874  0.0130  0.3784
 4851TIP3    H138748   3.170   4.167  19.933  0.3339  0.8478  2.0486
 4851TIP3    H238749   3.113   4.231  19.808 -1.0067 -1.2429  1.5389
 4852TIP3   OH238750   5.939   3.982  18.324 -0.3452  0.1667 -0.0887
 4852TIP3    H138751   5.990   4.015  18.250 -0.3862  0.2800 -0.0658
 4852TIP3    H238752   5.981   3.899  18.346  0.6320  0.8772  0.7697
 4853TIP3   OH238753   0.850   6.388  16.759 -0.0071  0.1228 -0.8626
 4853TIP3    H138754   0.864   6.438  16.679 -1.6491  0.6303 -0.8528
 4853TIP3    H238755   0.812   6.305  16.729 -0.1937  0.1296 -0.6418
 4854TIP3   OH238756   1.034   5.160  16.765  0.1406  0.1757  0.4799
 4854TIP3    H138757   1.125   5.134  16.783 -0.0099 -0.3728  0.4586
 4854TIP3    H238758   1.031   5.253  16.788  0.7652  0.2533  0.2654
 4855TIP3   OH238759   4.540   3.973  17.736 -0.6678  0.1562  0.0821
 4855TIP3    H138760   4.549   4.054  17.685 -0.9375  0.2335  0.1560
 4855TIP3    H238761   4.489   3.998  17.812  0.2206  0.1670  0.6941
 4856TIP3   OH238762   1.720   3.903  20.144 -0.0508 -0.2910 -0.1258
 4856TIP3    H138763   1.643   3.879  20.093  1.0953 -0.3278 -1.9146
 4856TIP3    H238764   1.766   3.821  20.158 -0.6681 -0.3894  1.6084
 4857TIP3   OH238765   2.112   2.876  18.458 -0.5765 -0.0097 -0.1211
 4857TIP3    H138766   2.065   2.873  18.375  0.7524 -0.6158 -0.8884
 4857TIP3    H238767   2.095   2.791  18.499 -0.9662  0.1637  0.0800
 4858TIP3   OH238768   0.834   4.861  20.056 -0.3010 -0.4253  0.4626
 4858TIP3    H138769   0.910   4.911  20.027 -0.5137  0.9083  2.0786
 4858TIP3    H238770   0.815   4.895  20.143 -2.7804 -0.7035  0.0878
 4859TIP3   OH238771   6.500   0.057  18.067  0.3015  0.0466  0.3760
 4859TIP3    H138772   6.525   0.049  18.159  0.4497 -0.3619  0.3017
 4859TIP3    H238773   6.582   0.073  18.021  0.2825 -0.1767  0.2640
 4860TIP3   OH238774   6.394   1.719  18.482 -0.0092  0.0375 -0.2282
 4860TIP3    H138775   6.359   1.735  18.570 -2.8533  0.2097 -1.2931
 4860TIP3    H238776   6.428   1.630  18.486 -2.1780 -0.8137  0.4919
 4861TIP3   OH238777   3.758   4.010  17.863 -0.1825  0.0785 -0.3195
 4861TIP3    H138778   3.783   4.003  17.771 -0.2863  1.3170 -0.4565
 4861TIP3    H238779   3.672   4.053  17.862  0.2885  1.0880  0.3834
 4862TIP3   OH238780   4.041   1.435  17.762 -0.0325 -0.8361 -0.1972
 4862TIP3    H138781   4.050   1.419  17.856  2.0312 -0.3756 -0.2761
 4862TIP3    H238782   3.967   1.496  17.755 -1.1060 -1.9332  0.9743
 4863TIP3   OH238783   5.910   1.653  18.993 -0.3869  0.7107 -0.1899
 4863TIP3    H138784   5.958   1.672  19.074  1.2406 -0.0924 -0.9289
 4863TIP3    H238785   5.975   1.664  18.923 -1.4271  0.1656 -1.2764
 4864TIP3   OH238786   1.349   3.784  17.219  0.3291  0.3124  0.0645
 4864TIP3    H138787   1.289   3.832  17.162  0.2349  1.3102  0.9780
 4864TIP3    H238788   1.292   3.736  17.278  0.4193 -1.1494 -0.9838
 4865TIP3   OH238789   2.039   1.183  19.929 -0.5178 -0.0901 -0.8429
 4865TIP3    H138790   2.031   1.151  20.019 -2.0863  0.5969 -0.6987
 4865TIP3    H238791   2.126   1.221  19.925  0.0416 -1.1943  0.0178
 4866TIP3   OH238792   0.146   0.364  18.870  0.4200  0.0793 -0.1194
 4866TIP3    H138793   0.158   0.369  18.965  2.1874  0.7259 -0.3476
 4866TIP3    H238794   0.098   0.444  18.848  0.6780  0.3115  0.1497
 4867TIP3   OH238795   5.719   2.047  18.629  0.2750  0.1046  0.0680
 4867TIP3    H138796   5.737   2.137  18.656  0.0459  0.0221  0.4954
 4867TIP3    H238797   5.666   2.010  18.699 -0.4010 -0.0917 -0.5319
 4868TIP3   OH238798   5.554   1.207  16.971  0.0605  0.0738 -0.2733
 4868TIP3    H138799   5.566   1.285  17.025  1.3023  0.3279 -0.8914
 4868TIP3    H238800   5.460   1.205  16.951 -0.5122 -0.1919  2.1220
 4869TIP3   OH238801   0.012   3.870  18.655 -0.0761 -0.3640  0.2149
 4869TIP3    H138802   0.050   3.833  18.734 -1.5980 -0.9211  0.7101
 4869TIP3    H238803   0.007   3.797  18.594  0.8248  0.0010 -0.3238
 4870TIP3   OH238804   1.920   1.333  16.807 -0.2025 -0.6651 -0.1671
 4870TIP3    H138805   1.959   1.352  16.722  0.0434  0.4766  0.1886
 4870TIP3    H238806   1.851   1.268  16.787  0.4047 -1.0535 -1.0975
 4871TIP3   OH238807   2.651   4.027  19.173  0.0020 -0.2617  0.1856
 4871TIP3    H138808   2.568   4.018  19.126 -0.7895 -2.0934  1.7859
 4871TIP3    H238809   2.716   3.991  19.114 -0.6005 -0.3995 -0.4105
 4872TIP3   OH238810   6.327   2.520  19.211  0.3383  0.3582 -0.2190
 4872TIP3    H138811   6.403   2.499  19.266  0.2413 -2.7695 -1.0798
 4872TIP3    H238812   6.364   2.535  19.124  0.0838  0.1706 -0.3586
 4873TIP3   OH238813   1.112   3.218  18.616 -0.3966  0.3020 -0.0540
 4873TIP3    H138814   1.030   3.172  18.637  0.4591 -1.0031  0.5772
 4873TIP3    H238815   1.152   3.234  18.702  0.2840  0.3888 -0.3876
 4874TIP3   OH238816   6.589   1.931  19.390 -0.0106  0.0189  0.0599
 4874TIP3    H138817   6.514   1.989  19.399 -0.9573 -1.1336 -0.1477
 4874TIP3    H238818   6.639   1.944  19.471 -1.6003 -0.7985  1.2291
 4875TIP3   OH238819   3.990   0.969  19.775 -0.1273 -0.2357  0.4772
 4875TIP3    H138820   3.926   1.026  19.818 -3.0899 -2.2269 -0.9644
 4875TIP3    H238821   4.013   1.016  19.695 -2.3788 -0.8312 -0.5932
 4876TIP3   OH238822   6.317   4.091  18.161  0.8341 -0.2307  0.1010
 4876TIP3    H138823   6.386   4.037  18.123  1.0342 -1.9781  2.7232
 4876TIP3    H238824   6.361   4.140  18.231  0.0928  1.3632 -0.4985
 4877TIP3   OH238825   5.847   5.083  19.486 -0.1385 -0.2820 -0.1358
 4877TIP3    H138826   5.807   5.168  19.501  1.3376 -0.0213  3.6508
 4877TIP3    H238827   5.938   5.103  19.464 -0.2713 -0.9067 -1.3340
 4878TIP3   OH238828   2.951   4.585  20.385  0.0797 -0.0931  0.1554
 4878TIP3    H138829   3.009   4.509  20.386 -1.2242 -1.1261  0.8210
 4878TIP3    H238830   2.984   4.641  20.315  0.6334 -1.6265 -0.8364
 4879TIP3   OH238831   3.224   3.686  19.009  0.5236  0.7157  0.7419
 4879TIP3    H138832   3.261   3.597  19.013  0.1972  0.5065 -0.4695
 4879TIP3    H238833   3.134   3.676  19.039  0.2441  0.4764 -0.1448
 4880TIP3   OH238834   5.089   5.703  19.243  0.4012  0.7267  0.0943
 4880TIP3    H138835   5.111   5.617  19.279 -1.4095 -0.7204 -1.9877
 4880TIP3    H238836   5.167   5.731  19.196  0.9835  0.2170  0.7443
 4881TIP3   OH238837   1.160   1.982  18.267  0.1094  0.0843 -0.0594
 4881TIP3    H138838   1.228   2.049  18.271 -1.7550  2.0766  1.4145
 4881TIP3    H238839   1.133   1.981  18.175  1.1964  0.2491 -0.3947
 4882TIP3   OH238840   3.956   3.684  17.822  0.4407  0.0300 -0.2863
 4882TIP3    H138841   3.925   3.741  17.893  0.0456 -0.7529  0.1881
 4882TIP3    H238842   3.896   3.701  17.750  0.3760  0.2782 -0.1739
 4883TIP3   OH238843   4.435   3.310  17.968 -0.3586  0.1801 -0.2203
 4883TIP3    H138844   4.363   3.257  17.933  1.6233 -0.6335 -3.5874
 4883TIP3    H238845   4.496   3.247  18.004 -1.0282  0.8334  2.2144
 4884TIP3   OH238846   0.802   4.429  17.904  0.1322 -0.2123  0.5310
 4884TIP3    H138847   0.826   4.473  17.822  0.9537 -0.4783  0.6107
 4884TIP3    H238848   0.720   4.469  17.931  0.6724  1.0225  0.4132
 4885TIP3   OH238849   5.144   4.445  19.555 -0.0475 -0.3399 -0.4886
 4885TIP3    H138850   5.162   4.538  19.573  0.1211  0.3453 -3.5915
 4885TIP3    H238851   5.217   4.398  19.594 -0.9956  0.5794  2.6626
 4886TIP3   OH238852   2.920   2.904  19.470 -0.4631  0.3552  0.5207
 4886TIP3    H138853   2.863   2.886  19.545 -0.7233 -0.0714  0.2232
 4886TIP3    H238854   2.994   2.844  19.483 -0.0350  0.9655  0.9515
 4887TIP3   OH238855   0.165   0.017  18.569 -0.3758 -0.4167 -0.4682
 4887TIP3    H138856   0.159   0.044  18.661  1.1230  0.5857 -0.6411
 4887TIP3    H238857   0.146  -0.077  18.571  0.9116 -0.6964  1.0545
 4888TIP3   OH238858   0.387   4.330  16.965 -0.4805  0.3104 -0.3649
 4888TIP3    H138859   0.359   4.391  16.897 -3.1361 -0.7300 -0.3676
 4888TIP3    H238860   0.334   4.252  16.949  1.0452 -1.1033  1.0847
 4889TIP3   OH238861   3.882   1.734  17.111  0.4432 -0.4219  0.2686
 4889TIP3    H138862   3.834   1.688  17.179  0.1751 -0.0204  0.3575
 4889TIP3    H238863   3.922   1.665  17.057 -2.2915 -0.8796 -1.3471
 4890TIP3   OH238864   3.220   6.665  19.539 -0.7504 -0.2893 -0.0250
 4890TIP3    H138865   3.249   6.755  19.550  2.8321 -1.2436 -0.4235
 4890TIP3    H238866   3.126   6.672  19.519 -0.7025  3.2485  0.3658
 4891TIP3   OH238867   1.321   6.346  18.563 -0.9037  0.5161 -0.1423
 4891TIP3    H138868   1.358   6.355  18.476  0.0208  1.7329  0.3535
 4891TIP3    H238869   1.226   6.349  18.549 -0.8507 -1.4526 -1.2948
 4892TIP3   OH238870   1.076   5.121  19.405  0.0437  0.4566  0.1711
 4892TIP3    H138871   1.056   5.214  19.392  0.8040  0.9212  1.9993
 4892TIP3    H238872   0.990   5.079  19.411 -0.3053  0.9812 -1.0174
 4893TIP3   OH238873   1.206   5.837  20.066  0.0789  0.3861 -0.1274
 4893TIP3    H138874   1.263   5.888  20.124  1.2969 -1.5506  0.4913
 4893TIP3    H238875   1.170   5.901  20.005  2.9677  1.7599 -0.5762
 4894TIP3   OH238876   2.618   3.025  19.934 -0.0798  0.4429 -0.1980
 4894TIP3    H138877   2.567   2.945  19.923  0.7745 -0.2492  0.7034
 4894TIP3    H238878   2.578   3.088  19.874 -1.0191 -0.5349 -0.6184
 4895TIP3   OH238879   5.056   0.880  17.000 -0.1090  0.3797 -0.2568
 4895TIP3    H138880   4.994   0.818  17.039 -0.0191  0.6382  0.3035
 4895TIP3    H238881   5.070   0.847  16.911  0.9694 -1.1715  0.4436
 4896TIP3   OH238882   5.205   2.844  17.744  0.1723 -0.2246 -0.0182
 4896TIP3    H138883   5.294   2.879  17.744 -0.4833  1.5923  1.2839
 4896TIP3    H238884   5.169   2.871  17.829 -1.8809 -0.1932 -0.8529
 4897TIP3   OH238885   1.320   0.290  17.818 -0.3421  0.0528  0.1846
 4897TIP3    H138886   1.315   0.342  17.738 -0.1211  0.7857  0.6436
 4897TIP3    H238887   1.335   0.200  17.787 -0.6110  0.2742 -0.6032
 4898TIP3   OH238888   1.653   1.147  17.799  0.4216  0.4700  0.0310
 4898TIP3    H138889   1.698   1.177  17.878 -1.7830 -0.0066  1.5788
 4898TIP3    H238890   1.644   1.053  17.811  0.2694  0.3597 -0.9018
 4899TIP3   OH238891   5.612   0.013  19.847  0.3449 -0.0212 -0.1242
 4899TIP3    H138892   5.670   0.082  19.879 -0.2105  0.4725 -0.1550
 4899TIP3    H238893   5.525   0.052  19.850 -0.1846 -1.2276  1.2932
 4900TIP3   OH238894   3.807   3.011  18.206 -0.4172 -0.2453 -0.1196
 4900TIP3    H138895   3.746   2.965  18.148 -0.1163 -0.2292 -0.4510
 4900TIP3    H238896   3.870   3.052  18.147  0.1603 -0.6071  0.2339
 4901TIP3   OH238897   1.148   5.322  17.074 -0.0047 -0.2132 -0.1414
 4901TIP3    H138898   1.082   5.314  17.005 -1.9516  1.8661  1.3250
 4901TIP3    H238899   1.173   5.415  17.073 -1.8488  0.5079  3.2796
 4902TIP3   OH238900   4.852   0.279  17.082  0.5618  0.3478  0.7418
 4902TIP3    H138901   4.947   0.271  17.074  0.6559  0.1484  1.8555
 4902TIP3    H238902   4.839   0.318  17.169 -0.4005 -0.3487  0.9249
 4903TIP3   OH238903   3.683   5.342  18.628 -0.2524  0.3729 -0.0305
 4903TIP3    H138904   3.777   5.342  18.647 -0.4090 -3.1237  1.5187
 4903TIP3    H238905   3.642   5.374  18.708 -0.4227 -0.3571  0.1844
 4904TIP3   OH238906   1.506   1.865  17.308 -0.3394 -0.7258 -0.0630
 4904TIP3    H138907   1.568   1.813  17.256 -0.9009 -2.8443  1.2724
 4904TIP3    H238908   1.490   1.812  17.386 -0.7176  1.6318  1.5709
 4905TIP3   OH238909   4.932   2.686  18.848  0.1631 -0.1080 -0.1422
 4905TIP3    H138910   4.905   2.668  18.758 -1.2627 -2.1571  0.6150
 4905TIP3    H238911   4.867   2.747  18.881 -0.1660 -0.4808 -0.0873
 4906TIP3   OH238912   3.848   4.004  17.336  0.0194  0.3074 -0.1442
 4906TIP3    H138913   3.932   4.041  17.310  0.2580  0.8512  1.3188
 4906TIP3    H238914   3.850   3.914  17.304  1.5065  0.0567  0.6143
 4907TIP3   OH238915   5.794   3.279  17.675  0.4681 -0.3626 -0.6736
 4907TIP3    H138916   5.849   3.201  17.665 -0.9317 -1.2502 -1.7732
 4907TIP3    H238917   5.816   3.313  17.761  1.9441 -1.3112 -0.6513
 4908TIP3   OH238918   4.338   1.000  19.618  0.5418 -0.6507  0.1953
 4908TIP3    H138919   4.358   0.938  19.548  1.2203 -1.6947  1.2711
 4908TIP3    H238920   4.397   1.073  19.603  0.3814 -0.6619 -0.5531
 4909TIP3   OH238921   0.857   4.678  19.721 -0.2157 -0.1212  0.0487
 4909TIP3    H138922   0.947   4.648  19.736 -0.0370  0.2504 -0.2728
 4909TIP3    H238923   0.807   4.638  19.792  0.2975  0.1092  0.5497
 4910TIP3   OH238924   3.476   2.927  19.266  0.1081  0.8308  0.2317
 4910TIP3    H138925   3.470   2.984  19.189 -0.3198 -0.7812 -0.9955
 4910TIP3    H238926   3.567   2.937  19.296  0.2782  1.5139 -0.4596
 4911TIP3   OH238927   4.987   2.414  20.074 -0.0912  0.5499  0.4683
 4911TIP3    H138928   4.962   2.397  19.983  1.3918  1.2183 -0.0891
 4911TIP3    H238929   4.951   2.500  20.093  1.4800  1.4066 -0.2554
 4912TIP3   OH238930   1.606   3.702  18.140 -0.0786 -0.7577  0.0900
 4912TIP3    H138931   1.651   3.786  18.135 -2.0665  0.3298 -1.6825
 4912TIP3    H238932   1.586   3.691  18.233  0.3484  0.6683  0.3790
 4913TIP3   OH238933   1.484   4.914  18.985  0.2749  0.4048  0.0711
 4913TIP3    H138934   1.482   4.928  19.080 -5.9117 -2.3247  0.8697
 4913TIP3    H238935   1.424   4.980  18.950  0.6378 -0.1221 -1.6185
 4914TIP3   OH238936   1.971   1.660  18.693  0.4706  0.6109  0.1996
 4914TIP3    H138937   1.946   1.658  18.785 -4.7487  0.5269 -0.9278
 4914TIP3    H238938   1.938   1.743  18.661  0.4598 -0.1801 -1.9856
 4915TIP3   OH238939   0.918   4.259  19.428 -0.1019  0.1727 -0.3353
 4915TIP3    H138940   0.971   4.299  19.498 -1.7381  0.3897  0.8357
 4915TIP3    H238941   0.842   4.316  19.420 -2.4516 -2.4652  1.2575
 4916TIP3   OH238942   6.256   5.194  18.519  0.3770 -0.2108  0.1089
 4916TIP3    H138943   6.327   5.258  18.519  0.7283 -0.5169 -1.7555
 4916TIP3    H238944   6.272   5.142  18.440 -0.8129 -1.5560  0.7170
 4917TIP3   OH238945   2.008   1.337  17.755 -0.3453 -0.4750 -0.2556
 4917TIP3    H138946   1.916   1.361  17.770 -0.4029 -1.1783  0.6310
 4917TIP3    H238947   2.018   1.338  17.660 -1.2098 -0.1592 -0.3562
 4918TIP3   OH238948   6.467   6.491  16.227 -0.5072  0.2402  0.1241
 4918TIP3    H138949   6.437   6.581  16.215 -2.5326  0.0688  2.9052
 4918TIP3    H238950   6.554   6.499  16.265 -0.0523  0.9537 -1.0176
 4919TIP3   OH238951   1.831   3.273  19.911  0.8730  0.1020 -0.0062
 4919TIP3    H138952   1.891   3.324  19.857 -1.5542  1.8615 -1.2249
 4919TIP3    H238953   1.842   3.183  19.881  2.0636  0.5502 -0.9712
 4920TIP3   OH238954   2.995   3.264  20.095  0.0913 -0.0803  0.0933
 4920TIP3    H138955   3.060   3.328  20.121 -0.1730  0.1921  0.0917
 4920TIP3    H238956   2.972   3.287  20.005  1.3073 -1.2726 -0.5540
 4921TIP3   OH238957   1.884   6.480  20.041 -0.0051  0.1307  0.1918
 4921TIP3    H138958   1.951   6.489  20.109  0.1095  1.3284 -0.0498
 4921TIP3    H238959   1.929   6.438  19.968 -0.0920 -1.0319  0.7832
 4922TIP3   OH238960   6.149   3.351  18.720  0.4373 -0.1037  0.3253
 4922TIP3    H138961   6.213   3.294  18.677  1.2640  0.4590  0.7817
 4922TIP3    H238962   6.174   3.348  18.813  0.4406  0.9320  0.3669
 4923TIP3   OH238963   0.852   3.231  17.858  0.1508 -0.0780 -0.1661
 4923TIP3    H138964   0.843   3.320  17.894  0.5744  0.3588 -1.1058
 4923TIP3    H238965   0.863   3.175  17.935  2.4358  0.9968  0.3516
 4924TIP3   OH238966   6.088   5.238  19.361  0.0719 -0.3494  0.3990
 4924TIP3    H138967   6.033   5.283  19.298  1.5661  0.5775 -0.2924
 4924TIP3    H238968   6.145   5.307  19.397  2.7846 -1.6415 -1.0566
 4925TIP3   OH238969   5.393   0.506  20.043 -0.8511 -0.3741 -0.0966
 4925TIP3    H138970   5.404   0.590  19.997 -0.0988 -0.3511  0.1127
 4925TIP3    H238971   5.323   0.461  19.995 -0.6955  0.0291 -0.7072
 4926TIP3   OH238972   3.461   1.839  18.203 -0.2507 -0.2571 -0.0068
 4926TIP3    H138973   3.407   1.914  18.227  0.8469  0.0330  1.7343
 4926TIP3    H238974   3.494   1.860  18.115  0.3931  1.5493  0.6166
 4927TIP3   OH238975   1.072   4.406  18.637 -0.0544  0.1792 -0.2935
 4927TIP3    H138976   1.038   4.317  18.635  0.0721  0.1206  0.1574
 4927TIP3    H238977   1.051   4.438  18.725  0.0938  0.5188 -0.3807
 4928TIP3   OH238978   4.933   5.092  17.831 -0.4609 -0.6397 -0.5857
 4928TIP3    H138979   4.902   5.142  17.905  0.1157  0.0806 -0.8167
 4928TIP3    H238980   4.962   5.157  17.767 -2.5697 -1.1823 -2.1996
 4929TIP3   OH238981   0.248   6.275  20.277  0.0676 -0.0162 -0.4300
 4929TIP3    H138982   0.193   6.343  20.238 -0.7526  0.1344  0.9596
 4929TIP3    H238983   0.234   6.198  20.221 -1.3891  0.0816 -0.2366
 4930TIP3   OH238984   3.920   2.911  18.474  0.3707 -0.1774 -0.1065
 4930TIP3    H138985   3.859   2.948  18.538 -0.6006 -0.0352 -1.0846
 4930TIP3    H238986   3.941   2.985  18.417  1.5124 -0.2165  0.2461
 4931TIP3   OH238987   3.412   1.957  19.931 -0.2999 -0.0876 -0.3323
 4931TIP3    H138988   3.409   2.052  19.943  0.6676  0.1133 -1.4186
 4931TIP3    H238989   3.324   1.927  19.952 -1.4801  1.4222 -2.6493
 4932TIP3   OH238990   4.986   1.885  19.198 -0.0109  0.1668 -0.1874
 4932TIP3    H138991   4.996   1.971  19.237  0.4336 -0.3798  0.9676
 4932TIP3    H238992   5.066   1.838  19.225 -0.5947 -0.8313 -0.1596
 4933TIP3   OH238993   2.179   1.466  16.355 -0.1716  0.1293  0.2478
 4933TIP3    H138994   2.126   1.462  16.276  0.0446 -1.3749  0.1449
 4933TIP3    H238995   2.263   1.501  16.327  0.4071 -1.7531 -0.5248
 4934TIP3   OH238996   5.034   1.243  18.353  0.3593 -0.0370  0.4283
 4934TIP3    H138997   4.946   1.264  18.384 -0.6965 -2.1998 -0.8350
 4934TIP3    H238998   5.045   1.151  18.375  2.3969  0.2301  0.6617
 4935TIP3   OH238999   1.606   5.594  17.236 -0.2485 -0.2008  0.3040
 4935TIP3    H139000   1.652   5.530  17.181 -0.4995  0.6749 -0.9682
 4935TIP3    H239001   1.669   5.666  17.247 -0.8405  0.4498 -0.4120
 4936TIP3   OH239002   1.294   3.710  16.870 -0.1989  0.0001 -0.3031
 4936TIP3    H139003   1.276   3.804  16.872 -0.5564 -0.0785  1.1547
 4936TIP3    H239004   1.341   3.697  16.788 -0.9741  1.2895 -0.9955
 4937TIP3   OH239005   3.636   6.278  19.903  0.0622 -0.2253  0.0582
 4937TIP3    H139006   3.672   6.337  19.970  0.3699  0.3005 -0.5547
 4937TIP3    H239007   3.551   6.252  19.936  0.4150 -0.3580  0.8829
 4938TIP3   OH239008   2.772   1.341  17.843 -0.3856  0.2991  0.2202
 4938TIP3    H139009   2.785   1.431  17.811 -0.5337  0.7588  1.3827
 4938TIP3    H239010   2.814   1.286  17.778 -3.0251  0.9589 -2.2300
 4939TIP3   OH239011   2.769   0.749  19.602  0.3266 -0.1544 -0.5904
 4939TIP3    H139012   2.783   0.660  19.633  1.3944 -0.5444 -2.0737
 4939TIP3    H239013   2.854   0.792  19.612  0.2728  0.1789 -1.4114
 4940TIP3   OH239014   4.896   1.612  17.918 -0.1005 -0.2320  0.7261
 4940TIP3    H139015   4.919   1.521  17.899  1.7689 -0.1053  2.0771
 4940TIP3    H239016   4.980   1.655  17.936 -1.0146  1.5688  0.9763
 4941TIP3   OH239017   1.122   2.776  18.435 -0.1747  0.9474  0.0036
 4941TIP3    H139018   1.152   2.867  18.431  0.2086  0.8207 -0.0504
 4941TIP3    H239019   1.126   2.746  18.345 -0.6309  0.9796 -0.0276
 4942TIP3   OH239020   1.652   3.267  17.821 -0.1243  0.2454  0.4819
 4942TIP3    H139021   1.714   3.194  17.818  0.0898  0.3935  1.1659
 4942TIP3    H239022   1.566   3.225  17.812  0.0646  0.0403 -0.4618
 4943TIP3   OH239023   4.180   0.835  17.743 -0.5967 -0.0485 -0.2837
 4943TIP3    H139024   4.225   0.916  17.719 -0.7632  0.0161 -0.3759
 4943TIP3    H239025   4.094   0.842  17.702 -1.0575  0.2795  0.7101
 4944TIP3   OH239026   4.799   2.256  18.875 -0.0871  0.2625 -0.1482
 4944TIP3    H139027   4.878   2.222  18.833 -0.4337 -0.9662  0.1743
 4944TIP3    H239028   4.825   2.342  18.907  1.2783 -0.3219  0.4003
 4945TIP3   OH239029   1.853   5.441  19.613 -0.2590 -0.0769  0.4151
 4945TIP3    H139030   1.918   5.442  19.542 -0.9971  1.0544 -0.2840
 4945TIP3    H239031   1.905   5.448  19.693  0.5303 -0.0473 -0.0847
 4946TIP3   OH239032   0.765   5.856  18.407 -0.5380 -0.3946 -0.0482
 4946TIP3    H139033   0.796   5.822  18.324  0.9676 -0.3702  0.4769
 4946TIP3    H239034   0.760   5.779  18.465  1.0497 -0.0503  0.5938
 4947TIP3   OH239035   3.412   3.813  18.282 -0.4509  0.1504  0.2127
 4947TIP3    H139036   3.371   3.880  18.336 -0.1901 -0.4514  1.1907
 4947TIP3    H239037   3.502   3.807  18.316 -0.2040 -0.0623 -0.4597
 4948TIP3   OH239038   2.350   6.543  18.477 -0.0359 -0.1749  0.0339
 4948TIP3    H139039   2.297   6.605  18.528  2.0649  1.5186  0.2828
 4948TIP3    H239040   2.385   6.595  18.405  1.6356 -1.1023  0.1440
 4949TIP3   OH239041   2.527   0.014  19.509  0.1697  0.4992 -0.1409
 4949TIP3    H139042   2.436  -0.005  19.485  0.7574 -1.9883 -0.6541
 4949TIP3    H239043   2.570   0.033  19.426  0.7309 -1.3087 -0.2937
 4950TIP3   OH239044   5.988   0.501  18.279  0.0309 -0.0454  0.5135
 4950TIP3    H139045   5.949   0.425  18.235 -0.0834 -1.3405  2.6896
 4950TIP3    H239046   6.077   0.506  18.242 -0.4872 -0.1911 -0.8318
 4951TIP3   OH239047   2.204   6.577  17.911 -0.5157 -0.2661  0.2226
 4951TIP3    H139048   2.128   6.634  17.902 -2.7172 -2.9096  0.6212
 4951TIP3    H239049   2.241   6.572  17.824 -1.0266  0.7613 -0.0735
 4952TIP3   OH239050   3.337   5.503  17.327 -0.0083 -0.3799  0.1681
 4952TIP3    H139051   3.264   5.521  17.267 -1.1019 -0.0784  1.5293
 4952TIP3    H239052   3.397   5.577  17.316 -1.1033  0.6335  0.7401
 4953TIP3   OH239053   6.428   4.027  19.279  0.4853 -0.3964  0.2915
 4953TIP3    H139054   6.450   4.016  19.186 -1.5661 -0.5584 -0.2302
 4953TIP3    H239055   6.428   3.938  19.314  0.9385 -0.3695  0.3555
 4954TIP3   OH239056   2.843   0.373  17.078  1.0084  0.4142 -0.0450
 4954TIP3    H139057   2.765   0.365  17.133 -0.7384 -0.8378 -2.5247
 4954TIP3    H239058   2.844   0.465  17.052 -0.2472  0.2497 -0.7496
 4955TIP3   OH239059   3.953   1.454  17.379 -0.6036 -0.5776  0.3035
 4955TIP3    H139060   3.955   1.378  17.437  1.5365 -0.1297  0.9019
 4955TIP3    H239061   3.987   1.421  17.296 -0.4535 -0.4731  0.3216
 4956TIP3   OH239062   1.292   6.627  18.938  0.2466  0.2868  0.3399
 4956TIP3    H139063   1.340   6.680  19.002  1.0410 -1.2797  1.1000
 4956TIP3    H239064   1.360   6.578  18.892 -0.3940  0.6478 -1.0601
 4957TIP3   OH239065   6.075   4.891  19.568 -0.1614 -0.1562  0.6211
 4957TIP3    H139066   6.078   4.978  19.606  4.7484 -0.8993  2.6730
 4957TIP3    H239067   6.128   4.898  19.488 -0.6458 -1.0374  0.2099
 4958TIP3   OH239068   2.646   6.540  16.855  0.2765  0.4663 -0.3394
 4958TIP3    H139069   2.569   6.500  16.814 -1.8309  3.8610 -0.1152
 4958TIP3    H239070   2.648   6.503  16.943 -2.4710  1.7262  0.3673
 4959TIP3   OH239071   1.424   4.362  19.496 -0.3207 -0.5502 -0.2704
 4959TIP3    H139072   1.388   4.379  19.583 -0.8090  2.0898 -0.9004
 4959TIP3    H239073   1.376   4.422  19.439  1.6698 -0.4896 -1.9627
 4960TIP3   OH239074   0.667   2.301  20.048  0.0787  0.4319  0.1491
 4960TIP3    H139075   0.634   2.235  20.108 -1.2450  1.1082  0.2140
 4960TIP3    H239076   0.760   2.283  20.040  0.2458  0.1764  2.2020
 4961TIP3   OH239077   5.683   2.596  19.944  0.0740 -0.2522  0.0359
 4961TIP3    H139078   5.709   2.566  20.031 -1.2557 -1.3955  0.0719
 4961TIP3    H239079   5.588   2.587  19.942 -0.3183  2.9158 -0.3994
 4962TIP3   OH239080   0.263   1.006  18.498  0.0800 -0.0054 -0.3636
 4962TIP3    H139081   0.324   1.065  18.541 -0.5503 -0.7357  1.6617
 4962TIP3    H239082   0.319   0.938  18.460  0.6145 -0.6579  1.4391
 4963TIP3   OH239083   5.191   5.202  20.148 -0.2993  0.5683  0.0356
 4963TIP3    H139084   5.199   5.109  20.128 -1.4935  0.5801 -0.5875
 4963TIP3    H239085   5.128   5.235  20.085 -0.2009  1.7255  0.5093
 4964TIP3   OH239086   1.978   3.977  17.773  0.1443 -0.4135 -0.0509
 4964TIP3    H139087   1.990   3.932  17.690  1.6489 -0.7101  0.3009
 4964TIP3    H239088   1.963   4.068  17.749 -0.5753 -0.6847 -0.6776
 4965TIP3   OH239089   4.576   0.009  20.401 -0.0871 -0.0254 -0.6993
 4965TIP3    H139090   4.574   0.090  20.351 -1.1546 -0.7964 -1.9558
 4965TIP3    H239091   4.660  -0.031  20.378  1.0696  1.3095  0.9715
 4966TIP3   OH239092   1.033   2.535  19.535 -0.3226  0.5114 -0.3704
 4966TIP3    H139093   1.091   2.577  19.599  1.7493 -2.6557  0.0237
 4966TIP3    H239094   0.958   2.506  19.587  0.0383  0.3666  0.0757
 4967TIP3   OH239095   5.695   3.581  19.314  0.0652 -0.6606 -0.4790
 4967TIP3    H139096   5.681   3.493  19.351 -0.5680 -0.4167 -0.1345
 4967TIP3    H239097   5.683   3.640  19.387 -0.4583 -0.2181 -0.9194
 4968TIP3   OH239098   2.217   2.982  20.204 -0.0547  0.1369 -0.0538
 4968TIP3    H139099   2.156   2.998  20.132  0.9798  2.4203 -0.5245
 4968TIP3    H239100   2.175   3.022  20.280 -0.1220 -0.2628  0.1229
 4969TIP3   OH239101   3.062   3.070  18.684 -0.0380 -0.3688  0.0059
 4969TIP3    H139102   3.079   3.121  18.605 -1.7034  1.3066  0.6384
 4969TIP3    H239103   3.019   2.990  18.653 -1.7435  0.7899 -0.7688
 4970TIP3   OH239104   5.666   4.807  18.749 -0.2232 -0.1523 -0.1464
 4970TIP3    H139105   5.707   4.721  18.746 -2.0239 -1.0581 -0.3974
 4970TIP3    H239106   5.680   4.843  18.662  1.7401  0.4658  0.3614
 4971TIP3   OH239107   2.798   3.688  19.928  0.0028  0.0615 -0.0927
 4971TIP3    H139108   2.759   3.609  19.891 -0.6837  0.4827 -0.2866
 4971TIP3    H239109   2.791   3.754  19.859  1.1364  0.1382 -0.1562
 4972TIP3   OH239110   6.295   0.485  19.019  0.0537  0.3384 -0.7453
 4972TIP3    H139111   6.346   0.531  19.086 -1.1813 -1.8289  1.8753
 4972TIP3    H239112   6.220   0.542  19.002  1.0970  1.5658 -1.4401
 4973TIP3   OH239113   6.305   6.096  18.848 -0.2890 -0.2167  0.1035
 4973TIP3    H139114   6.383   6.074  18.798 -0.4352 -0.8902  0.1687
 4973TIP3    H239115   6.319   6.056  18.934 -0.8881 -0.7041 -0.0161
 4974TIP3   OH239116   2.991   4.127  17.687 -0.1249  0.5156  0.6086
 4974TIP3    H139117   2.987   4.177  17.605  0.9544  0.4704  0.5167
 4974TIP3    H239118   3.073   4.155  17.728  0.1028 -0.5964  0.9386
 4975TIP3   OH239119   4.868   1.203  19.599 -0.2062  0.3907  0.1786
 4975TIP3    H139120   4.855   1.292  19.568  0.4816  0.7996  1.0304
 4975TIP3    H239121   4.920   1.212  19.679 -1.0349 -0.6970  0.8790
 4976TIP3   OH239122   3.044   0.262  19.596  1.0474  0.2466  0.2878
 4976TIP3    H139123   3.022   0.177  19.557 -0.5892  0.2298  1.1936
 4976TIP3    H239124   2.996   0.264  19.678  0.8496  2.1816  0.1566
 4977TIP3   OH239125   4.403   1.239  19.462  0.2140  0.0593  0.1621
 4977TIP3    H139126   4.388   1.304  19.393 -2.9458 -0.3416  0.2899
 4977TIP3    H239127   4.384   1.286  19.544  2.2138  0.0651  0.6666
 4978TIP3   OH239128   2.910   0.266  18.445  0.4627  0.2124 -0.1189
 4978TIP3    H139129   2.948   0.328  18.506  0.9874 -0.9699  0.7961
 4978TIP3    H239130   2.979   0.201  18.430 -0.2128 -0.3949 -0.7034
 4979TIP3   OH239131   5.458   6.606  18.197 -0.8092  0.0828 -0.4388
 4979TIP3    H139132   5.482   6.679  18.254 -0.5348 -1.5154  1.5907
 4979TIP3    H239133   5.381   6.638  18.149 -0.2068  1.9775 -0.2413
 4980TIP3   OH239134   5.769   4.052  18.965 -0.1836  1.2376  0.1652
 4980TIP3    H139135   5.845   4.110  18.968  1.9439 -1.3614  0.8437
 4980TIP3    H239136   5.783   3.991  19.038 -2.2834 -0.1102 -0.4762
 4981TIP3   OH239137   1.599   1.823  19.135 -0.1595  0.9412  0.4772
 4981TIP3    H139138   1.575   1.754  19.073  0.6046  1.9303 -1.0119
 4981TIP3    H239139   1.634   1.777  19.211  0.1799 -0.3292 -0.4110
 4982TIP3   OH239140   0.810   3.672  18.191  0.1876 -0.2109  0.1081
 4982TIP3    H139141   0.788   3.747  18.136 -0.5875 -0.2873  0.2971
 4982TIP3    H239142   0.798   3.704  18.281  2.6994  0.3147  0.3312
 4983TIP3   OH239143   2.378   6.510  16.945  0.1710 -0.1756  0.5190
 4983TIP3    H139144   2.454   6.488  16.999  0.2832 -0.4406  0.2577
 4983TIP3    H239145   2.347   6.594  16.979 -0.0419 -0.5606  1.2970
 4984TIP3   OH239146   1.626   3.461  17.604  0.4636 -0.1012  0.3328
 4984TIP3    H139147   1.651   3.519  17.675 -1.0245 -1.0913  1.7184
 4984TIP3    H239148   1.653   3.374  17.633 -0.3408 -0.5487 -0.2065
 4985TIP3   OH239149   4.126   0.127  20.250  0.2011 -0.2187  0.1827
 4985TIP3    H139150   4.136   0.032  20.260 -1.7186 -0.3864  0.9864
 4985TIP3    H239151   4.203   0.154  20.199  1.3844 -2.0202  0.9036
 4986TIP3   OH239152   0.640   2.446  17.418  0.0428  0.0215 -0.3259
 4986TIP3    H139153   0.650   2.538  17.445  1.2723 -0.0723 -0.3772
 4986TIP3    H239154   0.708   2.399  17.467  2.0338 -0.2387 -3.0547
 4987TIP3   OH239155   0.031   2.363  16.635  0.4934  0.0205 -0.5254
 4987TIP3    H139156  -0.016   2.287  16.670  0.1656  0.1101 -0.7675
 4987TIP3    H239157   0.122   2.347  16.658  0.2731  0.1417  0.5048
 4988TIP3   OH239158   0.160   4.339  16.771 -0.1461 -0.5125 -0.4876
 4988TIP3    H139159   0.204   4.324  16.688  1.9008 -0.5653  0.5497
 4988TIP3    H239160   0.181   4.262  16.824 -0.8356 -0.1732  0.3033
 4989TIP3   OH239161   0.675   3.438  19.561  0.3808 -0.3422  0.7492
 4989TIP3    H139162   0.764   3.465  19.580  1.0061 -1.2834 -0.6417
 4989TIP3    H239163   0.676   3.343  19.571 -0.9267 -0.2387  2.3629
 4990TIP3   OH239164   1.804   5.234  17.896 -0.1134 -0.1181  0.6347
 4990TIP3    H139165   1.734   5.298  17.901 -0.5330 -0.6192  1.1557
 4990TIP3    H239166   1.850   5.256  17.814 -0.1466  0.9407  0.8899
 4991TIP3   OH239167   2.096   6.475  17.107  0.1776  0.0084 -0.0676
 4991TIP3    H139168   2.177   6.518  17.134  1.3471 -1.0965 -1.6482
 4991TIP3    H239169   2.096   6.391  17.152 -0.0246 -0.0511 -0.1737
 4992TIP3   OH239170   1.630   0.485  19.322  0.4805 -0.1212 -0.4983
 4992TIP3    H139171   1.563   0.503  19.256 -0.6307  0.1280  0.6651
 4992TIP3    H239172   1.582   0.447  19.395  1.4015  1.3315  0.9108
 4993TIP3   OH239173   5.355   0.324  18.545  0.9121 -0.2975 -0.9290
 4993TIP3    H139174   5.378   0.319  18.638  3.2637 -2.0475 -1.5045
 4993TIP3    H239175   5.413   0.392  18.510  0.1039  0.2864 -1.1449
 4994TIP3   OH239176   1.852   4.708  19.349  0.1519 -0.4796  0.0557
 4994TIP3    H139177   1.917   4.660  19.399 -0.0644  1.1529  2.0234
 4994TIP3    H239178   1.902   4.774  19.301 -0.0342  1.1911  2.0637
 4995TIP3   OH239179   1.763   0.985  18.959 -0.3572  0.3393 -0.0185
 4995TIP3    H139180   1.698   1.028  19.015 -0.4844  1.6010 -1.0914
 4995TIP3    H239181   1.743   0.892  18.966 -0.9531  0.5458  1.2929
 4996TIP3   OH239182   4.114   0.853  20.181  0.6203 -0.0249  0.6393
 4996TIP3    H139183   4.152   0.869  20.095 -0.6208 -1.9015 -0.3057
 4996TIP3    H239184   4.190   0.846  20.239  1.4918  0.7787 -0.3490
 4997TIP3   OH239185   4.174   4.052  18.826  0.3571 -0.0853  0.4632
 4997TIP3    H139186   4.113   4.116  18.863 -3.1396 -1.9959 -1.4700
 4997TIP3    H239187   4.152   3.969  18.870  1.8805 -0.8001 -0.0436
 4998TIP3   OH239188   6.151   0.918  16.867  0.2979 -0.3554  0.0435
 4998TIP3    H139189   6.122   0.962  16.947  1.2321 -1.3370  0.9549
 4998TIP3    H239190   6.156   0.988  16.802 -1.2602  0.3348  0.5976
 4999TIP3   OH239191   3.722   4.528  19.290 -0.1587  0.1485  0.3653
 4999TIP3    H139192   3.776   4.452  19.312  0.2737  0.2858 -0.2093
 4999TIP3    H239193   3.633   4.499  19.307 -0.0250 -0.6111 -0.1729
 5000TIP3   OH239194   5.212   1.464  18.142 -0.0515 -0.2491  0.3077
 5000TIP3    H139195   5.156   1.495  18.213 -1.1603 -1.8630  0.1995
 5000TIP3    H239196   5.281   1.414  18.186 -0.0157 -0.1932  0.3158
 5001TIP3   OH239197   5.616   5.971  18.457 -0.2914  0.0866  0.1758
 5001TIP3    H139198   5.636   6.054  18.500  1.8653 -0.6095  0.6273
 5001TIP3    H239199   5.574   5.996  18.375  2.2225  1.7875 -0.7160
 5002TIP3   OH239200   5.260   3.653  19.668 -0.2635  0.2469  0.1654
 5002TIP3    H139201   5.338   3.618  19.625 -0.4097 -0.0188  0.1142
 5002TIP3    H239202   5.213   3.700  19.599  0.2615  1.1103  0.3832
 5003TIP3   OH239203   5.631   1.678  18.154 -0.0894  0.1601 -0.5270
 5003TIP3    H139204   5.722   1.650  18.146 -0.2581 -0.9931  1.1223
 5003TIP3    H239205   5.580   1.598  18.140 -0.6542 -0.1473  2.5613
 5004TIP3   OH239206   2.295   1.912  20.015 -0.1387  0.3740 -0.1120
 5004TIP3    H139207   2.356   1.851  19.973  0.6016  0.9117  0.1705
 5004TIP3    H239208   2.234   1.856  20.063 -0.3911 -0.2089 -1.0751
 5005TIP3   OH239209   4.088   0.056  19.344  0.5222  0.4875  0.6297
 5005TIP3    H139210   4.041  -0.028  19.339 -1.3729  1.4754  0.9125
 5005TIP3    H239211   4.141   0.048  19.423  1.0655 -0.7726  0.1697
 5006TIP3   OH239212   0.273   1.891  17.990  0.3286 -0.5930  0.1834
 5006TIP3    H139213   0.366   1.897  18.013  0.3312  0.7084 -0.1029
 5006TIP3    H239214   0.264   1.805  17.948  1.7047 -0.1587 -1.0830
 5007TIP3   OH239215   0.083   2.706  20.128  0.1483 -0.0905 -0.3513
 5007TIP3    H139216   0.120   2.634  20.078 -2.7129 -5.4646  4.2020
 5007TIP3    H239217  -0.004   2.719  20.090 -0.5022 -1.3318  0.6621
 5008TIP3   OH239218   0.953   0.612  19.343 -0.1235 -0.1277 -0.1644
 5008TIP3    H139219   0.949   0.521  19.372  0.2233  0.0616  0.4947
 5008TIP3    H239220   1.024   0.613  19.278  1.3663  0.0736  1.3988
 5009TIP3   OH239221   5.520   5.242  18.842  0.2646 -0.0274  0.0179
 5009TIP3    H139222   5.446   5.194  18.805  1.4962 -0.0688 -2.5436
 5009TIP3    H239223   5.526   5.321  18.789  0.9204  0.9191  1.4416
 5010TIP3   OH239224   0.896   0.321  20.142  0.0899  0.1567 -0.4508
 5010TIP3    H139225   0.869   0.339  20.232  0.1653  0.4041 -0.4766
 5010TIP3    H239226   0.819   0.279  20.102 -0.4683  1.3442 -0.6784
 5011TIP3   OH239227   0.002   6.089  19.937 -0.3763  0.2120  0.3600
 5011TIP3    H139228   0.072   6.125  19.991 -1.0476 -0.0582  1.4369
 5011TIP3    H239229  -0.073   6.145  19.956 -0.2321  1.1651 -1.5764
 5012TIP3   OH239230   4.518   5.671  18.707 -0.1509  0.0137  0.3064
 5012TIP3    H139231   4.523   5.754  18.755 -1.7576  0.7882 -0.7875
 5012TIP3    H239232   4.592   5.673  18.647  0.2554  0.2981  0.8124
 5013TIP3   OH239233   4.924   1.124  16.973 -0.7494  0.2625 -0.3533
 5013TIP3    H139234   4.982   1.193  16.941 -1.2618  0.4362 -0.9365
 5013TIP3    H239235   4.979   1.046  16.976 -0.4034  0.4931 -0.5927
 5014TIP3   OH239236   2.035   1.891  19.165  0.1795 -0.4737  0.1758
 5014TIP3    H139237   2.054   1.805  19.203  2.0932  0.1433  0.7445
 5014TIP3    H239238   2.091   1.951  19.214 -0.1888  0.9213 -1.0502
 5015TIP3   OH239239   0.413   5.771  17.460  0.2999  0.2630  0.5817
 5015TIP3    H139240   0.503   5.803  17.462  1.5281 -2.4740 -2.3171
 5015TIP3    H239241   0.372   5.819  17.388  0.2032 -0.1955  0.3287
 5016TIP3   OH239242   5.684   6.408  18.110 -0.4666  0.1902  0.1996
 5016TIP3    H139243   5.757   6.375  18.163 -0.2498 -1.2420 -0.9274
 5016TIP3    H239244   5.607   6.396  18.166 -0.0578  0.0747  0.7416
 5017TIP3   OH239245   1.589   5.077  18.044  0.4275  0.7100  0.0883
 5017TIP3    H139246   1.554   5.110  17.962  0.3654  4.2371  1.3623
 5017TIP3    H239247   1.682   5.097  18.040  0.6311 -0.1272  0.4511
 5018TIP3   OH239248   5.867   1.256  19.519 -0.4134  0.0016 -0.3923
 5018TIP3    H139249   5.865   1.344  19.483  1.0502  0.5175  0.7157
 5018TIP3    H239250   5.881   1.199  19.444 -2.1274  0.6124 -1.2203
 5019TIP3   OH239251   1.713   2.712  18.524  0.3643 -0.5788  0.1058
 5019TIP3    H139252   1.673   2.760  18.596  0.1516  0.1797 -0.5076
 5019TIP3    H239253   1.659   2.633  18.515  0.6978 -0.9368  1.0935
 5020TIP3   OH239254   3.454   1.759  19.710  0.2379  0.1145 -0.0156
 5020TIP3    H139255   3.406   1.808  19.777  1.2236 -1.0849  1.6586
 5020TIP3    H239256   3.441   1.667  19.734  0.6174 -0.3499 -1.5003
 5021TIP3   OH239257   3.672   1.325  17.829 -0.3565 -0.3816 -0.5414
 5021TIP3    H139258   3.705   1.414  17.819 -0.1874 -0.4442 -0.5363
 5021TIP3    H239259   3.728   1.285  17.895 -1.2001 -0.1080  0.3639
 5022TIP3   OH239260   5.029   5.603  19.600 -0.0428 -0.0111  0.3174
 5022TIP3    H139261   4.978   5.613  19.519  1.5731  0.5684 -0.6616
 5022TIP3    H239262   5.027   5.508  19.617 -1.1592 -0.0384  0.1339
 5023TIP3   OH239263   3.780   4.918  17.654 -0.6298 -0.5733  0.4921
 5023TIP3    H139264   3.718   4.985  17.685 -0.0748 -0.3947  1.2740
 5023TIP3    H239265   3.781   4.928  17.559  0.0572  1.1168  0.6387
 5024TIP3   OH239266   0.677   0.643  18.072 -0.2108  0.0261  0.5677
 5024TIP3    H139267   0.733   0.596  18.010 -1.8381  0.1431 -1.0635
 5024TIP3    H239268   0.738   0.681  18.134  1.4987 -0.2038 -0.8761
 5025TIP3   OH239269   6.063   2.776  17.019 -0.3625  0.1427 -0.0512
 5025TIP3    H139270   6.112   2.723  16.956 -1.6352 -2.4580  1.0131
 5025TIP3    H239271   5.978   2.790  16.977 -1.4097 -2.0541  1.1748
 5026TIP3   OH239272   4.466   5.271  19.844  0.3270  0.5372  0.1258
 5026TIP3    H139273   4.467   5.353  19.893  0.5974 -0.5393  2.0083
 5026TIP3    H239274   4.417   5.210  19.899 -1.0458 -0.2596 -1.8354
 5027TIP3   OH239275   0.574   4.245  18.160 -0.0964 -0.2936 -0.4755
 5027TIP3    H139276   0.519   4.173  18.193 -0.1913 -0.1003 -0.2161
 5027TIP3    H239277   0.519   4.323  18.167  0.7755  0.2035  1.3659
 5028TIP3   OH239278   6.620   3.763  17.161 -0.1168 -0.0291 -0.2566
 5028TIP3    H139279   6.712   3.735  17.163  0.0896  0.6085 -0.4878
 5028TIP3    H239280   6.580   3.718  17.236  0.4010 -0.2417 -0.0982
 5029TIP3   OH239281   1.445   1.765  17.589 -0.0429 -0.1303  0.6877
 5029TIP3    H139282   1.527   1.720  17.611 -0.0531 -0.5708 -0.1563
 5029TIP3    H239283   1.458   1.855  17.620  0.3667 -0.4432  1.4612
 5030TIP3   OH239284   1.433   5.834  17.188 -0.0059 -1.1424 -0.2287
 5030TIP3    H139285   1.377   5.861  17.115  0.9872 -1.7795 -1.2590
 5030TIP3    H239286   1.496   5.774  17.148 -0.2689 -2.5736  1.4170
 5031TIP3   OH239287   5.839   2.833  19.985  0.3715  0.4212 -0.3985
 5031TIP3    H139288   5.810   2.906  20.040 -0.1542  0.0004 -0.1133
 5031TIP3    H239289   5.763   2.775  19.980  1.3076 -0.9681  0.7786
 5032TIP3   OH239290   1.640   2.058  18.308 -0.1805  0.1215 -0.3176
 5032TIP3    H139291   1.734   2.057  18.327 -0.1458  0.9492 -0.4113
 5032TIP3    H239292   1.603   1.998  18.372  0.2874  0.6588  0.4893
 5033TIP3   OH239293   1.359   3.663  19.395 -0.5909  0.2030  0.3459
 5033TIP3    H139294   1.319   3.577  19.411 -2.6817  0.6083 -1.9978
 5033TIP3    H239295   1.356   3.673  19.300  2.5604  1.6024  0.2626
 5034TIP3   OH239296   3.827   4.696  18.751 -0.3909  0.0458 -0.3775
 5034TIP3    H139297   3.853   4.756  18.680  1.7311  0.7324  0.9003
 5034TIP3    H239298   3.812   4.753  18.826 -0.8702 -0.8232  0.2005
 5035TIP3   OH239299   3.337   5.831  17.891  1.1069 -0.4489  0.4181
 5035TIP3    H139300   3.266   5.865  17.837  3.0542  0.0053 -2.0626
 5035TIP3    H239301   3.375   5.908  17.933  1.1207 -0.4815  0.4657
 5036TIP3   OH239302   3.650   4.457  17.513  0.0925 -0.1357  0.5131
 5036TIP3    H139303   3.654   4.366  17.483  0.1422 -0.1765  0.6439
 5036TIP3    H239304   3.741   4.484  17.522  0.0928  0.3112 -0.6740
 5037TIP3   OH239305   6.450   3.889  18.753 -0.2463 -0.2376 -0.0491
 5037TIP3    H139306   6.420   3.800  18.739 -0.7300  0.0612 -1.0628
 5037TIP3    H239307   6.537   3.892  18.712 -1.0773  0.2650 -1.8818
 5038TIP3   OH239308   4.846   5.029  18.825 -0.0845  0.3420  0.7923
 5038TIP3    H139309   4.914   5.037  18.892  0.6100 -0.8101  0.2717
 5038TIP3    H239310   4.779   4.974  18.866  0.2463 -0.1940  0.6312
 5039TIP3   OH239311   1.300   1.468  19.960 -0.3296  0.1292  0.8155
 5039TIP3    H139312   1.253   1.384  19.957  1.5654 -0.9782  0.7109
 5039TIP3    H239313   1.369   1.455  20.025  2.9030 -0.0614 -2.3430
 5040TIP3   OH239314   0.603   0.053  19.248 -0.8403  0.1389 -0.1466
 5040TIP3    H139315   0.551   0.108  19.306 -0.8112  0.9743 -0.9012
 5040TIP3    H239316   0.631   0.111  19.177  2.1443  0.0233  0.8262
 5041TIP3   OH239317   6.547   2.622  17.308 -0.4845  0.1437  0.0213
 5041TIP3    H139318   6.637   2.610  17.279 -0.0769  1.0868  0.8057
 5041TIP3    H239319   6.495   2.621  17.228 -0.1193 -2.8928 -0.2808
 5042TIP3   OH239320   0.444   2.721  19.197 -0.1438 -0.0720 -0.1856
 5042TIP3    H139321   0.525   2.686  19.235 -0.6865 -0.3588  0.7539
 5042TIP3    H239322   0.466   2.738  19.105  1.0288  0.0326  0.0919
 5043TIP3   OH239323   1.606   3.424  19.960  0.4195  0.3007  0.2673
 5043TIP3    H139324   1.687   3.373  19.969 -1.2516 -2.7386 -0.4700
 5043TIP3    H239325   1.547   3.387  20.025 -0.2439  2.9776  1.3207
 5044TIP3   OH239326   5.410   0.903  16.891 -0.3794 -0.2560 -0.4637
 5044TIP3    H139327   5.350   0.975  16.871 -1.0060 -1.0727 -1.6520
 5044TIP3    H239328   5.396   0.840  16.820 -0.1028 -1.7211  0.7499
 5045TIP3   OH239329   4.057   3.885  20.001  0.5141  0.0795 -0.6778
 5045TIP3    H139330   4.096   3.840  19.926 -0.1689  0.6427 -1.3862
 5045TIP3    H239331   4.112   3.962  20.014  2.9341 -1.8963  1.8268
 5046TIP3   OH239332   1.170   6.079  18.012  0.1580 -0.5616  0.0837
 5046TIP3    H139333   1.132   6.000  18.049 -0.8009 -0.3710 -0.4575
 5046TIP3    H239334   1.134   6.150  18.065 -0.3552 -0.3713 -0.5031
 5047TIP3   OH239335   3.754   1.627  18.400 -0.3034  0.0783 -0.3208
 5047TIP3    H139336   3.802   1.626  18.482  0.6394  1.7477 -0.7982
 5047TIP3    H239337   3.678   1.682  18.417 -0.9567 -0.8615 -0.1458
 5048TIP3   OH239338   2.180   0.881  19.555  0.1538 -0.1338  0.1972
 5048TIP3    H139339   2.202   0.881  19.648 -1.4481 -0.3912  0.6210
 5048TIP3    H239340   2.085   0.897  19.553  0.1312 -0.2634 -1.3833
 5049TIP3   OH239341   3.303   5.019  18.814  0.2613 -0.8927  0.0129
 5049TIP3    H139342   3.299   5.046  18.905  0.6468  0.2201 -0.2843
 5049TIP3    H239343   3.396   5.006  18.797  0.1353 -1.7798 -0.0402
 5050TIP3   OH239344   2.885   5.907  19.989  0.1655 -0.0064  0.0251
 5050TIP3    H139345   2.845   5.822  19.970  0.9152 -0.1698 -0.9378
 5050TIP3    H239346   2.820   5.953  20.041 -0.3579 -1.0762  0.3553
 5051TIP3   OH239347   4.745   2.531  19.778 -0.2762  0.1994 -0.0311
 5051TIP3    H139348   4.727   2.442  19.749 -0.7086  0.1514  0.3698
 5051TIP3    H239349   4.791   2.571  19.705 -2.1974  0.3784 -1.2249
 5052TIP3   OH239350   6.166   2.189  18.828  0.1246 -0.1170  0.0236
 5052TIP3    H139351   6.142   2.157  18.915 -0.6870  2.0363  0.6348
 5052TIP3    H239352   6.098   2.251  18.805  1.7106  1.3406 -1.0038
 5053TIP3   OH239353   6.335   4.124  17.016 -0.3627  0.0173  0.5419
 5053TIP3    H139354   6.247   4.157  16.997 -0.6437 -0.3861  1.0988
 5053TIP3    H239355   6.356   4.161  17.102  0.9614  1.9680 -0.5716
 5054TIP3   OH239356   4.686   2.141  19.933  0.1162 -0.0604 -0.0983
 5054TIP3    H139357   4.595   2.112  19.921  0.3178 -0.5884 -0.4155
 5054TIP3    H239358   4.692   2.223  19.883 -0.0444 -0.3106 -0.5394
 5055TIP3   OH239359   1.114   3.257  18.208  0.7425  0.3115  0.6423
 5055TIP3    H139360   1.131   3.275  18.115 -1.2252  0.7415  0.3174
 5055TIP3    H239361   1.125   3.342  18.251 -0.5057  0.5951  0.4290
 5056TIP3   OH239362   3.281   5.383  18.226  0.4952 -0.1806 -0.5321
 5056TIP3    H139363   3.307   5.455  18.169  0.5400  0.1562 -0.0881
 5056TIP3    H239364   3.217   5.421  18.285 -0.2076 -0.7461 -0.9235
 5057TIP3   OH239365   3.606   4.747  17.816  0.1881  0.0224  0.0095
 5057TIP3    H139366   3.605   4.789  17.730 -2.8830 -2.2315 -1.2266
 5057TIP3    H239367   3.563   4.809  17.874 -1.3574 -0.0220 -1.0407
 5058TIP3   OH239368   2.357   0.312  20.455  0.4176 -0.6330  0.2724
 5058TIP3    H139369   2.409   0.275  20.526  0.6099 -0.7320  0.0830
 5058TIP3    H239370   2.384   0.262  20.377 -0.2400 -0.9451  0.2378
 5059TIP3   OH239371   2.480   3.408  18.134 -0.8671 -0.5455  0.1409
 5059TIP3    H139372   2.483   3.319  18.099 -0.1069 -0.7015  0.5699
 5059TIP3    H239373   2.389   3.422  18.159 -1.1755 -0.8579 -0.8036
 5060TIP3   OH239374   5.317   1.695  18.434  0.2645  0.0993  0.3387
 5060TIP3    H139375   5.289   1.709  18.524  1.0566  2.1150  0.3237
 5060TIP3    H239376   5.346   1.604  18.432 -0.3185 -0.1585  1.9528
 5061TIP3   OH239377   2.626   0.614  19.384 -0.1607 -0.2965 -0.0959
 5061TIP3    H139378   2.633   0.527  19.423  0.3675 -0.1331  0.1801
 5061TIP3    H239379   2.641   0.674  19.457 -0.2122  0.0215 -0.3487
 5062TIP3   OH239380   4.742   6.439  18.860  0.2141  0.3447 -0.6558
 5062TIP3    H139381   4.796   6.418  18.784  1.1719  1.7357 -0.3929
 5062TIP3    H239382   4.726   6.354  18.903  1.6591 -0.1672 -1.0967
 5063TIP3   OH239383   0.120   3.110  17.626  0.3460  0.0028 -0.8234
 5063TIP3    H139384   0.032   3.143  17.644  0.8187  1.1043 -0.4478
 5063TIP3    H239385   0.158   3.175  17.566  0.9361 -0.4093 -0.9055
 5064TIP3   OH239386   3.491   1.753  17.124 -0.3707 -0.4738  0.4550
 5064TIP3    H139387   3.507   1.741  17.031  3.1473 -0.8847  0.9387
 5064TIP3    H239388   3.523   1.672  17.164  1.5444  1.0257  2.1840
 5065TIP3   OH239389   0.093   2.213  19.421 -0.1106 -0.0079  0.2224
 5065TIP3    H139390   0.135   2.201  19.336 -0.4880 -0.9143  0.1549
 5065TIP3    H239391   0.095   2.126  19.461  2.8202  0.9325  2.4638
 5066TIP3   OH239392   2.059   1.654  19.310  1.0118  0.1785 -0.7574
 5066TIP3    H139393   2.031   1.581  19.365  0.7070  1.7365  1.2445
 5066TIP3    H239394   2.153   1.662  19.326  1.3352 -0.6259 -2.0842
 5067TIP3   OH239395   1.556   3.958  18.500  0.1100 -0.3334  0.6940
 5067TIP3    H139396   1.481   3.907  18.530 -0.4056 -0.2294 -0.3595
 5067TIP3    H239397   1.622   3.948  18.569 -0.2485 -1.8026  0.8560
 5068TIP3   OH239398   5.909   5.740  19.903  0.2907  0.8661  0.2637
 5068TIP3    H139399   5.998   5.734  19.868  0.3279  0.9985  0.3375
 5068TIP3    H239400   5.889   5.651  19.932  0.6770  0.9840  0.9207
 5069TIP3   OH239401   1.262   4.996  19.705  0.0894 -0.8228  0.6172
 5069TIP3    H139402   1.303   4.959  19.627 -0.8927 -1.0856  0.2053
 5069TIP3    H239403   1.310   4.958  19.778  2.1764  0.7610  0.1662
 5070TIP3   OH239404   6.075   6.574  17.671  0.3436 -0.5289 -0.0702
 5070TIP3    H139405   6.124   6.638  17.621 -1.4446  0.9170 -0.1102
 5070TIP3    H239406   6.004   6.547  17.612  0.5609 -1.8736  0.2682
 5071TIP3   OH239407   4.931   3.366  19.303 -0.7930  0.2790 -0.2938
 5071TIP3    H139408   4.897   3.444  19.346  0.2858 -0.1225  1.3686
 5071TIP3    H239409   5.002   3.336  19.360  0.9740 -0.0856 -2.5433
 5072TIP3   OH239410   1.536   1.615  18.872 -0.2115 -0.1430  0.3408
 5072TIP3    H139411   1.597   1.684  18.844 -0.6308  0.2419  0.3485
 5072TIP3    H239412   1.591   1.539  18.888  0.1123 -0.2158 -1.0105
 5073TIP3   OH239413   5.298   3.273  17.736  0.3834  0.0103  0.4426
 5073TIP3    H139414   5.372   3.284  17.677 -1.9349 -0.7351 -2.8910
 5073TIP3    H239415   5.317   3.193  17.784  0.1855 -2.4762 -3.2292
 5074TIP3   OH239416   0.967   2.748  16.873 -0.1975  0.4474  0.4015
 5074TIP3    H139417   0.947   2.788  16.789  2.1671 -0.2452 -0.5749
 5074TIP3    H239418   0.882   2.718  16.906 -0.9990 -1.8084 -3.1032
 5075TIP3   OH239419   3.556   1.829  17.927  0.2516  0.0692  0.3075
 5075TIP3    H139420   3.619   1.829  17.855  1.0421 -2.2184  0.8864
 5075TIP3    H239421   3.474   1.861  17.889  1.6427  2.9637 -0.5127
 5076TIP3   OH239422   5.253   3.723  17.788  0.8027 -0.2112  0.2578
 5076TIP3    H139423   5.219   3.811  17.771  0.1441 -0.6644 -0.7949
 5076TIP3    H239424   5.334   3.719  17.738  1.5659  0.2473  1.3860
 5077TIP3   OH239425   1.694   3.222  18.510  0.1718  0.3181 -0.3389
 5077TIP3    H139426   1.640   3.144  18.525 -0.1122  0.2256 -1.6842
 5077TIP3    H239427   1.751   3.227  18.586  1.0067 -1.8812 -0.7508
 5078TIP3   OH239428   0.956   1.703  19.700  0.1826 -0.1404 -0.2455
 5078TIP3    H139429   0.878   1.673  19.653  0.0318  0.2796 -0.2606
 5078TIP3    H239430   1.017   1.629  19.693  0.5369  0.2750 -1.9436
 5079TIP3   OH239431   0.794   5.097  19.381  0.8036 -0.0773 -0.4146
 5079TIP3    H139432   0.755   5.155  19.446 -0.2168 -0.2268 -0.8722
 5079TIP3    H239433   0.738   5.019  19.382  1.6276 -0.6771 -0.4440
 5080TIP3   OH239434   0.313   5.688  17.047 -0.4688 -0.1181 -0.5392
 5080TIP3    H139435   0.295   5.667  17.139 -0.4563 -1.7999 -0.9000
 5080TIP3    H239436   0.229   5.676  17.003 -0.0653 -1.1902 -1.0472
 5081TIP3   OH239437   3.398   2.911  18.677  0.1273 -0.0328  0.5215
 5081TIP3    H139438   3.476   2.860  18.697  1.2405  1.6653  0.7521
 5081TIP3    H239439   3.327   2.847  18.675  1.3329 -1.4627  1.4419
 5082TIP3   OH239440   1.114   4.346  19.927 -0.6298 -0.1491  0.1029
 5082TIP3    H139441   1.127   4.285  19.999  2.1210 -1.4503 -1.3578
 5082TIP3    H239442   1.033   4.317  19.884  0.5185 -2.7573 -0.4477
 5083TIP3   OH239443   1.530   3.950  19.958  0.2074 -0.1212 -0.1423
 5083TIP3    H139444   1.571   3.992  19.882 -0.3423 -0.1135 -0.4440
 5083TIP3    H239445   1.437   3.945  19.935  0.1743 -0.9734  0.1293
 5084TIP3   OH239446   2.161   5.131  19.338 -0.5811 -0.3877 -0.3948
 5084TIP3    H139447   2.175   5.046  19.380 -3.9924 -0.8324  0.1262
 5084TIP3    H239448   2.118   5.110  19.255  2.1872  0.7340 -2.3036
 5085TIP3   OH239449   1.443   0.075  18.573  0.1577  0.0309 -0.2108
 5085TIP3    H139450   1.511   0.043  18.631  0.8285  0.1940 -0.8932
 5085TIP3    H239451   1.467   0.042  18.487 -0.0697  0.9231 -0.6347
 5086TIP3   OH239452   5.876   0.239  19.103  0.8889  0.4027 -0.1145
 5086TIP3    H139453   5.950   0.296  19.082  0.2895  0.8887 -1.0368
 5086TIP3    H239454   5.856   0.257  19.195  1.8575  0.3218  0.1156
 5087TIP3   OH239455   1.048   5.037  17.582 -0.5121  0.1655  0.1723
 5087TIP3    H139456   1.050   5.127  17.617 -0.9550 -0.3075  1.4952
 5087TIP3    H239457   1.013   5.047  17.493  1.7949  1.5511 -0.6552
 5088TIP3   OH239458   0.414   4.368  17.771 -0.0214 -0.1344 -0.5988
 5088TIP3    H139459   0.404   4.314  17.693 -2.1429  0.0721 -0.5111
 5088TIP3    H239460   0.382   4.313  17.843  0.2448  0.3163 -0.1272
 5089TIP3   OH239461   6.032   5.640  17.639 -1.0063 -0.0124  0.3010
 5089TIP3    H139462   6.017   5.735  17.641  0.1821  0.1933  0.2609
 5089TIP3    H239463   6.049   5.616  17.730  0.8000  0.1980  0.0453
 5090TIP3   OH239464   1.687   3.661  17.796  0.3132  0.0778 -0.0202
 5090TIP3    H139465   1.638   3.736  17.763  0.3387  0.0021 -0.2315
 5090TIP3    H239466   1.649   3.644  17.882  1.0287  0.9975  0.4902
 5091TIP3   OH239467   5.241   3.952  19.051  0.1338 -0.2297 -0.2425
 5091TIP3    H139468   5.336   3.955  19.059  0.1771 -2.5346  0.8514
 5091TIP3    H239469   5.210   4.029  19.098  1.4214 -0.0835  0.4132
 5092TIP3   OH239470   5.239   6.231  18.880 -0.3598 -0.2585 -0.4565
 5092TIP3    H139471   5.260   6.268  18.794 -0.1384 -0.7191 -0.6048
 5092TIP3    H239472   5.259   6.302  18.942  0.9912 -0.4407 -0.6546
 5093TIP3   OH239473   3.488   2.469  19.854  0.1368  0.3364 -0.5454
 5093TIP3    H139474   3.428   2.528  19.808 -0.0192  0.0709 -0.6882
 5093TIP3    H239475   3.485   2.498  19.945 -1.0530 -0.3594 -0.3474
 5094TIP3   OH239476   3.808   3.120  20.097  0.3230 -0.4417  0.1383
 5094TIP3    H139477   3.740   3.167  20.050 -0.8379 -0.8409  1.3462
 5094TIP3    H239478   3.889   3.168  20.078 -0.4794  0.7401 -0.3900
 5095TIP3   OH239479   5.463   0.949  19.070  0.1863  0.0779  0.2935
 5095TIP3    H139480   5.428   1.037  19.060 -1.1742 -0.2469  1.8368
 5095TIP3    H239481   5.436   0.903  18.990  0.1369  0.8146 -0.1180
 5096TIP3   OH239482   2.479   5.418  20.160 -0.8583  0.3540 -0.2880
 5096TIP3    H139483   2.574   5.431  20.156 -0.4547 -1.7034  0.7239
 5096TIP3    H239484   2.442   5.485  20.103  1.3776 -0.5436 -3.0024
 5097TIP3   OH239485   5.309   6.432  19.752  0.0466  0.0857  0.0602
 5097TIP3    H139486   5.363   6.375  19.805  0.0505  0.6376  0.6715
 5097TIP3    H239487   5.369   6.500  19.720 -0.1373  0.2825  0.1279
 5098TIP3   OH239488   2.711   5.885  17.494 -0.0523  0.1132  0.2720
 5098TIP3    H139489   2.711   5.938  17.574 -0.2334  0.8342 -0.1944
 5098TIP3    H239490   2.745   5.800  17.521  1.0085  0.7159  0.8842
 5099TIP3   OH239491   1.235   5.629  17.531 -0.5008 -0.4775  0.4114
 5099TIP3    H139492   1.303   5.685  17.494 -0.0145 -1.4781 -0.2515
 5099TIP3    H239493   1.202   5.578  17.457 -0.7859 -1.2165  1.0217
 5100TIP3   OH239494   3.420   5.596  19.873  0.2202  0.9209 -0.0220
 5100TIP3    H139495   3.425   5.641  19.958  0.4149  0.2799  0.3115
 5100TIP3    H239496   3.465   5.513  19.888 -0.2417  0.5657 -0.6022
 5101TIP3   OH239497   1.600   6.220  18.868  0.2316 -0.0678  0.0206
 5101TIP3    H139498   1.543   6.202  18.943 -0.8638 -1.3024 -1.0463
 5101TIP3    H239499   1.675   6.161  18.880 -1.2010 -2.2714 -1.1361
 5102TIP3   OH239500   5.868   0.440  18.013  0.0383  0.3786  0.2225
 5102TIP3    H139501   5.926   0.515  18.004 -0.2695  0.4604 -1.4428
 5102TIP3    H239502   5.809   0.446  17.937  0.2930 -1.7646 -0.2181
 5103TIP3   OH239503   6.356   5.652  16.666 -0.1582  0.1699 -0.3157
 5103TIP3    H139504   6.338   5.562  16.695  1.7605  0.0515  0.6489
 5103TIP3    H239505   6.440   5.674  16.706 -0.2958  2.1983 -1.0256
 5104TIP3   OH239506   2.806   5.065  19.723 -0.0162 -0.5462  0.5400
 5104TIP3    H139507   2.870   5.095  19.659 -1.0337 -1.4325 -0.9581
 5104TIP3    H239508   2.824   5.117  19.801  1.8271 -0.0415 -0.1740
 5105TIP3   OH239509   1.852   2.307  18.962 -0.3259  0.4840  0.2608
 5105TIP3    H139510   1.794   2.231  18.966 -1.0470  0.9242 -1.1636
 5105TIP3    H239511   1.903   2.294  18.881 -1.4509  2.1759 -0.7706
 5106TIP3   OH239512   4.631   2.904  19.914  0.8993  0.4942  0.2346
 5106TIP3    H139513   4.580   2.869  19.988  1.5162  0.8210  0.8246
 5106TIP3    H239514   4.603   2.851  19.839  1.0210 -0.5386  0.8938
 5107TIP3   OH239515   4.625   0.447  19.660 -0.1390 -0.1529 -0.3725
 5107TIP3    H139516   4.579   0.407  19.734  2.3455  0.1991  1.4883
 5107TIP3    H239517   4.559   0.502  19.617 -1.5384  0.0970  1.9306
 5108TIP3   OH239518   0.171   1.232  18.905  0.3077  0.1248 -0.5627
 5108TIP3    H139519   0.262   1.255  18.890  0.6106 -1.0118 -0.5802
 5108TIP3    H239520   0.173   1.138  18.924 -0.6806  0.4154  1.1575
 5109TIP3   OH239521   1.897   1.879  19.931  0.1107 -0.1330 -0.4721
 5109TIP3    H139522   1.865   1.789  19.939 -0.2887  0.0182 -0.3645
 5109TIP3    H239523   1.904   1.893  19.837 -0.6231 -0.0003 -0.5135
 5110TIP3   OH239524   6.556   6.565  18.686 -0.8502  0.2421  0.4076
 5110TIP3    H139525   6.579   6.611  18.767 -2.5396 -0.3991  1.3017
 5110TIP3    H239526   6.640   6.529  18.655 -0.0056  1.3413  1.3124
 5111TIP3   OH239527   0.455   3.090  17.611  0.1267  0.5340  0.3730
 5111TIP3    H139528   0.401   3.164  17.585  0.6262  0.0878 -2.2812
 5111TIP3    H239529   0.542   3.127  17.627 -0.0321  0.7370  0.7691
 5112TIP3   OH239530   5.047   1.508  18.406 -0.4659  0.5092  0.2095
 5112TIP3    H139531   5.059   1.414  18.398  0.8420  0.6614  0.1896
 5112TIP3    H239532   5.126   1.539  18.451 -1.4298  1.4375  1.3575
 5113TIP3   OH239533   2.328   1.094  17.415  0.2349 -0.3272 -0.4253
 5113TIP3    H139534   2.360   1.006  17.395 -0.0486 -0.4430 -0.3747
 5113TIP3    H239535   2.344   1.105  17.508 -0.1588 -0.5079 -0.3322
 5114TIP3   OH239536   3.135   0.767  18.823 -0.2124 -0.3510 -0.0105
 5114TIP3    H139537   3.084   0.732  18.751  1.5825 -2.2420 -0.4501
 5114TIP3    H239538   3.077   0.760  18.899 -1.3241 -0.4792 -0.8534
 5115TIP3   OH239539   2.743   3.706  19.258  0.4068 -0.1657  0.3128
 5115TIP3    H139540   2.667   3.727  19.203  0.0878 -2.6023 -0.3352
 5115TIP3    H239541   2.706   3.680  19.342  0.5349 -0.8008  0.1822
 5116TIP3   OH239542   1.795   0.631  18.903 -0.0258 -0.0343  0.0228
 5116TIP3    H139543   1.788   0.548  18.951  0.4951  0.7909  1.6048
 5116TIP3    H239544   1.709   0.672  18.913  0.1930  0.2998  0.5946
 5117TIP3   OH239545   1.464   4.102  19.155 -0.4130 -0.3889 -0.0679
 5117TIP3    H139546   1.419   4.143  19.081  0.7480  1.0690 -0.0187
 5117TIP3    H239547   1.476   4.011  19.129 -1.0465 -0.1725 -1.1727
 5118TIP3   OH239548   5.359   5.260  19.579 -0.3366 -0.4800  0.1663
 5118TIP3    H139549   5.416   5.217  19.643  0.3229 -1.2945 -0.9234
 5118TIP3    H239550   5.369   5.354  19.597 -0.2684 -0.6915  1.3178
 5119TIP3   OH239551   2.104   2.536  18.355  0.5436 -0.4062  0.0481
 5119TIP3    H139552   2.068   2.572  18.436 -1.4252 -3.3050  0.5970
 5119TIP3    H239553   2.199   2.537  18.368  0.2745 -0.5616  2.2990
 5120TIP3   OH239554   6.652   2.084  17.783  0.0814  0.1695  0.2578
 5120TIP3    H139555   6.580   2.022  17.776 -0.7585  1.1166  0.2199
 5120TIP3    H239556   6.684   2.075  17.872  0.1891 -0.5537  0.1458
 5121TIP3   OH239557   6.468   2.903  19.375 -0.1897  0.2630  0.0728
 5121TIP3    H139558   6.515   2.821  19.357  0.0578  0.5817 -0.7353
 5121TIP3    H239559   6.448   2.898  19.469  0.4067 -0.4213  0.1749
 5122TIP3   OH239560   5.081   5.909  16.619  0.0784 -0.5802  0.6534
 5122TIP3    H139561   5.162   5.858  16.619 -0.9793 -2.4727 -1.8186
 5122TIP3    H239562   5.061   5.924  16.527 -1.4653  1.4521  1.2320
 5123TIP3   OH239563   4.033   0.107  18.132  0.0692  0.0689  0.5317
 5123TIP3    H139564   3.980   0.118  18.211  1.1123 -0.3890  1.3191
 5123TIP3    H239565   4.064   0.196  18.112  0.4518  0.0757  1.1160
 5124TIP3   OH239566   5.150   6.441  18.613  0.0123 -0.4261  0.1978
 5124TIP3    H139567   5.181   6.446  18.522  0.2714 -2.6860  0.0892
 5124TIP3    H239568   5.205   6.502  18.661 -1.3394  2.2370 -1.3967
 5125TIP3   OH239569   1.539   6.684  17.260  0.6179 -0.2425 -0.5070
 5125TIP3    H139570   1.484   6.657  17.186 -1.6993  0.2395  0.9078
 5125TIP3    H239571   1.579   6.766  17.232 -1.2552  0.6177 -0.8426
 5126TIP3   OH239572   3.313   4.090  18.076  0.3156 -0.2151  0.3224
 5126TIP3    H139573   3.219   4.076  18.071  0.3571 -0.2628 -0.7223
 5126TIP3    H239574   3.327   4.132  18.161 -0.6362 -0.2648  0.5158
 5127TIP3   OH239575   1.122   3.509  20.231 -0.9363 -0.2589 -0.3076
 5127TIP3    H139576   1.193   3.447  20.245 -0.4290  0.6909  1.6926
 5127TIP3    H239577   1.166   3.591  20.209 -1.4001  0.2947  0.7625
 5128TIP3   OH239578   0.158   4.264  18.313  0.3366 -0.3005  0.1697
 5128TIP3    H139579   0.168   4.311  18.396 -1.6705 -0.1081  0.3390
 5128TIP3    H239580   0.199   4.321  18.248  2.6827 -0.8254  1.0802
 5129TIP3   OH239581   1.208   2.251  19.855  0.3037  0.1742 -0.0544
 5129TIP3    H139582   1.279   2.224  19.914  0.5786  0.3194 -0.3168
 5129TIP3    H239583   1.242   2.236  19.767 -0.1238 -0.0856 -0.1812
 5130TIP3   OH239584   0.634   2.090  18.220 -0.0526  0.0302 -0.2851
 5130TIP3    H139585   0.669   2.114  18.134  1.7918 -0.2615  0.3308
 5130TIP3    H239586   0.704   2.114  18.281 -0.6225 -1.3451  0.9577
 5131TIP3   OH239587   5.469   4.990  17.593  0.4552 -0.6420  0.6893
 5131TIP3    H139588   5.525   5.019  17.665  0.2761 -1.1555  1.0394
 5131TIP3    H239589   5.486   5.053  17.523 -0.1729  0.4889  1.5360
 5132TIP3   OH239590   5.749   3.292  19.239 -1.2124  0.0783 -0.5108
 5132TIP3    H139591   5.821   3.302  19.302  0.3995 -2.3141 -1.8427
 5132TIP3    H239592   5.759   3.366  19.179  0.9737 -0.8620 -1.3868
 5133TIP3   OH239593   0.398   5.848  17.722 -0.0312 -0.2259 -0.4762
 5133TIP3    H139594   0.405   5.822  17.630 -0.2528 -3.1800  0.2581
 5133TIP3    H239595   0.320   5.803  17.753  1.7921 -1.9610  1.9284
 5134TIP3   OH239596   0.719   2.594  20.009 -0.1856  0.1654  0.4679
 5134TIP3    H139597   0.706   2.500  20.001  1.2849  0.0492 -0.9837
 5134TIP3    H239598   0.802   2.604  20.055  0.9127  0.6898 -1.5374
 5135TIP3   OH239599   3.399   2.040  20.527  0.5862  0.4219  0.1343
 5135TIP3    H139600   3.458   2.048  20.603  0.7102  1.5249 -0.0606
 5135TIP3    H239601   3.458   2.039  20.452  0.4009  0.6540 -0.0144
 5136TIP3   OH239602   1.577   1.102  19.133  0.2335  0.3191 -0.0977
 5136TIP3    H139603   1.507   1.048  19.171  0.9436 -1.6481 -1.4034
 5136TIP3    H239604   1.532   1.174  19.090 -1.1312 -1.4464 -1.7915
 5137TIP3   OH239605   1.429   0.164  19.420 -0.2073 -0.2433  0.5077
 5137TIP3    H139606   1.344   0.207  19.419  0.5304  1.2780 -0.6890
 5137TIP3    H239607   1.479   0.211  19.487  0.4522  0.5077 -0.4799
 5138TIP3   OH239608   4.048   0.045  16.866  0.6361 -0.1456 -0.0004
 5138TIP3    H139609   4.061   0.138  16.846  0.2893  0.3632  1.9216
 5138TIP3    H239610   3.959   0.040  16.902  0.7316 -1.1873  0.1240
 5139TIP3   OH239611   2.577   0.325  18.437  0.2074 -0.3912 -0.3713
 5139TIP3    H139612   2.492   0.327  18.393 -0.9485  0.4675  1.7642
 5139TIP3    H239613   2.626   0.396  18.396 -0.8574  0.4266 -0.2843
 5140TIP3   OH239614   0.119   0.003  19.973  0.3912  0.0266 -0.1429
 5140TIP3    H139615   0.213  -0.001  19.992  0.4674 -0.4718 -0.5865
 5140TIP3    H239616   0.114   0.013  19.878 -0.0059 -0.5575 -0.1898
 5141TIP3   OH239617   4.247   1.816  19.592  0.2544 -0.5609 -0.6727
 5141TIP3    H139618   4.196   1.737  19.574  0.3863 -0.3650 -2.0049
 5141TIP3    H239619   4.313   1.787  19.656 -2.3073 -0.4923  2.2740
 5142TIP3   OH239620   3.826   6.664  18.331 -0.1394 -0.3973  0.3274
 5142TIP3    H139621   3.763   6.637  18.398  0.7515 -1.7098  0.6615
 5142TIP3    H239622   3.906   6.684  18.379 -0.0488  0.5285 -0.1739
 5143TIP3   OH239623   3.037   2.512  18.815  0.0365 -0.1235  0.6186
 5143TIP3    H139624   3.079   2.572  18.754  0.8665 -1.9664 -0.7240
 5143TIP3    H239625   2.951   2.550  18.831  0.0623  0.7925 -1.1535
 5144TIP3   OH239626   0.545   4.610  17.683  0.0198  0.7548 -0.4090
 5144TIP3    H139627   0.592   4.528  17.703 -0.1320  0.7930  0.1396
 5144TIP3    H239628   0.453   4.588  17.697 -0.0206  1.0152 -0.2643
 5145TIP3   OH239629   3.116   4.248  19.258  0.1879  0.0268  0.2723
 5145TIP3    H139630   3.124   4.338  19.225 -0.2467  0.1501  0.4949
 5145TIP3    H239631   3.022   4.235  19.270  0.3752  0.5078  2.8666
 5146TIP3   OH239632   6.085   2.167  17.141  0.6844 -0.4556  0.3246
 5146TIP3    H139633   6.112   2.257  17.158 -1.0115  0.2696 -0.5343
 5146TIP3    H239634   6.103   2.153  17.049 -1.2229 -0.1120 -0.1568
 5147TIP3   OH239635   2.202   2.046  17.949  0.0215  0.5232 -0.8799
 5147TIP3    H139636   2.170   2.050  17.859  0.6783  2.4342 -1.0758
 5147TIP3    H239637   2.274   1.984  17.946 -1.4942 -1.3292 -1.1109
 5148TIP3   OH239638   1.903   5.413  17.533  0.5340  0.0256  0.3839
 5148TIP3    H139639   1.821   5.428  17.579  0.0975  0.0711 -0.3973
 5148TIP3    H239640   1.940   5.500  17.521  1.5242 -0.0873  2.1684
 5149TIP3   OH239641   0.394   0.010  17.779  0.6190  0.3376 -0.0278
 5149TIP3    H139642   0.381  -0.072  17.827  1.2341 -1.5186 -2.7759
 5149TIP3    H239643   0.477   0.044  17.812 -0.5258  0.8640  2.4369
 5150TIP3   OH239644   4.665   6.129  19.272 -0.1145  0.6516  0.7242
 5150TIP3    H139645   4.681   6.122  19.367  1.7642 -0.1480  0.3805
 5150TIP3    H239646   4.623   6.046  19.250  0.9864  0.1148  0.5924
 5151TIP3   OH239647   6.213   2.483  18.894 -0.0542 -0.7003 -0.1621
 5151TIP3    H139648   6.206   2.515  18.805 -0.0577 -0.5039 -0.0928
 5151TIP3    H239649   6.304   2.456  18.903 -0.0210 -0.5949 -0.1844
 5152TIP3   OH239650   2.718   2.977  20.174  0.0229 -0.1200 -0.3127
 5152TIP3    H139651   2.813   2.978  20.167  0.1295  0.6006  0.9429
 5152TIP3    H239652   2.687   2.986  20.084  1.1445  0.5594 -0.6490
 5153TIP3   OH239653   0.057   3.485  19.353  0.3455 -0.3754 -0.0747
 5153TIP3    H139654   0.053   3.429  19.275  1.3019 -0.3934 -0.1283
 5153TIP3    H239655   0.065   3.574  19.317 -0.7998 -0.2235  0.0124
 5154TIP3   OH239656   5.156   3.068  17.228  0.7845 -0.3385 -1.0958
 5154TIP3    H139657   5.162   3.017  17.147  2.1128  0.3663 -1.4819
 5154TIP3    H239658   5.235   3.123  17.227  1.4138 -1.0963  1.2164
 5155TIP3   OH239659   6.536   2.619  19.539 -0.1644  0.2480  0.5479
 5155TIP3    H139660   6.441   2.617  19.549 -0.1811  1.7994  0.9779
 5155TIP3    H239661   6.557   2.541  19.487 -1.5893 -0.4613  1.0003
 5156TIP3   OH239662   0.370   2.176  16.925  0.1839  0.1038 -0.4299
 5156TIP3    H139663   0.331   2.119  16.990  0.6217 -0.4186 -0.6209
 5156TIP3    H239664   0.408   2.117  16.860  2.9978  0.4981  0.7093
 5157TIP3   OH239665   4.706   6.161  18.694 -0.5467 -0.1688  0.0816
 5157TIP3    H139666   4.715   6.154  18.789 -0.5668  0.6842  0.1508
 5157TIP3    H239667   4.776   6.221  18.667  0.1026 -1.1833 -0.5685
 5158TIP3   OH239668   3.013   4.449  17.184 -1.1122  0.2166  0.8101
 5158TIP3    H139669   3.092   4.396  17.174 -1.5697 -0.6553  1.6120
 5158TIP3    H239670   2.961   4.429  17.107 -1.0833 -0.1639  0.8870
 5159TIP3   OH239671   2.440   3.238  20.200  0.1233  0.3476 -0.2900
 5159TIP3    H139672   2.504   3.283  20.145  0.5458  0.5398  0.3556
 5159TIP3    H239673   2.489   3.168  20.242  0.0439  0.8177  0.6200
 5160TIP3   OH239674   1.198   1.215  18.731  0.0326  0.5095  0.5233
 5160TIP3    H139675   1.263   1.243  18.667 -0.8646  1.5257  0.0279
 5160TIP3    H239676   1.116   1.256  18.702 -0.7427 -0.3908  1.3708
 5161TIP3   OH239677   0.195   1.706  17.677 -0.1301  0.2812 -0.7864
 5161TIP3    H139678   0.211   1.669  17.763  0.7178  1.4618 -0.4023
 5161TIP3    H239679   0.180   1.631  17.620 -1.0973 -0.4974  0.4496
 5162TIP3   OH239680   6.165   6.559  18.316 -0.7424 -0.3114 -0.1042
 5162TIP3    H139681   6.075   6.573  18.289 -1.3448 -0.4608  1.6857
 5162TIP3    H239682   6.210   6.640  18.293 -1.7749  0.5036  0.6582
 5163TIP3   OH239683   1.375   1.256  17.701  0.3640 -0.2745 -0.4839
 5163TIP3    H139684   1.335   1.169  17.712 -1.1626  0.3568 -0.8500
 5163TIP3    H239685   1.452   1.253  17.758 -2.0216 -0.3729  3.1184
 5164TIP3   OH239686   2.196   2.785  18.875  0.0616 -0.1918  0.1523
 5164TIP3    H139687   2.180   2.736  18.955 -1.3912 -0.1973 -0.1100
 5164TIP3    H239688   2.236   2.722  18.815 -0.9326 -0.8105  0.1295
 5165TIP3   OH239689   1.951   2.431  19.928  0.2021  0.3486 -0.2664
 5165TIP3    H139690   1.870   2.380  19.934 -0.9414  2.1242  0.1631
 5165TIP3    H239691   2.019   2.372  19.961 -0.5968 -1.7883 -2.2193
 5166TIP3   OH239692   2.683   4.806  19.730 -0.2177  0.1451  0.0736
 5166TIP3    H139693   2.753   4.870  19.722 -1.0168  0.9472 -0.7316
 5166TIP3    H239694   2.604   4.852  19.702 -0.8936 -1.0635 -0.1109
 5167TIP3   OH239695   2.794   1.422  19.473 -0.1888  0.2524 -0.7679
 5167TIP3    H139696   2.708   1.418  19.515 -0.5969  1.2835 -1.4677
 5167TIP3    H239697   2.776   1.418  19.379  0.3045  2.6729 -1.0438
 5168TIP3   OH239698   4.884   6.564  17.806 -0.4480  0.0322 -0.5155
 5168TIP3    H139699   4.803   6.549  17.757 -1.0013 -0.0833  0.3908
 5168TIP3    H239700   4.880   6.501  17.878 -0.0931  0.7515  0.1602
 5169TIP3   OH239701   5.118   6.503  19.024  0.2506  0.2725 -0.4365
 5169TIP3    H139702   5.071   6.419  19.032 -0.3786  0.6148 -0.4970
 5169TIP3    H239703   5.206   6.483  19.056  0.3891 -0.6492 -1.3276
 5170TIP3   OH239704   5.290   2.539  18.270 -0.5712  0.5709  0.4659
 5170TIP3    H139705   5.384   2.530  18.258 -0.7498  0.4834 -1.2190
 5170TIP3    H239706   5.269   2.626  18.235 -1.0552  0.8021  1.2984
 5171TIP3   OH239707   3.098   6.662  20.342  0.1110 -0.2150  0.2561
 5171TIP3    H139708   3.044   6.611  20.281 -1.8504  1.0187  0.8743
 5171TIP3    H239709   3.178   6.611  20.351 -0.4313 -1.5234 -1.6557
 5172TIP3   OH239710   4.751   5.846  19.721  0.1259  0.8385  0.0762
 5172TIP3    H139711   4.822   5.869  19.661  1.2455  0.9956  1.4183
 5172TIP3    H239712   4.754   5.913  19.789 -1.2011  0.7324  0.2658
 5173TIP3   OH239713   3.675   2.766  20.293 -0.4756 -0.1509 -0.2050
 5173TIP3    H139714   3.678   2.791  20.200 -2.5567 -1.7284 -0.7634
 5173TIP3    H239715   3.646   2.846  20.338 -0.2018  0.4128 -1.0024
 5174TIP3   OH239716   0.591   1.879  20.252 -0.3689 -0.7284 -0.2802
 5174TIP3    H139717   0.517   1.818  20.252 -0.7960 -0.2781  1.5104
 5174TIP3    H239718   0.550   1.965  20.260  0.3338 -0.4534  0.4567
 5175TIP3   OH239719   2.425   4.100  17.726 -0.2139 -0.4325  0.3183
 5175TIP3    H139720   2.397   4.046  17.652  0.9062 -0.0400 -0.4240
 5175TIP3    H239721   2.411   4.190  17.697  0.3802 -0.2707  0.5100
 5176TIP3   OH239722   1.404   1.833  17.891  0.3147  0.1802  0.4061
 5176TIP3    H139723   1.447   1.809  17.973 -0.4688  0.1362  0.8106
 5176TIP3    H239724   1.476   1.851  17.831  0.9174 -1.2527  0.6584
 5177TIP3   OH239725   6.669   6.265  17.538  0.0521  0.0541  0.2128
 5177TIP3    H139726   6.753   6.225  17.514 -0.3164 -0.1396 -0.8021
 5177TIP3    H239727   6.605   6.222  17.481 -0.9812 -0.8691  2.0020
 5178TIP3   OH239728   1.413   5.470  19.377 -0.2954  0.5282  0.1655
 5178TIP3    H139729   1.424   5.376  19.394  0.1879  0.8002  1.4897
 5178TIP3    H239730   1.338   5.495  19.431  0.1632  1.0767  0.5590
 5179TIP3   OH239731   1.899   0.888  19.605 -0.2606 -0.2872  0.2254
 5179TIP3    H139732   1.863   0.964  19.650 -0.0742 -1.0371  1.7068
 5179TIP3    H239733   1.824   0.852  19.557 -0.7259 -0.0137  0.7219
 5180TIP3   OH239734   6.408   5.760  16.997 -0.3716  0.2190 -0.0676
 5180TIP3    H139735   6.390   5.674  16.959  2.2927 -0.0877 -0.8574
 5180TIP3    H239736   6.456   5.741  17.078 -1.8426  0.9709  1.0297
 5181TIP3   OH239737   0.376   6.126  18.031  0.1247  0.0961 -0.3043
 5181TIP3    H139738   0.451   6.175  18.066 -0.1908  0.5236 -0.2131
 5181TIP3    H239739   0.397   6.034  18.049  0.9192  0.1626 -0.8536
 5182TIP3   OH239740   5.737   0.702  18.647  0.0402 -0.1296 -0.1609
 5182TIP3    H139741   5.709   0.648  18.721 -0.2984 -0.8152 -0.7845
 5182TIP3    H239742   5.827   0.673  18.630  0.9709  1.5751  1.3796
 5183TIP3   OH239743   5.704   2.055  20.443 -0.1963  0.5919  0.5459
 5183TIP3    H139744   5.765   2.085  20.510 -0.0049  0.3665  0.4706
 5183TIP3    H239745   5.758   2.038  20.367 -0.2259 -0.5198  0.7648
 5184TIP3   OH239746   2.209   0.658  19.336 -0.0836  0.2684  0.4364
 5184TIP3    H139747   2.160   0.577  19.346 -0.5415  0.6239  1.0778
 5184TIP3    H239748   2.216   0.693  19.424  0.5703  0.6652  0.2318
 5185TIP3   OH239749   2.796   4.225  17.090  0.1488  0.0066  0.4132
 5185TIP3    H139750   2.802   4.229  16.994  0.0854 -0.2144  0.3995
 5185TIP3    H239751   2.717   4.275  17.111 -0.7005 -1.2257  0.2313
 5186TIP3   OH239752   5.393   6.413  19.061  0.2951  1.0841  0.3644
 5186TIP3    H139753   5.484   6.419  19.031  0.3022  1.4917  0.4616
 5186TIP3    H239754   5.393   6.454  19.147  0.8183 -2.3815  2.2226
 5187TIP3   OH239755   2.587   1.121  18.742 -0.3589  0.2326 -0.8757
 5187TIP3    H139756   2.523   1.184  18.778 -0.3373 -0.9707  1.4803
 5187TIP3    H239757   2.535   1.065  18.684 -1.3573 -0.3160  0.4910
 5188TIP3   OH239758   0.303   1.556  17.291 -0.4025 -0.3989 -0.3899
 5188TIP3    H139759   0.324   1.504  17.213 -2.0136 -1.2378 -0.3077
 5188TIP3    H239760   0.242   1.623  17.259 -0.1146  0.0182 -0.0680
 5189TIP3   OH239761   0.540   1.214  19.131  0.0105  0.2949  0.3422
 5189TIP3    H139762   0.560   1.267  19.053 -0.4930 -1.5738 -1.1171
 5189TIP3    H239763   0.621   1.216  19.182  0.5022  1.2127 -0.4289
 5190TIP3   OH239764   1.336   3.074  17.909  0.1652 -0.1526 -0.8561
 5190TIP3    H139765   1.296   2.992  17.880 -1.9059  0.9684 -1.3523
 5190TIP3    H239766   1.381   3.107  17.832 -1.1682  0.3945 -1.4324
 5191TIP3   OH239767   3.986   0.037  18.941  0.3146  0.1306  0.0530
 5191TIP3    H139768   4.075   0.071  18.953 -0.6101  2.4073  1.2327
 5191TIP3    H239769   3.936   0.075  19.014 -1.2220 -2.7484  0.6304
 5192TIP3   OH239770   0.990   2.410  18.893  0.7290  0.3883 -0.0293
 5192TIP3    H139771   0.920   2.410  18.828  0.5820 -0.5947  0.1069
 5192TIP3    H239772   1.065   2.448  18.847  0.6214 -0.2576 -0.7770
 5193TIP3   OH239773   2.753   3.122  18.548 -0.0189 -0.5176 -0.2786
 5193TIP3    H139774   2.823   3.057  18.540 -0.3855 -0.8492 -0.8175
 5193TIP3    H239775   2.676   3.072  18.574 -0.4518 -0.3964 -1.2783
 5194TIP3   OH239776   1.862   5.054  19.842 -0.0249 -0.0177  0.1912
 5194TIP3    H139777   1.935   5.054  19.903  0.4003  0.8020 -0.2976
 5194TIP3    H239778   1.896   5.097  19.763 -1.2476  1.0674  0.2185
 5195TIP3   OH239779   1.837   4.744  18.387  0.1872  0.1494  0.1940
 5195TIP3    H139780   1.905   4.740  18.454 -0.0116  0.2978  0.4064
 5195TIP3    H239781   1.758   4.766  18.435  0.3337  1.8174 -0.2658
 5196TIP3   OH239782   2.961   3.364  19.843  0.3081 -0.0944  0.3296
 5196TIP3    H139783   2.875   3.332  19.818  0.2235  0.1392  0.3142
 5196TIP3    H239784   2.979   3.436  19.782  0.6088 -0.2820  0.1942
 5197TIP3   OH239785   5.111   4.857  17.974  0.2877 -0.0307  0.0666
 5197TIP3    H139786   5.066   4.912  17.910 -0.3234  0.5351  0.9557
 5197TIP3    H239787   5.057   4.864  18.053  0.4396 -1.5533  0.3415
 5198TIP3   OH239788   1.121   4.249  16.817 -0.0159  0.5918  0.5180
 5198TIP3    H139789   1.165   4.296  16.888 -1.8844  0.9306  1.5136
 5198TIP3    H239790   1.044   4.303  16.797 -1.8603 -1.6309  1.2054
 5199TIP3   OH239791   6.549   1.651  20.237 -0.5234  0.4566  0.5804
 5199TIP3    H139792   6.481   1.604  20.189  0.7808  0.7802 -1.7723
 5199TIP3    H239793   6.610   1.583  20.264 -0.7855  0.3693  0.9567
 5200TIP3   OH239794   2.688   5.859  17.940  0.2031  0.4454  0.0841
 5200TIP3    H139795   2.613   5.891  17.989  0.1738  0.0393  0.3147
 5200TIP3    H239796   2.697   5.767  17.968 -0.7629 -0.2820 -1.8166
 5201TIP3   OH239797   0.944   5.943  17.378  0.0068 -0.2505  0.0674
 5201TIP3    H139798   0.997   6.018  17.352 -0.9446  0.5326  0.3244
 5201TIP3    H239799   0.973   5.871  17.321  0.2759  0.5546 -0.8323
 5202TIP3   OH239800   4.863   3.915  18.895 -0.7830  0.3076 -0.1536
 5202TIP3    H139801   4.861   3.919  18.990  0.4728  0.9163 -0.1395
 5202TIP3    H239802   4.827   3.828  18.874 -1.3825  0.3038  0.8428
 5203TIP3   OH239803   1.989   0.815  18.786 -0.1960  0.2731  0.4230
 5203TIP3    H139804   1.916   0.753  18.783 -1.0324  1.1897  1.2702
 5203TIP3    H239805   1.975   0.866  18.865  0.5198  1.4957 -0.1997
 5204TIP3   OH239806   0.998   2.840  18.061 -0.2891  0.5237  0.3074
 5204TIP3    H139807   1.005   2.788  17.981  0.7507  4.7413 -2.7012
 5204TIP3    H239808   0.905   2.857  18.071 -0.3399  0.9910 -0.8191
 5205TIP3   OH239809   2.753   2.414  19.694 -1.1227 -0.5223 -0.3399
 5205TIP3    H139810   2.754   2.378  19.783 -0.2274 -0.4552 -0.3180
 5205TIP3    H239811   2.735   2.338  19.638  1.0360 -1.0962 -0.3189
 5206TIP3   OH239812   0.077   0.883  18.642 -0.0179  0.0038  0.3975
 5206TIP3    H139813   0.141   0.854  18.708 -0.8381  0.2502  1.3158
 5206TIP3    H239814   0.131   0.912  18.568  0.9094 -0.5493  0.8369
 5207TIP3   OH239815   1.412   2.000  19.928 -0.7452  0.6918 -0.5018
 5207TIP3    H139816   1.443   2.040  20.009 -0.0060 -0.6460 -0.0880
 5207TIP3    H239817   1.491   1.965  19.887 -0.8942  2.4870 -2.5055
 5208TIP3   OH239818   3.421   1.496  19.818 -0.0511 -0.4860  0.6494
 5208TIP3    H139819   3.405   1.405  19.794 -0.9386 -0.4399  1.0274
 5208TIP3    H239820   3.335   1.531  19.839 -0.2246  1.3795 -2.5549
 5209TIP3   OH239821   4.369   0.786  17.990 -0.3911  0.4617 -0.4958
 5209TIP3    H139822   4.332   0.825  17.911  1.5429  0.4373 -1.4681
 5209TIP3    H239823   4.452   0.831  18.003 -0.7896  0.6734  1.7359
 5210TIP3   OH239824   5.595   4.075  17.299 -0.5750 -0.0467  0.0412
 5210TIP3    H139825   5.664   4.141  17.294  0.9944 -1.6044  0.4603
 5210TIP3    H239826   5.607   4.033  17.384 -0.8639 -1.5789 -0.6396
 5211TIP3   OH239827   4.275   0.299  19.374  0.0054 -0.2016 -0.4272
 5211TIP3    H139828   4.246   0.231  19.312  1.1524  0.2024 -1.4528
 5211TIP3    H239829   4.211   0.369  19.364 -1.5275 -1.2979  1.0553
 5212TIP3   OH239830   1.202   1.865  17.149  0.2734 -0.1636 -0.0640
 5212TIP3    H139831   1.198   1.958  17.169 -0.7857  0.2819 -2.0669
 5212TIP3    H239832   1.255   1.827  17.219  0.7868  1.9395  0.7477
 5213TIP3   OH239833   1.263   4.016  16.906  0.1967  0.0726  0.0364
 5213TIP3    H139834   1.204   4.015  16.981  1.2880 -0.2824  0.9030
 5213TIP3    H239835   1.232   4.089  16.852  1.1728  2.2643  2.2690
 5214TIP3   OH239836   1.132   4.311  18.160 -0.1234 -0.0877 -0.2515
 5214TIP3    H139837   1.101   4.222  18.181  0.9181 -0.6145 -0.8830
 5214TIP3    H239838   1.135   4.356  18.244 -2.0271 -0.1877 -0.0867
 5215TIP3   OH239839   0.360   0.135  17.124  0.1320 -0.1017  0.2474
 5215TIP3    H139840   0.271   0.117  17.091  0.2610 -0.5332  0.1179
 5215TIP3    H239841   0.396   0.199  17.062 -0.3285  0.6001  0.6962
 5216TIP3   OH239842   5.057   5.329  19.652  0.1669 -0.0111 -0.3599
 5216TIP3    H139843   5.107   5.319  19.733 -0.7133 -1.3727  0.0461
 5216TIP3    H239844   5.102   5.273  19.589  0.3363  0.3627 -0.5762
 5217TIP3   OH239845   3.087   3.112  16.802 -0.6548  0.4058  0.1480
 5217TIP3    H139846   2.996   3.087  16.816 -0.5746 -0.1047 -0.2306
 5217TIP3    H239847   3.092   3.134  16.709 -0.5167  0.9821  0.2869
 5218TIP3   OH239848   1.827   5.274  19.115 -0.0294 -0.1473 -0.0348
 5218TIP3    H139849   1.756   5.297  19.054  0.3588  2.2549  0.3291
 5218TIP3    H239850   1.782   5.239  19.192 -0.5764 -2.1346 -1.1664
 5219TIP3   OH239851   1.085   4.125  18.704 -0.2925  0.1299 -0.0880
 5219TIP3    H139852   1.133   4.078  18.773  0.3730 -0.4536 -0.9180
 5219TIP3    H239853   1.111   4.081  18.623 -2.5359 -0.4413 -0.5625
 5220TIP3   OH239854   2.824   5.835  18.668  0.4754  0.4596  0.1123
 5220TIP3    H139855   2.913   5.854  18.639  0.4632  1.8554  0.9151
 5220TIP3    H239856   2.809   5.893  18.742 -0.7142 -0.5703  0.7349
 5221TIP3   OH239857   4.967   5.031  19.589  0.1877 -0.2175  0.3558
 5221TIP3    H139858   5.024   5.076  19.526  0.4206 -1.9695 -0.7276
 5221TIP3    H239859   5.026   5.004  19.659  0.3677 -0.4358  0.1218
 5222TIP3   OH239860   4.268   1.652  18.214 -0.1690  0.2187  0.1585
 5222TIP3    H139861   4.338   1.587  18.221 -0.1041  0.2072 -0.4988
 5222TIP3    H239862   4.199   1.608  18.165  0.2794  0.9482 -1.1867
 5223TIP3   OH239863   4.009   1.813  18.057  0.3819 -0.1072 -0.4950
 5223TIP3    H139864   4.095   1.844  18.083 -0.4530  1.8520  0.1358
 5223TIP3    H239865   3.959   1.893  18.039 -1.6348 -1.1199  0.2745
 5224TIP3   OH239866   0.565   5.931  19.568  0.4149  0.1073 -0.3513
 5224TIP3    H139867   0.490   5.886  19.606 -0.0545 -0.2793 -1.6755
 5224TIP3    H239868   0.567   6.017  19.612  0.1123 -0.4310  0.7450
 5225TIP3   OH239869   2.921   0.205  17.683 -0.2221 -0.0247  0.2680
 5225TIP3    H139870   2.865   0.268  17.639  0.4065 -0.6323 -1.5158
 5225TIP3    H239871   3.002   0.206  17.632 -0.0528 -1.9398  0.4319
 5226TIP3   OH239872   3.956   4.194  18.333 -0.6029  0.3016 -0.0834
 5226TIP3    H139873   3.964   4.256  18.406 -0.5882 -0.2114  0.3583
 5226TIP3    H239874   3.972   4.108  18.373 -1.4157 -0.0694 -0.5294
 5227TIP3   OH239875   1.422   1.915  19.561  0.4390  0.2561  0.3951
 5227TIP3    H139876   1.339   1.871  19.543  0.4450  0.2932  0.2817
 5227TIP3    H239877   1.466   1.858  19.623 -0.8014  1.4763  2.5423
 5228TIP3   OH239878   2.469   3.630  18.894  0.3854  0.4776 -0.2873
 5228TIP3    H139879   2.537   3.696  18.900 -0.2487  0.9937  2.4737
 5228TIP3    H239880   2.492   3.565  18.960 -0.8710 -0.2332 -0.5071
 5229TIP3   OH239881   3.323   3.711  19.609 -0.3528 -0.8695  0.5495
 5229TIP3    H139882   3.316   3.616  19.597  0.4544 -0.8358 -0.3104
 5229TIP3    H239883   3.322   3.723  19.704 -1.7920 -1.6141  0.6481
 5230TIP3   OH239884   4.846   3.921  19.172 -0.5192 -0.1416 -0.3019
 5230TIP3    H139885   4.788   3.885  19.238  0.2870 -0.5468  0.2070
 5230TIP3    H239886   4.879   4.002  19.211 -0.6575  0.0335 -0.5457
 5231TIP3   OH239887   2.136   1.942  17.191  0.5483  0.5084 -0.5724
 5231TIP3    H139888   2.149   1.975  17.102  0.7245 -1.9027 -1.5184
 5231TIP3    H239889   2.075   1.869  17.180 -1.4008  1.6790  1.6690
 5232TIP3   OH239890   5.305   1.304  17.279 -0.4791 -0.2102  0.0713
 5232TIP3    H139891   5.254   1.223  17.284 -0.4338 -0.1838  1.1232
 5232TIP3    H239892   5.328   1.311  17.186  0.5061 -2.0341  0.1224
 5233TIP3   OH239893   2.505   1.931  18.942 -0.4444 -0.6093  0.0759
 5233TIP3    H139894   2.593   1.953  18.974 -0.4173 -0.0936 -0.3530
 5233TIP3    H239895   2.459   1.900  19.020  0.4142 -1.8374  0.1353
 5234TIP3   OH239896   1.256   4.512  19.361  0.2465  0.4332  0.1878
 5234TIP3    H139897   1.317   4.569  19.314 -1.4296  2.5886  0.4934
 5234TIP3    H239898   1.186   4.495  19.298  0.5184 -1.0490  0.2310
 5235TIP3   OH239899   1.086   1.091  17.062 -0.3867  0.4781 -0.3040
 5235TIP3    H139900   1.051   1.136  16.985 -0.7775  0.6425 -0.0350
 5235TIP3    H239901   1.054   1.002  17.054  2.1108 -0.3730 -1.9477
 5236TIP3   OH239902   3.919   6.095  18.586 -0.4085 -0.5208  0.5413
 5236TIP3    H139903   3.946   6.007  18.559  0.0723 -0.4066  0.6501
 5236TIP3    H239904   3.877   6.131  18.508  0.9505 -0.2051 -0.0772
 5237TIP3   OH239905   3.054   2.311  17.801  0.2299  0.5419  0.4200
 5237TIP3    H139906   2.983   2.310  17.738  1.5850  3.1548 -1.2969
 5237TIP3    H239907   3.090   2.222  17.798 -0.7247  0.1830 -1.3051
 5238TIP3   OH239908   5.504   3.290  19.843 -0.2409 -0.3895  0.0351
 5238TIP3    H139909   5.598   3.304  19.856  0.0021 -1.7657 -0.0570
 5238TIP3    H239910   5.497   3.252  19.756 -1.0751  1.3160 -0.6702
 5239TIP3   OH239911   1.458   6.646  18.312 -0.4847  0.0141 -0.3406
 5239TIP3    H139912   1.413   6.564  18.291  0.0427 -0.7179  1.2237
 5239TIP3    H239913   1.548   6.632  18.283 -0.8587  0.9029 -2.0679
 5240TIP3   OH239914   1.452   0.868  17.906  0.0539 -0.1746  0.3968
 5240TIP3    H139915   1.461   0.817  17.986  0.4182  1.7724  1.6709
 5240TIP3    H239916   1.540   0.866  17.866  0.0750 -0.4940  0.4594
 5241TIP3   OH239917   5.961   1.997  20.344 -0.6386  0.0268 -0.4750
 5241TIP3    H139918   5.964   1.976  20.251  0.3973  1.0535 -0.7022
 5241TIP3    H239919   6.008   1.926  20.387 -1.3234 -0.5717 -0.6935
 5242TIP3   OH239920   3.441   1.198  17.402  0.0081 -0.2434 -1.0123
 5242TIP3    H139921   3.350   1.169  17.394 -1.0295  2.2216  0.7470
 5242TIP3    H239922   3.452   1.262  17.331  0.1840 -0.1599 -0.9111
 5243TIP3   OH239923   2.334   3.664  17.865  0.1238 -0.1887  0.1879
 5243TIP3    H139924   2.355   3.733  17.803 -0.1420  0.3513  0.6813
 5243TIP3    H239925   2.258   3.698  17.914 -0.4051 -1.0911  0.0230
 5244TIP3   OH239926   1.145   1.107  19.211 -0.1822  0.0650  0.3304
 5244TIP3    H139927   1.177   1.181  19.263  0.7034 -0.4276  0.5132
 5244TIP3    H239928   1.106   1.048  19.276  0.8989 -0.5374  0.4460
 5245TIP3   OH239929   3.114   3.208  18.440  0.3476  0.5541 -0.6501
 5245TIP3    H139930   3.078   3.133  18.392  0.5291 -0.3442  0.5917
 5245TIP3    H239931   3.199   3.224  18.399  0.3289  0.0536 -0.8908
 5246TIP3   OH239932   5.958   0.444  19.291 -0.0447 -0.4678 -0.4775
 5246TIP3    H139933   5.966   0.512  19.224 -0.6960 -0.6919 -0.7911
 5246TIP3    H239934   5.911   0.486  19.363 -1.8017 -0.9901 -1.2788
 5247TIP3   OH239935   5.922   2.251  17.831 -0.4739 -0.5424  0.4961
 5247TIP3    H139936   5.991   2.209  17.883  0.0435  0.4879  0.6721
 5247TIP3    H239937   5.939   2.345  17.840 -2.2267 -0.2329  0.9967
 5248TIP3   OH239938   3.753   1.516  17.642  0.4408 -0.0714 -0.8304
 5248TIP3    H139939   3.720   1.569  17.715  0.1256 -0.1545 -0.9126
 5248TIP3    H239940   3.675   1.474  17.605  0.7682 -1.1416 -0.3339
 5249TIP3   OH239941   4.379   4.819  18.008 -0.2276 -0.2834 -0.1062
 5249TIP3    H139942   4.429   4.900  18.018 -1.2393  0.2016  1.2276
 5249TIP3    H239943   4.412   4.762  18.077 -0.5020 -0.4974 -0.1524
 5250TIP3   OH239944   1.699   1.614  17.989  0.2129  0.1029 -0.3232
 5250TIP3    H139945   1.619   1.583  17.947  0.4551 -0.2378 -0.5388
 5250TIP3    H239946   1.671   1.686  18.045 -0.3301 -0.3567  0.0095
 5251TIP3   OH239947   1.857   3.659  19.221 -0.4502  0.0589  0.2545
 5251TIP3    H139948   1.879   3.595  19.153  2.2403  1.0702  0.0306
 5251TIP3    H239949   1.920   3.731  19.207 -1.1521  1.2131  2.5535
 5252TIP3   OH239950   5.248   3.844  16.966 -0.0215 -0.0899  0.4009
 5252TIP3    H139951   5.172   3.857  17.023 -0.7872  1.2031 -0.8559
 5252TIP3    H239952   5.317   3.899  17.006 -1.0732  2.2547 -0.7950
 5253TIP3   OH239953   5.960   6.424  16.837 -0.3029 -0.0255  0.0763
 5253TIP3    H139954   6.038   6.476  16.818  1.0531 -2.0792 -0.2700
 5253TIP3    H239955   5.888   6.471  16.794  0.8982  1.3776 -0.4635
 5254TIP3   OH239956   0.690   3.109  18.383 -0.4165  0.0503  0.0300
 5254TIP3    H139957   0.719   3.134  18.295  2.1759 -2.1352  0.1000
 5254TIP3    H239958   0.740   3.166  18.441 -0.6768  0.2005  0.1066
 5255TIP3   OH239959   6.662   4.150  18.087 -0.2967 -0.0748  0.1922
 5255TIP3    H139960   6.623   4.193  18.163  0.8628 -0.5597  1.0936
 5255TIP3    H239961   6.707   4.220  18.040  1.6830 -0.2509  1.7128
 5256TIP3   OH239962   5.859   4.423  18.027  0.3649 -0.4213 -0.2923
 5256TIP3    H139963   5.791   4.441  18.093  0.4162  3.3737 -1.0036
 5256TIP3    H239964   5.869   4.506  17.981  2.5779 -2.0413 -3.0303
 5257TIP3   OH239965   5.242   6.565  17.897 -0.2784 -0.4215  0.3391
 5257TIP3    H139966   5.203   6.497  17.952 -1.3204  0.2097  0.4047
 5257TIP3    H239967   5.334   6.540  17.891 -0.5438 -1.5887  0.7331
 5258TIP3   OH239968   1.035   4.015  17.996 -0.1052 -0.3794 -0.2808
 5258TIP3    H139969   1.024   4.006  18.090 -0.1765  0.5379 -0.1902
 5258TIP3    H239970   1.004   4.103  17.976 -0.7565 -0.8139 -1.2689
 5259TIP3   OH239971   4.677   6.529  19.370  0.3376 -0.2858  0.5753
 5259TIP3    H139972   4.596   6.483  19.391  0.9039 -0.7860  1.7741
 5259TIP3    H239973   4.728   6.465  19.320  0.1225 -0.0680  0.0667
 5260TIP3   OH239974   6.388   6.363  19.183 -0.5384  0.0802 -0.5959
 5260TIP3    H139975   6.457   6.298  19.171 -0.3683 -0.5346  2.6928
 5260TIP3    H239976   6.370   6.396  19.095  3.5461 -0.0987 -1.6966
 5261TIP3   OH239977   1.455   2.098  17.176  0.2048  0.2812 -0.1518
 5261TIP3    H139978   1.467   2.029  17.241 -0.3046  0.4564  0.1378
 5261TIP3    H239979   1.479   2.057  17.092 -2.1614 -0.9627 -0.3199
 5262TIP3   OH239980   1.163   1.791  19.542 -0.2973  0.3142  0.2159
 5262TIP3    H139981   1.095   1.779  19.608 -0.8122 -0.9683 -0.5185
 5262TIP3    H239982   1.189   1.702  19.518  0.1557  0.7626 -1.0265
 5263TIP3   OH239983   4.926   4.879  19.335 -0.0780  0.5762  0.4839
 5263TIP3    H139984   4.974   4.904  19.257 -0.2168 -0.3981  0.0633
 5263TIP3    H239985   4.953   4.941  19.402  0.8359  0.7814 -0.0670
 5264TIP3   OH239986   2.414   3.906  17.000  0.5837  0.1232 -0.3918
 5264TIP3    H139987   2.506   3.919  17.024  0.1719 -0.0622  1.4672
 5264TIP3    H239988   2.411   3.817  16.965  0.7065 -1.0870  2.3516
 5265TIP3   OH239989   5.150   4.313  17.948  0.0848  0.2727 -0.0288
 5265TIP3    H139990   5.106   4.230  17.966  0.0529  0.4809  0.8957
 5265TIP3    H239991   5.212   4.324  18.020  1.8497 -0.1215 -1.4072
 5266TIP3   OH239992   1.799   2.054  20.146 -0.5031  0.1291 -0.0086
 5266TIP3    H139993   1.828   1.982  20.091 -0.8405 -2.3006  2.7385
 5266TIP3    H239994   1.855   2.051  20.223 -0.2783  3.1300  0.0846
 5267TIP3   OH239995   6.410   1.000  17.455 -0.1521  0.4250 -0.2639
 5267TIP3    H139996   6.502   0.974  17.450  0.2652  1.4110  1.4108
 5267TIP3    H239997   6.384   1.014  17.364  1.0550 -0.8382 -0.8315
 5268TIP3   OH239998   3.619   0.316  16.816  0.6969 -0.4301 -0.5109
 5268TIP3    H139999   3.655   0.266  16.743  1.3674  0.6148 -0.9167
 5268TIP3    H240000   3.667   0.286  16.892  1.4249 -0.0857 -0.8244
 5269TIP3   OH240001   4.688   2.044  19.551  0.2986 -0.4700  0.3162
 5269TIP3    H140002   4.597   2.055  19.524  0.0840  0.8869  1.5006
 5269TIP3    H240003   4.685   1.971  19.613 -0.2152  0.4050  1.3454
 5270TIP3   OH240004   0.269   5.853  19.956  0.6508 -0.4509  0.0445
 5270TIP3    H140005   0.341   5.831  20.013  1.1147  0.3504 -0.2138
 5270TIP3    H240006   0.198   5.794  19.982  0.6218  0.3255  1.8948
 5271TIP3   OH240007   0.982   1.520  18.457  0.1268 -0.1494 -0.0369
 5271TIP3    H140008   1.005   1.453  18.393  1.0566 -1.4696  1.6069
 5271TIP3    H240009   1.032   1.597  18.431 -0.8846 -0.0548 -1.8983
 5272TIP3   OH240010   4.934   5.474  18.646 -0.0313 -0.4023  0.4906
 5272TIP3    H140011   4.869   5.529  18.605  1.7870  0.7076 -1.0632
 5272TIP3    H240012   4.950   5.403  18.584  0.5537 -0.4151  0.6421
 5273TIP3   OH240013   1.193   1.521  19.708 -0.0387  0.1356 -0.2640
 5273TIP3    H140014   1.179   1.428  19.688 -0.7219  0.0056  0.7548
 5273TIP3    H240015   1.234   1.522  19.794  1.6393  0.7403 -1.0278
 5274TIP3   OH240016   0.998   0.394  16.227 -0.0012  0.4055 -0.2911
 5274TIP3    H140017   0.985   0.323  16.290  2.5920  1.2547  1.3835
 5274TIP3    H240018   1.081   0.373  16.184 -0.5324  1.0942 -1.7202
 5275TIP3   OH240019   6.415   1.796  19.583  0.1132 -0.1550  0.8172
 5275TIP3    H140020   6.468   1.841  19.649 -0.0068  1.2797 -0.0278
 5275TIP3    H240021   6.473   1.789  19.507 -0.6037  0.6281  0.1826
 5276TIP3   OH240022   5.999   0.580  18.872 -0.0301 -0.0112 -0.6381
 5276TIP3    H140023   5.983   0.641  18.800  1.3623  1.9469  0.6080
 5276TIP3    H240024   5.996   0.634  18.950  2.5634 -1.2430  0.4309
 5277TIP3   OH240025   3.106   5.808  18.663 -0.1943 -0.6698 -0.1470
 5277TIP3    H140026   3.113   5.719  18.698  0.8566 -0.2265  0.8281
 5277TIP3    H240027   3.181   5.816  18.603 -0.6021 -0.6146 -0.6568
 5278TIP3   OH240028   0.797   5.358  17.817 -0.0775 -0.0167  0.3157
 5278TIP3    H140029   0.815   5.397  17.903 -1.3686 -0.5952  0.8698
 5278TIP3    H240030   0.883   5.346  17.778  0.4999  0.8718  1.2460
 5279TIP3   OH240031   6.211   6.612  16.738  0.2178  0.0872  0.7975
 5279TIP3    H140032   6.144   6.681  16.737 -0.2368 -0.3479  0.1160
 5279TIP3    H240033   6.186   6.554  16.665  0.3712 -1.0081  1.5913
 5280TIP3   OH240034   2.947   4.102  18.444  0.3954 -0.0097  0.1508
 5280TIP3    H140035   3.031   4.107  18.490  0.9241 -0.2485 -0.7677
 5280TIP3    H240036   2.901   4.181  18.470  1.6026  1.0007 -0.6761
 5281TIP3   OH240037   4.764   3.737  17.536  0.0513  0.5433 -0.0698
 5281TIP3    H140038   4.720   3.709  17.456  1.3914 -1.1256 -0.2660
 5281TIP3    H240039   4.717   3.693  17.606  0.4620 -0.0406 -0.1575
 5282TIP3   OH240040   5.966   4.353  17.619 -0.0872  0.0060  0.2750
 5282TIP3    H140041   6.045   4.333  17.569 -0.3562 -0.2802 -0.0401
 5282TIP3    H240042   5.901   4.378  17.553 -0.0969  0.8018  0.5739
 5283TIP3   OH240043   5.805   0.364  18.797 -0.0923 -0.1965  0.0493
 5283TIP3    H140044   5.874   0.419  18.832  0.0668 -0.6872  0.5145
 5283TIP3    H240045   5.729   0.422  18.788  0.3849  0.3519 -0.5093
 5284TIP3   OH240046   3.909   2.166  19.568  0.1274 -0.1874 -0.1308
 5284TIP3    H140047   3.816   2.170  19.590  0.2721  1.3088  0.3666
 5284TIP3    H240048   3.951   2.131  19.647 -0.0058 -0.8701 -0.3573
 5285TIP3   OH240049   5.985   2.518  17.839 -0.3788  0.3430  0.0811
 5285TIP3    H140050   5.992   2.601  17.886  0.9041  0.5152 -0.3595
 5285TIP3    H240051   6.067   2.511  17.790 -0.2627 -1.3808  0.4396
 5286TIP3   OH240052   1.816   1.145  19.728 -0.5272  0.2676  0.1816
 5286TIP3    H140053   1.773   1.224  19.760 -1.2350  0.4832 -1.2499
 5286TIP3    H240054   1.897   1.139  19.780  0.9603  3.4625 -1.5175
 5287TIP3   OH240055   2.970   3.333  17.823  0.8502 -0.1266 -0.6908
 5287TIP3    H140056   3.059   3.348  17.789  1.0715 -0.6523 -0.3671
 5287TIP3    H240057   2.984   3.308  17.915  0.3982 -0.6680 -0.7688
 5288TIP3   OH240058   1.732   3.925  18.941  0.4873  0.2544 -0.5473
 5288TIP3    H140059   1.638   3.904  18.948  0.2343  0.6142 -2.2872
 5288TIP3    H240060   1.735   4.020  18.933  0.7517  0.1154 -2.8663
 5289TIP3   OH240061   2.566   6.558  17.867 -0.2636 -0.3715  0.2834
 5289TIP3    H140062   2.515   6.609  17.929  1.9375  0.7137  1.2954
 5289TIP3    H240063   2.501   6.519  17.808 -2.2979 -0.1212  2.2645
 5290TIP3   OH240064   3.831   3.318  19.394 -0.2027 -0.0790 -0.6066
 5290TIP3    H140065   3.889   3.388  19.423 -0.8332  0.9513 -1.7754
 5290TIP3    H240066   3.889   3.259  19.344  0.4471 -0.7459  0.8774
 5291TIP3   OH240067   2.859   1.955  18.949  0.0439  0.1357  0.1255
 5291TIP3    H140068   2.792   1.974  19.014  0.0168  0.9292 -0.1259
 5291TIP3    H240069   2.941   1.984  18.989  0.5029 -2.1768  1.0465
 5292TIP3   OH240070   3.760   3.496  20.197 -0.3341 -0.5037 -0.1085
 5292TIP3    H140071   3.847   3.491  20.158 -1.3582 -1.0079 -2.5166
 5292TIP3    H240072   3.759   3.578  20.245  1.3794 -0.3756 -0.2444
 5293TIP3   OH240073   3.658   4.854  18.308 -0.0281  0.0801  0.2572
 5293TIP3    H140074   3.597   4.842  18.380 -0.4903  0.9766  0.0365
 5293TIP3    H240075   3.697   4.768  18.294 -0.9330 -0.4088  0.6834
 5294TIP3   OH240076   5.527   2.312  19.866 -0.3356 -0.3569 -0.7191
 5294TIP3    H140077   5.592   2.249  19.835  1.5501  1.7912 -1.4204
 5294TIP3    H240078   5.514   2.289  19.958  1.5689 -0.7836 -0.5107
 5295TIP3   OH240079   1.021   1.102  18.466  0.1108 -0.0075  0.4351
 5295TIP3    H140080   0.940   1.061  18.434  0.2168  0.5391 -0.5719
 5295TIP3    H240081   1.090   1.059  18.416  0.4831 -0.6618  1.4879
 5296TIP3   OH240082   3.508   6.018  18.402 -0.3450 -0.4363 -0.1326
 5296TIP3    H140083   3.580   5.963  18.372 -1.0379 -2.1912  1.2446
 5296TIP3    H240084   3.440   6.007  18.336  0.5126  1.0965 -1.3513
 5297TIP3   OH240085   3.884   6.338  17.039 -0.5837 -0.1835 -0.1381
 5297TIP3    H140086   3.941   6.325  17.115 -0.3598  3.0693  0.3731
 5297TIP3    H240087   3.799   6.303  17.066  0.0163 -0.9955  0.7614
 5298TIP3   OH240088   2.993   1.216  17.403 -0.2155  0.4843 -0.1637
 5298TIP3    H140089   2.992   1.161  17.481  2.7710 -0.0428 -0.3966
 5298TIP3    H240090   2.930   1.174  17.344 -0.2798 -0.8665  0.8090
 5299TIP3   OH240091   0.573   1.765  19.960 -0.1949  0.2620 -0.1040
 5299TIP3    H140092   0.567   1.850  19.916  2.4041 -0.7467 -2.7207
 5299TIP3    H240093   0.603   1.786  20.048 -1.1334  2.1255 -0.1626
 5300TIP3   OH240094   5.076   2.534  19.376 -0.2569  0.3856  0.1442
 5300TIP3    H140095   5.017   2.459  19.372  0.4997 -0.2019 -3.2363
 5300TIP3    H240096   5.061   2.581  19.294  2.2711  1.5573  0.2486
 5301TIP3   OH240097   4.467   1.367  19.226  0.6599 -0.2246  1.0640
 5301TIP3    H140098   4.509   1.326  19.151 -1.2212  1.5605 -1.1302
 5301TIP3    H240099   4.531   1.429  19.260  0.1763  2.1052 -1.9100
 5302TIP3   OH240100   5.246   5.203  17.713 -0.7821  0.8442  0.1462
 5302TIP3    H140101   5.235   5.110  17.695 -1.4021  0.8259  0.5908
 5302TIP3    H240102   5.157   5.235  17.728 -0.7967  1.8922 -1.8262
 5303TIP3   OH240103   1.416   1.311  20.220  0.5103  0.4851  0.5889
 5303TIP3    H140104   1.403   1.229  20.173  1.6149 -0.2290  1.4530
 5303TIP3    H240105   1.347   1.312  20.287  1.5829 -0.7079  1.7905
 5304TIP3   OH240106   1.195   0.501  19.701  0.1687 -0.1942 -0.3034
 5304TIP3    H140107   1.207   0.484  19.794  1.5487  1.5641 -0.1111
 5304TIP3    H240108   1.218   0.418  19.658  2.3329 -0.2115  0.7827
 5305TIP3   OH240109   3.825   6.070  20.113  0.1289 -0.2096 -0.0045
 5305TIP3    H140110   3.870   5.990  20.142 -0.6573 -1.4276 -1.9347
 5305TIP3    H240111   3.742   6.039  20.078 -1.3339  1.7716  1.4885
 5306TIP3   OH240112   5.976   0.744  17.712  0.0421 -0.1967 -0.3235
 5306TIP3    H140113   6.068   0.722  17.699 -0.0973 -1.2306  0.3378
 5306TIP3    H240114   5.973   0.782  17.800  0.2257  2.3181 -1.2998
 5307TIP3   OH240115   2.682   1.721  19.949 -0.2367  0.1892 -0.3224
 5307TIP3    H140116   2.659   1.726  19.856 -0.5602  1.8678 -0.1984
 5307TIP3    H240117   2.652   1.635  19.977  0.3333 -0.5605 -1.8812
 5308TIP3   OH240118   6.231   4.521  17.211 -0.0888  0.4773 -0.0044
 5308TIP3    H140119   6.310   4.471  17.193 -0.9457 -0.5865 -0.9285
 5308TIP3    H240120   6.233   4.593  17.147  0.2582  0.6147  0.1585
 5309TIP3   OH240121   6.116   1.556  17.005  0.2657  0.6400  0.2571
 5309TIP3    H140122   6.036   1.607  16.999 -1.1604 -1.3970  0.8802
 5309TIP3    H240123   6.147   1.569  17.095  0.6144  1.3776  0.0346
 5310TIP3   OH240124   6.176   2.971  18.654 -0.3210  0.7737 -0.0275
 5310TIP3    H140125   6.226   3.050  18.633  1.1894 -0.5694 -1.8007
 5310TIP3    H240126   6.240   2.911  18.691 -0.7538 -0.6965 -1.5520
 5311TIP3   OH240127   0.376   5.262  19.356 -0.5168  0.2487  0.2789
 5311TIP3    H140128   0.426   5.302  19.285 -0.1729 -1.8692 -0.7623
 5311TIP3    H240129   0.348   5.178  19.320 -0.5076 -0.8052  2.5872
 5312TIP3   OH240130   5.144   3.474  17.817 -0.4236 -0.5415 -0.0557
 5312TIP3    H140131   5.211   3.410  17.793 -0.4611 -0.7525  0.3889
 5312TIP3    H240132   5.181   3.558  17.791  0.0005 -0.6603  0.1439
 5313TIP3   OH240133   0.297   2.292  16.304 -0.3688 -0.1913  0.6242
 5313TIP3    H140134   0.334   2.232  16.369  0.3851  0.3325  0.6968
 5313TIP3    H240135   0.353   2.282  16.227  0.1720  0.8625  0.8538
 5314TIP3   OH240136   3.237   5.039  19.181  0.5189  0.1433 -0.1787
 5314TIP3    H140137   3.215   5.103  19.114  0.6987 -0.5874 -0.9541
 5314TIP3    H240138   3.185   4.962  19.158  0.3036  0.0065  0.7411
 5315TIP3   OH240139   5.203   1.708  17.996 -0.2991 -0.1821 -0.5483
 5315TIP3    H140140   5.283   1.750  18.027 -0.7356  0.2090  0.0732
 5315TIP3    H240141   5.192   1.631  18.053 -0.3623 -0.2360 -0.6322
 5316TIP3   OH240142   3.969   1.903  20.619  0.3886 -0.3168 -0.1482
 5316TIP3    H140143   3.942   1.977  20.564 -0.0546 -0.8117 -0.6029
 5316TIP3    H240144   3.909   1.832  20.596 -0.5274 -0.2281  1.7612
 5317TIP3   OH240145   4.070   2.942  17.416  0.0385  0.1839 -0.4513
 5317TIP3    H140146   4.019   2.945  17.335 -0.6373 -0.7656 -0.0688
 5317TIP3    H240147   4.156   2.911  17.389 -0.4912 -1.1604 -0.6754
 5318TIP3   OH240148   4.839   0.751  18.980 -0.3055  0.0350  0.3468
 5318TIP3    H140149   4.832   0.841  19.013  1.1069  0.8822 -1.5098
 5318TIP3    H240150   4.919   0.750  18.929 -0.2285 -2.3474  0.3965
 5319TIP3   OH240151   5.373   0.108  17.706  0.0396 -0.1391 -0.6862
 5319TIP3    H140152   5.468   0.101  17.700  0.0979  1.3121 -1.8346
 5319TIP3    H240153   5.357   0.140  17.795  0.6746  0.3743 -0.7489
 5320TIP3   OH240154   2.906   6.298  19.461 -0.1037  0.5996 -0.0524
 5320TIP3    H140155   2.984   6.292  19.406  1.0924  0.7748  1.5678
 5320TIP3    H240156   2.848   6.359  19.415  0.4497  0.0193 -1.5641
 5321TIP3   OH240157   1.535   2.940  19.255  0.0396 -0.1660  0.0682
 5321TIP3    H140158   1.563   2.962  19.344 -0.9152 -0.6888  0.5084
 5321TIP3    H240159   1.570   2.852  19.240  0.2071 -0.0753 -0.0826
 5322TIP3   OH240160   0.058   1.101  19.519 -0.1148 -0.0027 -0.0450
 5322TIP3    H140161   0.017   1.076  19.602  0.4074  0.4185  0.3485
 5322TIP3    H240162   0.152   1.101  19.538 -0.0650  2.3483  0.0274
 5323TIP3   OH240163   4.747   1.540  18.130 -0.8408 -0.2798 -0.4116
 5323TIP3    H140164   4.773   1.567  18.218 -0.5552 -0.1506 -0.5357
 5323TIP3    H240165   4.810   1.583  18.071 -1.4393  0.1970 -0.7253
 5324TIP3   OH240166   5.218   6.406  20.081  0.0387 -0.1874  0.4724
 5324TIP3    H140167   5.312   6.411  20.062 -0.2332  0.1819 -0.9328
 5324TIP3    H240168   5.181   6.358  20.007 -1.1435  1.5384 -0.1324
 5325TIP3   OH240169   5.632   4.948  18.154 -0.5832  0.0453 -0.3046
 5325TIP3    H140170   5.557   4.995  18.118 -1.3920 -0.7220  0.3728
 5325TIP3    H240171   5.597   4.865  18.184  0.6225 -0.5120 -0.3919
 5326TIP3   OH240172   1.338   3.599  17.702 -0.3960  0.0598  0.1288
 5326TIP3    H140173   1.411   3.600  17.764 -0.0235  1.9280 -0.3074
 5326TIP3    H240174   1.377   3.566  17.621 -0.8221 -2.1150  0.7317
 5327TIP3   OH240175   0.817   0.917  19.380  0.2189 -0.2759 -0.4452
 5327TIP3    H140176   0.784   1.003  19.408  2.7509  0.8805 -0.7574
 5327TIP3    H240177   0.910   0.919  19.401  1.0435 -1.6281 -3.4768
 5328TIP3   OH240178   2.197   4.629  19.176  0.2853  0.2492 -0.5416
 5328TIP3    H140179   2.195   4.646  19.270  0.8742  0.0170 -0.4852
 5328TIP3    H240180   2.128   4.685  19.140  0.6825  1.0271 -0.0925
 5329TIP3   OH240181   3.572   0.785  19.430 -0.0079 -0.0263 -0.3372
 5329TIP3    H140182   3.652   0.801  19.480  0.2170  1.0176 -1.0131
 5329TIP3    H240183   3.556   0.691  19.441  1.2176 -0.2247 -0.0555
 5330TIP3   OH240184   2.905   3.551  18.747 -0.5861  0.0552  0.1482
 5330TIP3    H140185   2.911   3.479  18.684  1.4402  0.7463 -0.5141
 5330TIP3    H240186   2.899   3.509  18.832  0.2651 -0.9112 -0.2495
 5331TIP3   OH240187   1.160   4.166  18.426 -0.5295  0.0518 -0.0992
 5331TIP3    H140188   1.253   4.167  18.403 -0.4032  1.7051  0.3211
 5331TIP3    H240189   1.121   4.099  18.369  0.9481 -0.8359 -0.1007
 5332TIP3   OH240190   5.762   6.382  19.861 -0.2922 -0.9171  0.3141
 5332TIP3    H140191   5.699   6.382  19.788  0.4170  0.6327 -0.3340
 5332TIP3    H240192   5.847   6.372  19.819  0.0237 -1.3261  1.0502
 5333TIP3   OH240193   4.864   5.892  18.731 -0.0056 -0.1657 -0.4094
 5333TIP3    H140194   4.929   5.957  18.705 -1.3393  1.2482 -0.3698
 5333TIP3    H240195   4.913   5.828  18.782  1.3357  0.9239 -0.2626
 5334TIP3   OH240196   3.378   2.440  18.629 -0.2109  0.0380 -0.4370
 5334TIP3    H140197   3.396   2.352  18.663 -2.2482 -0.9969 -1.8524
 5334TIP3    H240198   3.381   2.431  18.534  0.0198  1.6315 -0.6141
 5335TIP3   OH240199   1.802   6.255  17.906  0.4205 -0.1287 -0.1789
 5335TIP3    H140200   1.791   6.200  17.983  2.6859 -0.1685  0.1861
 5335TIP3    H240201   1.897   6.254  17.889  0.2669  1.8658 -1.4789
 5336TIP3   OH240202   6.160   5.345  16.971  0.3239  0.0730  0.6066
 5336TIP3    H140203   6.202   5.385  16.895 -1.7999  0.5356 -0.4203
 5336TIP3    H240204   6.223   5.281  17.002  1.3074 -0.0815 -1.5046
 5337TIP3   OH240205   5.687   6.562  18.673  0.0263  0.4360  0.1197
 5337TIP3    H140206   5.711   6.643  18.719 -1.0406  0.2000  1.1467
 5337TIP3    H240207   5.649   6.506  18.741 -0.0253 -0.6064 -0.7411
 5338TIP3   OH240208   2.244   5.604  19.745  0.3021  0.8045  0.0785
 5338TIP3    H140209   2.188   5.666  19.791  1.1933  1.3344  0.4548
 5338TIP3    H240210   2.183   5.551  19.693 -0.8830 -0.6533  2.7589
 5339TIP3   OH240211   0.950   2.043  17.794 -0.0454 -0.0489  0.0460
 5339TIP3    H140212   1.021   1.990  17.758  1.5218  1.5589  0.6045
 5339TIP3    H240213   0.916   2.092  17.720  1.0198  0.8891  0.1579
 5340TIP3   OH240214   1.130   3.715  17.379 -0.0007  0.3875 -0.7023
 5340TIP3    H140215   1.112   3.692  17.470  0.8858  1.5796 -0.2052
 5340TIP3    H240216   1.052   3.764  17.351 -0.9738 -1.3124 -1.1176
 5341TIP3   OH240217   5.465   3.994  17.075 -0.0848 -0.0372  0.2288
 5341TIP3    H140218   5.439   4.084  17.054  1.3705  0.1616 -0.8988
 5341TIP3    H240219   5.498   3.999  17.164 -2.1920  0.0247  1.0801
 5342TIP3   OH240220   2.779   5.895  18.235 -0.1236  0.5255 -0.1223
 5342TIP3    H140221   2.699   5.904  18.184  1.7915  0.2944 -3.4238
 5342TIP3    H240222   2.846   5.941  18.185  2.1282 -0.4609  1.7634
 5343TIP3   OH240223   0.132   4.643  19.184  0.4733  1.0107  0.0971
 5343TIP3    H140224   0.194   4.699  19.136  1.4022 -0.7487 -0.8345
 5343TIP3    H240225   0.050   4.654  19.136  0.8833  0.8512 -0.6634
 5344TIP3   OH240226   2.099   1.595  19.930  0.0634  0.5754  0.0769
 5344TIP3    H140227   2.043   1.563  19.860 -0.1778 -1.4477  1.1168
 5344TIP3    H240228   2.177   1.628  19.886  0.1486 -1.1355 -1.1619
 5345TIP3   OH240229   0.922   0.392  17.360 -0.7062 -0.3390 -0.1652
 5345TIP3    H140230   0.830   0.416  17.364 -0.6471 -0.1821  0.3321
 5345TIP3    H240231   0.967   0.462  17.408 -0.3878 -0.7188  0.0902
 5346TIP3   OH240232   1.855   4.082  18.438 -0.4190  0.4351  0.3141
 5346TIP3    H140233   1.799   4.114  18.509  1.9372  0.2498  2.4383
 5346TIP3    H240234   1.884   4.161  18.393  0.1685  0.8255  1.3267
 5347TIP3   OH240235   3.687   3.320  18.833  0.1510  0.2918  0.2696
 5347TIP3    H140236   3.628   3.267  18.886  0.0588  1.9442  1.9112
 5347TIP3    H240237   3.775   3.288  18.855  0.0428 -0.0281  0.2473
 5348TIP3   OH240238   6.019   3.382  19.012  0.1687 -0.2030 -0.3084
 5348TIP3    H140239   6.012   3.425  19.097  0.5680 -1.7374  0.5346
 5348TIP3    H240240   5.977   3.443  18.951  0.6262  1.3089  0.8283
 5349TIP3   OH240241   2.472   1.181  19.359  0.2830  0.1714  0.6168
 5349TIP3    H140242   2.510   1.123  19.425 -0.9370  0.0818  1.2617
 5349TIP3    H240243   2.544   1.239  19.334  1.5620 -1.6160 -0.0846
 5350TIP3   OH240244   1.369   2.808  19.476  0.2062 -0.5772  0.0837
 5350TIP3    H140245   1.414   2.881  19.518  0.8086 -1.1233  0.3977
 5350TIP3    H240246   1.283   2.804  19.519  0.6521 -0.8546  0.9527
 5351TIP3   OH240247   5.836   0.180  19.923  0.7752 -0.7219 -0.1160
 5351TIP3    H140248   5.883   0.144  19.848  0.2366 -0.8174 -0.4100
 5351TIP3    H240249   5.871   0.269  19.933  1.5694 -1.0515  0.1506
 5352TIP3   OH240250   3.709   5.149  18.461  0.4427 -0.0612 -0.0304
 5352TIP3    H140251   3.656   5.167  18.383  0.4521 -0.7088 -0.1953
 5352TIP3    H240252   3.677   5.211  18.526 -0.0322  0.0341 -0.3470
 5353TIP3   OH240253   0.701   5.243  17.452 -0.4839  0.4576  0.0901
 5353TIP3    H140254   0.711   5.241  17.357 -0.0716  0.2966  0.1359
 5353TIP3    H240255   0.785   5.276  17.485 -0.2576 -0.4494  0.4491
 5354TIP3   OH240256   1.570   5.931  19.422 -0.0258 -0.3657  0.1147
 5354TIP3    H140257   1.614   5.994  19.479 -0.2516  0.3764 -0.5133
 5354TIP3    H240258   1.639   5.870  19.395  0.8403  1.2416 -1.4943
 5355TIP3   OH240259   0.743   0.185  19.050 -0.2199 -0.3029  0.4704
 5355TIP3    H140260   0.810   0.117  19.050  0.6753  0.5392 -0.8265
 5355TIP3    H240261   0.754   0.231  19.133 -0.6042 -1.4770  1.2050
 5356TIP3   OH240262   2.847   2.408  17.985  0.1794 -0.2676 -0.3275
 5356TIP3    H140263   2.760   2.396  17.948  0.4107 -0.0093 -0.9746
 5356TIP3    H240264   2.906   2.370  17.921  0.6797  1.2405 -0.8161
 5357TIP3   OH240265   5.717   0.040  18.117 -0.1577  0.0428 -0.3869
 5357TIP3    H140266   5.639  -0.014  18.132 -0.4050  0.3266 -0.6370
 5357TIP3    H240267   5.704   0.076  18.029 -0.2267  0.9034 -0.0256
 5358TIP3   OH240268   3.547   6.641  18.817  0.1759 -0.5701 -0.1398
 5358TIP3    H140269   3.544   6.554  18.776  1.4430  0.2592 -2.0967
 5358TIP3    H240270   3.590   6.625  18.902 -0.0064 -1.9040 -0.2721
 5359TIP3   OH240271   5.499   2.240  17.396 -0.1372  0.0629  0.2641
 5359TIP3    H140272   5.561   2.288  17.451  0.7965  0.4480 -1.0754
 5359TIP3    H240273   5.486   2.296  17.320 -0.7123 -0.8565 -0.3377
 5360TIP3   OH240274   3.104   6.023  19.103  0.2198  0.2597 -0.4269
 5360TIP3    H140275   3.155   6.102  19.118 -0.0915  0.2592  0.7056
 5360TIP3    H240276   3.131   5.993  19.016 -0.5384  2.2561 -1.3914
 5361TIP3   OH240277   3.593   1.147  20.085  0.2589  0.4480 -0.5956
 5361TIP3    H140278   3.542   1.155  20.004 -3.0231 -1.5713  1.0692
 5361TIP3    H240279   3.643   1.066  20.074  0.0696  0.3484 -0.7114
 5362TIP3   OH240280   6.074   3.178  20.384  0.0863 -0.2558  0.5433
 5362TIP3    H140281   6.084   3.103  20.325 -0.4458  0.0905 -0.0102
 5362TIP3    H240282   6.135   3.161  20.455  0.8028 -0.6564 -0.1476
 5363TIP3   OH240283   5.250   5.514  18.740  0.6421 -0.1659  0.3297
 5363TIP3    H140284   5.324   5.572  18.725 -0.3510  0.8530 -0.8812
 5363TIP3    H240285   5.223   5.486  18.652 -1.1049  0.4334  0.6316
 5364TIP3   OH240286   0.701   4.142  19.149  0.4141  0.8308 -0.0662
 5364TIP3    H140287   0.780   4.148  19.095  1.6561  2.1472  1.7476
 5364TIP3    H240288   0.651   4.221  19.126  0.3329  0.7429 -0.1887
 5365TIP3   OH240289   1.393   6.346  17.881  0.3070 -0.2677 -0.4444
 5365TIP3    H140290   1.438   6.271  17.921 -0.2327 -0.8661 -0.9346
 5365TIP3    H240291   1.461   6.411  17.867  0.9061 -0.9287 -0.6304
 5366TIP3   OH240292   5.347   1.427  18.426  0.5716  0.2097  0.2567
 5366TIP3    H140293   5.338   1.342  18.383 -1.0184  0.3106  0.3367
 5366TIP3    H240294   5.441   1.445  18.423  0.9233 -1.4623  0.0901
 5367TIP3   OH240295   3.362   5.634  18.101  0.0303  0.1088 -0.2942
 5367TIP3    H140296   3.351   5.594  18.015 -2.1355 -0.9568  0.4226
 5367TIP3    H240297   3.311   5.715  18.097  0.9496  0.6957 -0.3874
 5368TIP3   OH240298   0.430   5.163  17.221 -0.5050  0.0642  0.3404
 5368TIP3    H140299   0.451   5.160  17.128 -2.2058  0.1995 -0.0771
 5368TIP3    H240300   0.438   5.256  17.244 -0.3057  0.0627  0.2804
 5369TIP3   OH240301   1.432   1.024  19.469 -0.1221 -0.4204 -0.8492
 5369TIP3    H140302   1.384   1.071  19.537  0.2879 -1.9337  0.5507
 5369TIP3    H240303   1.370   0.958  19.438  1.1693 -3.1184  1.7293
 5370TIP3   OH240304   0.722   1.045  17.532  0.1024 -0.0867 -0.5078
 5370TIP3    H140305   0.758   0.959  17.553  0.6707  0.2575 -0.0707
 5370TIP3    H240306   0.631   1.027  17.507  0.6520 -1.0097 -1.9676
 5371TIP3   OH240307   1.701   0.261  17.928 -0.0990  0.1645  0.3168
 5371TIP3    H140308   1.648   0.340  17.941 -0.7837 -0.3880  0.9775
 5371TIP3    H240309   1.728   0.236  18.016  0.6107 -0.0132  0.0548
 5372TIP3   OH240310   2.806   4.919  20.142  0.1336  0.0627 -0.3631
 5372TIP3    H140311   2.723   4.875  20.124 -0.0520  0.1137  0.3242
 5372TIP3    H240312   2.816   4.982  20.070  0.5911 -1.3155 -1.5678
 5373TIP3   OH240313   6.269   2.755  18.167  0.2040  0.8288 -0.1690
 5373TIP3    H140314   6.350   2.739  18.118 -1.1107 -0.9245 -1.9353
 5373TIP3    H240315   6.288   2.834  18.218  2.8280  0.7963 -0.9090
 5374TIP3   OH240316   2.717   2.351  18.750 -0.0933 -0.6529  0.0313
 5374TIP3    H140317   2.771   2.287  18.705 -0.8124 -0.3570 -1.3168
 5374TIP3    H240318   2.628   2.317  18.742 -0.3818  0.0725  0.0813
 5375TIP3   OH240319   6.562   1.825  17.597  0.1751 -0.3228 -0.7375
 5375TIP3    H140320   6.620   1.767  17.646 -1.9209 -1.0090  1.1109
 5375TIP3    H240321   6.489   1.770  17.571 -1.5043  1.2323  0.3791
 5376TIP3   OH240322   2.315   3.668  20.238 -1.0410 -0.4325 -0.3053
 5376TIP3    H140323   2.411   3.671  20.237 -0.9246  1.8206  2.6737
 5376TIP3    H240324   2.294   3.586  20.281 -0.5078 -1.2840 -1.6232
 5377TIP3   OH240325   4.129   2.156  20.164  0.6676  0.1431  0.5697
 5377TIP3    H140326   4.052   2.200  20.200  1.9969  2.4716  0.7474
 5377TIP3    H240327   4.147   2.085  20.226 -0.9450 -0.0515  0.8548
 5378TIP3   OH240328   4.048   4.806  20.019  0.2823 -0.0699  0.3951
 5378TIP3    H140329   4.051   4.810  19.923  2.0416 -1.2230  0.3689
 5378TIP3    H240330   4.119   4.747  20.043  0.1338  0.5174  2.4487
 5379TIP3   OH240331   0.295   4.168  16.578  0.1761  0.0537 -0.0097
 5379TIP3    H140332   0.322   4.103  16.643 -0.2656  0.4700  0.6012
 5379TIP3    H240333   0.244   4.119  16.514  0.5585 -0.3498 -0.0032
 5380TIP3   OH240334   6.597   6.185  19.150 -0.2244  0.2653 -0.1961
 5380TIP3    H140335   6.556   6.098  19.148 -0.5661  0.4366 -0.9841
 5380TIP3    H240336   6.667   6.176  19.215  0.8634 -1.1226 -1.4890
 5381TIP3   OH240337   3.964   1.549  20.099  0.5457  0.1684 -0.4602
 5381TIP3    H140338   3.942   1.553  20.006 -0.6058  3.4469 -0.1929
 5381TIP3    H240339   3.889   1.506  20.140  0.0243  0.6850 -0.8500
 5382TIP3   OH240340   0.355   3.466  18.395  0.0794 -0.3893 -0.3479
 5382TIP3    H140341   0.324   3.486  18.484 -0.1764 -0.2416 -0.4688
 5382TIP3    H240342   0.362   3.551  18.352  2.6284 -0.1972  0.2959
 5383TIP3   OH240343   2.681   6.144  17.387  0.5595  0.4433 -0.2458
 5383TIP3    H140344   2.677   6.058  17.429 -0.1298  0.9945  0.8789
 5383TIP3    H240345   2.613   6.140  17.319 -0.7631  0.6753  1.0041
 5384TIP3   OH240346   2.516   5.520  19.540 -0.8006  0.7600 -0.1051
 5384TIP3    H140347   2.474   5.485  19.461  0.6507 -0.5759 -0.3214
 5384TIP3    H240348   2.557   5.601  19.511  0.2624 -0.0384 -0.9215
 5385TIP3   OH240349   3.513   3.544  20.472  0.4787  0.2588 -0.6020
 5385TIP3    H140350   3.491   3.609  20.406  1.7732  0.3875 -0.9392
 5385TIP3    H240351   3.606   3.560  20.492  0.3885 -0.4520  0.4803
 5386TIP3   OH240352   3.806   5.027  18.169  0.0844  0.3533 -0.1088
 5386TIP3    H140353   3.856   4.971  18.108  0.5968 -0.0949  0.7099
 5386TIP3    H240354   3.748   4.966  18.215 -1.5096  0.9124 -1.2899
 5387TIP3   OH240355   6.440   3.511  18.550 -0.2287 -0.0238 -0.0226
 5387TIP3    H140356   6.459   3.465  18.632 -0.0774 -0.1681 -0.1375
 5387TIP3    H240357   6.355   3.552  18.564 -1.1135 -1.6409 -0.4783
 5388TIP3   OH240358   3.837   1.211  19.803 -0.5878  0.4376  0.3209
 5388TIP3    H140359   3.819   1.201  19.710 -0.3871 -1.0249  0.4257
 5388TIP3    H240360   3.756   1.186  19.846 -0.2082 -0.3404  0.5889
 5389TIP3   OH240361   0.666   2.907  17.753 -0.1303  0.1060 -0.1555
 5389TIP3    H140362   0.602   2.922  17.683 -0.3036 -2.3718 -0.5987
 5389TIP3    H240363   0.750   2.934  17.716  0.0094 -2.4900 -1.9321
 5390TIP3   OH240364   2.992   1.418  19.894  0.2179 -0.7618 -0.6345
 5390TIP3    H140365   2.909   1.426  19.941  0.2206 -0.4764 -0.6778
 5390TIP3    H240366   3.034   1.341  19.932  0.5340 -0.1472  0.3180
 5391TIP3   OH240367   1.884   3.398   9.701  0.0677 -0.0381 -0.3026
 5391TIP3    H140368   1.790   3.396   9.686 -0.0566 -0.8444  0.4765
 5391TIP3    H240369   1.917   3.318   9.661  0.1769 -0.5897  0.8573
 5392TIP3   OH240370   2.145   1.401  11.186 -0.4934 -0.8044 -0.1829
 5392TIP3    H140371   2.138   1.472  11.122  1.5652  1.4281  1.8790
 5392TIP3    H240372   2.064   1.407  11.237  0.2052  1.0838  0.8220
 5393TIP3   OH240373   3.685   6.334   9.121  0.7252  0.1325  0.4047
 5393TIP3    H140374   3.745   6.326   9.195 -0.0408  0.7852  1.1216
 5393TIP3    H240375   3.683   6.247   9.082  0.3604 -0.5048  1.7924
 5394TIP3   OH240376   4.369   3.762  10.498  0.2103 -0.2455  0.0771
 5394TIP3    H140377   4.316   3.696  10.454  0.1379  0.2713 -0.6336
 5394TIP3    H240378   4.306   3.815  10.547 -0.1277  1.1148 -1.7225
 5395TIP3   OH240379   2.019   5.166   8.783 -0.0538  0.3031 -0.6018
 5395TIP3    H140380   1.929   5.134   8.778 -0.7640  1.9144  0.9497
 5395TIP3    H240381   2.072   5.086   8.792 -1.1709 -0.7338 -2.4324
 5396TIP3   OH240382   1.471   5.572  10.999 -0.3955 -0.3221 -0.5654
 5396TIP3    H140383   1.479   5.546  11.091  1.5012 -1.0130 -0.8771
 5396TIP3    H240384   1.448   5.664  11.002 -1.4738 -0.5964  0.5818
 5397TIP3   OH240385   5.275   4.601  10.829  0.0221 -0.0354 -0.1480
 5397TIP3    H140386   5.360   4.618  10.788  0.1521 -0.4163 -0.0310
 5397TIP3    H240387   5.213   4.655  10.778  0.2147 -0.3402 -0.7077
 5398TIP3   OH240388   6.387   6.664   8.521  0.7297 -0.5999  0.2630
 5398TIP3    H140389   6.461   6.705   8.565  1.0258 -1.9563  1.1190
 5398TIP3    H240390   6.335   6.737   8.488  2.2030  0.3909  0.0323
 5399TIP3   OH240391   5.813   4.956  10.713  0.5199  0.3045  0.5652
 5399TIP3    H140392   5.719   4.967  10.697  0.6589 -0.2961 -0.8756
 5399TIP3    H240393   5.846   4.918  10.631  1.6042 -1.7605  1.8777
 5400TIP3   OH240394   3.144   4.780  11.224 -0.1893  0.1171  0.2039
 5400TIP3    H140395   3.205   4.777  11.298  1.2611  0.1933 -0.9481
 5400TIP3    H240396   3.144   4.872  11.197 -1.1487  0.1948  0.4369
 5401TIP3   OH240397   3.332   5.678  10.851 -0.2267 -0.1636  0.2817
 5401TIP3    H140398   3.386   5.612  10.807 -0.0475 -0.4726  0.9465
 5401TIP3    H240399   3.260   5.628  10.888 -0.4635  0.1185  0.2044
 5402TIP3   OH240400   3.403   2.769  12.144  0.3913 -0.2987 -0.6394
 5402TIP3    H140401   3.429   2.720  12.066  0.3907  0.2751 -1.0036
 5402TIP3    H240402   3.462   2.844  12.146  0.9462 -0.7407  0.3804
 5403TIP3   OH240403   3.442   4.261  11.672 -0.0774 -0.6477 -0.5105
 5403TIP3    H140404   3.402   4.178  11.696  0.4514 -0.3677  1.5463
 5403TIP3    H240405   3.384   4.328  11.709 -0.1375 -0.1053 -1.5417
 5404TIP3   OH240406   4.332   2.015  10.040 -0.2141  0.8796  0.4700
 5404TIP3    H140407   4.382   1.939  10.069 -0.6657  0.2633 -0.3471
 5404TIP3    H240408   4.308   2.060  10.121  1.4610  1.0795  0.9037
 5405TIP3   OH240409   5.460   1.169  10.544  0.0675 -0.1432 -0.1815
 5405TIP3    H140410   5.467   1.196  10.452  1.1788 -1.4622 -0.5254
 5405TIP3    H240411   5.528   1.220  10.588 -0.8691  0.9393  0.0415
 5406TIP3   OH240412   5.127   5.567  11.202 -0.8518  0.0485 -0.6901
 5406TIP3    H140413   5.101   5.539  11.290 -1.2686  0.0623 -0.8070
 5406TIP3    H240414   5.062   5.633  11.178 -0.7503  0.0295 -1.0172
 5407TIP3   OH240415   1.883   4.062  11.124 -0.4706  0.2893 -0.4761
 5407TIP3    H140416   1.840   3.979  11.103  0.8675  0.1333 -3.1240
 5407TIP3    H240417   1.897   4.104  11.038  2.7186  1.2321  0.3636
 5408TIP3   OH240418   1.359   4.952   9.743  0.3791 -0.4751  0.3213
 5408TIP3    H140419   1.445   4.984   9.769  0.9508 -1.8771  0.1916
 5408TIP3    H240420   1.344   4.991   9.657  0.6484  0.1884  0.5688
 5409TIP3   OH240421   4.140   2.204  12.538 -0.4212  0.3097  0.5492
 5409TIP3    H140422   4.047   2.225  12.521 -0.3929  0.3335  0.4182
 5409TIP3    H240423   4.182   2.216  12.453  0.0058  1.9566  0.9517
 5410TIP3   OH240424   5.756   1.193  10.969 -0.0912 -0.0420  0.2809
 5410TIP3    H140425   5.828   1.133  10.991 -0.5710 -0.1822  1.5638
 5410TIP3    H240426   5.799   1.275  10.947  0.6030 -0.9215 -1.8472
 5411TIP3   OH240427   2.713   2.128   9.553  0.0335 -0.4790 -0.3097
 5411TIP3    H140428   2.795   2.079   9.540  1.1326  1.2206 -0.1687
 5411TIP3    H240429   2.654   2.066   9.594  2.1139 -1.1054  1.9868
 5412TIP3   OH240430   3.560   4.879   9.598 -0.0730 -0.1692  0.1255
 5412TIP3    H140431   3.608   4.882   9.680  0.1435 -2.4497  0.1510
 5412TIP3    H240432   3.546   4.785   9.582 -4.5339  0.2967  0.1268
 5413TIP3   OH240433   1.706   2.149   8.849  0.3645  0.1967  0.1613
 5413TIP3    H140434   1.621   2.167   8.891 -1.7416  0.0677 -3.6214
 5413TIP3    H240435   1.725   2.228   8.799  2.5652  0.2154  0.9457
 5414TIP3   OH240436   6.560   0.155   8.633 -0.3670 -0.1315  0.3046
 5414TIP3    H140437   6.590   0.240   8.604  2.6284 -0.9662  0.6128
 5414TIP3    H240438   6.577   0.154   8.727 -1.7912 -0.5759  0.5925
 5415TIP3   OH240439   3.325   4.874  11.715  1.1099 -0.0564  0.3127
 5415TIP3    H140440   3.323   4.964  11.685 -0.0967 -0.3385 -0.5189
 5415TIP3    H240441   3.416   4.859  11.742  1.2846  1.4295  0.5922
 5416TIP3   OH240442   0.193   0.444   9.164  0.2143 -0.1981 -0.1569
 5416TIP3    H140443   0.274   0.465   9.117  0.1361 -0.6497 -0.4983
 5416TIP3    H240444   0.210   0.359   9.204  1.0216  1.0428  2.3360
 5417TIP3   OH240445   3.284   3.819  10.248 -0.2257  0.1628  0.4945
 5417TIP3    H140446   3.351   3.810  10.180 -0.4634 -0.4477  0.3393
 5417TIP3    H240447   3.293   3.740  10.301 -4.0042 -2.5380 -2.3513
 5418TIP3   OH240448   0.998   0.345   9.743  0.4474  0.8460 -0.0216
 5418TIP3    H140449   1.040   0.261   9.724 -1.5439  0.1274 -1.5927
 5418TIP3    H240450   1.055   0.410   9.703  2.1472  0.3418  1.4088
 5419TIP3   OH240451   5.743   6.414   8.772 -0.0740 -0.0812 -0.7402
 5419TIP3    H140452   5.829   6.372   8.767  0.4932  0.8191  0.7163
 5419TIP3    H240453   5.761   6.508   8.763 -0.7364  0.2200  0.6571
 5420TIP3   OH240454   3.964   4.789  12.632  0.1901  0.1464 -0.5208
 5420TIP3    H140455   3.902   4.736  12.681 -0.2699  1.1060 -0.0475
 5420TIP3    H240456   3.910   4.853  12.586  0.8913  2.9188  2.1782
 5421TIP3   OH240457   2.903   6.161  10.703  0.2206 -0.5280 -0.6814
 5421TIP3    H140458   2.929   6.074  10.733 -0.4528 -0.2927  0.7019
 5421TIP3    H240459   2.983   6.199  10.666  1.6291 -0.2701  2.3176
 5422TIP3   OH240460   2.457   1.573  10.921 -0.2827  0.1640 -0.2652
 5422TIP3    H140461   2.542   1.534  10.900  0.0661 -0.0686  1.3681
 5422TIP3    H240462   2.429   1.616  10.841  1.8470  1.1020 -0.5694
 5423TIP3   OH240463   5.432   0.740   8.998  0.4251  0.6534 -0.1147
 5423TIP3    H140464   5.418   0.718   8.906  0.2627 -1.2886  0.3133
 5423TIP3    H240465   5.526   0.760   9.004  0.1167  2.5344 -0.9742
 5424TIP3   OH240466   4.161   5.651  11.156 -0.4608 -0.0839  0.0874
 5424TIP3    H140467   4.191   5.626  11.069  0.9005 -0.4656  0.6374
 5424TIP3    H240468   4.087   5.593  11.174 -0.9016  0.1657 -0.9029
 5425TIP3   OH240469   1.202   6.220  10.370  0.6907  0.2405 -0.1349
 5425TIP3    H140470   1.127   6.160  10.364 -0.5625  1.4121  2.1433
 5425TIP3    H240471   1.167   6.304  10.339  1.0853  0.7575  0.7885
 5426TIP3   OH240472   4.054   3.898  11.575 -0.1816  0.0106  1.0675
 5426TIP3    H140473   3.964   3.924  11.594 -0.9579 -0.7831 -1.1723
 5426TIP3    H240474   4.086   3.963  11.513  1.1361  0.7765  2.4836
 5427TIP3   OH240475   5.785   2.570  10.220  0.0944  0.4983  0.4189
 5427TIP3    H140476   5.781   2.663  10.243  0.0448  0.2299  1.5645
 5427TIP3    H240477   5.825   2.568  10.134 -0.4338  1.6194  0.1317
 5428TIP3   OH240478   4.643   6.394  10.538  0.1158  0.1733 -0.0860
 5428TIP3    H140479   4.585   6.379  10.463  0.5537 -1.4275 -0.1414
 5428TIP3    H240480   4.607   6.337  10.606  0.0365  1.2168  0.7686
 5429TIP3   OH240481   4.261   3.431  10.408 -1.2117  0.3867 -0.5448
 5429TIP3    H140482   4.308   3.439  10.491 -0.0985  0.2756 -1.1611
 5429TIP3    H240483   4.182   3.382  10.431 -0.5759 -0.2696  0.3234
 5430TIP3   OH240484   0.813   6.670   8.753  0.6075 -0.1511  0.3141
 5430TIP3    H140485   0.722   6.698   8.761  0.7444  0.4877 -0.2264
 5430TIP3    H240486   0.809   6.574   8.758 -0.0274 -0.1035  0.8461
 5431TIP3   OH240487   5.083   2.009   9.376 -0.0447  0.0694  0.3672
 5431TIP3    H140488   5.083   2.049   9.463  0.6687  1.8847 -0.4094
 5431TIP3    H240489   5.157   2.050   9.331  0.4198 -1.8030 -0.6900
 5432TIP3   OH240490   5.893   3.017  10.430 -0.0785  0.7453  0.7303
 5432TIP3    H140491   5.947   3.062  10.365 -0.4019 -2.4623 -2.0398
 5432TIP3    H240492   5.943   2.939  10.453 -1.0532  0.6059  2.5938
 5433TIP3   OH240493   2.252   2.898   9.317  0.3593  0.1503  0.9318
 5433TIP3    H140494   2.269   2.955   9.242 -1.1333  0.3646  0.7275
 5433TIP3    H240495   2.265   2.809   9.283 -3.6308 -0.0534 -0.7260
 5434TIP3   OH240496   3.664   6.509  11.053 -0.2690  0.2237 -1.0919
 5434TIP3    H140497   3.576   6.540  11.075 -0.3933 -0.2576 -0.8921
 5434TIP3    H240498   3.720   6.586  11.064 -0.8057  0.7916 -2.2079
 5435TIP3   OH240499   0.293   0.956   9.953 -0.2790 -0.4991 -0.2777
 5435TIP3    H140500   0.235   0.945  10.028  1.8572  1.2688  1.7732
 5435TIP3    H240501   0.278   1.047   9.924 -0.6046 -0.9547 -1.6023
 5436TIP3   OH240502   3.830   1.652  10.848  0.8972 -0.0063 -0.0754
 5436TIP3    H140503   3.839   1.667  10.942  0.6302  0.6860 -0.1570
 5436TIP3    H240504   3.912   1.609  10.823  1.0789  0.0435  0.4215
 5437TIP3   OH240505   6.508   5.575  11.089 -0.2470 -0.0458 -0.1952
 5437TIP3    H140506   6.414   5.584  11.070 -0.7229 -0.6233  1.6463
 5437TIP3    H240507   6.552   5.618  11.016 -1.8985 -1.0710 -1.8920
 5438TIP3   OH240508   3.884   3.008  10.112  0.7478 -0.2486 -0.2255
 5438TIP3    H140509   3.876   3.041  10.202  2.3363 -1.7565  0.5176
 5438TIP3    H240510   3.976   3.021  10.090  0.1856  1.0575 -2.0784
 5439TIP3   OH240511   0.532   3.713   8.915 -0.3869  0.2624  0.4103
 5439TIP3    H140512   0.507   3.727   8.824  0.2050  0.1814  0.2279
 5439TIP3    H240513   0.586   3.634   8.913 -2.3496 -1.1753  1.1895
 5440TIP3   OH240514   6.080   1.329   9.915  0.5841  0.1773  0.0863
 5440TIP3    H140515   6.008   1.333   9.853  0.1736 -0.6734  0.4817
 5440TIP3    H240516   6.097   1.420   9.940  1.3021  0.6321 -1.8563
 5441TIP3   OH240517   4.318   2.184   9.357  0.1531 -0.3458  0.2564
 5441TIP3    H140518   4.375   2.180   9.434 -0.1544  0.8959  0.5755
 5441TIP3    H240519   4.263   2.261   9.373  0.6756  0.4629 -1.6266
 5442TIP3   OH240520   4.802   2.336   9.002 -0.0663  0.3865 -0.4255
 5442TIP3    H140521   4.873   2.370   9.056 -0.5015 -0.7589  0.9552
 5442TIP3    H240522   4.730   2.323   9.063 -0.6021 -0.9125 -1.2779
 5443TIP3   OH240523   5.189   0.057  10.543 -0.2650  0.1684 -0.4859
 5443TIP3    H140524   5.146   0.065  10.629 -0.8657 -1.9591 -0.5180
 5443TIP3    H240525   5.204  -0.037  10.534  1.0544  0.5087 -2.1299
 5444TIP3   OH240526   1.467   1.938  11.145 -0.1811 -0.2275 -0.0325
 5444TIP3    H140527   1.489   2.010  11.204 -0.0614  0.5174 -0.9697
 5444TIP3    H240528   1.371   1.936  11.145 -0.1962  0.2654 -0.3862
 5445TIP3   OH240529   0.497   5.225  10.713 -0.0637 -0.1318 -0.2900
 5445TIP3    H140530   0.516   5.136  10.744  2.2992  0.5825  0.4698
 5445TIP3    H240531   0.564   5.242  10.647 -1.5414  0.5014 -1.6949
 5446TIP3   OH240532   4.969   1.428  10.684  0.0282  0.6599 -0.2604
 5446TIP3    H140533   4.945   1.413  10.776 -0.9568  0.9025 -0.4673
 5446TIP3    H240534   4.910   1.371  10.634  0.1923  0.9339 -0.7730
 5447TIP3   OH240535   5.201   3.170  10.586 -0.2202  0.2305 -0.2159
 5447TIP3    H140536   5.291   3.192  10.610 -0.0326 -0.4397 -0.2882
 5447TIP3    H240537   5.151   3.248  10.609 -0.0289 -0.2884  2.2473
 5448TIP3   OH240538   5.639   6.471  10.106 -0.4848 -0.3031 -0.3049
 5448TIP3    H140539   5.547   6.461  10.131 -0.9790  0.9363 -1.5296
 5448TIP3    H240540   5.643   6.556  10.061  1.6670  0.6907  1.5535
 5449TIP3   OH240541   2.228   4.034  13.129 -0.1131 -0.1908  0.1131
 5449TIP3    H140542   2.282   4.038  13.207  0.6843 -1.0235 -0.3806
 5449TIP3    H240543   2.267   3.965  13.076  0.3419  1.3861 -1.7400
 5450TIP3   OH240544   4.644   3.924   8.255 -0.0084  0.0790  0.4126
 5450TIP3    H140545   4.704   3.888   8.320  1.1138  0.9741 -0.0830
 5450TIP3    H240546   4.668   4.017   8.250 -1.9835  0.6467  0.7637
 5451TIP3   OH240547   2.968   5.725   9.868  0.6757 -0.1490 -0.4623
 5451TIP3    H140548   3.054   5.709   9.906  0.1271 -2.8681 -0.1608
 5451TIP3    H240549   2.923   5.778   9.933  0.9623 -1.7190  1.1049
 5452TIP3   OH240550   0.665   0.567   9.738 -0.2884  0.3885 -0.1049
 5452TIP3    H140551   0.579   0.590   9.703 -1.3576 -0.2743  1.9317
 5452TIP3    H240552   0.678   0.476   9.713 -0.0783  0.5330 -0.5444
 5453TIP3   OH240553   3.429   6.021   8.957 -0.0220  0.0850  0.3544
 5453TIP3    H140554   3.375   6.094   8.986  0.8829  1.1554 -0.5790
 5453TIP3    H240555   3.380   5.943   8.984 -1.4667  1.0179  0.5271
 5454TIP3   OH240556   4.872   4.239  10.196  0.7248 -0.3385 -0.8927
 5454TIP3    H140557   4.919   4.285  10.266 -1.3013  2.8013 -1.3852
 5454TIP3    H240558   4.784   4.227  10.230  0.5638 -1.7434 -1.7358
 5455TIP3   OH240559   6.118   4.920   9.616 -0.6040  0.2988 -0.6566
 5455TIP3    H140560   6.069   4.998   9.641 -1.1081  0.4885 -2.1488
 5455TIP3    H240561   6.196   4.953   9.572 -0.3508 -0.0390 -0.4706
 5456TIP3   OH240562   2.479   3.883  12.470  0.0308 -0.0734  0.6127
 5456TIP3    H140563   2.427   3.808  12.443 -1.8224  0.9609  1.1568
 5456TIP3    H240564   2.466   3.889  12.565  0.6661  0.5607  0.6786
 5457TIP3   OH240565   4.673   4.419  12.084 -0.0813 -0.4179  0.4632
 5457TIP3    H140566   4.632   4.337  12.113 -0.4950 -0.7405 -0.9622
 5457TIP3    H240567   4.767   4.400  12.083 -0.1031 -0.5802  0.9877
 5458TIP3   OH240568   5.444   6.182   9.916 -0.3975 -0.5130  0.4040
 5458TIP3    H140569   5.534   6.167   9.947 -0.1175  1.1061  0.4795
 5458TIP3    H240570   5.401   6.228   9.988 -1.1312 -0.8296  0.1680
 5459TIP3   OH240571   5.626   3.674  11.386 -0.5860 -0.1285  0.4308
 5459TIP3    H140572   5.677   3.651  11.463  1.0543  0.5778 -0.3982
 5459TIP3    H240573   5.631   3.596  11.330 -2.0921 -0.7862  1.1308
 5460TIP3   OH240574   0.375   3.927  11.482  0.5214 -0.0571  0.3080
 5460TIP3    H140575   0.319   3.853  11.458  1.7478 -0.9931  0.2005
 5460TIP3    H240576   0.322   3.980  11.541 -0.4087 -1.0039  0.3425
 5461TIP3   OH240577   5.663   5.317  11.284  0.6657 -0.4357 -0.2930
 5461TIP3    H140578   5.719   5.345  11.212  1.1421  1.2880  0.6743
 5461TIP3    H240579   5.577   5.306  11.244  1.3035 -1.4459 -1.4681
 5462TIP3   OH240580   0.940   0.557  10.566  0.1862  0.6587  0.6574
 5462TIP3    H140581   0.883   0.484  10.543  0.0765  0.2419  2.1530
 5462TIP3    H240582   0.898   0.634  10.529 -0.7319  0.1972  0.7280
 5463TIP3   OH240583   5.327   0.008  10.928 -0.2744  0.1413  0.2377
 5463TIP3    H140584   5.245   0.007  10.879  0.3432 -3.3939 -1.0605
 5463TIP3    H240585   5.373   0.085  10.898 -2.3743  1.2764 -0.2718
 5464TIP3   OH240586   2.299   5.052  11.008 -0.3463  0.2185  0.7916
 5464TIP3    H140587   2.282   5.144  11.032 -0.5706  0.2384  0.5518
 5464TIP3    H240588   2.238   5.034  10.937 -1.3607 -0.5728  1.8251
 5465TIP3   OH240589   3.575   1.531   9.332  0.2692  0.1433 -0.3711
 5465TIP3    H140590   3.658   1.562   9.297  1.5984 -0.5279  1.9720
 5465TIP3    H240591   3.549   1.460   9.274  0.6286  1.1966 -1.8797
 5466TIP3   OH240592   0.005   0.334   9.584  0.5452 -0.1881 -0.5343
 5466TIP3    H140593   0.005   0.430   9.586 -2.1481 -0.1269  0.6277
 5466TIP3    H240594   0.079   0.309   9.640  1.6883  1.1654 -1.3710
 5467TIP3   OH240595   3.669   6.395  12.128 -0.2252 -0.4342 -0.1063
 5467TIP3    H140596   3.589   6.359  12.089 -1.0203  1.0022  0.0984
 5467TIP3    H240597   3.733   6.394  12.058 -1.3721  1.2849 -1.2637
 5468TIP3   OH240598   4.137   2.136  11.707 -0.2822  0.2988 -0.2397
 5468TIP3    H140599   4.100   2.052  11.681  1.7048 -1.5955  2.4886
 5468TIP3    H240600   4.201   2.157  11.639 -0.3519 -0.7444 -0.6347
 5469TIP3   OH240601   5.624   3.329  11.560 -0.1349 -0.4000 -0.2670
 5469TIP3    H140602   5.647   3.240  11.534 -0.6902 -0.5903 -0.1265
 5469TIP3    H240603   5.703   3.381  11.543  0.5313 -1.1040  0.5826
 5470TIP3   OH240604   2.372   2.096   9.303  0.6715 -0.1600 -0.0398
 5470TIP3    H140605   2.331   2.024   9.351  0.7325  1.6885  3.0990
 5470TIP3    H240606   2.466   2.082   9.316  0.8295 -1.0433 -1.9325
 5471TIP3   OH240607   0.990   2.684  10.817  0.3530 -0.2964  0.0926
 5471TIP3    H140608   1.022   2.601  10.853 -0.0602 -0.5435 -0.1010
 5471TIP3    H240609   0.943   2.659  10.738 -1.2372 -0.0794  0.9150
 5472TIP3   OH240610   4.041   1.294  10.863 -0.2276  0.3884 -0.3881
 5472TIP3    H140611   4.132   1.269  10.882 -0.7943 -1.8197 -0.3608
 5472TIP3    H240612   4.027   1.373  10.916  1.1847 -0.1304  0.8450
 5473TIP3   OH240613   4.918   0.420   8.829 -0.4181 -0.3907 -0.0335
 5473TIP3    H140614   4.901   0.493   8.771  0.6932 -0.8816 -1.0232
 5473TIP3    H240615   5.003   0.386   8.801  0.4486 -0.2774  2.2735
 5474TIP3   OH240616   4.674   5.055   9.496 -0.3154  0.1955 -0.0880
 5474TIP3    H140617   4.636   5.141   9.475  2.4236  1.2801 -1.1035
 5474TIP3    H240618   4.634   4.995   9.434 -2.5348  0.6224  0.8580
 5475TIP3   OH240619   1.124   1.592  10.451 -0.2991  0.0058 -0.3017
 5475TIP3    H140620   1.135   1.641  10.370  2.6332 -1.2336 -0.7977
 5475TIP3    H240621   1.163   1.506  10.433 -0.8822 -0.8386  1.9930
 5476TIP3   OH240622   5.682   3.225  10.908 -0.4957  0.1920  0.2875
 5476TIP3    H140623   5.718   3.139  10.931  1.8472  1.0734  0.2064
 5476TIP3    H240624   5.597   3.228  10.952 -0.6092 -2.0999  0.3727
 5477TIP3   OH240625   3.559   3.204  10.219  0.1404  0.2982 -0.4351
 5477TIP3    H140626   3.505   3.214  10.140  0.0703 -0.7187 -0.5289
 5477TIP3    H240627   3.505   3.239  10.290 -0.1932  0.3067 -0.6925
 5478TIP3   OH240628   3.091   3.178  10.193  0.1832  0.3871 -0.1959
 5478TIP3    H140629   3.127   3.145  10.275  0.3940 -1.2373 -0.8874
 5478TIP3    H240630   3.165   3.222  10.151  0.1189  1.0734  0.3958
 5479TIP3   OH240631   0.809   4.503  10.902  0.6878 -0.1436 -0.0118
 5479TIP3    H140632   0.837   4.591  10.875 -0.8667  0.1025 -0.9254
 5479TIP3    H240633   0.721   4.515  10.936  0.0445 -1.4753 -1.1209
 5480TIP3   OH240634   5.535   6.348   9.638  0.1731  0.0173 -0.0305
 5480TIP3    H140635   5.612   6.305   9.676  0.9637  1.7787  0.4548
 5480TIP3    H240636   5.461   6.312   9.688  0.9652  0.4438  1.5237
 5481TIP3   OH240637   4.646   3.093   8.804  0.3686  0.2002 -0.3272
 5481TIP3    H140638   4.641   3.130   8.716 -0.4791  0.5198 -0.1551
 5481TIP3    H240639   4.724   3.037   8.802  1.0182  1.0896 -0.9351
 5482TIP3   OH240640   2.110   2.946  10.115  0.0609 -0.1696  0.2993
 5482TIP3    H140641   2.088   2.960  10.207 -0.1498 -0.2468  0.2618
 5482TIP3    H240642   2.146   2.858  10.111  0.8340  0.1396  0.4408
 5483TIP3   OH240643   6.356   2.345   9.221  0.2608 -0.2593 -0.0539
 5483TIP3    H140644   6.436   2.397   9.212  1.0911 -1.5133 -0.1504
 5483TIP3    H240645   6.317   2.345   9.134  0.2594  0.1831 -0.0559
 5484TIP3   OH240646   1.921   0.872  10.777  0.0777 -0.2373 -0.2187
 5484TIP3    H140647   2.004   0.919  10.764 -0.7532  0.9412 -1.5224
 5484TIP3    H240648   1.932   0.790  10.729  0.8564 -0.5845  0.5161
 5485TIP3   OH240649   3.105   6.587   9.964 -0.2347 -0.0911  0.2136
 5485TIP3    H140650   3.083   6.678   9.944 -1.1752 -0.4537 -0.5093
 5485TIP3    H240651   3.084   6.577  10.057 -1.1118  0.1644  0.0507
 5486TIP3   OH240652   5.625   2.645   8.677  0.1600 -0.0679 -0.2452
 5486TIP3    H140653   5.634   2.553   8.703 -1.4799 -0.4707 -0.9583
 5486TIP3    H240654   5.570   2.683   8.746 -0.0297  0.1086 -0.4927
 5487TIP3   OH240655   0.678   0.539  10.254 -0.3364 -0.4371  0.1029
 5487TIP3    H140656   0.674   0.583  10.169  0.9590 -0.1326  0.1810
 5487TIP3    H240657   0.615   0.586  10.308 -0.8542 -0.3540 -0.5513
 5488TIP3   OH240658   2.249   4.386   8.963  0.6855 -0.0676  0.0870
 5488TIP3    H140659   2.247   4.296   8.996  0.1304 -1.2842 -2.9277
 5488TIP3    H240660   2.164   4.422   8.987 -0.2528 -1.3763 -1.0722
 5489TIP3   OH240661   4.695   5.916   9.662  0.2756  0.2029 -0.1518
 5489TIP3    H140662   4.761   5.847   9.653 -0.0394 -0.0243 -0.7535
 5489TIP3    H240663   4.692   5.957   9.576  0.0282  0.5762  0.0337
 5490TIP3   OH240664   2.005   4.240  11.344  0.3372  0.1749 -0.0825
 5490TIP3    H140665   2.022   4.198  11.429  0.4165  0.0325 -0.1692
 5490TIP3    H240666   1.946   4.312  11.365  0.3876  0.1646  0.1007
 5491TIP3   OH240667   5.031   4.775  10.352  0.9324 -0.0489 -0.4118
 5491TIP3    H140668   4.936   4.780  10.362  0.9033 -0.9116 -0.1723
 5491TIP3    H240669   5.045   4.781  10.258  0.6797  0.5916 -0.4137
 5492TIP3   OH240670   2.010   3.490  10.332  0.1019 -0.3047 -0.5107
 5492TIP3    H140671   2.081   3.554  10.338  0.7547 -1.1509  1.3766
 5492TIP3    H240672   1.932   3.536  10.362  0.7832 -0.6450  1.9454
 5493TIP3   OH240673   1.169   3.458  10.594  0.0317  0.1419 -0.0873
 5493TIP3    H140674   1.141   3.514  10.666 -0.5531 -1.1641  0.7278
 5493TIP3    H240675   1.185   3.519  10.522  0.1451  1.4252  0.9820
 5494TIP3   OH240676   4.440   3.377   9.813 -0.3923  0.1846  0.8452
 5494TIP3    H140677   4.511   3.313   9.818 -0.7060 -0.3169 -0.4565
 5494TIP3    H240678   4.455   3.423   9.730 -2.6510 -1.3222 -0.5168
 5495TIP3   OH240679   5.462   0.068  10.261  0.1269  0.2471  0.0185
 5495TIP3    H140680   5.376   0.110  10.254  0.5982  1.4073  0.7618
 5495TIP3    H240681   5.499   0.074  10.172 -0.2948  0.3563 -0.1514
 5496TIP3   OH240682   4.520   4.199   8.552 -0.5134 -0.0765 -0.0560
 5496TIP3    H140683   4.577   4.137   8.506  0.3181  1.1884 -0.7831
 5496TIP3    H240684   4.567   4.217   8.634  0.4867  1.4407 -0.9277
 5497TIP3   OH240685   3.764   0.068   9.417 -0.1672  0.0949 -0.1873
 5497TIP3    H140686   3.743   0.003   9.483 -0.9155 -0.6473 -1.1250
 5497TIP3    H240687   3.722   0.149   9.447  0.8827  0.2207  1.0521
 5498TIP3   OH240688   1.912   0.132  11.932  0.1207 -0.2095  0.3403
 5498TIP3    H140689   1.925   0.039  11.950 -2.1700 -0.1398  3.1352
 5498TIP3    H240690   1.817   0.144  11.933  0.3637  2.2945  0.8829
 5499TIP3   OH240691   1.823   0.317  10.229  0.0994  0.2988  0.2431
 5499TIP3    H140692   1.732   0.289  10.222 -0.3082  1.3787  0.9956
 5499TIP3    H240693   1.872   0.235  10.240 -0.7554 -0.3003 -0.2739
 5500TIP3   OH240694   3.205   4.464  11.350 -0.1734  0.0154  0.4852
 5500TIP3    H140695   3.118   4.476  11.313 -0.2432  1.0040  0.9236
 5500TIP3    H240696   3.189   4.427  11.437 -0.1487  0.0217  0.4926
 5501TIP3   OH240697   4.531   2.515  11.274 -0.2093 -0.0493 -0.4550
 5501TIP3    H140698   4.556   2.591  11.328  2.1228 -0.3600 -0.9759
 5501TIP3    H240699   4.562   2.537  11.186  0.3783 -1.5225 -0.6452
 5502TIP3   OH240700   4.353   4.347  10.072  0.1453  0.4057  0.0243
 5502TIP3    H140701   4.315   4.435  10.066  3.0786  1.8160  0.6216
 5502TIP3    H240702   4.340   4.322  10.163 -0.9565  0.0420 -0.2144
 5503TIP3   OH240703   5.411   5.738  10.588 -0.5015 -0.2439  0.3168
 5503TIP3    H140704   5.400   5.791  10.509 -0.1171 -0.3295  0.2079
 5503TIP3    H240705   5.500   5.703  10.582 -0.7761 -0.9721  0.3434
 5504TIP3   OH240706   3.946   0.095  10.137 -0.2494 -0.1386 -0.0121
 5504TIP3    H140707   4.022   0.054  10.096 -0.1607 -0.1465  0.1620
 5504TIP3    H240708   3.872   0.039  10.113 -0.7462  1.4967 -2.8489
 5505TIP3   OH240709   3.261   4.977  12.880  0.1905 -0.2706 -0.4041
 5505TIP3    H140710   3.174   5.016  12.892  0.4465  0.3611 -0.6085
 5505TIP3    H240711   3.255   4.893  12.926 -0.1298  0.3239  0.6902
 5506TIP3   OH240712   3.537   0.620  11.025  0.3494  0.1450  0.3609
 5506TIP3    H140713   3.533   0.629  11.120  0.8696  0.5784  0.3539
 5506TIP3    H240714   3.515   0.708  10.992  0.3539  0.0449  0.0887
 5507TIP3   OH240715   5.005   4.381  11.964 -0.0818 -0.1673  0.1955
 5507TIP3    H140716   5.013   4.331  12.045  1.1419 -0.5619 -0.1506
 5507TIP3    H240717   5.012   4.472  11.991  0.6971 -0.3128  0.5025
 5508TIP3   OH240718   2.763   4.470  11.072  0.8039 -0.3881  0.1840
 5508TIP3    H140719   2.764   4.409  11.146 -1.2290 -0.2763  0.3756
 5508TIP3    H240720   2.673   4.503  11.070  1.4661  1.5009 -0.8276
 5509TIP3   OH240721   3.085   2.626  10.294 -0.2522  0.0023 -0.4672
 5509TIP3    H140722   3.176   2.608  10.317 -0.1500  1.1535  0.1014
 5509TIP3    H240723   3.054   2.683  10.363 -1.9564 -1.7447  0.3014
 5510TIP3   OH240724   3.137   1.555  11.266 -0.2497  0.0038  0.5639
 5510TIP3    H140725   3.067   1.494  11.289 -0.8287 -0.0603 -1.2171
 5510TIP3    H240726   3.092   1.638  11.252 -0.1122 -0.1699 -1.1749
 5511TIP3   OH240727   3.625   4.058   9.593  0.2473 -0.5834  0.2296
 5511TIP3    H140728   3.717   4.032   9.604 -0.4003 -2.5957  1.5100
 5511TIP3    H240729   3.582   3.980   9.558 -0.9936  0.3125 -0.2979
 5512TIP3   OH240730   2.157   3.807  11.664  0.0262  0.6950 -0.2871
 5512TIP3    H140731   2.162   3.762  11.579 -0.7358 -0.9161  0.4752
 5512TIP3    H240732   2.192   3.894  11.647  0.3955  0.2320 -2.1336
 5513TIP3   OH240733   5.223   5.321  11.151 -0.1480 -0.3251 -0.2700
 5513TIP3    H140734   5.145   5.266  11.159 -0.8196  0.3956 -1.5488
 5513TIP3    H240735   5.192   5.409  11.170  0.2607  0.0272 -1.2003
 5514TIP3   OH240736   4.172   3.512   8.664 -0.2286  0.2398 -0.2725
 5514TIP3    H140737   4.077   3.524   8.660 -0.4696 -1.4492 -0.7648
 5514TIP3    H240738   4.183   3.417   8.677  1.3879  0.4412  0.0163
 5515TIP3   OH240739   1.366   0.696   9.394 -0.5917  0.2345 -0.1725
 5515TIP3    H140740   1.374   0.604   9.368 -0.4881  0.7154 -1.9706
 5515TIP3    H240741   1.414   0.702   9.477  1.0319 -0.9557 -0.9843
 5516TIP3   OH240742   1.067   1.254   9.071  0.1037 -0.6102 -0.4081
 5516TIP3    H140743   1.015   1.328   9.041  0.7519 -0.1206 -0.3399
 5516TIP3    H240744   1.158   1.284   9.066  0.2682 -0.4406  2.1554
 5517TIP3   OH240745   2.222   0.739  16.890 -0.3335  0.5721 -0.4914
 5517TIP3    H140746   2.210   0.813  16.950 -0.9161  1.3109 -1.4826
 5517TIP3    H240747   2.274   0.775  16.818 -0.4122 -0.0448 -0.8631
 5518TIP3   OH240748   0.758   6.590  11.646 -0.1513 -0.3712 -0.1726
 5518TIP3    H140749   0.800   6.640  11.576 -0.5027 -0.1736 -0.2429
 5518TIP3    H240750   0.770   6.643  11.724  0.9392 -0.9624  0.0804
 5519TIP3   OH240751   1.709   5.210  12.347 -0.0854 -0.8031  0.3697
 5519TIP3    H140752   1.640   5.254  12.296 -0.3823 -1.3098  0.3318
 5519TIP3    H240753   1.788   5.220  12.293 -0.1020 -0.1331  0.4584
 5520TIP3   OH240754   1.147   5.884  11.435 -0.0298  0.1418 -0.2546
 5520TIP3    H140755   1.085   5.905  11.504 -1.0962  2.6804 -1.8495
 5520TIP3    H240756   1.093   5.873  11.357  1.2507 -1.4279 -0.9962
 5521TIP3   OH240757   4.784   0.865   8.708 -0.1183 -0.4187 -0.1479
 5521TIP3    H140758   4.836   0.940   8.681 -1.7124  0.3562 -1.2030
 5521TIP3    H240759   4.749   0.889   8.793  0.4159 -0.5302  0.1096
 5522TIP3   OH240760   0.485   2.666   9.742 -0.2792 -0.1863  0.1797
 5522TIP3    H140761   0.511   2.580   9.774  1.2415  0.1390 -0.1194
 5522TIP3    H240762   0.408   2.689   9.794 -0.2770 -1.4021  0.7522
 5523TIP3   OH240763   3.821   0.155   9.107  0.4608 -0.8324 -0.6166
 5523TIP3    H140764   3.767   0.080   9.082  1.4049 -1.2750 -1.4025
 5523TIP3    H240765   3.830   0.148   9.202 -2.0723  0.1109 -0.2071
 5524TIP3   OH240766   4.464   4.784   9.848  1.1003 -0.1659 -0.4143
 5524TIP3    H140767   4.483   4.865   9.801  1.2579 -0.3755 -0.7114
 5524TIP3    H240768   4.457   4.717   9.780  1.0379 -0.4163 -0.1647
 5525TIP3   OH240769   4.880   2.739  11.278  0.1699  0.2383  0.4282
 5525TIP3    H140770   4.890   2.644  11.271 -1.6679  0.0160  0.2478
 5525TIP3    H240771   4.850   2.753  11.368  1.0701  0.7306  0.6617
 5526TIP3   OH240772   2.881   2.397  10.317 -0.4340  0.2589  0.0747
 5526TIP3    H140773   2.816   2.462  10.344  0.5393  0.7964  1.2080
 5526TIP3    H240774   2.921   2.367  10.399  1.6613  0.9262 -0.6359
 5527TIP3   OH240775   5.606   1.500   9.052 -0.1497  0.0072  0.0248
 5527TIP3    H140776   5.541   1.561   9.085  0.2837  0.3228  0.3152
 5527TIP3    H240777   5.601   1.425   9.112  0.2256  0.3263  0.4662
 5528TIP3   OH240778   0.601   1.436  10.087  0.2657 -0.2696  0.1835
 5528TIP3    H140779   0.550   1.515  10.106 -1.1949 -1.2366  0.4848
 5528TIP3    H240780   0.548   1.364  10.122  1.9067 -1.3371  0.6101
 5529TIP3   OH240781   2.234   1.965  18.630  0.0191  0.8579 -0.0408
 5529TIP3    H140782   2.213   1.887  18.682  1.0901  0.4529 -0.1887
 5529TIP3    H240783   2.329   1.969  18.631 -0.0162  2.0233 -0.2723
 5530TIP3   OH240784   1.900   3.504  11.094  0.2142  0.4299  0.3352
 5530TIP3    H140785   1.970   3.565  11.072 -0.9853  1.8448  0.2477
 5530TIP3    H240786   1.837   3.557  11.143  0.4430 -1.4339  2.7889
 5531TIP3   OH240787   3.162   5.542  10.159  0.0666 -0.0827  0.0131
 5531TIP3    H140788   3.177   5.501  10.244 -0.8117 -2.1605 -0.7484
 5531TIP3    H240789   3.190   5.475  10.095 -0.9738  0.7019 -1.3223
 5532TIP3   OH240790   5.281   6.405  11.691  0.2329 -0.0129  0.0539
 5532TIP3    H140791   5.253   6.495  11.672  0.2389  0.2904  1.3265
 5532TIP3    H240792   5.208   6.350  11.665 -0.8870  0.6180  1.7096
 5533TIP3   OH240793   5.119   2.619  11.745  0.1279 -0.0971 -0.3004
 5533TIP3    H140794   5.044   2.616  11.803  0.1804 -0.9748 -0.2709
 5533TIP3    H240795   5.179   2.553  11.780  0.8047  0.4163 -0.4691
 5534TIP3   OH240796   2.192   0.103  12.362 -0.1064 -0.2477  0.3553
 5534TIP3    H140797   2.150   0.153  12.292  0.4288 -1.2803 -0.7196
 5534TIP3    H240798   2.119   0.062  12.409 -0.4607  0.4103  0.4034
 5535TIP3   OH240799   2.600   5.027  12.112  0.2290  0.2201 -0.1614
 5535TIP3    H140800   2.613   5.055  12.202 -1.5954  0.8634 -0.0623
 5535TIP3    H240801   2.555   4.942  12.120  0.9837 -0.2252 -0.4846
 5536TIP3   OH240802   5.409   4.364  11.488 -0.0844  0.1835 -0.5320
 5536TIP3    H140803   5.496   4.349  11.450  0.0569 -1.7485  0.4341
 5536TIP3    H240804   5.350   4.310  11.436 -0.6331  0.9691 -0.7562
 5537TIP3   OH240805   0.056   1.164   8.958 -0.0899 -0.0616 -0.2764
 5537TIP3    H140806   0.098   1.170   8.872 -0.4878 -3.3773 -0.8172
 5537TIP3    H240807  -0.037   1.157   8.939 -0.4141  1.3759  0.6078
 5538TIP3   OH240808   5.756   4.817  11.515  0.2625  0.6060 -0.2838
 5538TIP3    H140809   5.827   4.832  11.577 -0.8044  0.4128  1.0348
 5538TIP3    H240810   5.782   4.865  11.436  2.5212 -0.6273 -0.3756
 5539TIP3   OH240811   3.752   5.130  10.474  0.2101 -0.3046 -0.2943
 5539TIP3    H140812   3.796   5.178  10.404 -0.6748  1.1051  0.0654
 5539TIP3    H240813   3.672   5.097  10.434 -0.4202  0.7200  0.0982
 5540TIP3   OH240814   1.825   3.961  10.248 -0.2739 -0.1149  0.1125
 5540TIP3    H140815   1.865   3.875  10.236  0.3969  0.0048  1.3394
 5540TIP3    H240816   1.737   3.942  10.283 -0.3571 -0.3139 -0.2023
 5541TIP3   OH240817   4.216   2.075   9.086  0.0202  0.7563 -0.1446
 5541TIP3    H140818   4.269   2.115   9.155  1.2053  0.0566 -0.6153
 5541TIP3    H240819   4.261   2.098   9.005 -0.4904  0.2848 -0.5688
 5542TIP3   OH240820   1.816   1.406   9.609  0.3632  0.2028  0.0636
 5542TIP3    H140821   1.908   1.415   9.636 -0.0983 -0.2603  1.8997
 5542TIP3    H240822   1.790   1.320   9.642 -0.8407  0.4953 -0.0968
 5543TIP3   OH240823   3.890   2.129   8.550  0.7178 -0.0657  0.4354
 5543TIP3    H140824   3.895   2.202   8.488  0.8963  0.1489  0.7006
 5543TIP3    H240825   3.970   2.136   8.602 -0.4960  1.1801  2.2589
 5544TIP3   OH240826   1.480   4.263  10.871 -0.1363  0.1813 -0.2525
 5544TIP3    H140827   1.545   4.315  10.918  1.3727 -1.3873 -0.4888
 5544TIP3    H240828   1.405   4.257  10.931  0.9784 -0.1644  1.1628
 5545TIP3   OH240829   4.740   4.521  10.207  0.3535 -0.5908 -0.1290
 5545TIP3    H140830   4.803   4.477  10.149  1.5136 -0.5612  1.0506
 5545TIP3    H240831   4.675   4.558  10.148  0.6149 -1.9071 -1.3095
 5546TIP3   OH240832   3.004   1.990  10.424  0.0585  0.0028 -0.3927
 5546TIP3    H140833   2.978   1.953  10.340  0.6875 -1.1601 -0.1101
 5546TIP3    H240834   3.077   1.934  10.453 -0.5866 -0.0577  1.2313
 5547TIP3   OH240835   5.195   4.844   9.063  0.3597 -0.4717  0.1800
 5547TIP3    H140836   5.147   4.839   9.146  0.1086 -1.0140  0.0074
 5547TIP3    H240837   5.287   4.846   9.089  0.2930 -0.9066  0.4653
 5548TIP3   OH240838   4.014   5.245   9.044 -0.0833 -0.5030 -1.1436
 5548TIP3    H140839   4.076   5.317   9.040 -0.4046  0.0945  2.0212
 5548TIP3    H240840   3.933   5.284   9.076 -0.5399 -2.1059 -0.2374
 5549TIP3   OH240841   2.708   5.725   9.561  0.6570 -0.2450 -0.0843
 5549TIP3    H140842   2.643   5.762   9.621  0.2326  0.1381 -0.7652
 5549TIP3    H240843   2.792   5.736   9.607  0.1074 -2.2707  1.5432
 5550TIP3   OH240844   5.289   6.092  10.247  0.1152  0.8207 -0.1483
 5550TIP3    H140845   5.361   6.072  10.307 -0.7793  1.7402  1.3291
 5550TIP3    H240846   5.223   6.134  10.303 -0.8207  1.6343 -1.7769
 5551TIP3   OH240847   0.972   1.971  11.469  0.2964 -1.4547  0.6486
 5551TIP3    H140848   1.013   1.892  11.505  0.7180 -1.9123 -0.7904
 5551TIP3    H240849   0.945   1.946  11.381 -2.0493 -0.7973  1.1178
 5552TIP3   OH240850   1.455   1.012   9.129  0.1790 -0.1492  0.2950
 5552TIP3    H140851   1.490   1.084   9.077  0.7392  0.6647  1.7446
 5552TIP3    H240852   1.377   1.048   9.171 -0.7802 -1.0668 -0.6394
 5553TIP3   OH240853   5.963   5.866   9.218  0.2295  0.2000  0.1005
 5553TIP3    H140854   5.994   5.833   9.134 -0.2092 -1.7072  0.6420
 5553TIP3    H240855   6.036   5.850   9.279 -0.9252 -2.4280  0.9417
 5554TIP3   OH240856   5.764   1.000   9.887 -0.6042 -0.1056  0.0250
 5554TIP3    H140857   5.858   1.000   9.868 -0.6107 -2.0015 -0.2157
 5554TIP3    H240858   5.744   1.090   9.910  1.6608 -0.0123  1.9547
 5555TIP3   OH240859   3.348   3.752   9.292  0.3400 -0.2843 -0.0068
 5555TIP3    H140860   3.396   3.803   9.226  0.9276 -1.3520 -0.4420
 5555TIP3    H240861   3.404   3.755   9.369 -1.0789  2.3015  1.0569
 5556TIP3   OH240862   5.512   4.126  11.162  0.5061 -0.2314 -0.1420
 5556TIP3    H140863   5.490   4.191  11.228  0.1528 -0.6620  0.1720
 5556TIP3    H240864   5.498   4.042  11.205 -0.2031 -0.5254 -0.9043
 5557TIP3   OH240865   2.024   5.550  11.577  0.1949 -0.3703  0.0024
 5557TIP3    H140866   1.997   5.499  11.653 -0.5156  0.5985  0.4357
 5557TIP3    H240867   1.957   5.619  11.570  2.4731  2.1209  1.0664
 5558TIP3   OH240868   3.280   0.621   9.633 -0.6025  0.1487  0.1382
 5558TIP3    H140869   3.314   0.571   9.707  0.3987  0.8064  0.1347
 5558TIP3    H240870   3.283   0.712   9.661  0.0045  0.4306 -0.7859
 5559TIP3   OH240871   0.605   3.580  10.593 -0.2262 -0.7138  0.0621
 5559TIP3    H140872   0.630   3.488  10.597 -2.4663 -1.4163 -0.6312
 5559TIP3    H240873   0.534   3.589  10.656 -0.7542  0.2721 -0.6349
 5560TIP3   OH240874   4.096   3.400   9.372 -0.6879 -0.5687  0.4480
 5560TIP3    H140875   4.010   3.409   9.332 -1.1551 -1.2307  1.2765
 5560TIP3    H240876   4.092   3.454   9.450  0.5364  1.4850 -0.8115
 5561TIP3   OH240877   1.439   4.076   9.284 -0.6254 -0.1921 -0.9492
 5561TIP3    H140878   1.534   4.066   9.284 -0.6464 -0.4001 -0.6797
 5561TIP3    H240879   1.423   4.154   9.337 -0.5486  0.4420 -1.8358
 5562TIP3   OH240880   3.479   3.854  10.022 -0.5875 -0.6198 -0.2218
 5562TIP3    H140881   3.570   3.881  10.033 -0.7875 -0.2425  0.6652
 5562TIP3    H240882   3.455   3.884   9.935  0.3654 -1.4230 -0.7810
 5563TIP3   OH240883   5.469   2.042  10.825  0.4719  0.4019 -0.0472
 5563TIP3    H140884   5.422   2.009  10.748  0.5506  0.3559 -0.0756
 5563TIP3    H240885   5.557   2.061  10.794  0.3263  0.9820 -0.1120
 5564TIP3   OH240886   6.087   0.311   9.190  0.7110 -0.0929 -0.5692
 5564TIP3    H140887   5.998   0.276   9.178  1.0860 -2.1364  1.6641
 5564TIP3    H240888   6.122   0.319   9.102 -1.5916  0.5618 -1.5072
 5565TIP3   OH240889   1.200   5.367   8.905 -0.6391  0.0876 -0.6283
 5565TIP3    H140890   1.253   5.370   8.985  0.7968  2.3016 -1.5811
 5565TIP3    H240891   1.134   5.435   8.918 -0.2485  0.6217 -1.4083
 5566TIP3   OH240892   0.497   2.667   8.488 -0.7132  0.6233  0.1942
 5566TIP3    H140893   0.513   2.728   8.417  0.4955 -0.3036 -0.3630
 5566TIP3    H240894   0.565   2.600   8.478 -0.6761  0.3261  2.0574
 5567TIP3   OH240895   2.092   5.499   8.807 -0.2611 -0.3013 -0.1364
 5567TIP3    H140896   2.035   5.452   8.867 -0.0313 -2.1008 -1.2350
 5567TIP3    H240897   2.115   5.434   8.740 -0.3618  1.5425 -2.0707
 5568TIP3   OH240898   0.925   0.639   9.594  0.0167  0.6996  0.3629
 5568TIP3    H140899   0.980   0.666   9.667 -0.3726 -1.1312  1.3829
 5568TIP3    H240900   0.872   0.567   9.628 -1.1072  0.6405 -1.3577
 5569TIP3   OH240901   4.489   1.464  10.013 -0.5883  0.6280 -0.1917
 5569TIP3    H140902   4.414   1.432   9.962  0.7374 -0.6980 -1.4260
 5569TIP3    H240903   4.465   1.446  10.104 -0.7069 -2.3805 -0.7045
 5570TIP3   OH240904   0.485   5.295   9.791  0.1438 -0.1639 -0.1866
 5570TIP3    H140905   0.421   5.224   9.786  0.2431 -0.1688 -1.9872
 5570TIP3    H240906   0.537   5.286   9.710  0.6709  1.4749 -0.0600
 5571TIP3   OH240907   3.522   3.943  12.145 -0.2809 -0.3152 -0.4411
 5571TIP3    H140908   3.448   3.989  12.106 -0.3561 -0.2051 -0.1728
 5571TIP3    H240909   3.494   3.923  12.234  0.5295  1.0345  0.1671
 5572TIP3   OH240910   1.465   1.876   9.231  0.1227 -0.2164  0.2145
 5572TIP3    H140911   1.405   1.823   9.178  0.2284 -0.2254  0.1035
 5572TIP3    H240912   1.408   1.920   9.295  0.0133 -0.3259  0.1940
 5573TIP3   OH240913   5.611   6.320  11.097 -0.1585 -0.3776 -0.2280
 5573TIP3    H140914   5.578   6.409  11.083  0.4734 -0.1829 -0.4922
 5573TIP3    H240915   5.564   6.289  11.175  0.5326  0.6550  0.6279
 5574TIP3   OH240916   0.416   5.541  12.023  0.3346 -0.3669  0.5906
 5574TIP3    H140917   0.496   5.593  12.023  2.1810 -2.9254 -1.6835
 5574TIP3    H240918   0.354   5.592  11.972  0.9573  0.9951  1.1262
 5575TIP3   OH240919   1.949   1.086   9.525 -0.0371  0.0259  0.3529
 5575TIP3    H140920   1.872   1.109   9.577 -0.8414 -0.9904 -0.3328
 5575TIP3    H240921   1.932   1.125   9.439 -0.2946 -1.0584 -0.1087
 5576TIP3   OH240922   0.334   1.541  10.160 -0.8997 -0.5000  0.1710
 5576TIP3    H140923   0.348   1.610  10.225  0.6361 -2.0014  1.5332
 5576TIP3    H240924   0.297   1.587  10.084  0.0543  1.8024  1.0047
 5577TIP3   OH240925   6.195   0.729   8.875 -0.4443  0.3321 -0.3910
 5577TIP3    H140926   6.162   0.817   8.892 -1.6296 -0.5354  2.3078
 5577TIP3    H240927   6.122   0.671   8.895  1.4992 -1.4762  2.3071
 5578TIP3   OH240928   4.284   1.626  11.999  0.5731  0.0142 -0.2853
 5578TIP3    H140929   4.377   1.610  11.979  0.5389 -0.7304  0.1153
 5578TIP3    H240930   4.262   1.560  12.065 -0.5077 -0.4529 -1.0869
 5579TIP3   OH240931   0.112   3.744  10.940 -0.4602  0.0035 -0.1342
 5579TIP3    H140932   0.101   3.659  10.898 -0.2026  0.5740 -1.4070
 5579TIP3    H240933   0.109   3.807  10.868  1.3872  0.9164  0.5096
 5580TIP3   OH240934   3.410   2.376  12.224 -0.2283  0.8418 -0.2188
 5580TIP3    H140935   3.372   2.464  12.218 -0.0940  0.9154 -0.0070
 5580TIP3    H240936   3.386   2.346  12.311 -2.1365 -0.2006 -1.0364
 5581TIP3   OH240937   4.265   0.097   9.514 -0.5003  0.8237  0.3388
 5581TIP3    H140938   4.242   0.114   9.422 -0.1065 -0.2695  0.0335
 5581TIP3    H240939   4.197   0.037   9.545  0.2984 -0.1361  0.2675
 5582TIP3   OH240940   3.558   4.305  12.545  0.1730  0.1204  0.1582
 5582TIP3    H140941   3.643   4.267  12.569 -0.4640 -0.4095  1.6612
 5582TIP3    H240942   3.515   4.324  12.628 -0.8674  1.1568 -0.5765
 5583TIP3   OH240943   3.369   3.226  10.912 -0.6355  0.6105  0.0734
 5583TIP3    H140944   3.398   3.316  10.898  2.2631  0.3661  3.2340
 5583TIP3    H240945   3.297   3.233  10.975  0.2903  0.7092  1.1409
 5584TIP3   OH240946   0.072   5.051  10.210  0.1269 -0.0859 -0.0567
 5584TIP3    H140947   0.070   4.993  10.134 -1.2033  1.8912 -1.6377
 5584TIP3    H240948  -0.004   5.026  10.262  0.4774 -0.7968  0.1230
 5585TIP3   OH240949   0.232   0.636   9.441 -0.6963  0.2753 -0.3107
 5585TIP3    H140950   0.221   0.578   9.366 -0.1563 -0.6354  0.3022
 5585TIP3    H240951   0.155   0.619   9.496  0.0344 -0.7262  0.4273
 5586TIP3   OH240952   1.906   6.407   9.114 -0.9231 -0.5669  0.1061
 5586TIP3    H140953   1.929   6.470   9.183  0.1360 -0.5259 -0.2737
 5586TIP3    H240954   1.930   6.450   9.032 -0.9677 -1.1351 -0.2131
 5587TIP3   OH240955   4.200   0.246   8.762 -0.7819  0.0489 -0.3149
 5587TIP3    H140956   4.121   0.289   8.792 -0.4539  0.2268  0.3089
 5587TIP3    H240957   4.180   0.152   8.766 -0.7739  0.0716  0.3870
 5588TIP3   OH240958   5.804   4.775   9.473 -0.9091  0.4585  0.1463
 5588TIP3    H140959   5.855   4.831   9.531 -0.2101  1.9839 -1.8437
 5588TIP3    H240960   5.784   4.698   9.527 -0.4163  1.8064  2.4254
 5589TIP3   OH240961   0.892   2.320  10.682  0.3378 -0.0822 -0.2813
 5589TIP3    H140962   0.873   2.396  10.628  0.5713 -0.2454 -0.5968
 5589TIP3    H240963   0.848   2.337  10.765 -0.2762  0.0282 -0.6295
 5590TIP3   OH240964   3.711   4.821  11.281 -0.1260  0.1732 -0.1075
 5590TIP3    H140965   3.635   4.849  11.332 -0.1532 -0.4021  0.1745
 5590TIP3    H240966   3.696   4.728  11.264  0.0963  0.2592 -0.7976
 5591TIP3   OH240967   5.443   3.202  11.020  0.3679  0.0576 -0.2228
 5591TIP3    H140968   5.410   3.160  11.100  1.1376  1.1309  0.6963
 5591TIP3    H240969   5.364   3.217  10.967 -0.1065 -1.0163  0.1593
 5592TIP3   OH240970   3.925   3.443   8.323 -0.7461  0.1804 -0.5108
 5592TIP3    H140971   3.907   3.449   8.229 -0.7835 -0.9429 -0.5793
 5592TIP3    H240972   3.934   3.535   8.351 -1.1062  0.5411 -1.5286
 5593TIP3   OH240973   1.468   3.820  10.609 -0.5897  0.4162 -0.2708
 5593TIP3    H140974   1.396   3.849  10.665 -0.0322 -1.9173  1.8387
 5593TIP3    H240975   1.477   3.727  10.628  3.0422  0.6114 -0.3553
 5594TIP3   OH240976   5.432   4.444  12.230  0.4580  0.2533  0.3013
 5594TIP3    H140977   5.484   4.478  12.303  3.7834  1.2122 -2.2894
 5594TIP3    H240978   5.472   4.359  12.210 -0.5954 -0.1278 -0.2536
 5595TIP3   OH240979   3.554   4.791  11.806 -0.2249 -0.1995  0.2620
 5595TIP3    H140980   3.493   4.772  11.877 -0.0754 -1.8118 -0.0158
 5595TIP3    H240981   3.638   4.756  11.836 -0.0700 -0.5147 -0.5148
 5596TIP3   OH240982   1.102   2.450  11.292  0.0048 -0.5449 -0.1068
 5596TIP3    H140983   1.094   2.524  11.353 -2.0225  0.7706 -1.8076
 5596TIP3    H240984   1.088   2.372  11.347 -0.5377  0.5052  1.3103
 5597TIP3   OH240985   3.862   2.832   8.677  0.0643  0.4561 -0.1949
 5597TIP3    H140986   3.872   2.925   8.695  1.5781  0.8977 -2.8261
 5597TIP3    H240987   3.772   2.823   8.646  0.3805  1.3822 -1.4681
 5598TIP3   OH240988   0.395   4.186   9.829  0.2617  0.0904 -0.1100
 5598TIP3    H140989   0.363   4.275   9.816  1.1773  0.3559 -0.6687
 5598TIP3    H240990   0.488   4.197   9.852 -0.0857 -0.6194  1.8318
 5599TIP3   OH240991   0.949   2.157  11.179 -0.6012 -0.3559 -0.7227
 5599TIP3    H140992   1.021   2.192  11.127  0.6595 -0.1013  1.1068
 5599TIP3    H240993   0.967   2.186  11.268 -0.8193 -3.5310  0.5025
 5600TIP3   OH240994   0.119   3.085  11.245  0.3639 -0.0775  1.0706
 5600TIP3    H140995   0.191   3.022  11.258  0.6323  0.1336  0.6266
 5600TIP3    H240996   0.118   3.101  11.150  1.3138  1.7752  1.3332
 5601TIP3   OH240997   1.011   0.084   8.904 -0.1222 -0.1167  0.3158
 5601TIP3    H140998   1.044   0.003   8.943 -1.5187 -0.5735  0.6061
 5601TIP3    H240999   0.940   0.055   8.847  0.1597  0.8068 -0.5337
 5602TIP3   OH241000   2.357   3.045  10.411  0.2848  0.2342  0.2233
 5602TIP3    H141001   2.423   3.075  10.348  0.8273 -0.3160  0.5249
 5602TIP3    H241002   2.274   3.054  10.364  0.6090  0.5503 -0.3037
 5603TIP3   OH241003   4.970   2.999  11.515  0.0820 -0.1344  0.1729
 5603TIP3    H141004   4.998   3.046  11.437 -1.2658 -0.2571 -0.4266
 5603TIP3    H241005   5.031   3.026  11.583  1.3535 -0.1048 -0.9369
 5604TIP3   OH241006   0.350   4.837   9.926  0.3019  0.0292 -0.3653
 5604TIP3    H141007   0.257   4.858   9.933  0.5860  1.2728 -0.0503
 5604TIP3    H241008   0.352   4.743   9.912 -1.0104  0.0026 -0.5270
 5605TIP3   OH241009   6.540   4.577  10.588  0.3101 -0.0870 -0.6563
 5605TIP3    H141010   6.523   4.643  10.655  0.6099  0.6218 -1.2604
 5605TIP3    H241011   6.611   4.614  10.535 -0.5881 -0.1757 -1.9694
 5606TIP3   OH241012   3.684   3.059   9.524 -0.0173 -0.4482 -0.7001
 5606TIP3    H141013   3.751   3.002   9.562  0.8929  0.8059 -0.3588
 5606TIP3    H241014   3.604   3.006   9.525  0.2357 -0.8919  1.8584
 5607TIP3   OH241015   6.549   4.385   8.573  1.0176 -0.2821 -0.4332
 5607TIP3    H141016   6.535   4.463   8.627  1.7796 -1.1989  1.1455
 5607TIP3    H241017   6.644   4.369   8.579  0.5441 -2.9695  1.7250
 5608TIP3   OH241018   5.913   4.582  10.727  0.6570 -0.4302 -0.1852
 5608TIP3    H141019   5.922   4.522  10.652  1.0451 -2.0149  1.0661
 5608TIP3    H241020   5.843   4.642  10.702  0.2685 -1.3874 -1.5153
 5609TIP3   OH241021   3.538   4.897   9.133  0.0324  0.1296  0.5542
 5609TIP3    H141022   3.529   4.810   9.173 -2.0036  0.7040  1.4777
 5609TIP3    H241023   3.553   4.879   9.040  0.3414 -1.2091  0.8346
 5610TIP3   OH241024   0.364   3.727  11.993  0.2003 -0.2747 -0.4026
 5610TIP3    H141025   0.420   3.658  12.030  0.6971 -0.5389 -1.5998
 5610TIP3    H241026   0.328   3.772  12.069  4.4935  1.9859  0.6427
 5611TIP3   OH241027   4.383   0.299  10.763  0.3203  0.1436  0.7807
 5611TIP3    H141028   4.459   0.292  10.706 -0.8236 -0.1660 -0.7428
 5611TIP3    H241029   4.414   0.268  10.848  0.9860 -3.5224 -0.6368
 5612TIP3   OH241030   4.671   2.230  10.092  0.0300  0.2117 -0.3487
 5612TIP3    H141031   4.604   2.297  10.077  0.4654  0.5089 -0.9829
 5612TIP3    H241032   4.700   2.205  10.005 -0.2266 -0.9239 -0.1252
 5613TIP3   OH241033   5.565   0.357   9.587 -0.1845 -0.0789 -0.2196
 5613TIP3    H141034   5.519   0.290   9.537  0.1884 -0.6068  0.1303
 5613TIP3    H241035   5.542   0.339   9.678  1.6371 -1.1046  0.0874
 5614TIP3   OH241036   6.283   1.041  10.495  0.4582 -0.6481 -0.1265
 5614TIP3    H141037   6.350   1.015  10.431 -0.1894 -0.0826 -1.0614
 5614TIP3    H241038   6.264   1.133  10.474 -1.0516 -0.9786 -0.2863
 5615TIP3   OH241039   1.772   5.847  12.036  0.4823  0.0131  0.7086
 5615TIP3    H141040   1.767   5.806  12.122 -0.8645  0.6071  0.9323
 5615TIP3    H241041   1.708   5.800  11.982  0.5944  0.2990  0.3178
 5616TIP3   OH241042   5.995   5.498   9.873  0.1114 -0.1198  0.3140
 5616TIP3    H141043   5.936   5.518   9.945  1.1810  1.0151  0.9122
 5616TIP3    H241044   5.937   5.484   9.798 -1.0016 -0.9515  1.2934
 5617TIP3   OH241045   3.676   0.645  12.102 -0.5719 -0.3538  0.4976
 5617TIP3    H141046   3.644   0.665  12.014  2.2596 -0.3164 -0.6506
 5617TIP3    H241047   3.612   0.584  12.139 -1.5580 -0.7777 -1.7783
 5618TIP3   OH241048   5.031   1.849  10.772 -0.7540  0.1172 -0.3956
 5618TIP3    H141049   4.941   1.881  10.779 -0.8682  0.0472 -1.4439
 5618TIP3    H241050   5.064   1.850  10.862 -1.9215 -0.2049  0.0518
 5619TIP3   OH241051   6.397   5.834  11.289  0.1681 -0.2590  0.1068
 5619TIP3    H141052   6.403   5.853  11.382 -0.3166 -0.5265  0.1977
 5619TIP3    H241053   6.429   5.745  11.279  2.6727  0.6152 -0.3575
 5620TIP3   OH241054   6.486   4.296  10.538  0.3820 -0.1696 -0.1858
 5620TIP3    H141055   6.392   4.284  10.552  0.4036  0.6256  0.7502
 5620TIP3    H241056   6.497   4.391  10.525  1.5158  0.4832  4.0971
 5621TIP3   OH241057   5.427   0.069   9.533 -0.4138 -0.5560 -0.3224
 5621TIP3    H141058   5.509   0.049   9.580 -0.1601 -0.0131 -0.5331
 5621TIP3    H241059   5.413  -0.007   9.477  1.4041  0.4907 -2.3162
 5622TIP3   OH241060   5.409   3.265  11.699 -0.0480  0.5129  0.0896
 5622TIP3    H141061   5.495   3.299  11.671  0.6199  0.5969  2.1151
 5622TIP3    H241062   5.430   3.199  11.765 -1.5148 -0.6095 -0.5163
 5623TIP3   OH241063   3.253   5.033  12.614  0.4625 -0.2384 -0.2831
 5623TIP3    H141064   3.184   4.972  12.586  1.4797 -1.1399 -0.9103
 5623TIP3    H241065   3.278   5.003  12.701  1.3048 -1.0540 -0.7895
 5624TIP3   OH241066   1.573   3.500  12.360 -0.2895 -0.2900  0.5333
 5624TIP3    H141067   1.560   3.412  12.325  1.5760  0.7457 -3.2370
 5624TIP3    H241068   1.663   3.501  12.392 -0.4568  0.1452  1.0191
 5625TIP3   OH241069   4.744   4.279  10.609 -0.1852  0.0355 -0.3076
 5625TIP3    H141070   4.734   4.350  10.545  0.6284 -0.7953 -1.3882
 5625TIP3    H241071   4.657   4.242  10.619  0.0960 -1.6999 -3.1877
 5626TIP3   OH241072   1.823   3.890   9.813  0.0076  0.1780 -0.0711
 5626TIP3    H141073   1.752   3.866   9.753  0.4520 -0.9816 -0.1664
 5626TIP3    H241074   1.886   3.819   9.805  0.2655  0.1842  1.4854
 5627TIP3   OH241075   4.432   3.918   9.870  0.5056 -0.2936 -0.0937
 5627TIP3    H141076   4.453   3.825   9.876  0.0384 -0.5131 -1.4439
 5627TIP3    H241077   4.344   3.925   9.907  1.1138 -0.1138  1.3960
 5628TIP3   OH241078   5.568   2.934   9.559  0.5912  0.3064  0.2364
 5628TIP3    H141079   5.538   2.962   9.645 -1.4719  2.5712 -1.0922
 5628TIP3    H241080   5.644   2.988   9.540  0.3179  0.6607  0.1508
 5629TIP3   OH241081   2.125   4.822  10.371 -0.1240 -0.0129 -0.1507
 5629TIP3    H141082   2.064   4.841  10.442 -1.4080  0.1985 -1.2721
 5629TIP3    H241083   2.192   4.890  10.378  0.5720 -0.8147  1.6877
 5630TIP3   OH241084   5.032   5.580  10.449  0.3253  0.1846  0.4358
 5630TIP3    H141085   5.070   5.666  10.429  0.5102  0.3402  1.3904
 5630TIP3    H241086   5.017   5.582  10.544 -2.2859  0.2244  0.1164
 5631TIP3   OH241087   5.551   5.974   9.499 -0.4249  0.2392 -0.0257
 5631TIP3    H141088   5.631   6.025   9.516 -0.2125 -0.2355  0.4416
 5631TIP3    H241089   5.487   6.010   9.561 -0.3672  0.1483  0.0865
 5632TIP3   OH241090   3.442   5.289  10.569  0.4381 -0.0758 -0.2707
 5632TIP3    H141091   3.482   5.249  10.492 -0.8569  0.0828 -1.0589
 5632TIP3    H241092   3.396   5.218  10.612 -0.7516  0.2611 -0.9371
 5633TIP3   OH241093   3.045   5.405  11.771  0.2008  0.6266  0.3428
 5633TIP3    H141094   2.991   5.327  11.754  0.9260 -0.2802  1.9732
 5633TIP3    H241095   2.983   5.471  11.800 -0.2287  0.1111  0.6213
 5634TIP3   OH241096   4.804   1.557   9.148  0.4071  0.1370 -0.6448
 5634TIP3    H141097   4.801   1.514   9.063  0.9357  0.6545 -0.9317
 5634TIP3    H241098   4.835   1.489   9.208 -2.0866 -0.9037 -0.4034
 5635TIP3   OH241099   1.497   3.314   9.126  0.2654 -0.3747 -0.0243
 5635TIP3    H141100   1.437   3.329   9.053 -1.3014 -0.5632  1.1979
 5635TIP3    H241101   1.456   3.246   9.178  1.2055 -0.0291  1.2244
 5636TIP3   OH241102   5.494   0.076   9.160 -0.3393 -0.8078 -0.3224
 5636TIP3    H141103   5.588   0.074   9.179 -0.3103 -0.7577 -0.4621
 5636TIP3    H241104   5.488   0.060   9.066 -0.3848  0.6700 -0.5966
 5637TIP3   OH241105   3.109   6.490   9.358 -0.0816  0.3824 -0.0093
 5637TIP3    H141106   3.058   6.416   9.324  0.4749 -0.3591  0.7333
 5637TIP3    H241107   3.090   6.491   9.451  1.6517 -0.2672  0.3928
 5638TIP3   OH241108   2.238   4.035  10.419 -0.3002  0.7456 -0.7616
 5638TIP3    H141109   2.214   4.046  10.328 -0.2509  0.2651 -0.8349
 5638TIP3    H241110   2.214   4.118  10.461 -3.8200 -0.2690 -0.4430
 5639TIP3   OH241111   0.609   5.441   9.273  0.1407  0.2696 -0.4089
 5639TIP3    H141112   0.557   5.483   9.204 -0.0857  1.2726  0.3443
 5639TIP3    H241113   0.606   5.503   9.346  0.6220 -0.6348  0.4019
 5640TIP3   OH241114   1.345   2.329  10.259  0.2930  0.3505 -0.0367
 5640TIP3    H141115   1.291   2.262  10.300 -0.7685  0.2504 -1.5022
 5640TIP3    H241116   1.360   2.394  10.328  0.5821 -0.9265  1.1441
 5641TIP3   OH241117   5.650   1.046   8.832  0.3755 -0.5292  0.4782
 5641TIP3    H141118   5.573   1.006   8.791 -0.6903  0.1507  1.7350
 5641TIP3    H241119   5.628   1.139   8.837  1.4040 -0.2882  0.6256
 5642TIP3   OH241120   6.145   5.328   9.274  0.1614  0.0379  0.3383
 5642TIP3    H141121   6.186   5.361   9.194 -1.0711 -1.0637 -0.7909
 5642TIP3    H241122   6.158   5.233   9.272 -0.8151 -0.1301  0.8872
 5643TIP3   OH241123   3.369   5.438  11.301 -0.8737 -0.0558  0.0557
 5643TIP3    H141124   3.443   5.498  11.307  0.1550 -1.3984  1.2974
 5643TIP3    H241125   3.343   5.423  11.392 -1.1651 -1.4279 -0.2391
 5644TIP3   OH241126   4.895   0.660  11.313  0.9715 -0.0406  0.1029
 5644TIP3    H141127   4.865   0.703  11.233  0.8343 -1.3324 -0.5807
 5644TIP3    H241128   4.815   0.625  11.353  1.0102  0.8089  0.9521
 5645TIP3   OH241129   2.648   2.448  12.148  0.7308  0.0867  0.1252
 5645TIP3    H141130   2.572   2.394  12.169  1.8499 -1.3534  0.7431
 5645TIP3    H241131   2.723   2.393  12.173  1.9477  2.4193  1.9603
 5646TIP3   OH241132   0.880   5.941  10.822 -0.2823  0.1741  0.2820
 5646TIP3    H141133   0.866   5.857  10.867  2.0731  0.0708  0.9116
 5646TIP3    H241134   0.799   5.954  10.773 -1.0993 -2.0063  0.9010
 5647TIP3   OH241135   3.685   5.329  11.570 -0.5606 -0.4762  0.6518
 5647TIP3    H141136   3.762   5.353  11.519  0.6504  1.7134  3.2948
 5647TIP3    H241137   3.704   5.241  11.602 -0.3317 -0.9552 -0.7242
 5648TIP3   OH241138   1.569   6.167  10.857 -0.7629  0.9413  0.2185
 5648TIP3    H141139   1.506   6.227  10.818  0.0950  1.0958 -0.9791
 5648TIP3    H241140   1.589   6.205  10.943 -2.5863  0.6604  0.8197
 5649TIP3   OH241141   0.696   3.316  11.191  0.5830  0.3926 -0.4235
 5649TIP3    H141142   0.698   3.370  11.112  1.0246 -0.0750 -0.7433
 5649TIP3    H241143   0.773   3.258  11.183 -0.7825 -1.4365 -0.9118
 5650TIP3   OH241144   4.964   4.803   9.246 -0.5579  0.1417  0.1472
 5650TIP3    H141145   5.034   4.765   9.299 -1.9227  1.1339  2.8966
 5650TIP3    H241146   4.905   4.730   9.228  0.5809 -0.4750 -1.2364
 5651TIP3   OH241147   4.857   5.324  10.961  0.4672  0.1214 -0.3131
 5651TIP3    H141148   4.928   5.385  10.945  2.0509 -1.5186  0.1121
 5651TIP3    H241149   4.898   5.250  11.006 -1.8157 -0.1476  1.5709
 5652TIP3   OH241150   3.756   4.671  12.017 -0.7829  0.2977 -0.0486
 5652TIP3    H141151   3.744   4.723  12.097  0.0698  0.4043  0.0106
 5652TIP3    H241152   3.798   4.590  12.047 -1.4314 -0.1220 -0.2459
 5653TIP3   OH241153   3.260   6.406  10.220 -0.1916  0.4256 -0.0766
 5653TIP3    H141154   3.197   6.420  10.150 -1.2966 -0.6883  0.6601
 5653TIP3    H241155   3.209   6.367  10.291  1.1235  0.4744  0.9307
 5654TIP3   OH241156   2.318   3.269  10.658 -0.0166  0.0277  0.4779
 5654TIP3    H141157   2.299   3.247  10.566 -0.1382 -2.0609  0.9454
 5654TIP3    H241158   2.327   3.184  10.701  0.4499  0.9716  2.3359
 5655TIP3   OH241159   0.677   0.095  11.179  0.1097 -0.5557 -0.6569
 5655TIP3    H141160   0.668   0.007  11.214 -0.6568 -0.1181  0.2863
 5655TIP3    H241161   0.772   0.106  11.168  0.4154 -0.6855  1.4271
 5656TIP3   OH241162   3.016   6.111   9.772  0.0220 -0.0212  0.1569
 5656TIP3    H141163   2.987   6.199   9.797 -1.4507 -0.7512  1.1961
 5656TIP3    H241164   2.995   6.057   9.848  1.9285 -1.0891 -0.0257
 5657TIP3   OH241165   1.908   5.799  11.400  0.0485 -0.3397  0.5214
 5657TIP3    H141166   1.829   5.803  11.454 -0.8931  0.3005 -0.8550
 5657TIP3    H241167   1.878   5.823  11.312  1.1570 -3.1195 -0.7240
 5658TIP3   OH241168   3.811   0.929   9.523 -0.0232  0.5135  0.5144
 5658TIP3    H141169   3.758   0.979   9.462  0.2964  0.0759 -0.1357
 5658TIP3    H241170   3.851   0.860   9.470 -0.4912 -0.4619  1.3917
 5659TIP3   OH241171   1.468   5.086  12.460 -0.2151  0.1098  0.9918
 5659TIP3    H141172   1.547   5.126  12.422 -0.1137  0.2454  1.3402
 5659TIP3    H241173   1.501   5.035  12.534 -0.1297 -1.9184 -0.3537
 5660TIP3   OH241174   3.403   3.274   9.403  0.0138  0.4596  0.7481
 5660TIP3    H141175   3.318   3.284   9.446 -0.2411 -1.9067  0.9236
 5660TIP3    H241176   3.465   3.319   9.461 -0.9739  1.4852  1.0451
 5661TIP3   OH241177   4.193   2.537  11.359  0.2444  0.0068  0.3134
 5661TIP3    H141178   4.259   2.583  11.411  1.1134 -2.2944  1.4080
 5661TIP3    H241179   4.232   2.529  11.272 -0.6173  2.6484 -0.3921
 5662TIP3   OH241180   2.217   3.976  11.466 -0.1790  0.1267 -0.5212
 5662TIP3    H141181   2.285   3.914  11.437 -0.6963 -1.9645  2.3274
 5662TIP3    H241182   2.140   3.953  11.413 -0.2303 -1.4379  0.1694
 5663TIP3   OH241183   5.835   3.541   9.200  0.5100 -0.7156  0.1550
 5663TIP3    H141184   5.839   3.529   9.105  1.3280 -0.1476  0.1053
 5663TIP3    H241185   5.917   3.585   9.222 -0.8981  1.8092  0.7316
 5664TIP3   OH241186   4.469   0.682   8.646  0.7709 -0.2085 -0.2189
 5664TIP3    H141187   4.382   0.649   8.670  0.3479  0.2223 -1.0993
 5664TIP3    H241188   4.494   0.739   8.718 -0.0731  0.3601 -0.3655
 5665TIP3   OH241189   5.116   4.098  12.374  0.0486  0.0234  0.0116
 5665TIP3    H141190   5.174   4.034  12.416  0.2526  0.3492  0.2278
 5665TIP3    H241191   5.066   4.136  12.446  0.3289  0.5117 -0.0455
 5666TIP3   OH241192   1.234   4.645  11.508  0.4667 -0.1886  0.1416
 5666TIP3    H141193   1.278   4.567  11.474 -0.1808 -0.5436  0.1032
 5666TIP3    H241194   1.156   4.655  11.453 -0.3761 -0.5269  1.2459
 5667TIP3   OH241195   2.066   6.193  11.370 -0.1289  0.2019 -0.1525
 5667TIP3    H141196   2.076   6.285  11.393 -0.8119 -0.3610  2.8512
 5667TIP3    H241197   1.972   6.181  11.358  0.0669  0.1130 -1.7989
 5668TIP3   OH241198   4.116   3.193  10.897 -0.4685  0.0474  0.7744
 5668TIP3    H141199   4.103   3.187  10.803  2.5283 -1.6196  0.3545
 5668TIP3    H241200   4.114   3.102  10.927  0.0590  0.4463  2.0874
 5669TIP3   OH241201   2.692   2.270  10.515  0.3064  0.0243  0.3273
 5669TIP3    H141202   2.772   2.306  10.553  0.2899  1.0319 -0.5517
 5669TIP3    H241203   2.633   2.259  10.590  0.8259  0.4541  0.8092
 5670TIP3   OH241204   0.307   1.703  10.579 -0.1507  0.0710  0.2625
 5670TIP3    H141205   0.338   1.615  10.602  1.7027  1.1943  2.5855
 5670TIP3    H241206   0.336   1.715  10.488  2.6631 -0.5393  0.9819
 5671TIP3   OH241207   4.040   3.685  13.580  0.7404 -0.3928  0.3441
 5671TIP3    H141208   4.061   3.743  13.507 -1.6499 -0.7800 -0.7740
 5671TIP3    H241209   3.944   3.683  13.582  0.6817 -0.2749  3.6561
 5672TIP3   OH241210   3.688   2.645   9.333  0.1868  0.0387 -0.1056
 5672TIP3    H141211   3.752   2.602   9.277  0.3123  0.1153 -0.0233
 5672TIP3    H241212   3.663   2.724   9.286  0.0103 -0.0889 -0.2247
 5673TIP3   OH241213   2.131   4.304  11.072  0.4175  0.0041 -0.2475
 5673TIP3    H141214   2.225   4.321  11.078  0.2174  1.2823 -0.4275
 5673TIP3    H241215   2.106   4.275  11.160  0.7297  1.0976  0.2174
 5674TIP3   OH241216   2.235   6.425  10.918  0.0667  0.7676 -0.1946
 5674TIP3    H141217   2.272   6.428  11.006 -0.2481  1.4449 -0.0818
 5674TIP3    H241218   2.192   6.339  10.913  0.8970  0.3286 -0.0317
 5675TIP3   OH241219   5.826   6.108  10.731 -0.0622 -0.5019  0.3553
 5675TIP3    H141220   5.894   6.111  10.799  1.9131  0.1611 -1.5379
 5675TIP3    H241221   5.794   6.198  10.726  0.3387 -0.3771 -0.0764
 5676TIP3   OH241222   1.469   2.038  11.906  0.0250  0.5249 -0.0151
 5676TIP3    H141223   1.405   2.068  11.970 -0.9030  0.2076 -0.7653
 5676TIP3    H241224   1.553   2.074  11.936 -0.5906  1.4158  0.6731
 5677TIP3   OH241225   2.975   6.270   9.233  0.0991 -0.3282 -0.1275
 5677TIP3    H141226   2.950   6.262   9.325  0.1503 -0.7418 -0.1511
 5677TIP3    H241227   2.924   6.203   9.188  0.1469 -0.1904 -0.3885
 5678TIP3   OH241228   5.448   0.520   9.183 -0.4925  0.2275 -0.0968
 5678TIP3    H141229   5.540   0.518   9.210 -0.3950 -0.9100 -0.4769
 5678TIP3    H241230   5.444   0.588   9.116  0.1577 -0.0088 -0.3788
 5679TIP3   OH241231   1.904   3.415  11.422  0.0305 -0.2892  0.2337
 5679TIP3    H141232   1.851   3.374  11.354 -1.5421  0.4599  0.9469
 5679TIP3    H241233   1.969   3.349  11.445 -1.6065 -1.9031  0.4553
 5680TIP3   OH241234   5.667   0.093  11.056 -0.6871  0.3668 -0.3810
 5680TIP3    H141235   5.646  -0.000  11.047 -1.4442  0.5319 -0.3528
 5680TIP3    H241236   5.663   0.109  11.150  1.4062 -0.0041 -0.1625
 5681TIP3   OH241237   2.829   0.126  12.346 -0.0444 -0.2110 -0.3192
 5681TIP3    H141238   2.760   0.095  12.287  0.6791 -0.1160 -1.2520
 5681TIP3    H241239   2.816   0.078  12.427 -1.3507 -0.0094 -0.3970
 5682TIP3   OH241240   6.394   1.003   9.881  0.2852  0.1318  0.2300
 5682TIP3    H141241   6.410   0.927   9.824  3.6411 -0.2680  1.4523
 5682TIP3    H241242   6.365   1.072   9.821  0.7495 -1.0848 -1.4846
 5683TIP3   OH241243   3.814   5.513  10.375  0.2865 -0.1177 -0.3706
 5683TIP3    H141244   3.854   5.597  10.398 -1.0152  0.5782 -0.5141
 5683TIP3    H241245   3.874   5.474  10.311  0.3181  1.2982 -1.2625
 5684TIP3   OH241246   5.979   0.366   9.932  0.4488 -0.2577 -0.4326
 5684TIP3    H141247   5.891   0.400   9.918 -0.1867 -2.0988 -1.2816
 5684TIP3    H241248   6.002   0.325   9.848  1.8197 -0.4631  0.0156
 5685TIP3   OH241249   4.259   6.246   9.018 -0.1437 -0.3718  0.2543
 5685TIP3    H141250   4.302   6.162   9.002 -0.6396 -0.2470 -1.9478
 5685TIP3    H241251   4.238   6.280   8.931 -1.7275  1.1235  1.1527
 5686TIP3   OH241252   0.244   0.573  10.458  0.5147  0.3389  0.1535
 5686TIP3    H141253   0.340   0.582  10.460  0.4807  0.5898  1.5244
 5686TIP3    H241254   0.213   0.657  10.423  0.8636 -0.8349 -3.3894
 5687TIP3   OH241255   4.454   2.135   8.453 -0.5552  0.2329  0.5608
 5687TIP3    H141256   4.544   2.148   8.482 -1.2226  0.1117  2.9195
 5687TIP3    H241257   4.438   2.207   8.393  1.1832  0.0851 -0.1479
 5688TIP3   OH241258   6.129   5.367  11.963 -0.1810  0.5528  0.4978
 5688TIP3    H141259   6.210   5.333  12.002 -0.2280  0.0313  0.1478
 5688TIP3    H241260   6.059   5.322  12.011 -0.2421  0.0707 -0.0391
 5689TIP3   OH241261   1.250   4.839  12.569 -0.1230  0.2913 -0.3514
 5689TIP3    H141262   1.264   4.899  12.496  0.2650 -2.0280 -2.2839
 5689TIP3    H241263   1.305   4.874  12.639 -0.5228  2.5994 -1.1179
 5690TIP3   OH241264   2.243   4.247  12.966 -0.2000  0.0344 -0.2913
 5690TIP3    H141265   2.155   4.252  12.927 -0.0216  1.2474 -0.5929
 5690TIP3    H241266   2.237   4.177  13.031 -1.8655  1.1267  0.8117
 5691TIP3   OH241267   4.885   4.436   8.972  0.0940 -0.0708  0.1172
 5691TIP3    H141268   4.912   4.524   8.948  0.6020 -0.5482 -1.1731
 5691TIP3    H241269   4.795   4.429   8.940  0.4800 -0.4171 -0.9509
 5692TIP3   OH241270   2.027   5.079  11.584 -0.2692  0.2611  0.1193
 5692TIP3    H141271   1.971   5.125  11.646  0.7568  0.2501  1.0844
 5692TIP3    H241272   2.116   5.097  11.614  0.2110 -3.9408  1.7611
 5693TIP3   OH241273   0.767   1.457   9.153  0.4858 -0.2119 -0.4722
 5693TIP3    H141274   0.763   1.435   9.246  0.6146  0.7212 -0.2428
 5693TIP3    H241275   0.689   1.511   9.137  1.1456  0.7044 -0.6178
 5694TIP3   OH241276   5.508   4.165  10.360 -0.2862  0.4693  0.1166
 5694TIP3    H141277   5.565   4.241  10.356  0.5675 -0.0411  1.7058
 5694TIP3    H241278   5.506   4.141  10.453  0.6212 -2.2827 -0.4763
 5695TIP3   OH241279   0.934   4.430  10.332 -0.2093 -0.4396 -0.3149
 5695TIP3    H141280   0.914   4.496  10.265 -0.8322  0.2076  0.4775
 5695TIP3    H241281   1.027   4.413  10.323  0.0932  0.9990 -0.1626
 5696TIP3   OH241282   1.282   1.715   9.976 -0.7078 -0.1700 -0.2699
 5696TIP3    H141283   1.237   1.705  10.061  1.5696  0.1542  1.0508
 5696TIP3    H241284   1.263   1.805   9.950 -0.8386 -0.0378  0.2664
 5697TIP3   OH241285   5.142   3.860   9.360 -0.4063  0.2894 -0.6739
 5697TIP3    H141286   5.065   3.917   9.370 -0.4608  0.0023  0.6577
 5697TIP3    H241287   5.106   3.776   9.331 -0.4090  0.6447 -1.7578
 5698TIP3   OH241288   4.122   5.897  11.238 -0.1378 -0.0714  0.2984
 5698TIP3    H141289   4.138   5.806  11.212 -0.7918 -0.0472 -0.1829
 5698TIP3    H241290   4.209   5.937  11.239 -0.0590 -0.1020 -1.7376
 5699TIP3   OH241291   2.579   0.814  10.749  0.3467 -0.0097 -0.9744
 5699TIP3    H141292   2.605   0.757  10.821 -0.6613  1.1066  0.3143
 5699TIP3    H241293   2.638   0.790  10.677  3.4624  0.8759  1.0857
 5700TIP3   OH241294   5.214   1.020   9.335 -0.2417 -0.1359  0.9958
 5700TIP3    H141295   5.163   1.088   9.380 -0.3921 -0.5979  1.5422
 5700TIP3    H241296   5.231   0.955   9.403  2.4513  0.7390  1.2521
 5701TIP3   OH241297   3.498   3.968   8.895  0.0236  0.4283 -0.4414
 5701TIP3    H141298   3.526   3.947   8.984  1.9431 -2.1475 -1.5243
 5701TIP3    H241299   3.413   3.924   8.885 -0.5959  1.4233  0.3411
 5702TIP3   OH241300   0.392   2.855   8.852 -0.1362  0.0858  0.0099
 5702TIP3    H141301   0.427   2.913   8.784 -0.4890  0.7858  0.4146
 5702TIP3    H241302   0.469   2.807   8.884  0.4454  1.4773  0.7677
 5703TIP3   OH241303   4.003   2.778  11.821  0.2885  0.1262 -0.1432
 5703TIP3    H141304   4.097   2.794  11.831  0.4513  0.5648 -2.0090
 5703TIP3    H241305   3.975   2.846  11.759 -1.2047 -0.1865  0.1753
 5704TIP3   OH241306   4.250   2.803   9.753  0.5824 -0.1436 -0.5481
 5704TIP3    H141307   4.177   2.743   9.746 -0.4005  0.5898  2.2490
 5704TIP3    H241308   4.219   2.885   9.714 -1.0822  0.8584  2.5146
 5705TIP3   OH241309   2.119   3.627   9.057  0.2708 -0.2034 -0.1034
 5705TIP3    H141310   2.116   3.548   9.111  1.2946 -0.4117 -0.3403
 5705TIP3    H241311   2.102   3.597   8.968 -1.4744  0.1482  0.0665
 5706TIP3   OH241312   3.254   1.833  11.040 -0.9171 -0.0081 -0.3131
 5706TIP3    H141313   3.341   1.796  11.027 -0.3717  1.3454 -0.7400
 5706TIP3    H241314   3.201   1.797  10.969 -0.6229 -0.5874 -0.2412
 5707TIP3   OH241315   0.712   0.954   8.995 -0.0724  0.5631 -0.0126
 5707TIP3    H141316   0.667   0.884   9.042 -1.4167  1.1426 -0.4004
 5707TIP3    H241317   0.776   0.908   8.940 -1.5929 -0.4569 -0.9987
 5708TIP3   OH241318   5.253   3.805  10.168  0.0655  0.4599  0.2481
 5708TIP3    H141319   5.226   3.720  10.134 -0.1004  0.4166  0.4857
 5708TIP3    H241320   5.226   3.867  10.101  1.1666  0.2235 -0.4340
 5709TIP3   OH241321   2.941   5.384  10.071 -0.4377 -0.2020  0.4093
 5709TIP3    H141322   2.958   5.311  10.130 -2.1018 -0.7939  0.2161
 5709TIP3    H241323   3.021   5.437  10.074  0.0704 -0.9880  2.0549
 5710TIP3   OH241324   0.202   6.346   9.906  0.0517 -0.2248  0.0470
 5710TIP3    H141325   0.227   6.254   9.919  1.3886  0.1005 -0.0697
 5710TIP3    H241326   0.282   6.395   9.925 -0.5811  0.9055 -0.1358
 5711TIP3   OH241327   3.872   4.710   9.918  0.3366 -0.3161 -0.4613
 5711TIP3    H141328   3.797   4.677   9.870 -0.3716  0.1431  0.3024
 5711TIP3    H241329   3.838   4.784   9.968  0.9698 -0.9509  0.9594
 5712TIP3   OH241330   3.981   2.551   9.389 -0.1732 -0.3746  0.5348
 5712TIP3    H141331   3.923   2.554   9.465 -1.1161 -0.3804 -0.1752
 5712TIP3    H241332   4.033   2.631   9.395  0.0495 -0.5732  1.4010
 5713TIP3   OH241333   1.274   0.255  10.901 -0.1802  0.0899 -0.2349
 5713TIP3    H141334   1.238   0.220  10.982 -1.2615  0.3543 -0.5930
 5713TIP3    H241335   1.223   0.334  10.884  3.2380  2.9603  1.4599
 5714TIP3   OH241336   2.351   3.655  12.394 -0.2971 -0.2518 -0.2729
 5714TIP3    H141337   2.260   3.628  12.405 -0.5880  0.3824 -1.0543
 5714TIP3    H241338   2.391   3.583  12.345 -0.3422 -0.5988  0.2005
 5715TIP3   OH241339   5.665   4.649  11.063 -0.3266 -0.0942  0.1117
 5715TIP3    H141340   5.667   4.588  10.989 -2.6174  0.6480 -0.6531
 5715TIP3    H241341   5.642   4.734  11.024 -0.9603  0.4539  1.5912
 5716TIP3   OH241342   6.391   2.698   8.638  1.0545 -0.3157 -0.5545
 5716TIP3    H141343   6.386   2.603   8.651 -0.1912 -0.2050 -0.0862
 5716TIP3    H241344   6.327   2.716   8.569  1.2350  0.1958 -0.5898
 5717TIP3   OH241345   4.683   3.749   9.717 -0.1006 -0.3965  0.4058
 5717TIP3    H141346   4.747   3.807   9.759 -0.3353 -0.2906  0.6217
 5717TIP3    H241347   4.631   3.714   9.789 -0.5077 -0.2117  0.2094
 5718TIP3   OH241348   6.069   1.563  11.387 -0.8590  0.0712  0.2951
 5718TIP3    H141349   6.011   1.629  11.424  0.1725  1.8456 -1.0675
 5718TIP3    H241350   6.145   1.613  11.356 -0.1847 -1.7028 -1.0973
 5719TIP3   OH241351   3.962   6.248  11.641  0.1216 -0.2766 -0.5332
 5719TIP3    H141352   4.018   6.220  11.713  0.1157 -0.5330 -0.6274
 5719TIP3    H241353   4.008   6.219  11.562 -1.5008 -3.0647 -0.5579
 5720TIP3   OH241354   4.732   2.160  11.135  0.6719 -0.3972 -0.1150
 5720TIP3    H141355   4.677   2.085  11.114  0.5491 -0.3913  0.1853
 5720TIP3    H241356   4.805   2.122  11.184 -1.4069  0.1063  3.7513
 5721TIP3   OH241357   6.633   0.411  10.384  0.1449 -0.3488 -0.3670
 5721TIP3    H141358   6.594   0.497  10.371  1.1326  0.1333 -0.2226
 5721TIP3    H241359   6.561   0.350  10.371 -0.5358  0.4898 -0.6201
 5722TIP3   OH241360   6.466   5.545   8.922 -0.0748  0.2204  0.8103
 5722TIP3    H141361   6.490   5.637   8.933 -2.0496  0.7009  1.6295
 5722TIP3    H241362   6.548   5.501   8.900  1.3170  1.8332  2.4033
 5723TIP3   OH241363   0.078   4.727   9.365  0.1264  0.6003  0.1587
 5723TIP3    H141364   0.138   4.725   9.290  0.1213  1.1418  0.1387
 5723TIP3    H241365   0.040   4.639   9.368  1.2668  0.0873  0.4489
 5724TIP3   OH241366   1.334   3.147  10.464 -1.0287 -0.3093  0.3678
 5724TIP3    H141367   1.266   3.080  10.462 -0.0814 -1.3404 -2.0109
 5724TIP3    H241368   1.306   3.211  10.399 -0.5773  0.1633  0.6338
 5725TIP3   OH241369   6.128   3.742   9.488 -0.6022 -0.0218 -0.1012
 5725TIP3    H141370   6.050   3.729   9.541  0.2437  1.1473  1.5394
 5725TIP3    H241371   6.200   3.713   9.544  0.2935  0.8427 -0.7680
 5726TIP3   OH241372   1.667   5.549  10.803  0.2792  0.0227 -0.1882
 5726TIP3    H141373   1.603   5.557  10.732 -0.7803 -0.3491  0.7061
 5726TIP3    H241374   1.615   5.537  10.882  1.4618 -0.4432  0.5511
 5727TIP3   OH241375   3.468   2.652   9.815 -0.2560 -0.2064 -0.3174
 5727TIP3    H141376   3.390   2.706   9.824  0.6993  1.2380 -0.4917
 5727TIP3    H241377   3.473   2.603   9.898 -1.4165 -0.4278 -0.3721
 5728TIP3   OH241378   6.409   6.136  11.373 -0.0030  0.5915  0.8631
 5728TIP3    H141379   6.437   6.063  11.427 -0.4866 -0.8492 -0.7235
 5728TIP3    H241380   6.470   6.206  11.394  2.5798 -1.2808  0.1387
 5729TIP3   OH241381   4.107   5.125  12.561  0.7230 -0.0424  0.2553
 5729TIP3    H141382   4.086   5.214  12.533  0.2020 -0.3847 -0.4677
 5729TIP3    H241383   4.201   5.116  12.544  0.3620 -0.3886 -1.9160
 5730TIP3   OH241384   5.823   0.366   9.663 -0.7181 -0.7051  0.2128
 5730TIP3    H141385   5.736   0.375   9.624  0.1629  0.8924 -1.6305
 5730TIP3    H241386   5.843   0.454   9.696  0.6312 -0.7003 -0.5233
 5731TIP3   OH241387   6.608   6.472   8.536 -0.0037 -0.1962 -0.0506
 5731TIP3    H141388   6.559   6.418   8.598 -0.8467  0.1457 -0.4055
 5731TIP3    H241389   6.543   6.532   8.500  0.6685  0.2203 -0.5846
 5732TIP3   OH241390   3.896   2.886  10.625 -0.6562 -0.2153 -0.2414
 5732TIP3    H141391   3.851   2.810  10.588 -1.1425 -0.3578  0.6278
 5732TIP3    H241392   3.852   2.902  10.708  2.7611 -2.3072  2.2651
 5733TIP3   OH241393   0.844   1.914   9.660  0.0070  0.1648  0.4177
 5733TIP3    H141394   0.859   1.871   9.744  0.6024 -0.3079  0.0748
 5733TIP3    H241395   0.920   1.970   9.647  0.1818 -0.1722 -0.0522
 5734TIP3   OH241396   1.791   3.426  11.730  0.4359 -0.0669 -0.2605
 5734TIP3    H141397   1.796   3.368  11.653  1.1774 -0.6997  0.2467
 5734TIP3    H241398   1.739   3.500  11.700  1.5457  0.1908 -1.7070
 5735TIP3   OH241399   1.580   4.536  10.398  0.3797 -0.0636 -0.2351
 5735TIP3    H141400   1.666   4.503  10.421 -0.0366 -1.0123 -0.0081
 5735TIP3    H241401   1.519   4.481  10.447 -0.2983  2.3147  1.8296
 5736TIP3   OH241402   0.404   5.463   9.076  0.4113 -0.7830 -0.3371
 5736TIP3    H141403   0.387   5.371   9.056 -0.4816 -0.4335 -1.2981
 5736TIP3    H241404   0.407   5.505   8.990  0.4807  0.1448  0.1142
 5737TIP3   OH241405   2.807   3.854   8.684  0.2368  0.0619  0.0617
 5737TIP3    H141406   2.754   3.850   8.605  0.9538  2.3684 -0.6370
 5737TIP3    H241407   2.745   3.878   8.753  0.1334  1.6232 -0.5312
 5738TIP3   OH241408   4.496   0.888  11.045  0.3343  0.0311 -0.0245
 5738TIP3    H141409   4.411   0.877  11.003 -0.5489 -0.0706  1.6999
 5738TIP3    H241410   4.485   0.850  11.133  2.2220 -0.1820  0.1770
 5739TIP3   OH241411   5.604   2.417  10.387 -0.4646 -0.3078  0.3749
 5739TIP3    H141412   5.693   2.452  10.380 -0.5243 -0.1864  0.1837
 5739TIP3    H241413   5.610   2.349  10.453 -0.9103  1.8909  2.8556
 5740TIP3   OH241414   3.280   4.975   9.940 -0.5062  0.0802  0.4833
 5740TIP3    H141415   3.233   5.055   9.915  0.0946  0.1398 -0.4933
 5740TIP3    H241416   3.338   4.957   9.867 -0.2331 -0.9567  0.9327
 5741TIP3   OH241417   4.033   6.026  10.575  0.3363 -0.1904 -0.3797
 5741TIP3    H141418   4.051   6.000  10.665  1.1152  1.5382 -0.0075
 5741TIP3    H241419   3.987   6.109  10.582 -0.7407 -0.6598 -1.5639
 5742TIP3   OH241420   0.639   5.682  11.984 -0.3370  0.2777  0.1761
 5742TIP3    H141421   0.702   5.651  11.920 -0.6306 -0.8199  0.4045
 5742TIP3    H241422   0.688   5.743  12.039  0.1512  0.5201 -0.5197
 5743TIP3   OH241423   3.043   0.577  20.448  0.3397 -0.2238 -0.2840
 5743TIP3    H141424   3.058   0.510  20.515  1.8221 -2.4642 -2.6401
 5743TIP3    H241425   2.954   0.561  20.418  0.0068  0.1543  0.4936
 5744TIP3   OH241426   4.659   5.922  10.703  0.1264 -0.1532  0.2861
 5744TIP3    H141427   4.645   5.974  10.623  0.5111 -0.7212 -0.1580
 5744TIP3    H241428   4.740   5.875  10.687 -0.0254 -0.6092  0.8408
 5745TIP3   OH241429   1.512   5.289  10.955  0.0397  0.1304 -0.2165
 5745TIP3    H141430   1.520   5.384  10.953  1.6886  0.0234 -0.4210
 5745TIP3    H241431   1.528   5.265  11.046  0.5687  0.0097 -0.3326
 5746TIP3   OH241432   2.776   1.478   9.335  0.0248  0.5953  0.5491
 5746TIP3    H141433   2.869   1.495   9.320  0.3252 -0.7852  0.6893
 5746TIP3    H241434   2.753   1.537   9.407  0.6586  1.2903  0.2065
 5747TIP3   OH241435   5.301   4.957  10.377  0.5118 -0.3134  0.2244
 5747TIP3    H141436   5.385   4.912  10.372  0.8867  0.3509  0.3648
 5747TIP3    H241437   5.243   4.896  10.423  0.9724 -0.7007  0.2902
 5748TIP3   OH241438   1.297   2.377  10.594 -0.5659 -0.2882 -0.2067
 5748TIP3    H141439   1.238   2.302  10.598  0.4492 -1.1035 -0.1169
 5748TIP3    H241440   1.361   2.361  10.664 -0.5713  0.8736  0.0832
 5749TIP3   OH241441   3.557   6.004  10.674 -0.0283  0.7541 -0.1885
 5749TIP3    H141442   3.519   5.954  10.746 -0.2287  0.4167 -0.5198
 5749TIP3    H241443   3.542   5.949  10.597  0.8233  0.7830 -0.3800
 5750TIP3   OH241444   1.548   6.487   8.976 -0.5362 -0.2574  0.3900
 5750TIP3    H141445   1.585   6.476   8.888 -1.1608  0.2984  0.0520
 5750TIP3    H241446   1.487   6.413   8.985 -0.9035  0.0138  0.1296
 5751TIP3   OH241447   0.474   5.377  11.032  0.0815 -0.0204  0.2755
 5751TIP3    H141448   0.525   5.296  11.026  1.6393  0.9306  0.2678
 5751TIP3    H241449   0.490   5.422  10.950 -1.0046  0.1863  0.1636
 5752TIP3   OH241450   4.711   1.603  10.926 -0.1548  0.0921 -0.7666
 5752TIP3    H141451   4.752   1.689  10.921 -0.1773  0.1652  0.0728
 5752TIP3    H241452   4.784   1.542  10.940 -0.1881  0.0417 -0.8126
 5753TIP3   OH241453   0.710   4.154  11.109  0.5084  0.0922  0.2662
 5753TIP3    H141454   0.720   4.085  11.174 -0.1402  0.1476  0.4248
 5753TIP3    H241455   0.800   4.180  11.087  0.8074 -1.5138 -0.5574
 5754TIP3   OH241456   5.331   0.152   9.912  0.1361  0.2193 -0.1684
 5754TIP3    H141457   5.295   0.109   9.834 -0.3253  1.7008 -0.8101
 5754TIP3    H241458   5.260   0.207   9.944  1.3127  2.0789 -0.5884
 5755TIP3   OH241459   4.302   3.725  11.452  0.1038 -0.2195  0.4680
 5755TIP3    H141460   4.346   3.678  11.381  0.6368  1.6189 -0.4892
 5755TIP3    H241461   4.229   3.770  11.410 -0.2517 -0.0005  1.2968
 5756TIP3   OH241462   2.789   4.823   8.960  0.1022 -0.5337  0.2058
 5756TIP3    H141463   2.876   4.847   8.928  0.1062  1.0983  1.3484
 5756TIP3    H241464   2.730   4.888   8.921 -0.3735 -0.6293  0.7493
 5757TIP3   OH241465   2.434   2.315  10.410  0.0265 -0.2492 -0.2584
 5757TIP3    H141466   2.413   2.288  10.320 -1.1811  1.0607 -0.4063
 5757TIP3    H241467   2.528   2.299  10.418  0.4717  1.0034 -2.2738
 5758TIP3   OH241468   2.433   0.964   9.135 -0.0983 -0.4789  0.8269
 5758TIP3    H141469   2.401   0.889   9.085 -2.1126  1.7448 -1.5346
 5758TIP3    H241470   2.527   0.966   9.117 -0.3077 -1.4575 -0.5151
 5759TIP3   OH241471   3.666   2.028   9.838  0.2218 -0.6810  0.2765
 5759TIP3    H141472   3.756   1.999   9.849  0.3936 -0.0942  0.4169
 5759TIP3    H241473   3.614   1.955   9.873  0.5715 -1.7003 -1.2155
 5760TIP3   OH241474   6.128   5.690  10.658 -0.8308 -1.1886 -0.1143
 5760TIP3    H141475   6.224   5.683  10.660 -0.5456  1.6453  1.3937
 5760TIP3    H241476   6.102   5.685  10.750 -2.1295 -1.8348 -0.5051
 5761TIP3   OH241477   4.094   5.893   9.325  0.2770 -0.2572  0.0393
 5761TIP3    H141478   4.161   5.937   9.378  1.3614 -1.2229 -0.4853
 5761TIP3    H241479   4.083   5.949   9.248 -1.4461  1.2564  1.3014
 5762TIP3   OH241480   2.546   6.454  11.563  0.4667 -0.6046  0.0762
 5762TIP3    H141481   2.589   6.387  11.509  0.6161  0.1047 -0.6992
 5762TIP3    H241482   2.617   6.511  11.592  0.2090 -0.1428 -0.1864
 5763TIP3   OH241483   5.515   1.670   8.796 -0.2423 -0.4969 -0.0301
 5763TIP3    H141484   5.508   1.759   8.831 -1.0062 -0.3601 -0.5181
 5763TIP3    H241485   5.547   1.618   8.870 -1.1757 -0.0846  0.6831
 5764TIP3   OH241486   5.140   6.258   9.167 -0.6370 -0.6315  0.3812
 5764TIP3    H141487   5.212   6.260   9.230 -0.1781  0.7134 -0.1471
 5764TIP3    H241488   5.177   6.212   9.091  0.0690  0.9445 -0.2916
 5765TIP3   OH241489   0.291   6.145   9.045  0.1804  0.2873 -0.5993
 5765TIP3    H141490   0.209   6.111   9.079  0.1433  0.5067 -0.4620
 5765TIP3    H241491   0.330   6.191   9.119  1.2336 -1.2269 -0.1589
 5766TIP3   OH241492   5.066   5.868  10.521 -0.0590 -0.4772  0.7840
 5766TIP3    H141493   5.133   5.910  10.575  1.0939 -2.1990  0.7646
 5766TIP3    H241494   4.996   5.847  10.583  1.1957 -2.3178  1.7096
 5767TIP3   OH241495   2.485   6.592   8.862  0.4493  0.4144 -0.6230
 5767TIP3    H141496   2.457   6.663   8.804 -0.5149  0.3483 -0.2605
 5767TIP3    H241497   2.523   6.636   8.938  0.7921  0.5230 -0.8588
 5768TIP3   OH241498   0.037   2.786   8.988  0.4015  0.2443  0.7424
 5768TIP3    H141499   0.061   2.781   9.081 -0.6274  1.1319  1.0789
 5768TIP3    H241500  -0.051   2.822   8.988  0.8130  1.3299 -0.6335
 5769TIP3   OH241501   3.161   0.980  11.142  0.3959  0.1404  0.1412
 5769TIP3    H141502   3.204   1.040  11.081  1.7809 -0.6400  0.3165
 5769TIP3    H241503   3.166   1.024  11.227  1.7439 -0.3481  0.3395
 5770TIP3   OH241504   5.594   4.884  12.410 -0.5439  0.0489 -0.8542
 5770TIP3    H141505   5.621   4.808  12.357 -0.2086 -0.6238  0.2497
 5770TIP3    H241506   5.506   4.905  12.379 -0.4327 -0.4543 -1.5368
 5771TIP3   OH241507   4.128   4.818   9.546 -0.0655 -0.4976  0.3524
 5771TIP3    H141508   4.198   4.882   9.532  0.4482 -0.9727  0.7399
 5771TIP3    H241509   4.148   4.778   9.630 -0.7709 -0.6867  0.4350
 5772TIP3   OH241510   1.194   0.516  10.803  0.0082  0.3484  0.4488
 5772TIP3    H141511   1.250   0.588  10.828 -0.1879  0.1834  1.4012
 5772TIP3    H241512   1.139   0.551  10.732  1.1620  0.5586 -0.3673
 5773TIP3   OH241513   0.024   0.055   9.807 -1.0097 -0.3668 -0.5086
 5773TIP3    H141514   0.071   0.057   9.723  1.1894 -1.9204  0.5888
 5773TIP3    H241515   0.091   0.077   9.872 -1.9915 -1.7858  1.0650
 5774TIP3   OH241516   6.467   0.695   9.913 -0.3108  0.7153 -0.0324
 5774TIP3    H141517   6.387   0.661   9.873 -0.5303  2.4553 -1.1849
 5774TIP3    H241518   6.524   0.715   9.839  0.4883  1.1911  0.6970
 5775TIP3   OH241519   0.338   4.375  11.996  0.3778 -0.4717 -0.0489
 5775TIP3    H141520   0.327   4.341  11.907  0.3658  0.4941 -0.4288
 5775TIP3    H241521   0.367   4.300  12.047  1.3580 -0.8242 -1.0873
 5776TIP3   OH241522   2.957   3.784   9.750 -0.2842  0.0758  0.2800
 5776TIP3    H141523   3.026   3.740   9.799  1.1662  1.9635  0.0215
 5776TIP3    H241524   2.887   3.796   9.815 -0.3711 -1.7093  0.5797
 5777TIP3   OH241525   2.016   4.256  10.500  0.0461  0.6016 -0.0045
 5777TIP3    H141526   1.952   4.186  10.515 -0.8722  1.1951 -1.0620
 5777TIP3    H241527   2.041   4.285  10.588  1.4896 -1.9359  0.5357
 5778TIP3   OH241528   4.030   3.283  10.239 -0.3346  0.2610  0.1142
 5778TIP3    H141529   3.984   3.228  10.302 -0.4698 -0.6707 -0.7562
 5778TIP3    H241530   4.089   3.223  10.193  0.2882  1.0515 -0.1515
 5779TIP3   OH241531   0.635   6.043   8.913  0.0228  0.1296  0.6816
 5779TIP3    H141532   0.668   6.002   8.834  0.1584  0.3283  0.6330
 5779TIP3    H241533   0.711   6.086   8.952 -0.3832  1.6505 -0.0885
 5780TIP3   OH241534   0.726   1.355   9.824 -0.0602 -0.4122 -0.0357
 5780TIP3    H141535   0.721   1.399   9.908  0.4220 -2.1956  0.9853
 5780TIP3    H241536   0.816   1.325   9.817 -0.1375 -0.4588 -1.1132
 5781TIP3   OH241537   4.538   3.990   9.141  0.2205 -0.7937  0.4817
 5781TIP3    H141538   4.587   4.009   9.060 -1.1728  2.3343  0.2315
 5781TIP3    H241539   4.465   3.935   9.112  0.3243 -0.5863 -0.1959
 5782TIP3   OH241540   5.630   1.273  10.737 -0.1257 -0.2497  0.7087
 5782TIP3    H141541   5.665   1.267  10.826 -0.6903  1.8387  1.1118
 5782TIP3    H241542   5.663   1.356  10.703  0.2210 -1.0929 -1.1230
 5783TIP3   OH241543   4.648   3.986  10.681 -0.3167 -0.4643 -0.5139
 5783TIP3    H141544   4.710   4.013  10.614  0.5520 -0.6391  0.1881
 5783TIP3    H241545   4.600   4.066  10.703  2.0284  0.5849  1.3429
 5784TIP3   OH241546   3.553   3.558   8.756  0.0886 -0.1552  0.0690
 5784TIP3    H141547   3.539   3.623   8.687 -1.0197  0.9213  1.2363
 5784TIP3    H241548   3.587   3.481   8.711 -0.8981  0.4010 -1.7158
 5785TIP3   OH241549   0.497   3.104   9.854  0.3845  0.0878 -0.7922
 5785TIP3    H141550   0.435   3.050   9.904  1.4799 -1.5504 -1.1409
 5785TIP3    H241551   0.476   3.194   9.880 -3.3209 -0.1881 -2.1993
 5786TIP3   OH241552   1.217   1.743   9.656 -0.2611 -0.4686  0.9318
 5786TIP3    H141553   1.311   1.730   9.668 -0.1205  0.4656  0.9057
 5786TIP3    H241554   1.193   1.807   9.723 -0.7766 -0.3247  0.6173
 5787TIP3   OH241555   5.129   0.626  10.136  0.0470  0.2567  0.0748
 5787TIP3    H141556   5.119   0.675  10.054  0.3700  3.1140  1.6202
 5787TIP3    H241557   5.042   0.590  10.153 -0.1732  0.1479 -1.2001
 5788TIP3   OH241558   2.040   2.913  10.650 -0.9880 -0.5217 -0.4077
 5788TIP3    H141559   1.947   2.909  10.674 -0.5834 -0.8128  1.1979
 5788TIP3    H241560   2.080   2.966  10.719 -0.0377  0.0694 -1.3907
 5789TIP3   OH241561   2.249   5.184   9.694 -0.5522  0.1897  0.1222
 5789TIP3    H141562   2.295   5.214   9.616  0.1213  0.4776  0.6149
 5789TIP3    H241563   2.264   5.090   9.696 -0.0147  0.2738  0.2479
 5790TIP3   OH241564   3.687   3.956  13.439  0.1267 -0.3254  0.2887
 5790TIP3    H141565   3.632   3.959  13.361  1.3908 -1.1569 -0.6685
 5790TIP3    H241566   3.677   3.867  13.472  0.8649 -0.4851  0.1103
 5791TIP3   OH241567   3.850   1.664   8.967  0.5920  0.3933 -0.3888
 5791TIP3    H141568   3.821   1.756   8.967 -0.4166  0.0902 -0.9825
 5791TIP3    H241569   3.818   1.629   8.884  1.0969 -0.4630 -0.2287
 5792TIP3   OH241570   5.207   4.264  10.957  0.8091 -0.4467  0.7353
 5792TIP3    H141571   5.214   4.187  11.013 -1.3179  0.0550  1.8128
 5792TIP3    H241572   5.133   4.245  10.898  0.9313  0.3457  0.3126
 5793TIP3   OH241573   0.238   4.342  10.388 -0.5796 -0.8260 -0.7205
 5793TIP3    H141574   0.227   4.338  10.293 -2.8922  1.3992 -0.6786
 5793TIP3    H241575   0.275   4.429  10.403 -1.3523 -0.6761  0.4311
 5794TIP3   OH241576   4.048   4.753  10.626 -0.1044 -0.4048  0.3507
 5794TIP3    H141577   3.985   4.819  10.653  0.3360 -0.5710  1.8288
 5794TIP3    H241578   4.002   4.670  10.636 -0.2293 -0.4181 -0.2801
 5795TIP3   OH241579   3.121   2.655   9.184  0.1457 -0.2543  0.2115
 5795TIP3    H141580   3.049   2.711   9.210 -2.5362 -3.2217 -0.2222
 5795TIP3    H241581   3.121   2.584   9.248  2.3841 -0.6411 -0.1222
 5796TIP3   OH241582   0.953   5.444  11.309  0.3727  0.5121  0.0744
 5796TIP3    H141583   1.021   5.382  11.334 -0.7017 -0.6978  0.1105
 5796TIP3    H241584   0.882   5.389  11.277 -1.2769  1.6050  1.6617
 5797TIP3   OH241585   2.911   4.960  10.647  0.0284 -0.4124  0.0959
 5797TIP3    H141586   2.954   4.923  10.570  1.0364  0.0970  0.3885
 5797TIP3    H241587   2.941   4.905  10.720 -0.3713 -0.4707  0.2192
 5798TIP3   OH241588   5.090   4.496   8.639 -0.4299 -0.6763  0.8439
 5798TIP3    H141589   5.117   4.585   8.616 -0.2946 -0.6763  1.0074
 5798TIP3    H241590   5.125   4.482   8.727 -1.1895 -0.5717  1.1745
 5799TIP3   OH241591   3.350   4.280   9.079  0.7198 -0.6902  0.2198
 5799TIP3    H141592   3.445   4.276   9.070  0.8113 -0.6423  1.0453
 5799TIP3    H241593   3.333   4.363   9.124  0.2541 -0.4928 -0.3185
 5800TIP3   OH241594   4.589   2.587  11.025 -0.0784  0.0003  0.3886
 5800TIP3    H141595   4.613   2.673  10.991  0.3181  0.3669  1.5556
 5800TIP3    H241596   4.655   2.528  10.989  0.9825  0.5584  1.3618
 5801TIP3   OH241597   5.302   6.291  11.127  0.1591 -0.2075  0.6857
 5801TIP3    H141598   5.367   6.362  11.131 -1.2942  1.1677  0.8440
 5801TIP3    H241599   5.267   6.285  11.215 -0.2853 -0.6007  0.4853
 5802TIP3   OH241600   4.432   2.777   9.988 -0.0165 -0.0954  0.2668
 5802TIP3    H141601   4.500   2.834   9.950  1.0456 -1.3129  0.2737
 5802TIP3    H241602   4.369   2.765   9.917 -0.1337  0.8978  0.1948
 5803TIP3   OH241603   5.541   0.891  10.042  0.4147 -0.6411  0.4295
 5803TIP3    H141604   5.491   0.827   9.992  1.0314 -1.1483  0.4464
 5803TIP3    H241605   5.612   0.917   9.983  1.0358 -1.1030  0.9515
 5804TIP3   OH241606   2.922   2.314   9.616  0.3897  0.1788  0.3871
 5804TIP3    H141607   2.878   2.398   9.603  0.3020 -0.0384 -0.7847
 5804TIP3    H241608   2.852   2.249   9.607  0.5971 -0.0678  0.5444
 5805TIP3   OH241609   6.476   5.196   9.704 -0.2796 -0.6861 -0.0176
 5805TIP3    H141610   6.421   5.209   9.627  0.8666 -0.2034 -0.7787
 5805TIP3    H241611   6.482   5.282   9.744 -0.5314 -0.8528  0.3816
 5806TIP3   OH241612   4.415   5.931   8.833  0.3593  0.3894 -0.4001
 5806TIP3    H141613   4.321   5.912   8.840  0.2137  1.3863  0.6972
 5806TIP3    H241614   4.437   5.971   8.917  1.7273  0.3704 -0.7353
 5807TIP3   OH241615   2.662   6.469  11.031  0.1984 -0.5115 -0.4125
 5807TIP3    H141616   2.685   6.548  11.080 -1.2265  1.1775 -2.2972
 5807TIP3    H241617   2.722   6.468  10.957 -0.8696 -0.2150 -1.3087
 5808TIP3   OH241618   2.417   0.833   9.402  0.5711  0.1185  0.1825
 5808TIP3    H141619   2.481   0.904   9.402  0.1178  0.5415 -0.3873
 5808TIP3    H241620   2.332   0.877   9.396  0.3104 -0.4866 -0.8880
 5809TIP3   OH241621   3.604   2.734  11.697 -1.1318 -0.3068 -0.3433
 5809TIP3    H141622   3.649   2.671  11.753 -0.4946 -0.1678 -0.6917
 5809TIP3    H241623   3.635   2.819  11.728  0.5137 -0.2727 -1.9592
 5810TIP3   OH241624   5.856   3.827  10.432  0.3802 -0.2563  0.0894
 5810TIP3    H141625   5.934   3.800  10.384  0.1300 -0.1336 -0.3851
 5810TIP3    H241626   5.889   3.888  10.498  0.9007 -1.4269  0.9436
 5811TIP3   OH241627   1.962   4.124  12.512 -0.5435  0.0249  0.2220
 5811TIP3    H141628   1.890   4.128  12.575 -1.4917 -1.3924 -0.7214
 5811TIP3    H241629   1.922   4.146  12.428 -0.2547 -2.2532 -0.5787
 5812TIP3   OH241630   2.625   3.835   8.915 -0.6923 -0.3422 -0.3792
 5812TIP3    H141631   2.657   3.874   8.996  0.9068  1.4167 -1.7818
 5812TIP3    H241632   2.545   3.789   8.940 -1.8805  2.5915  1.6765
 5813TIP3   OH241633   0.577   4.995   9.322 -0.5749 -0.2522 -0.4788
 5813TIP3    H141634   0.526   4.918   9.348  0.6129 -1.3527 -1.2855
 5813TIP3    H241635   0.613   4.972   9.237  0.2967  0.9635 -0.4581
 5814TIP3   OH241636   1.930   5.325  11.743 -0.2311  0.1398 -0.2470
 5814TIP3    H141637   2.021   5.337  11.769 -0.1352  0.2288 -0.6183
 5814TIP3    H241638   1.882   5.322  11.826  0.1536 -0.2999 -0.0340
 5815TIP3   OH241639   4.185   5.458   8.955  1.2463 -0.0812 -0.5359
 5815TIP3    H141640   4.208   5.510   9.033  0.7470 -1.4821  0.5866
 5815TIP3    H241641   4.265   5.410   8.934  1.7023  1.0652 -1.5653
 5816TIP3   OH241642   0.856   4.683   8.570 -0.0252 -0.7180 -0.0036
 5816TIP3    H141643   0.896   4.633   8.499  1.4573  1.2569 -0.6204
 5816TIP3    H241644   0.914   4.669   8.645  1.0058  0.9138 -0.4759
 5817TIP3   OH241645   0.204   0.833   8.960  0.3395  0.2668  0.0102
 5817TIP3    H141646   0.256   0.898   9.007 -0.6673  1.9481 -1.0791
 5817TIP3    H241647   0.184   0.875   8.876  1.0511 -2.1233 -1.4729
 5818TIP3   OH241648   2.010   5.723  10.161 -0.0247 -0.1986  0.0589
 5818TIP3    H141649   1.988   5.676  10.241  1.6775 -0.4457  0.4269
 5818TIP3    H241650   2.097   5.759  10.178  2.1063 -3.3025 -2.8987
 5819TIP3   OH241651   0.529   2.405   9.828 -0.4002 -0.3154 -1.0148
 5819TIP3    H141652   0.529   2.320   9.871 -0.0449 -1.0067 -2.3213
 5819TIP3    H241653   0.437   2.424   9.811 -0.4243 -0.8364 -1.4689
 5820TIP3   OH241654   6.084   1.569   9.725 -0.0134  0.1254 -0.3360
 5820TIP3    H141655   6.024   1.498   9.701 -0.6672  0.7672 -0.5949
 5820TIP3    H241656   6.065   1.587   9.816  0.7961 -0.6462  0.0090
 5821TIP3   OH241657   2.937   6.204  12.303 -0.0365 -0.0911 -0.2806
 5821TIP3    H141658   2.989   6.226  12.380  0.8891 -0.9054 -0.6399
 5821TIP3    H241659   2.889   6.284  12.282 -0.2065  0.1752  1.0535
 5822TIP3   OH241660   0.560   2.002  10.229 -0.1077 -0.3218  0.3130
 5822TIP3    H141661   0.474   1.998  10.189  0.3971  0.5085 -0.9167
 5822TIP3    H241662   0.576   2.095  10.242 -0.2131 -0.5521  2.4242
 5823TIP3   OH241663   4.494   4.212  10.720  0.2169 -0.3001  0.2805
 5823TIP3    H141664   4.421   4.220  10.658  0.0819  0.4844  0.5274
 5823TIP3    H241665   4.455   4.229  10.806  0.7940  0.7348  0.3521
 5824TIP3   OH241666   1.495   2.177  10.652  0.6489  0.4423  0.1460
 5824TIP3    H141667   1.439   2.125  10.595  0.3406  0.1190  0.7378
 5824TIP3    H241668   1.583   2.168  10.615  0.3631  0.7440 -0.6350
 5825TIP3   OH241669   5.227   1.515  11.622  0.1355  0.0834 -0.0120
 5825TIP3    H141670   5.281   1.558  11.557  0.3400  0.5210  0.4401
 5825TIP3    H241671   5.250   1.422  11.615  1.4981  0.3479  0.6803
 5826TIP3   OH241672   1.745   2.956  11.138 -0.7153  0.1336 -0.2751
 5826TIP3    H141673   1.838   2.941  11.155 -0.7255  0.9426  0.5879
 5826TIP3    H241674   1.720   2.886  11.078  0.3827 -0.2628 -0.2912
 5827TIP3   OH241675   1.733   3.799   9.559 -0.3122 -0.2034  0.3477
 5827TIP3    H141676   1.701   3.754   9.480 -1.0555 -1.9883  1.5936
 5827TIP3    H241677   1.819   3.833   9.533 -0.1540 -1.4963 -0.9905
 5828TIP3   OH241678   1.009   0.880  11.423 -0.6828 -0.3212 -0.2012
 5828TIP3    H141679   0.963   0.827  11.488  1.0902 -1.1966  0.4257
 5828TIP3    H241680   1.051   0.949  11.473 -2.0853  1.0790 -0.8874
 5829TIP3   OH241681   3.973   4.352   8.570 -0.0463 -0.4944 -0.2007
 5829TIP3    H141682   4.040   4.330   8.636 -0.8969  0.7012  1.1073
 5829TIP3    H241683   3.914   4.277   8.570  0.7202 -1.1171 -0.6462
 5830TIP3   OH241684   3.362   5.029  10.684 -0.3333  0.0062  0.4440
 5830TIP3    H141685   3.415   4.974  10.741  1.5348  0.8530 -0.3884
 5830TIP3    H241686   3.277   5.033  10.727 -0.1997 -2.5790  1.0852
 5831TIP3   OH241687   3.192   5.929  10.610 -0.1355 -0.3888  0.0653
 5831TIP3    H141688   3.189   6.020  10.579 -0.6862 -0.4005  0.0687
 5831TIP3    H241689   3.241   5.882  10.544 -1.3112 -0.4207 -0.8160
 5832TIP3   OH241690   3.047   1.877   9.854  0.0683  0.4106 -0.0204
 5832TIP3    H141691   2.976   1.821   9.823 -0.0113  0.4457  0.0972
 5832TIP3    H241692   3.090   1.908   9.774  1.5296 -1.6222 -0.0897
 5833TIP3   OH241693   4.155   3.225   9.698 -0.1876 -0.8020 -0.5439
 5833TIP3    H141694   4.087   3.277   9.742 -0.3927  0.1412 -1.8852
 5833TIP3    H241695   4.123   3.135   9.702 -0.7525 -0.5804  0.1901
 5834TIP3   OH241696   3.543   5.565   9.002 -0.1582 -0.3755 -0.2900
 5834TIP3    H141697   3.466   5.575   9.058 -1.1943 -2.5285 -1.2175
 5834TIP3    H241698   3.537   5.636   8.939 -1.3492 -0.4783 -0.2982
 5835TIP3   OH241699   3.905   5.763  10.485 -0.0989 -0.2465  0.8915
 5835TIP3    H141700   3.952   5.846  10.474 -1.0420  0.0214 -2.0723
 5835TIP3    H241701   3.844   5.760  10.411 -2.8014 -1.8768  2.9708
 5836TIP3   OH241702   3.876   1.502  10.181  0.3998  0.5228  0.0684
 5836TIP3    H141703   3.926   1.426  10.151 -0.6639 -0.0324 -0.3899
 5836TIP3    H241704   3.940   1.558  10.224  1.2264 -0.6182  0.3789
 5837TIP3   OH241705   4.621   4.171  10.362 -0.1298 -0.4770 -0.3844
 5837TIP3    H141706   4.569   4.238  10.407  0.7024 -0.0916  0.0409
 5837TIP3    H241707   4.563   4.136  10.295 -1.1320 -0.4831  0.4668
 5838TIP3   OH241708   4.461   6.056   9.065  0.5290 -0.9637 -0.0059
 5838TIP3    H141709   4.490   6.139   9.102 -3.1110  1.4577 -1.9610
 5838TIP3    H241710   4.461   5.995   9.139  0.1733  1.6965  2.3466
 5839TIP3   OH241711   0.683   4.564   9.640  0.0876  0.4732 -0.8421
 5839TIP3    H141712   0.705   4.658   9.638  2.1933  0.0539  0.1838
 5839TIP3    H241713   0.718   4.530   9.558  0.7167  0.3348 -0.5260
 5840TIP3   OH241714   4.887   1.917  11.225  0.2106  0.2011 -0.5080
 5840TIP3    H141715   4.804   1.875  11.249 -0.1459  0.6617 -0.9078
 5840TIP3    H241716   4.920   1.955  11.306  1.3505 -2.1728  0.2519
 5841TIP3   OH241717   4.696   5.502  10.709 -0.4140  0.7084 -0.1008
 5841TIP3    H141718   4.645   5.442  10.762 -0.5023  1.0832  0.2377
 5841TIP3    H241719   4.666   5.486  10.619 -1.3429  1.1296  0.1186
 5842TIP3   OH241720   4.531   6.332  12.144  0.3556  0.9664  0.2215
 5842TIP3    H141721   4.448   6.302  12.180  1.1923 -0.5230  1.0077
 5842TIP3    H241722   4.542   6.421  12.180  0.3916  0.1445  2.4259
 5843TIP3   OH241723   1.974   5.265  12.134 -0.0185 -0.0402  0.1596
 5843TIP3    H141724   1.898   5.283  12.079 -0.2743  0.2657  0.6013
 5843TIP3    H241725   1.970   5.170  12.149  0.0640 -0.1272 -0.3559
 5844TIP3   OH241726   2.311   4.243  11.572  0.1576 -0.2353  0.4952
 5844TIP3    H141727   2.243   4.280  11.629  1.1668  1.1949  0.8087
 5844TIP3    H241728   2.265   4.174  11.523 -1.3884  0.3198  1.0797
 5845TIP3   OH241729   4.962   5.836  10.854  0.3563  0.2901  0.2084
 5845TIP3    H141730   4.908   5.770  10.895  0.0506 -0.5483 -1.4514
 5845TIP3    H241731   5.045   5.792  10.836  0.5106  0.6583 -0.0059
 5846TIP3   OH241732   1.267   5.399   9.946  0.0016 -0.3070 -0.1223
 5846TIP3    H141733   1.233   5.390   9.857  0.0726 -2.0523 -0.0114
 5846TIP3    H241734   1.293   5.310   9.970  0.2889  0.1992  1.5213
 5847TIP3   OH241735   5.302   2.714   0.704  0.2304 -0.1871 -0.4036
 5847TIP3    H141736   5.278   2.786   0.646  1.0236 -0.3003 -0.8843
 5847TIP3    H241737   5.392   2.693   0.681  0.1516 -1.0566  0.0243
 5848TIP3   OH241738   4.430   3.010  11.521 -0.0951 -0.1485 -0.2424
 5848TIP3    H141739   4.503   3.058  11.481 -0.1325  0.0755 -0.0453
 5848TIP3    H241740   4.463   2.983  11.606 -1.0936  2.2415  0.9953
 5849TIP3   OH241741   2.570   3.079   9.086 -0.0637  0.0000 -0.3004
 5849TIP3    H141742   2.618   3.161   9.095  0.5868 -0.5443  1.7029
 5849TIP3    H241743   2.625   3.025   9.030  1.5690 -0.4678  1.6250
 5850TIP3   OH241744   5.944   3.996  10.634  0.0390 -0.0036  0.4350
 5850TIP3    H141745   6.036   4.006  10.658  0.5763  0.4294 -1.5944
 5850TIP3    H241746   5.925   4.072  10.580 -0.5163 -1.7082 -1.9470
 5851TIP3   OH241747   1.563   4.129  10.649  0.4607  0.4949  0.4918
 5851TIP3    H141748   1.504   4.053  10.645 -0.0372  0.8792 -3.0293
 5851TIP3    H241749   1.526   4.184  10.718 -1.1875 -0.9435  0.8421
 5852TIP3   OH241750   0.567   4.061   9.399  0.9024 -0.4490  0.0489
 5852TIP3    H141751   0.595   4.110   9.322 -0.6224  1.7584  0.8067
 5852TIP3    H241752   0.644   4.061   9.457  0.7807  1.7258  0.3097
 5853TIP3   OH241753   2.784   5.194  10.723  0.6206  0.1926  0.6161
 5853TIP3    H141754   2.725   5.220  10.652  1.8915  1.0150 -0.1760
 5853TIP3    H241755   2.816   5.108  10.697  2.2237  1.1120 -0.6040
 5854TIP3   OH241756   5.832   0.897   9.308 -0.0250  0.6404 -0.6203
 5854TIP3    H141757   5.765   0.955   9.271 -0.3614  2.6278  2.6622
 5854TIP3    H241758   5.915   0.932   9.276 -0.3497 -0.3858 -2.8029
 5855TIP3   OH241759   3.912   5.530   8.877 -0.2016 -0.0811  0.3756
 5855TIP3    H141760   3.854   5.525   8.953 -0.7025 -1.6387 -0.0637
 5855TIP3    H241761   3.995   5.494   8.908  0.0943  0.7672  0.5982
 5856TIP3   OH241762   4.760   4.103  12.128  0.5610 -0.0342 -0.4599
 5856TIP3    H141763   4.785   4.025  12.178 -0.2428 -0.5584 -0.8549
 5856TIP3    H241764   4.834   4.163  12.138  0.3265 -0.0366  1.5363
 5857TIP3   OH241765   2.389   0.163   9.263  0.1696 -0.1184 -0.2813
 5857TIP3    H141766   2.441   0.229   9.308  1.1024 -0.6349 -0.5787
 5857TIP3    H241767   2.299   0.195   9.269  0.4652  0.5769  0.6090
 5858TIP3   OH241768   0.806   2.950  11.347 -0.5962  0.0255 -0.6567
 5858TIP3    H141769   0.831   2.858  11.341 -0.9392 -0.1467  0.4635
 5858TIP3    H241770   0.764   2.968  11.262 -1.0001 -0.9913 -0.6879
 5859TIP3   OH241771   0.716   4.071  11.710  0.7033 -0.9310  0.3025
 5859TIP3    H141772   0.649   4.004  11.699 -1.0917  1.1684 -3.0080
 5859TIP3    H241773   0.799   4.024  11.698 -0.2626 -3.0614  1.4444
 5860TIP3   OH241774   1.702   4.010   9.274  0.7996  0.1980 -0.3607
 5860TIP3    H141775   1.726   3.973   9.189  1.5098  1.9158 -0.9516
 5860TIP3    H241776   1.727   3.943   9.338  2.6367 -0.0880 -1.3353
 5861TIP3   OH241777   5.940   5.186   8.726  0.9824  0.7122 -0.5135
 5861TIP3    H141778   5.866   5.127   8.740  0.9092  1.0087  0.4311
 5861TIP3    H241779   6.008   5.130   8.688  0.0245  0.6077 -2.1719
 5862TIP3   OH241780   1.810   1.939  10.316 -0.1801  0.5289 -0.2272
 5862TIP3    H141781   1.743   2.007  10.326 -0.5433  0.1046  0.3483
 5862TIP3    H241782   1.778   1.885  10.243  0.7523  1.6865 -1.5317
 5863TIP3   OH241783   5.459   2.833  10.167  0.0388 -0.2781 -0.3204
 5863TIP3    H141784   5.386   2.873  10.213  0.8195  0.3713  0.3939
 5863TIP3    H241785   5.535   2.887  10.190  0.8310 -1.2005 -0.6600
 5864TIP3   OH241786   3.276   4.254   8.408 -0.1002  0.4576 -0.3962
 5864TIP3    H141787   3.285   4.243   8.503 -3.0759 -0.0462 -0.0628
 5864TIP3    H241788   3.316   4.175   8.371  0.0858  0.1098  0.5109
 5865TIP3   OH241789   2.425   0.619  11.874 -0.2169 -0.1381 -0.2722
 5865TIP3    H141790   2.334   0.649  11.875  0.1073  0.8432  0.4565
 5865TIP3    H241791   2.430   0.557  11.947  0.0278  0.8565  0.5791
 5866TIP3   OH241792   3.599   5.224  10.112  0.9284  0.1366  0.2260
 5866TIP3    H141793   3.627   5.315  10.099 -0.9367  0.7427  0.2242
 5866TIP3    H241794   3.562   5.199  10.027 -2.0133  0.6962  1.2344
 5867TIP3   OH241795   5.692   2.778  11.721 -0.6349 -0.1274  0.2388
 5867TIP3    H141796   5.616   2.743  11.768  0.6173 -1.1068  1.6628
 5867TIP3    H241797   5.732   2.840  11.783 -0.0125  0.0321 -0.3041
 5868TIP3   OH241798   2.941   3.549  10.116 -0.2357 -0.9993 -0.3787
 5868TIP3    H141799   3.019   3.513  10.158 -0.7184  0.5989  2.0110
 5868TIP3    H241800   2.877   3.477  10.120 -0.0195 -1.1439  0.9613
 5869TIP3   OH241801   2.721   6.226  11.490  0.1232 -0.0775 -0.0780
 5869TIP3    H141802   2.744   6.281  11.415  0.3953 -0.6613 -0.4326
 5869TIP3    H241803   2.720   6.137  11.455 -1.4001 -0.2123  0.2196
 5870TIP3   OH241804   6.514   4.506   9.213 -0.0469 -0.8917  0.1654
 5870TIP3    H141805   6.447   4.475   9.273  0.4586 -0.3261  1.0474
 5870TIP3    H241806   6.588   4.447   9.228  0.3863 -0.2062  0.7399
 5871TIP3   OH241807   0.417   6.128  10.921  0.0344 -0.3212 -0.3869
 5871TIP3    H141808   0.414   6.217  10.887 -1.1848 -0.1998 -0.0337
 5871TIP3    H241809   0.325   6.102  10.926  0.3412 -1.3599  0.1333
 5872TIP3   OH241810   2.544   5.050   9.176 -0.0082 -0.0212 -0.5295
 5872TIP3    H141811   2.625   5.092   9.204 -0.0497  0.2250 -0.7728
 5872TIP3    H241812   2.520   5.095   9.095 -0.5899  0.1726 -0.2571
 5873TIP3   OH241813   4.762   0.354  11.176 -0.7532  0.0942 -0.1507
 5873TIP3    H141814   4.800   0.422  11.121 -0.6795 -0.0032 -0.2197
 5873TIP3    H241815   4.687   0.396  11.218 -0.9435  0.1059 -0.4990
 5874TIP3   OH241816   6.276   5.161  11.191  0.3926 -0.6643  0.0604
 5874TIP3    H141817   6.201   5.111  11.224  0.9463 -0.8365  1.1130
 5874TIP3    H241818   6.349   5.100  11.195  1.2064  0.3181  1.9081
 5875TIP3   OH241819   5.733   3.843   9.998  0.7340  0.1793 -0.4517
 5875TIP3    H141820   5.668   3.885  10.055  1.9259  0.9108  0.4214
 5875TIP3    H241821   5.777   3.780  10.055 -0.5280 -1.8366 -1.5541
 5876TIP3   OH241822   2.177   4.167   9.843  0.2252 -0.4661 -0.7414
 5876TIP3    H141823   2.102   4.131   9.890  0.1414  1.0865  0.3845
 5876TIP3    H241824   2.139   4.218   9.772  0.2386 -0.2913 -0.6237
 5877TIP3   OH241825   6.192   5.041   9.204 -0.0000 -0.2692 -0.0509
 5877TIP3    H141826   6.226   4.982   9.271 -0.2449  1.0892  1.3087
 5877TIP3    H241827   6.263   5.048   9.140  0.2124 -1.6329  0.0040
 5878TIP3   OH241828   2.773   3.204   9.997  0.6512 -0.9050 -0.2707
 5878TIP3    H141829   2.719   3.125   9.992 -1.2343 -0.1300  3.7719
 5878TIP3    H241830   2.847   3.179  10.052  0.4823 -0.1172  0.3374
 5879TIP3   OH241831   3.844   3.649   9.045 -0.6209 -0.6631  0.4213
 5879TIP3    H141832   3.862   3.569   8.996 -0.4764  0.1838 -0.9754
 5879TIP3    H241833   3.879   3.633   9.132  2.1807 -1.0279 -0.6915
 5880TIP3   OH241834   2.049   1.804  10.167  0.0931 -0.5590 -0.4256
 5880TIP3    H141835   1.964   1.763  10.183  0.5576 -2.2362 -1.9402
 5880TIP3    H241836   2.028   1.888  10.127 -0.8642  0.3384  1.8199
 5881TIP3   OH241837   1.005   4.129  10.621 -0.8587 -0.0566 -0.6244
 5881TIP3    H141838   1.071   4.141  10.552 -0.3199  0.9769  0.0417
 5881TIP3    H241839   0.978   4.217  10.643  0.4961 -0.1923  1.9193
 5882TIP3   OH241840   0.960   6.313   8.941 -1.1137  0.0876  0.1390
 5882TIP3    H141841   0.985   6.225   8.912  1.3266  0.6445  0.3357
 5882TIP3    H241842   0.940   6.360   8.860 -1.9406 -0.4921 -0.0038
 5883TIP3   OH241843   2.432   2.513  10.091  0.4817 -0.2041 -0.0650
 5883TIP3    H141844   2.453   2.519   9.997  1.0520 -0.3215  0.0510
 5883TIP3    H241845   2.426   2.419  10.108 -1.5910 -0.1643 -0.4006
 5884TIP3   OH241846   2.421   1.433  11.260  0.0672 -0.4478 -0.1046
 5884TIP3    H141847   2.492   1.404  11.202 -0.9508  0.5689 -1.9504
 5884TIP3    H241848   2.343   1.388  11.226 -0.5406  0.0775  0.5769
 5885TIP3   OH241849   5.557   0.865  10.314 -0.3329  0.0533 -0.4777
 5885TIP3    H141850   5.498   0.940  10.321 -2.2257 -1.3801 -0.1229
 5885TIP3    H241851   5.557   0.842  10.221  0.0374  0.3393 -0.5477
 5886TIP3   OH241852   6.551   4.902   9.067  0.1595 -0.2181 -0.7230
 5886TIP3    H141853   6.469   4.856   9.048  0.3497 -0.9684  0.1944
 5886TIP3    H241854   6.526   4.993   9.080 -0.4441 -0.3457 -0.9744
 5887TIP3   OH241855   6.642   3.774   9.851 -0.0426  0.1007 -0.1587
 5887TIP3    H141856   6.625   3.680   9.857  0.0047  0.1539  1.4453
 5887TIP3    H241857   6.566   3.814   9.894 -0.0785  0.7961 -0.8651
 5888TIP3   OH241858   5.421   2.739  11.296 -0.1421  0.1531 -0.2515
 5888TIP3    H141859   5.506   2.742  11.340 -0.5773 -0.6383  0.6938
 5888TIP3    H241860   5.442   2.739  11.203  0.9460 -0.8101 -0.0329
 5889TIP3   OH241861   3.749   2.248  10.761  0.2064 -0.2630  0.1744
 5889TIP3    H141862   3.784   2.214  10.844  1.5624 -2.1954 -1.0799
 5889TIP3    H241863   3.802   2.325  10.742  1.2961 -0.9955  0.1450
 5890TIP3   OH241864   5.558   4.174  12.229  0.4772  0.5319 -0.0319
 5890TIP3    H141865   5.469   4.138  12.226  0.2344  0.8320  2.0587
 5890TIP3    H241866   5.614   4.099  12.250  0.2470  0.9068  2.1065
 5891TIP3   OH241867   3.541   6.628  11.863  0.0190  0.1424  0.2177
 5891TIP3    H141868   3.471   6.573  11.899  0.4301  0.1655  1.0669
 5891TIP3    H241869   3.615   6.615  11.922  0.6229  0.3959 -0.4704
 5892TIP3   OH241870   3.850   1.531   9.218  0.3047  0.4033  0.1650
 5892TIP3    H141871   3.863   1.556   9.127  0.6686  1.1149  0.4061
 5892TIP3    H241872   3.883   1.605   9.269  0.4624 -0.1426  0.8832
 5893TIP3   OH241873   0.104   4.067  10.242 -0.5331  0.2617 -0.1265
 5893TIP3    H141874   0.109   3.985  10.193 -0.2041  0.8787 -1.1522
 5893TIP3    H241875   0.011   4.079  10.259 -0.7076  0.2970 -1.0693
 5894TIP3   OH241876   0.895   2.884  12.280  0.5485 -0.0944  0.4740
 5894TIP3    H141877   0.908   2.965  12.230  2.2310 -0.9514 -0.5946
 5894TIP3    H241878   0.800   2.872  12.282  0.3625  0.5766 -1.5879
 5895TIP3   OH241879   4.413   3.765  11.686 -0.2617 -0.2176 -0.7416
 5895TIP3    H141880   4.349   3.787  11.753 -0.2092 -2.2186  0.0187
 5895TIP3    H241881   4.361   3.742  11.609 -0.4062 -0.5863 -0.5325
 5896TIP3   OH241882   2.083   4.428   8.541  0.3490 -0.0269 -0.1058
 5896TIP3    H141883   2.046   4.495   8.599 -0.3970  1.2513 -1.9464
 5896TIP3    H241884   2.164   4.400   8.585  0.1053  1.2923  1.2588
 5897TIP3   OH241885   4.791   1.265  12.273 -0.1776  0.1272 -0.3123
 5897TIP3    H141886   4.818   1.352  12.301 -0.2891 -0.1369  0.6539
 5897TIP3    H241887   4.864   1.232  12.220 -0.1052  0.7658 -0.6205
 5898TIP3   OH241888   4.999   2.940  10.561  0.3742 -0.4606  0.1494
 5898TIP3    H141889   4.931   2.976  10.618  0.0016 -0.1669 -0.4745
 5898TIP3    H241890   5.064   3.009  10.554 -1.6714  1.3717 -3.3662
 5899TIP3   OH241891   6.262   6.087   8.535  0.1196 -0.9312 -0.1754
 5899TIP3    H141892   6.235   6.166   8.488  2.3955 -0.4051 -0.7020
 5899TIP3    H241893   6.328   6.047   8.478  0.7483 -1.9038  1.1865
 5900TIP3   OH241894   2.474   5.701   8.977 -0.2277 -0.1518 -0.3021
 5900TIP3    H141895   2.476   5.612   8.943 -0.1538 -0.0741 -0.5008
 5900TIP3    H241896   2.386   5.733   8.958  0.1879  0.3214 -1.5328
 5901TIP3   OH241897   2.923   4.740   9.759 -0.0606  0.0982  0.3157
 5901TIP3    H141898   2.955   4.766   9.846 -0.1416 -1.2026  0.7550
 5901TIP3    H241899   2.835   4.777   9.754  0.1030  0.5454  0.6087
 5902TIP3   OH241900   5.348   1.374  11.077 -0.1278 -0.1702 -0.5699
 5902TIP3    H141901   5.382   1.449  11.126 -1.0742 -0.2913  0.2960
 5902TIP3    H241902   5.372   1.393  10.986 -0.1971  1.0938 -0.3455
 5903TIP3   OH241903   4.207   4.254  11.629 -0.4772 -0.0378 -0.1825
 5903TIP3    H141904   4.271   4.198  11.673 -2.7592 -2.3801  0.3507
 5903TIP3    H241905   4.152   4.289  11.699  0.1384  1.9683 -0.6266
 5904TIP3   OH241906   4.519   2.857  12.090 -0.5471  0.1310 -0.0474
 5904TIP3    H141907   4.535   2.790  12.024 -1.1653  1.4240 -1.5597
 5904TIP3    H241908   4.606   2.890  12.113 -0.4125  1.1432 -1.8373
 5905TIP3   OH241909   6.074   2.372   9.045  0.1681 -0.2147 -0.3413
 5905TIP3    H141910   6.081   2.288   9.001  0.2998  0.2348 -1.1930
 5905TIP3    H241911   5.985   2.374   9.079  0.0450 -0.5434 -0.6404
 5906TIP3   OH241912   4.799   5.092  12.700  0.0673  0.4452 -0.3748
 5906TIP3    H141913   4.787   5.106  12.606 -0.0100 -1.0325 -0.6154
 5906TIP3    H241914   4.787   4.997  12.712  2.1406  0.2543  0.7953
 5907TIP3   OH241915   6.054   3.216  10.344  0.4713 -0.4554 -0.3489
 5907TIP3    H141916   6.116   3.279  10.309  0.7346 -0.7050 -0.3355
 5907TIP3    H241917   6.068   3.219  10.439  0.4550 -0.5045 -0.3453
 5908TIP3   OH241918   3.795   2.062  11.858  0.4059 -0.0668  0.5431
 5908TIP3    H141919   3.862   2.067  11.926  0.1011  0.5610  0.7972
 5908TIP3    H241920   3.741   1.987  11.883  0.6629 -0.2172  0.6509
 5909TIP3   OH241921   4.748   1.621  11.237 -0.1708  0.4355  0.5339
 5909TIP3    H141922   4.765   1.537  11.194  1.2772  0.9481  0.0729
 5909TIP3    H241923   4.661   1.646  11.205 -0.0029 -0.1941 -0.4736
 5910TIP3   OH241924   6.166   4.142  10.407  0.1271 -0.2128 -0.0733
 5910TIP3    H141925   6.157   4.202  10.481 -1.1644 -0.3757 -0.0657
 5910TIP3    H241926   6.078   4.138  10.369  0.9478  0.5784 -2.1922
 5911TIP3   OH241927   2.790   1.790   9.442 -0.4579 -0.1054 -0.9673
 5911TIP3    H141928   2.866   1.733   9.452 -0.8477 -0.5089 -0.1842
 5911TIP3    H241929   2.826   1.878   9.445 -0.1460 -0.2542  0.8706
 5912TIP3   OH241930   4.273   6.251  10.755  0.0820 -0.0690 -0.0422
 5912TIP3    H141931   4.210   6.181  10.768  0.8198 -0.7047  0.1944
 5912TIP3    H241932   4.250   6.317  10.821 -0.8325  0.0778 -0.4973
 5913TIP3   OH241933   6.435   6.573  10.308 -0.2177  0.3701 -0.1515
 5913TIP3    H141934   6.405   6.630  10.379 -0.5043 -0.1156  0.1196
 5913TIP3    H241935   6.417   6.484  10.339 -2.7666  0.1730 -1.8729
 5914TIP3   OH241936   1.791   2.920   9.972  0.2875  0.2587  0.0387
 5914TIP3    H141937   1.884   2.931   9.994  0.6463  0.2057 -1.3589
 5914TIP3    H241938   1.792   2.873   9.888 -1.0116 -0.0001  0.1600
 5915TIP3   OH241939   0.721   0.320   9.626 -0.3380  0.8129 -0.1402
 5915TIP3    H141940   0.808   0.310   9.589  0.1445  0.9468  0.9145
 5915TIP3    H241941   0.665   0.261   9.575  0.0031  1.9796 -1.9555
 5916TIP3   OH241942   3.424   6.174  11.325  0.9550 -0.1310 -0.7283
 5916TIP3    H141943   3.518   6.189  11.332  0.8769  1.6145 -2.5743
 5916TIP3    H241944   3.406   6.176  11.231 -1.2169  1.7906 -0.3691
 5917TIP3   OH241945   6.453   5.338  10.729  0.5027 -0.1991 -0.2693
 5917TIP3    H141946   6.543   5.360  10.755  0.4388  0.0877 -0.2959
 5917TIP3    H241947   6.441   5.248  10.760  0.4707  0.0869  0.5791
 5918TIP3   OH241948   1.807   6.065  11.861  0.1703 -0.2542 -1.0188
 5918TIP3    H141949   1.797   5.994  11.925  1.1747  0.8228  0.3888
 5918TIP3    H241950   1.899   6.061  11.835  0.4461  1.0035 -0.3053
 5919TIP3   OH241951   3.630   4.313   9.026  0.1554 -0.5876 -0.8192
 5919TIP3    H141952   3.692   4.332   8.956  0.4616 -1.7848 -0.9082
 5919TIP3    H241953   3.679   4.257   9.086 -0.6172 -0.9543 -0.5211
 5920TIP3   OH241954   0.576   1.161   8.872 -0.3741 -0.0875 -0.6023
 5920TIP3    H141955   0.496   1.118   8.903 -0.1631 -1.3793 -1.7816
 5920TIP3    H241956   0.647   1.109   8.909 -0.0718  0.6306 -0.1536
 5921TIP3   OH241957   5.541   3.670   8.701 -0.2508  0.2282 -0.4568
 5921TIP3    H141958   5.604   3.598   8.693  0.3156  0.5942  0.4415
 5921TIP3    H241959   5.572   3.736   8.638 -1.1214 -0.5352 -1.7185
 5922TIP3   OH241960   0.816   3.193  11.462 -0.9035  0.1229 -0.4167
 5922TIP3    H141961   0.815   3.103  11.429 -1.5406 -0.3430  0.8004
 5922TIP3    H241962   0.795   3.184  11.555  0.5262  1.4047  0.0667
 5923TIP3   OH241963   3.618   3.641   9.705 -0.2105  0.1134  0.2507
 5923TIP3    H141964   3.624   3.580   9.779 -1.9456  1.2006  1.3799
 5923TIP3    H241965   3.684   3.708   9.724  0.5385 -0.5131 -0.1085
 5924TIP3   OH241966   2.624   0.233  11.232  0.0098  0.2389  0.2331
 5924TIP3    H141967   2.535   0.252  11.204  1.1538  3.4651 -1.7520
 5924TIP3    H241968   2.650   0.309  11.283  1.7756 -0.3999  0.3495
 5925TIP3   OH241969   0.317   3.552   9.811 -0.4339  0.6601  0.2234
 5925TIP3    H141970   0.359   3.527   9.893 -0.5811 -1.3924 -0.2732
 5925TIP3    H241971   0.224   3.532   9.824 -0.7365  1.9115  0.1171
 5926TIP3   OH241972   6.690   1.583   9.394 -0.0339  0.2565 -0.1652
 5926TIP3    H141973   6.705   1.677   9.395  0.8473  0.1453  1.9389
 5926TIP3    H241974   6.634   1.568   9.317  1.0780  2.2507 -1.4427
 5927TIP3   OH241975   0.156   6.285   8.675  0.4068 -0.1518 -0.2412
 5927TIP3    H141976   0.187   6.368   8.638 -1.6452  0.0644 -1.6633
 5927TIP3    H241977   0.096   6.311   8.745  0.7808 -0.4756  0.2025
 5928TIP3   OH241978   2.249   0.790   9.932  0.6602 -0.2253  0.1344
 5928TIP3    H141979   2.279   0.878   9.953  0.3382  0.3428 -1.5846
 5928TIP3    H241980   2.153   0.795   9.939  0.2698  0.7473 -3.6352
 5929TIP3   OH241981   6.509   1.738   9.600 -0.0230  0.3603 -0.2026
 5929TIP3    H141982   6.441   1.733   9.668 -0.1910 -0.0172 -0.3949
 5929TIP3    H241983   6.468   1.698   9.523  0.8305 -0.9978  0.0190
 5930TIP3   OH241984   0.465   3.178  10.735 -0.1363 -0.1808  0.3656
 5930TIP3    H141985   0.536   3.176  10.799 -0.6802 -2.1423  0.9705
 5930TIP3    H241986   0.432   3.088  10.731 -2.2003  0.5281 -0.3428
 5931TIP3   OH241987   2.924   2.626  11.704 -0.1634  0.1538  0.4889
 5931TIP3    H141988   2.890   2.600  11.790  1.6783 -1.3887  0.8324
 5931TIP3    H241989   2.874   2.573  11.642 -0.4264  0.1012  0.7419
 5932TIP3   OH241990   4.675   3.632  10.966 -0.0451 -0.3092 -0.2168
 5932TIP3    H141991   4.611   3.610  10.899  0.5126 -0.3291 -0.7600
 5932TIP3    H241992   4.714   3.714  10.936 -0.5591  0.2664  0.6589
 5933TIP3   OH241993   2.699   5.001  11.500 -0.0422  0.6597 -0.4339
 5933TIP3    H141994   2.624   5.059  11.488  0.6383  1.6892  0.1323
 5933TIP3    H241995   2.712   4.960  11.415 -1.7317 -0.1497 -0.3303
 5934TIP3   OH241996   2.780   3.515  11.623 -0.0209  0.0082  0.0543
 5934TIP3    H141997   2.851   3.569  11.656  0.8775 -0.4660 -1.0423
 5934TIP3    H241998   2.786   3.523  11.528 -0.8130 -0.8263 -0.0808
 5935TIP3   OH241999   3.705   5.224   8.545  0.2718 -0.3883  0.1432
 5935TIP3    H142000   3.715   5.318   8.529  0.6256 -0.5091 -0.3534
 5935TIP3    H242001   3.761   5.182   8.480  2.0536 -0.8892  1.8920
 5936TIP3   OH242002   5.866   3.871   8.834  0.2139  0.4302  0.4820
 5936TIP3    H142003   5.812   3.949   8.823 -1.0163 -0.2204  1.6197
 5936TIP3    H242004   5.944   3.902   8.878  0.0604  1.1296  0.2699
 5937TIP3   OH242005   4.131   3.549  12.722  0.2501  0.1830  0.0366
 5937TIP3    H142006   4.217   3.585  12.699  0.4689 -0.8738 -0.8636
 5937TIP3    H242007   4.086   3.539  12.638 -1.0999  1.4926  0.5443
 5938TIP3   OH242008   4.892   1.382   9.515 -0.1057 -0.9161  0.2491
 5938TIP3    H142009   4.915   1.368   9.423  1.0916 -1.5989  0.6355
 5938TIP3    H242010   4.814   1.437   9.512 -0.0584 -0.8975 -1.1754
 5939TIP3   OH242011   3.481   2.910  10.660 -0.4057  0.2232 -0.2176
 5939TIP3    H142012   3.514   2.832  10.703 -0.7843  0.1233 -0.1075
 5939TIP3    H242013   3.553   2.938  10.602  0.2140  0.5219  0.6752
 5940TIP3   OH242014   0.019   2.910  11.572  0.0755 -0.0062  0.0994
 5940TIP3    H142015   0.109   2.882  11.554 -0.2555 -1.7022  0.8341
 5940TIP3    H242016   0.022   3.005  11.570  1.9641 -0.0200  0.4329
 5941TIP3   OH242017   0.893   5.559   8.370 -0.2220  0.6051  0.3991
 5941TIP3    H142018   0.877   5.471   8.336 -1.0943 -0.1252  2.5438
 5941TIP3    H242019   0.987   5.561   8.389 -0.2277  0.0801  0.4898
 5942TIP3   OH242020   4.621   4.054  12.469  0.0944  0.6240  0.0092
 5942TIP3    H142021   4.629   4.103  12.551 -1.0472  2.7709 -1.0931
 5942TIP3    H242022   4.592   3.967  12.497  0.3037  1.1049  1.9180
 5943TIP3   OH242023   1.793   3.165  10.333  0.0678 -0.0441  0.3205
 5943TIP3    H142024   1.778   3.072  10.349 -0.4862  0.4079  3.0976
 5943TIP3    H242025   1.844   3.194  10.409 -0.8152  2.1463  0.1520
 5944TIP3   OH242026   0.937   1.183  10.549  0.3479 -0.4427  0.2662
 5944TIP3    H142027   0.887   1.136  10.482  0.3791  0.9318 -0.7575
 5944TIP3    H242028   0.876   1.247  10.585  0.3867 -1.0460  1.4487
 5945TIP3   OH242029   4.891   3.563  11.496  0.3940  0.4763  0.5449
 5945TIP3    H142030   4.956   3.578  11.427  0.2768  0.3335  0.4016
 5945TIP3    H242031   4.910   3.629  11.562 -1.1974  2.4500 -0.8243
 5946TIP3   OH242032   1.880   3.614  10.079  0.2153 -0.2641  0.3192
 5946TIP3    H142033   1.800   3.573  10.047  1.4118 -0.9287 -2.0822
 5946TIP3    H242034   1.910   3.558  10.150  0.4512 -2.1869 -1.2074
 5947TIP3   OH242035   4.900   5.594   8.909  0.2829 -0.2158  0.4540
 5947TIP3    H142036   4.897   5.635   8.995 -0.0537 -1.2414  0.9391
 5947TIP3    H242037   4.887   5.501   8.925 -2.5776 -0.1626 -0.9385
 5948TIP3   OH242038   4.397   4.923  11.874  0.0994 -0.3007  0.4772
 5948TIP3    H142039   4.435   4.909  11.961 -1.1378 -1.1485  0.9205
 5948TIP3    H242040   4.372   4.835  11.845 -1.9618  0.2405  0.4671
 5949TIP3   OH242041   3.859   3.638  12.778  0.4082 -0.5887 -0.4547
 5949TIP3    H142042   3.934   3.580  12.767  0.0308 -0.6616 -3.4390
 5949TIP3    H242043   3.783   3.582  12.759 -0.5140 -0.5527  2.6414
 5950TIP3   OH242044   4.868   4.782  11.066  0.1947 -0.1518 -0.0359
 5950TIP3    H142045   4.952   4.739  11.084 -0.1596 -0.7585  0.2123
 5950TIP3    H242046   4.803   4.714  11.081 -0.6055  1.1024  3.0152
 5951TIP3   OH242047   2.411   3.743   9.078  0.0143 -0.4127 -0.1505
 5951TIP3    H142048   2.470   3.764   9.150 -0.5423 -1.5957  0.6757
 5951TIP3    H242049   2.334   3.798   9.092 -0.1712 -0.7751  0.2817
 5952TIP3   OH242050   2.189   4.651  11.216  0.2097 -0.1500  0.0776
 5952TIP3    H142051   2.238   4.575  11.250 -0.3578 -0.0336  1.1992
 5952TIP3    H242052   2.128   4.613  11.152  2.2186 -0.2138 -1.9572
 5953TIP3   OH242053   4.068   0.538  11.698 -0.1903  0.0822 -0.4565
 5953TIP3    H142054   4.104   0.468  11.753 -0.4523  1.8434  2.1224
 5953TIP3    H242055   4.142   0.566  11.644  1.2115  0.7330  1.6574
 5954TIP3   OH242056   5.311   4.546   9.521 -0.4346  0.3998 -0.5522
 5954TIP3    H142057   5.279   4.482   9.458 -0.4898 -0.2886  0.1625
 5954TIP3    H242058   5.255   4.533   9.598  0.7889 -0.0064  0.2882
 5955TIP3   OH242059   5.359   4.851  12.213 -0.4824 -0.5787 -0.2318
 5955TIP3    H142060   5.288   4.853  12.277 -0.8026 -2.0228 -0.4980
 5955TIP3    H242061   5.318   4.880  12.132 -0.3718  0.0969 -0.0512
 5956TIP3   OH242062   3.983   6.412  18.293 -0.1552  0.3792  0.1391
 5956TIP3    H142063   3.951   6.502  18.282  1.0512  0.7646 -0.3217
 5956TIP3    H242064   3.907   6.358  18.272 -0.1608  1.2431 -2.4953
 5957TIP3   OH242065   2.728   4.053  12.099 -0.6572  0.0118  0.1234
 5957TIP3    H142066   2.720   4.122  12.165  0.2062  1.3560 -1.1158
 5957TIP3    H242067   2.678   4.087  12.024 -1.7989 -1.5785  0.1205
 5958TIP3   OH242068   2.959   4.000  10.807 -0.0556  1.0371  0.0808
 5958TIP3    H142069   2.900   4.070  10.835 -0.6611  0.9347 -0.8844
 5958TIP3    H242070   2.912   3.955  10.737  0.3045 -0.3940  0.7340
 5959TIP3   OH242071   4.376   2.028  10.601  0.1584 -0.6288 -0.5634
 5959TIP3    H142072   4.359   2.084  10.677  0.1928 -0.1757 -0.8853
 5959TIP3    H242073   4.305   1.965  10.601 -0.0802 -0.3611 -0.4048
 5960TIP3   OH242074   5.421   2.389   9.332  0.1444 -0.1887 -0.3636
 5960TIP3    H142075   5.340   2.375   9.282 -0.8423  2.1611  0.4561
 5960TIP3    H242076   5.444   2.480   9.316 -0.2971  0.7692  3.4785
 5961TIP3   OH242077   5.445   0.287  11.009  0.3255 -0.7531 -0.4641
 5961TIP3    H142078   5.471   0.298  10.918  0.2054 -1.8440 -0.6418
 5961TIP3    H242079   5.506   0.223  11.045  0.5630 -0.1073  0.3122
 5962TIP3   OH242080   6.468   3.891   9.616  0.0414  0.1640 -0.2366
 5962TIP3    H142081   6.441   3.803   9.642 -1.0826  0.8483  1.0611
 5962TIP3    H242082   6.481   3.885   9.521 -1.3637 -1.0853 -0.3950
 5963TIP3   OH242083   1.332   2.477  11.990 -0.1278 -0.0118 -0.8450
 5963TIP3    H142084   1.256   2.492  11.934 -0.7973 -1.6005 -0.4318
 5963TIP3    H242085   1.345   2.560  12.036 -1.3767  0.4055 -1.2123
 5964TIP3   OH242086   0.314   6.122   9.976  0.1917 -0.0922  0.6673
 5964TIP3    H142087   0.370   6.145  10.050  0.0204 -0.4560  0.9083
 5964TIP3    H242088   0.280   6.035   9.996  0.2044 -0.2299  0.1290
 5965TIP3   OH242089   6.656   1.960  10.404 -0.2363  0.2580 -0.1558
 5965TIP3    H142090   6.650   1.887  10.465 -1.0689 -1.8848 -2.6354
 5965TIP3    H242091   6.654   2.038  10.460  2.2297 -1.5312  2.7394
 5966TIP3   OH242092   3.026   5.567   9.345  0.0142  0.1115  0.3039
 5966TIP3    H142093   3.019   5.501   9.277 -0.0909  0.9990 -0.5697
 5966TIP3    H242094   3.081   5.635   9.307 -1.0892  1.2072  0.6204
 5967TIP3   OH242095   1.476   5.327  10.322 -0.4191 -0.1991  0.1382
 5967TIP3    H142096   1.457   5.233  10.317  0.2513 -0.3450  0.2209
 5967TIP3    H242097   1.516   5.340  10.408  0.9440 -0.1319 -0.4674
 5968TIP3   OH242098   3.704   4.203  10.681 -0.0217  0.8337 -0.6820
 5968TIP3    H142099   3.712   4.221  10.775  1.0549 -0.2681 -0.5400
 5968TIP3    H242100   3.623   4.152  10.674  0.5166 -0.1357 -0.1581
 5969TIP3   OH242101   5.561   4.559  10.551 -0.0366  0.0508 -0.7826
 5969TIP3    H142102   5.491   4.502  10.583 -0.3438  1.2002  0.6922
 5969TIP3    H242103   5.595   4.514  10.474 -0.6943 -1.7783 -0.0478
 5970TIP3   OH242104   5.745   0.413  11.994  0.0630 -0.0247 -0.4327
 5970TIP3    H142105   5.799   0.463  11.932  0.8995  0.8950  0.9763
 5970TIP3    H242106   5.801   0.338  12.019  1.2523  1.4940  1.8450
 5971TIP3   OH242107   0.897   2.192   9.399 -0.0094 -0.0268 -0.3376
 5971TIP3    H142108   0.865   2.276   9.431 -1.7698 -0.2337 -1.3865
 5971TIP3    H242109   0.822   2.133   9.409  0.2486 -0.7424 -2.1915
 5972TIP3   OH242110   4.840   2.426  10.234  0.6005 -0.4452 -0.2442
 5972TIP3    H142111   4.797   2.355  10.186  0.2585  0.4469 -1.3198
 5972TIP3    H242112   4.845   2.498  10.170  0.7169  0.5730  0.8721
 5973TIP3   OH242113   2.675   4.146  11.029  0.1445 -0.5868  0.2825
 5973TIP3    H142114   2.608   4.174  10.967 -1.0080  0.4258  1.8820
 5973TIP3    H242115   2.757   4.180  10.994 -0.7663  1.9214  0.3977
 5974TIP3   OH242116   3.684   4.054  10.953 -0.0688  0.6324 -0.1028
 5974TIP3    H142117   3.649   3.984  11.008  0.5636 -0.1977 -0.7299
 5974TIP3    H242118   3.616   4.121  10.953 -1.0114 -0.3009 -0.1022
 5975TIP3   OH242119   4.617   3.974  11.921  0.0106  0.5323 -0.3495
 5975TIP3    H142120   4.667   4.014  11.993  0.7548 -0.4987 -0.2513
 5975TIP3    H242121   4.684   3.935  11.865 -0.5999  0.8243 -1.2909
 5976TIP3   OH242122   2.738   5.233   9.020  0.7145  0.4046 -0.3021
 5976TIP3    H142123   2.656   5.250   8.975  0.1855  1.1215  0.8904
 5976TIP3    H242124   2.806   5.258   8.957  0.0491 -0.7200 -1.5007
 5977TIP3   OH242125   1.975   0.417  11.352 -0.2817 -0.4942 -0.0020
 5977TIP3    H142126   2.044   0.388  11.411  0.0895 -0.0141 -0.1876
 5977TIP3    H242127   1.895   0.375  11.384 -0.1052 -0.1527  0.9008
 5978TIP3   OH242128   3.675   3.620  12.539 -0.2328 -0.1442 -0.6005
 5978TIP3    H142129   3.625   3.701  12.545  0.2162  0.0789  0.4148
 5978TIP3    H242130   3.631   3.560  12.599 -1.3598 -1.1308 -2.3154
 5979TIP3   OH242131   3.213   2.773  11.092 -0.4395  0.1981  0.1113
 5979TIP3    H142132   3.210   2.787  10.997  0.5065 -0.4854 -0.0333
 5979TIP3    H242133   3.286   2.828  11.122 -1.1885  0.9726  0.5634
 5980TIP3   OH242134   3.841   3.817   9.767  1.0255  0.3613 -0.4208
 5980TIP3    H142135   3.783   3.844   9.838  0.2099 -0.4816 -0.7535
 5980TIP3    H242136   3.847   3.893   9.710 -0.0697  0.3452 -0.5812
 5981TIP3   OH242137   0.902   3.601   9.234 -0.3830 -0.1161 -0.0247
 5981TIP3    H142138   0.972   3.659   9.265  0.1339 -0.8110  0.1274
 5981TIP3    H242139   0.942   3.553   9.162 -0.4566 -1.0754  0.5672
 5982TIP3   OH242140   1.345   2.069   9.610  0.0077 -0.6804  0.0091
 5982TIP3    H142141   1.348   2.126   9.687  1.4368 -0.6722 -0.0292
 5982TIP3    H242142   1.418   2.008   9.622  0.0680 -0.8693 -1.2005
 5983TIP3   OH242143   6.222   5.448  11.211  0.2360 -0.0131 -1.0748
 5983TIP3    H142144   6.226   5.501  11.132  1.3970 -1.5218 -2.0818
 5983TIP3    H242145   6.239   5.358  11.181 -0.6907 -0.8257  0.6923
 5984TIP3   OH242146   1.107   6.085   9.999  0.4257 -0.3660 -0.1656
 5984TIP3    H142147   1.019   6.122  10.010 -1.3808 -3.8074 -1.4649
 5984TIP3    H242148   1.119   6.029  10.075  2.4711  1.4907  1.0117
 5985TIP3   OH242149   3.589   1.248   8.741 -0.3659 -0.2679  0.4003
 5985TIP3    H142150   3.536   1.313   8.695  0.7045  0.4142  0.0887
 5985TIP3    H242151   3.680   1.270   8.718 -0.0202 -3.1135 -1.4024
 5986TIP3   OH242152   5.978   0.698  10.322  0.6808 -0.1183  0.3716
 5986TIP3    H142153   5.939   0.611  10.313  1.5234 -0.4822  0.1219
 5986TIP3    H242154   6.032   0.709  10.244 -1.1472  1.5681 -0.7193
 5987TIP3   OH242155   4.034   4.132  11.895 -0.2438 -0.2670 -0.0847
 5987TIP3    H142156   3.975   4.196  11.855 -0.6199  0.3727  1.3984
 5987TIP3    H242157   4.002   4.123  11.985  0.2894 -1.9651 -0.0245
 5988TIP3   OH242158   1.058   2.985   9.991 -0.2836 -0.0283  1.0857
 5988TIP3    H142159   1.136   3.017   9.947 -0.8902 -0.3770 -0.3091
 5988TIP3    H242160   0.995   2.970   9.920 -1.4502 -0.2155  2.1184
 5989TIP3   OH242161   1.188   5.840  10.548  0.4821 -0.4557  0.3525
 5989TIP3    H142162   1.120   5.774  10.560  0.6775 -0.4892  1.4386
 5989TIP3    H242163   1.151   5.902  10.486 -0.4488 -0.5957  0.7511
 5990TIP3   OH242164   5.191   4.333  11.284 -0.3270  0.0744  0.0744
 5990TIP3    H142165   5.122   4.362  11.224  0.8833 -0.0131 -1.4131
 5990TIP3    H242166   5.272   4.347  11.236  0.8643  1.7009  2.3850
 5991TIP3   OH242167   5.227   0.469   9.728  0.3473  0.7889 -0.7779
 5991TIP3    H142168   5.159   0.484   9.794  0.5932  0.3305 -0.4158
 5991TIP3    H242169   5.180   0.432   9.654  0.2614  0.0260 -0.3559
 5992TIP3   OH242170   5.342   5.899   9.907  0.3683  0.3857  0.5800
 5992TIP3    H142171   5.391   5.981   9.912  1.9825 -0.5627  1.1446
 5992TIP3    H242172   5.335   5.869   9.998  0.1212 -0.2884  0.3493
 5993TIP3   OH242173   1.066   5.506  10.999 -0.2817  0.0797 -0.0689
 5993TIP3    H142174   1.101   5.446  10.933 -1.1159  0.2837 -0.7099
 5993TIP3    H242175   1.143   5.553  11.032  0.2320 -0.5371 -0.3630
 5994TIP3   OH242176   5.527   4.033  11.508 -0.4324  0.4225  0.2600
 5994TIP3    H142177   5.452   4.052  11.451 -1.1070 -0.7438  0.7354
 5994TIP3    H242178   5.491   3.978  11.578  0.8901 -0.2175  0.4608
 5995TIP3   OH242179   1.869   4.766  11.648 -0.3290  0.4952 -0.5537
 5995TIP3    H142180   1.925   4.838  11.618 -1.2323  1.2305 -0.5231
 5995TIP3    H242181   1.854   4.713  11.570  2.8598 -1.4871 -0.0071
 5996TIP3   OH242182   3.600   1.036  11.856  0.1834 -0.7969  0.0987
 5996TIP3    H142183   3.630   0.969  11.795 -0.1948 -0.2946 -0.6568
 5996TIP3    H242184   3.508   1.049  11.834  0.5481  0.8461 -0.6311
 5997TIP3   OH242185   3.909   6.316   9.271  0.1583 -0.0657 -0.1158
 5997TIP3    H142186   3.931   6.276   9.355 -0.1460 -0.7178 -0.3342
 5997TIP3    H242187   3.936   6.407   9.279  0.7307 -0.2824  0.4547
 5998TIP3   OH242188   1.522   4.726   9.641 -0.5095  0.2993 -0.2444
 5998TIP3    H142189   1.469   4.802   9.663  1.3967  1.4410  0.5734
 5998TIP3    H242190   1.555   4.743   9.553 -2.0394 -0.7690 -1.0729
 5999TIP3   OH242191   4.025   5.678  10.700 -0.3401 -0.3340 -0.3369
 5999TIP3    H142192   3.968   5.724  10.638  0.5925 -0.0383 -0.9985
 5999TIP3    H242193   4.061   5.606  10.650 -1.1419 -1.3196  0.4632
 6000TIP3   OH242194   0.536   0.037   8.761  0.4800  0.3588 -0.4945
 6000TIP3    H142195   0.542   0.052   8.667 -0.6834 -0.2825 -0.6875
 6000TIP3    H242196   0.470  -0.032   8.770  2.0247 -1.0482  0.6557
 6001TIP3   OH242197   2.223   6.194  11.965  0.5091 -0.0964 -0.4232
 6001TIP3    H142198   2.192   6.131  11.900  1.0837 -0.2411 -0.5658
 6001TIP3    H242199   2.160   6.266  11.961 -0.9155 -1.2210  0.6704
 6002TIP3   OH242200   5.989   0.132  10.551 -0.0118  0.0337 -0.0690
 6002TIP3    H142201   5.980   0.072  10.625 -1.9839  0.9077  0.4460
 6002TIP3    H242202   6.071   0.179  10.569  0.4984 -1.0451  0.5721
 6003TIP3   OH242203   4.805   2.801  11.555  0.1792  0.6875 -0.5778
 6003TIP3    H142204   4.866   2.869  11.526  0.5123  0.4494 -0.4468
 6003TIP3    H242205   4.826   2.787  11.647 -0.9313  1.4964 -0.1821
 6004TIP3   OH242206   1.585   4.389  11.466 -0.0951 -0.0125  0.2332
 6004TIP3    H142207   1.632   4.360  11.388 -0.3638 -0.1373  0.1166
 6004TIP3    H242208   1.621   4.336  11.537 -1.4442 -1.5321 -0.1747
 6005TIP3   OH242209   3.470   5.808  11.606  0.3547 -0.1254 -0.0470
 6005TIP3    H142210   3.529   5.732  11.610  2.4236  1.4042  0.0287
 6005TIP3    H242211   3.451   5.819  11.513 -0.5682 -1.1319 -0.0036
 6006TIP3   OH242212   6.595   0.274  10.012  0.4549  0.0246 -0.4439
 6006TIP3    H142213   6.561   0.322   9.936 -1.2687 -0.4789 -0.0332
 6006TIP3    H242214   6.690   0.270   9.997  0.8719  4.2295 -0.1052
 6007TIP3   OH242215   3.014   1.022  10.198  0.3636  0.3204 -0.2387
 6007TIP3    H142216   2.988   1.114  10.188 -0.0895  0.2982  0.7150
 6007TIP3    H242217   2.933   0.975  10.214  0.6606 -0.1721 -0.1618
 6008TIP3   OH242218   4.684   2.122   8.846  0.0500 -0.1626 -0.2259
 6008TIP3    H142219   4.675   2.201   8.899 -2.4577  0.4960 -1.4881
 6008TIP3    H242220   4.664   2.050   8.906  0.5793  0.2874  0.5013
 6009TIP3   OH242221   2.947   2.376  12.429 -0.1122 -0.0356 -0.7124
 6009TIP3    H142222   2.886   2.448  12.443 -1.5261 -0.8989 -2.0707
 6009TIP3    H242223   2.916   2.334  12.348  0.4390 -2.3480  0.1924
 6010TIP3   OH242224   4.543   2.698  11.461 -0.7097 -0.4368  0.0092
 6010TIP3    H142225   4.480   2.765  11.490  0.0207 -0.1549  0.9953
 6010TIP3    H242226   4.628   2.732  11.488 -0.2392 -1.3258 -0.3337
 6011TIP3   OH242227   5.572   2.406   8.770 -0.4643  0.6936  0.2115
 6011TIP3    H142228   5.565   2.363   8.855  0.9372 -1.3107 -0.6257
 6011TIP3    H242229   5.540   2.341   8.708  0.1979  1.4597 -0.9608
 6012TIP3   OH242230   4.786   2.122  10.712 -0.3056 -0.0942 -0.7706
 6012TIP3    H142231   4.720   2.137  10.644 -1.1597 -1.9149 -0.3967
 6012TIP3    H242232   4.845   2.197  10.705 -1.9477  1.1706 -1.6504
 6013TIP3   OH242233   4.781   4.995  10.664  0.3301 -0.1305 -0.1439
 6013TIP3    H142234   4.808   5.044  10.586 -0.3359 -0.3498 -0.5232
 6013TIP3    H242235   4.755   5.062  10.727  0.8140  0.0484 -0.1350
 6014TIP3   OH242236   1.882   4.188  10.864 -0.0862 -0.1406 -0.5991
 6014TIP3    H142237   1.897   4.282  10.863 -0.4811 -0.0755 -1.5010
 6014TIP3    H242238   1.922   4.156  10.782 -0.8565 -0.5970 -0.8057
 6015TIP3   OH242239   3.614   0.218  10.003 -0.3055  0.1662 -0.5598
 6015TIP3    H142240   3.697   0.243   9.963 -1.4714  1.8523 -2.1002
 6015TIP3    H242241   3.637   0.148  10.064  1.7720 -1.8439 -3.3962
 6016TIP3   OH242242   1.610   4.657  11.523  0.3585 -0.5238  0.3937
 6016TIP3    H142243   1.544   4.658  11.592  2.0180  0.0431  2.0534
 6016TIP3    H242244   1.626   4.564  11.507  0.5064 -0.6751  1.3494
 6017TIP3   OH242245   0.481   4.829   9.549 -0.0164 -0.0732  0.6235
 6017TIP3    H142246   0.410   4.893   9.557 -0.9037 -0.8776 -0.4257
 6017TIP3    H242247   0.452   4.771   9.479  1.6739 -0.4633  0.2094
 6018TIP3   OH242248   6.177   3.280   9.473  0.2683  0.0336 -0.2489
 6018TIP3    H142249   6.144   3.328   9.550  0.7015  0.9828 -0.6321
 6018TIP3    H242250   6.099   3.243   9.432 -0.2225  1.3157 -0.5275
 6019TIP3   OH242251   0.232   3.495  10.121 -0.0946  0.7901 -0.0321
 6019TIP3    H142252   0.283   3.570  10.089  0.1921  0.4967 -0.2726
 6019TIP3    H242253   0.277   3.468  10.201 -0.2845  0.9654  0.1350
 6020TIP3   OH242254   4.149   4.897   8.856  0.3526 -0.2729 -0.3890
 6020TIP3    H142255   4.194   4.898   8.772  0.1250  1.2212 -0.5239
 6020TIP3    H242256   4.064   4.937   8.839  0.2847  0.0065  0.5193
 6021TIP3   OH242257   5.199   2.527  12.165  0.4017  0.4485  0.1675
 6021TIP3    H142258   5.241   2.530  12.078  2.3651  0.3180  1.0558
 6021TIP3    H242259   5.159   2.613  12.175  1.2618  0.9263 -0.3624
 6022TIP3   OH242260   1.504   3.900   9.668  0.1918 -0.1230  0.0230
 6022TIP3    H142261   1.586   3.849   9.662  1.2405  1.3115  1.4221
 6022TIP3    H242262   1.533   3.989   9.686 -1.6968  0.4625  0.3113
 6023TIP3   OH242263   1.276   5.595  10.669  0.5549  0.1783 -0.4063
 6023TIP3    H142264   1.228   5.678  10.667 -0.9004 -0.5551  1.2564
 6023TIP3    H242265   1.364   5.618  10.642 -0.1116  2.0489 -1.1610
 6024TIP3   OH242266   0.202   5.367  11.067 -0.2091  0.4915  0.1803
 6024TIP3    H142267   0.293   5.340  11.075 -0.2538  0.2737 -0.0478
 6024TIP3    H242268   0.205   5.455  11.031 -0.0501  0.9239  1.2014
 6025TIP3   OH242269   0.137   0.398  10.153  0.4683 -0.0957 -0.1521
 6025TIP3    H142270   0.205   0.332  10.139  0.3113 -0.2494 -0.1895
 6025TIP3    H242271   0.071   0.355  10.206 -0.0663 -0.2646 -0.9308
 6026TIP3   OH242272   2.953   4.600  10.102 -0.2744 -0.0800  0.9446
 6026TIP3    H142273   2.916   4.581  10.188 -0.5127  0.2151  0.9095
 6026TIP3    H242274   2.880   4.635  10.052 -0.7446 -2.3875 -0.1139
 6027TIP3   OH242275   5.807   3.610   8.911  0.2874  0.8702  0.0964
 6027TIP3    H142276   5.730   3.617   8.967  1.9250  3.0018  2.2808
 6027TIP3    H242277   5.816   3.697   8.871  1.0642  0.3737 -0.8642
 6028TIP3   OH242278   0.882   6.212  10.180 -0.2140  1.0501  0.3982
 6028TIP3    H142279   0.874   6.241  10.271 -0.5898 -0.4063  0.8603
 6028TIP3    H242280   0.884   6.293  10.129  1.2857  1.9457  1.7722
 6029TIP3   OH242281   2.394   3.788  10.039 -0.2433 -0.4649 -0.1659
 6029TIP3    H142282   2.419   3.790   9.946 -0.8699 -0.0339 -0.3349
 6029TIP3    H242283   2.301   3.767  10.037 -0.2072 -0.6688  0.3795
 6030TIP3   OH242284   6.609   4.260   9.373  0.1576 -0.1110 -0.2094
 6030TIP3    H142285   6.595   4.220   9.287 -0.6604 -0.9049  0.2754
 6030TIP3    H242286   6.534   4.231   9.425  1.4236 -0.9089  1.2394
 6031TIP3   OH242287   6.048   2.956   8.910 -0.2917  0.2339  0.3423
 6031TIP3    H142288   6.121   3.018   8.904 -1.1406  1.2540  0.4404
 6031TIP3    H242289   6.017   2.964   9.000 -1.1914  0.5806  0.0082
 6032TIP3   OH242290   5.850   5.301  11.050 -0.4391 -0.3718 -0.1359
 6032TIP3    H142291   5.886   5.215  11.030  0.1023 -0.2224  0.1856
 6032TIP3    H242292   5.887   5.359  10.984  0.0892 -0.1782  0.3212
 6033TIP3   OH242293   5.544   6.308   8.962 -0.8996 -0.2815 -0.6923
 6033TIP3    H142294   5.581   6.367   8.896 -0.4795  0.0942 -0.1316
 6033TIP3    H242295   5.545   6.359   9.043  0.0411 -1.2418 -0.0615
 6034TIP3   OH242296   4.423   4.603   9.631 -0.6256  0.4807 -0.3331
 6034TIP3    H142297   4.345   4.564   9.671  0.3437 -0.2858  0.8397
 6034TIP3    H242298   4.394   4.626   9.542 -1.9304 -0.6429 -0.2392
 6035TIP3   OH242299   1.163   6.040  12.192  0.1287  0.2337  0.3829
 6035TIP3    H142300   1.223   6.010  12.123 -0.2583  0.4438 -0.0491
 6035TIP3    H242301   1.100   5.969  12.202  0.4101  0.0391  0.7945
 6036TIP3   OH242302   0.795   2.809   9.983  0.1936 -0.0814 -0.2890
 6036TIP3    H142303   0.824   2.718   9.994 -0.6090 -0.4229 -0.9423
 6036TIP3    H242304   0.767   2.814   9.892  0.7550  0.9826 -0.4163
 6037TIP3   OH242305   2.569   0.016   9.107  0.6339  0.4375  0.6381
 6037TIP3    H142306   2.637   0.082   9.123  1.7361 -0.7813  1.2897
 6037TIP3    H242307   2.494   0.045   9.159  0.9900  1.3352  0.6595
 6038TIP3   OH242308   4.586   4.936  11.650  0.0679  0.0783 -0.1777
 6038TIP3    H142309   4.615   4.921  11.740  0.4610 -2.8712 -0.6903
 6038TIP3    H242310   4.491   4.938  11.656  0.0983  2.1985  0.5286
 6039TIP3   OH242311   2.910   2.622   9.455  0.1681  0.1093 -0.2274
 6039TIP3    H142312   2.978   2.624   9.521  0.7068 -0.1254 -0.7612
 6039TIP3    H242313   2.828   2.612   9.504  0.4600  0.9882  0.4453
 6040TIP3   OH242314   2.926   0.418  10.784  0.5644 -0.1966  0.2272
 6040TIP3    H142315   2.954   0.386  10.698 -0.2359 -0.5341  0.0827
 6040TIP3    H242316   2.840   0.456  10.769 -0.1312 -1.3560  1.0888
 6041TIP3   OH242317   3.664   2.058  10.605  0.5016  0.3489  0.0377
 6041TIP3    H142318   3.709   2.107  10.674 -0.2054  1.3424 -0.2007
 6041TIP3    H242319   3.735   2.028  10.548  1.0427  0.0427  0.8407
 6042TIP3   OH242320   4.862   5.222  11.939  0.2203 -0.5929  0.2919
 6042TIP3    H142321   4.916   5.281  11.992  0.4439 -0.2396 -0.3177
 6042TIP3    H242322   4.905   5.137  11.946 -0.2120 -0.7473  1.3362
 6043TIP3   OH242323   6.399   3.872  10.916 -0.1960  0.3220  0.2867
 6043TIP3    H142324   6.457   3.798  10.899 -2.7121 -1.6013 -0.6292
 6043TIP3    H242325   6.415   3.932  10.844  1.3213  0.3086  0.5929
 6044TIP3   OH242326   3.617   5.624  10.607  0.4131  0.1937  0.1480
 6044TIP3    H142327   3.668   5.595  10.531  0.6943  1.5922 -0.2228
 6044TIP3    H242328   3.535   5.657  10.570 -0.7659 -1.8842  0.7274
 6045TIP3   OH242329   0.136   2.628   9.549 -0.4891 -0.2377  0.3244
 6045TIP3    H142330   0.051   2.670   9.562 -0.0241  0.4616  1.2627
 6045TIP3    H242331   0.199   2.694   9.577  0.2591 -1.6078  2.0529
 6046TIP3   OH242332   0.405   5.549  11.250 -0.3462  0.0140 -0.0372
 6046TIP3    H142333   0.433   5.491  11.179  2.3711 -0.0746  0.9881
 6046TIP3    H242334   0.396   5.491  11.326 -1.3008  0.4006  0.1574
 6047TIP3   OH242335   5.418   2.736  11.766  0.6043  0.2720 -0.9498
 6047TIP3    H142336   5.348   2.711  11.827  2.3083 -0.8311  0.6271
 6047TIP3    H242337   5.390   2.699  11.682 -2.0258  2.2352 -1.0612
 6048TIP3   OH242338   3.585   2.796   9.619 -0.5907 -0.0330 -0.4892
 6048TIP3    H142339   3.582   2.739   9.542  1.6109 -0.9339  0.0212
 6048TIP3    H242340   3.562   2.739   9.692  0.7301 -0.0905 -0.0878
 6049TIP3   OH242341   0.909   3.743  10.146  0.8776 -0.2600  0.1273
 6049TIP3    H142342   0.960   3.824  10.155 -0.0611  0.3665 -0.0231
 6049TIP3    H242343   0.858   3.738  10.227  0.2437 -0.1945 -0.2578
 6050TIP3   OH242344   5.700   0.606   9.725 -0.5140 -0.7211  0.1772
 6050TIP3    H142345   5.607   0.584   9.720 -1.4873  2.5151  1.4811
 6050TIP3    H242346   5.716   0.662   9.649 -0.0490 -0.0274  0.7645
 6051TIP3   OH242347   1.226   5.854   9.818 -0.1282 -0.4365 -0.3292
 6051TIP3    H142348   1.251   5.806   9.739  0.9863  0.0965 -0.3185
 6051TIP3    H242349   1.230   5.789   9.888  3.7898  0.0761  0.1275
 6052TIP3   OH242350   2.117   0.979  11.635  0.0026  0.3256  0.7294
 6052TIP3    H142351   2.049   0.974  11.702 -0.6145  0.4053  0.1235
 6052TIP3    H242352   2.127   1.072  11.617 -1.3230  0.2295 -0.7433
 6053TIP3   OH242353   4.498   5.208  10.678  0.0902 -0.4262 -0.4934
 6053TIP3    H142354   4.413   5.166  10.691  0.1365 -0.2329  0.5014
 6053TIP3    H242355   4.520   5.246  10.763  0.3275  1.1102 -1.1980
 6054TIP3   OH242356   5.227   0.783   9.491 -0.3484  0.5470  0.4279
 6054TIP3    H142357   5.245   0.731   9.413  0.3401 -0.2946  1.1216
 6054TIP3    H242358   5.138   0.758   9.517 -0.6784  1.0252 -0.2268
 6055TIP3   OH242359   5.840   6.046  10.453  0.1382 -0.3939 -0.2559
 6055TIP3    H142360   5.920   6.094  10.435 -0.5818  0.8583 -0.2516
 6055TIP3    H242361   5.839   6.035  10.548  0.5952 -0.9698 -0.3106
 6056TIP3   OH242362   4.124   3.484  11.207  0.0141 -0.4110 -0.2124
 6056TIP3    H142363   4.138   3.443  11.292 -2.7296  2.3176  1.8230
 6056TIP3    H242364   4.175   3.565  11.211 -0.5521 -0.0051 -0.9060
 6057TIP3   OH242365   1.464   1.218   8.924 -0.1814  0.1477 -0.3798
 6057TIP3    H142366   1.407   1.280   8.968 -0.2119 -0.5976  0.6758
 6057TIP3    H242367   1.553   1.250   8.940 -0.2478  1.2127 -1.8775
 6058TIP3   OH242368   3.631   2.273  11.802  0.1878  0.8759 -0.1018
 6058TIP3    H142369   3.706   2.232  11.846  0.2315  2.3690  1.3141
 6058TIP3    H242370   3.556   2.220  11.828  0.6845 -0.5679 -1.4425
 6059TIP3   OH242371   6.571   6.241   9.973  0.0323  0.0763 -1.4755
 6059TIP3    H142372   6.493   6.273   9.929 -0.5042 -0.9763 -1.3181
 6059TIP3    H242373   6.633   6.314   9.969 -1.5783  1.6250  0.0249
 6060TIP3   OH242374   0.432   2.030   9.404  0.3031  0.0925 -0.6627
 6060TIP3    H142375   0.433   2.085   9.482  2.1898  1.7158 -1.7550
 6060TIP3    H242376   0.524   2.011   9.387 -0.1283 -0.9026 -2.0378
 6061TIP3   OH242377   6.427   4.538   8.810 -0.3189  0.2514 -0.5209
 6061TIP3    H142378   6.501   4.553   8.869  1.0572  0.7075 -2.2775
 6061TIP3    H242379   6.368   4.481   8.860  0.4064  1.2175  1.5446
 6062TIP3   OH242380   2.364   1.515   9.756  0.3360  0.5408 -0.4060
 6062TIP3    H142381   2.352   1.452   9.828  1.9861  1.7819  1.0488
 6062TIP3    H242382   2.420   1.468   9.694 -1.1289 -0.5599 -0.9374
 6063TIP3   OH242383   1.222   2.088   8.968  0.4254 -0.2113  0.5221
 6063TIP3    H142384   1.191   2.086   9.059  1.4243 -0.1835  0.8768
 6063TIP3    H242385   1.167   2.155   8.926  0.0222 -0.1523  1.1251
 6064TIP3   OH242386   2.297   3.087   9.106 -0.2200  0.5745 -0.0075
 6064TIP3    H142387   2.388   3.116   9.102  0.6671 -2.0723 -0.6604
 6064TIP3    H242388   2.277   3.058   9.017 -0.9087 -1.0627  0.6593
 6065TIP3   OH242389   5.783   1.135   8.595 -0.4512  0.2397 -0.1033
 6065TIP3    H142390   5.711   1.134   8.658 -0.1056  0.1864  0.2932
 6065TIP3    H242391   5.831   1.054   8.613 -2.1615 -1.4582 -2.5581
 6066TIP3   OH242392   1.822   4.792  11.083  0.0521 -0.0420 -0.2073
 6066TIP3    H142393   1.866   4.848  11.146  1.0047  0.3543 -1.1948
 6066TIP3    H242394   1.870   4.710  11.085 -0.9729 -0.6522  0.7996
 6067TIP3   OH242395   0.338   1.910  10.110  0.2256 -0.1797  0.1025
 6067TIP3    H142396   0.320   1.828  10.064 -0.3016 -0.3549  0.6229
 6067TIP3    H242397   0.252   1.946  10.130  0.3476  1.8555 -2.4783
 6068TIP3   OH242398   5.763   5.503   9.304 -0.2651  0.4738  0.4521
 6068TIP3    H142399   5.671   5.490   9.281 -0.2225  4.6385 -3.5586
 6068TIP3    H242400   5.764   5.586   9.352  1.3451  0.4476  0.5308
 6069TIP3   OH242401   4.510   2.895  11.759  0.2836 -0.5952  0.2270
 6069TIP3    H142402   4.524   2.952  11.834  1.3724 -1.2969  0.5751
 6069TIP3    H242403   4.546   2.811  11.786 -1.4329 -1.5082 -0.2197
 6070TIP3   OH242404   4.728   3.237   9.227  0.4841 -0.0764  0.0924
 6070TIP3    H142405   4.755   3.252   9.137  0.2002 -0.0445  0.0115
 6070TIP3    H242406   4.632   3.244   9.225  0.5102  0.5465  0.5025
 6071TIP3   OH242407   4.572   5.324  11.500 -0.1730  0.1183 -0.0518
 6071TIP3    H142408   4.578   5.249  11.440  0.2783 -0.2041  0.3883
 6071TIP3    H242409   4.631   5.302  11.572  1.8423  1.9534 -1.0416
 6072TIP3   OH242410   1.476   3.969  11.336  0.0272  0.5185 -0.4639
 6072TIP3    H142411   1.502   3.925  11.255  0.9100 -0.4773  0.3469
 6072TIP3    H242412   1.557   3.980  11.385 -0.5643  0.6698  0.5071
 6073TIP3   OH242413   3.563   5.325   8.747  0.2478 -0.4757  0.0007
 6073TIP3    H142414   3.567   5.407   8.698  2.3122 -0.5017  0.0325
 6073TIP3    H242415   3.622   5.266   8.700 -0.2406 -1.5362  0.6942
 6074TIP3   OH242416   3.119   1.979  11.927 -0.7675  0.3638 -0.7181
 6074TIP3    H142417   3.081   1.910  11.981 -0.8395  0.9434 -0.0155
 6074TIP3    H242418   3.195   2.009  11.976 -0.3138  0.3012 -1.3647
 6075TIP3   OH242419   3.473   1.627  10.547  0.0334 -0.4023  0.3851
 6075TIP3    H142420   3.525   1.693  10.594 -0.5065  0.0792  0.3220
 6075TIP3    H242421   3.395   1.615  10.601 -0.5582  0.0969 -0.3349
 6076TIP3   OH242422   4.831   5.603  11.970 -0.1805 -0.4853  0.6328
 6076TIP3    H142423   4.843   5.677  12.029 -0.0478 -0.6072  0.7614
 6076TIP3    H242424   4.884   5.533  12.009 -0.8150 -0.8434  0.8617
 6077TIP3   OH242425   2.210   0.130  10.601 -0.2359 -0.2275  0.1333
 6077TIP3    H142426   2.245   0.208  10.644 -0.7701  0.8512 -1.3107
 6077TIP3    H242427   2.233   0.141  10.508  1.2538 -2.6760  0.1234
 6078TIP3   OH242428   0.910   2.470  10.293 -0.4618 -0.0677 -0.0462
 6078TIP3    H142429   0.983   2.523  10.323  0.2212 -1.4879  0.9226
 6078TIP3    H242430   0.948   2.412  10.227 -0.8221 -0.4697  0.0964
 6079TIP3   OH242431   1.058   4.991   8.962  0.1878  0.3545  0.5289
 6079TIP3    H142432   1.019   4.917   9.008  1.2761  0.1616  1.1769
 6079TIP3    H242433   1.055   5.062   9.026  0.8519  0.3459  0.5749
 6080TIP3   OH242434   5.439   5.641   9.481  0.2525 -0.6451  0.5319
 6080TIP3    H142435   5.412   5.559   9.440 -0.5483 -0.3972  0.5470
 6080TIP3    H242436   5.390   5.709   9.435  0.6308 -0.2070  0.7618
 6081TIP3   OH242437   6.566   1.744   8.854  0.1024  0.0218 -0.4879
 6081TIP3    H142438   6.651   1.775   8.823 -0.3943  0.5149 -1.3882
 6081TIP3    H242439   6.570   1.649   8.846  0.9124 -0.0379  0.3955
 6082TIP3   OH242440   6.397   5.949  10.703  0.0070 -0.7068  0.7462
 6082TIP3    H142441   6.451   5.917  10.630  0.3460  0.4058  0.4923
 6082TIP3    H242442   6.419   5.891  10.776  0.8159 -0.8755  0.3825
 6083TIP3   OH242443   1.240   3.073   9.340  0.3821 -0.1450 -0.2201
 6083TIP3    H142444   1.255   2.995   9.393 -1.7992  0.3403  1.2330
 6083TIP3    H242445   1.195   3.134   9.398 -0.5541  1.1034 -2.1274
 6084TIP3   OH242446   2.125   0.372  10.812 -0.1696 -0.0215  0.1941
 6084TIP3    H142447   2.055   0.330  10.861  0.5986 -0.0428  1.3148
 6084TIP3    H242448   2.206   0.335  10.849  0.4739  1.2200  0.0714
 6085TIP3   OH242449   4.829   4.343  11.759  0.2736 -0.0857 -0.7154
 6085TIP3    H142450   4.808   4.250  11.749  0.1823 -0.2287  0.5999
 6085TIP3    H242451   4.889   4.346  11.833  0.7301  0.8530 -1.1111
 6086TIP3   OH242452   0.445   2.277   8.439 -0.0740 -0.7499 -0.4363
 6086TIP3    H142453   0.354   2.306   8.450  0.4571  0.4249  1.2646
 6086TIP3    H242454   0.440   2.182   8.444 -1.1000 -0.6613  0.8606
 6087TIP3   OH242455   2.308   1.485  10.464  0.6813 -0.0367  0.3335
 6087TIP3    H142456   2.399   1.514  10.474  0.6282  0.2644 -0.0435
 6087TIP3    H242457   2.257   1.567  10.462  0.3135 -0.2150  1.3667
 6088TIP3   OH242458   2.772   4.570   9.565 -0.1884  0.3084  0.1439
 6088TIP3    H142459   2.772   4.493   9.622  2.5909  0.9877  1.2077
 6088TIP3    H242460   2.716   4.633   9.611 -0.0550 -0.0427  0.7941
 6089TIP3   OH242461   2.617   6.223  10.920  0.3307  0.1424  0.0659
 6089TIP3    H142462   2.580   6.306  10.947  0.4877 -0.0656  0.9316
 6089TIP3    H242463   2.711   6.233  10.932  0.1915 -0.9543  2.4953
 6090TIP3   OH242464   3.632   2.962  11.885 -0.4716 -0.5940 -0.0480
 6090TIP3    H142465   3.593   2.947  11.971 -0.2862  1.6008  0.4724
 6090TIP3    H242466   3.631   3.057  11.875  1.8276 -0.6578 -1.3852
 6091TIP3   OH242467   4.891   6.267   9.348 -0.7801  0.2913 -0.4272
 6091TIP3    H142468   4.953   6.268   9.275 -1.9668 -1.0768 -1.5250
 6091TIP3    H242469   4.912   6.345   9.399  0.5490  0.9098 -1.8524
 6092TIP3   OH242470   0.649   1.092  10.844 -0.7328  0.5390 -0.2798
 6092TIP3    H142471   0.635   1.186  10.853  2.3012  0.9828  1.2105
 6092TIP3    H242472   0.593   1.053  10.910 -2.8362  1.1403 -1.6300
 6093TIP3   OH242473   2.297   5.269  10.208 -0.1088 -0.4157  0.1062
 6093TIP3    H142474   2.226   5.331  10.196  0.1900  0.0995  0.8840
 6093TIP3    H242475   2.315   5.235  10.120 -0.5859  0.2515 -0.2586
 6094TIP3   OH242476   2.786   0.867  10.255 -0.5397  0.4942 -0.1217
 6094TIP3    H142477   2.752   0.903  10.336 -0.6424  0.2358 -0.0487
 6094TIP3    H242478   2.788   0.772  10.269  1.1716  0.5529  0.2603
 6095TIP3   OH242479   2.592   5.447  11.432  0.2022  0.5176 -0.3606
 6095TIP3    H142480   2.558   5.509  11.497 -0.3009  0.2358 -0.3502
 6095TIP3    H242481   2.640   5.501  11.370 -2.1350  1.2569 -1.6500
 6096TIP3   OH242482   3.962   2.557   8.777 -0.4712  0.3961  0.1726
 6096TIP3    H142483   3.923   2.572   8.691 -0.7657  0.2302  0.2753
 6096TIP3    H242484   3.919   2.621   8.834  1.0195  1.7407 -0.1584
 6097TIP3   OH242485   6.574   4.308  10.835 -0.1432 -0.1085 -0.2611
 6097TIP3    H142486   6.605   4.371  10.769  2.7294 -2.0111 -0.9136
 6097TIP3    H242487   6.554   4.229  10.785 -1.2427 -0.5524  0.8245
 6098TIP3   OH242488   6.556   1.318  10.504 -0.4726  0.4574  0.0226
 6098TIP3    H142489   6.619   1.306  10.432  0.6055 -1.4427  1.2109
 6098TIP3    H242490   6.473   1.288  10.468  0.5766 -3.2943  0.3245
 6099TIP3   OH242491   0.189   5.090   8.824 -0.0077  0.1454 -0.2477
 6099TIP3    H142492   0.260   5.077   8.886 -0.4257  1.9630  0.6981
 6099TIP3    H242493   0.128   5.019   8.842 -0.2371  0.7665  1.6613
 6100TIP3   OH242494   4.846   1.718  10.562  0.4524  0.0862  0.3281
 6100TIP3    H142495   4.852   1.707  10.657  0.7113 -0.3952  0.2561
 6100TIP3    H242496   4.757   1.749  10.546  0.1808 -0.5234  0.6594
 6101TIP3   OH242497   0.149   4.302  10.097 -0.3538 -0.0757  0.3728
 6101TIP3    H142498   0.120   4.237  10.160 -0.2444 -0.1272  0.3718
 6101TIP3    H242499   0.163   4.252  10.016 -0.8248  0.0508  0.2137
 6102TIP3   OH242500   2.591   5.892  11.653  0.0016  0.2222 -0.5735
 6102TIP3    H142501   2.553   5.888  11.565 -0.4986  0.8263 -0.3942
 6102TIP3    H242502   2.667   5.834  11.649 -0.4947 -0.4081 -1.1639
 6103TIP3   OH242503   6.226   1.018   8.851 -0.3144 -0.7216  0.6202
 6103TIP3    H142504   6.290   1.056   8.911 -0.4230 -1.4668  1.2160
 6103TIP3    H242505   6.278   0.982   8.779 -0.2064  0.5203  0.0376
 6104TIP3   OH242506   4.144   1.141   8.751  0.1302 -0.1655  0.2697
 6104TIP3    H142507   4.062   1.156   8.799 -0.3740  0.7356 -0.8232
 6104TIP3    H242508   4.165   1.050   8.768 -1.5221 -0.6378 -0.0223
 6105TIP3   OH242509   0.233   0.125   9.980  0.1392 -0.1599 -0.2087
 6105TIP3    H142510   0.322   0.143   9.949  0.5965  0.2492  1.2250
 6105TIP3    H242511   0.243   0.050  10.039 -0.7104 -0.9989 -1.1034
 6106TIP3   OH242512   0.168   6.677  10.722  0.2272  0.0839  0.3290
 6106TIP3    H142513   0.083   6.661  10.679 -0.1954  2.7862 -0.0113
 6106TIP3    H242514   0.231   6.629  10.669 -1.0525 -1.9635  0.5676
 6107TIP3   OH242515   6.104   4.895  10.229  0.1196  0.0952 -0.3401
 6107TIP3    H142516   6.154   4.815  10.215  1.6307  0.9810 -0.2587
 6107TIP3    H242517   6.037   4.895  10.160  0.2932 -1.0630 -0.5260
 6108TIP3   OH242518   2.316   5.586   9.334 -0.3050 -0.0982  0.0409
 6108TIP3    H142519   2.258   5.597   9.409  0.7522  0.0723  0.8542
 6108TIP3    H242520   2.344   5.675   9.312  1.6068 -0.3462  1.2644
 6109TIP3   OH242521   2.607   6.333   9.887 -0.2097 -0.1146  0.2970
 6109TIP3    H142522   2.676   6.347   9.951 -1.0995  1.4672  0.9853
 6109TIP3    H242523   2.647   6.357   9.803 -0.2845  2.3111  0.8688
 6110TIP3   OH242524   2.899   2.853   9.278 -0.3168  0.8131 -0.0400
 6110TIP3    H142525   2.907   2.777   9.335 -0.6550  1.1346  0.4355
 6110TIP3    H242526   2.861   2.921   9.333 -0.3287  1.2281 -0.5540
 6111TIP3   OH242527   4.301   5.348  11.560 -0.2558  0.7568 -0.3185
 6111TIP3    H142528   4.243   5.288  11.513 -0.2527  1.3323 -1.0794
 6111TIP3    H242529   4.389   5.321  11.535 -0.2117  0.3709  0.2317
 6112TIP3   OH242530   4.378   4.661  11.786 -0.2777  0.1618 -1.2654
 6112TIP3    H142531   4.326   4.648  11.707  0.7040 -1.2993 -1.7272
 6112TIP3    H242532   4.450   4.598  11.777 -0.0199  0.1213  0.6832
 6113TIP3   OH242533   3.066   5.067  11.556 -0.0878  0.1589 -0.1248
 6113TIP3    H142534   3.055   5.104  11.469  0.5735 -0.4132 -0.4668
 6113TIP3    H242535   3.001   5.111  11.610 -0.4974  0.5268 -0.9058
 6114TIP3   OH242536   1.746   6.630   9.721 -0.4193  0.3850 -0.4908
 6114TIP3    H142537   1.792   6.547   9.733 -0.6721  0.4550  1.2013
 6114TIP3    H242538   1.815   6.695   9.710 -0.1462  0.2505  0.3704
 6115TIP3   OH242539   3.545   4.361  12.267  0.1032 -0.1701 -0.0125
 6115TIP3    H142540   3.638   4.342  12.252  0.1015  0.0796 -0.3536
 6115TIP3    H242541   3.535   4.362  12.362  0.7136  1.0647  0.0509
 6116TIP3   OH242542   4.679   5.846  10.306  0.3611 -0.5952 -0.3273
 6116TIP3    H142543   4.674   5.923  10.364  2.9754  0.8876 -1.8629
 6116TIP3    H242544   4.726   5.780  10.357  0.7506 -0.0723  0.0007
 6117TIP3   OH242545   5.613   5.241   9.350 -0.5858 -0.2177 -0.0938
 6117TIP3    H142546   5.576   5.206   9.431 -1.0190 -0.1758 -0.2746
 6117TIP3    H242547   5.707   5.250   9.369 -0.8408  0.8552  0.7949
 6118TIP3   OH242548   2.787   3.452  12.158 -0.4177 -0.7571 -0.6987
 6118TIP3    H142549   2.860   3.486  12.105 -0.7971 -0.2505 -0.8959
 6118TIP3    H242550   2.822   3.371  12.196 -0.0946 -1.0816 -1.6381
 6119TIP3   OH242551   3.246   5.439   9.109 -0.1099  0.1944  0.4200
 6119TIP3    H142552   3.152   5.429   9.098 -0.1226  1.7700 -1.4131
 6119TIP3    H242553   3.285   5.369   9.057 -0.2778  0.2264  0.2512
 6120TIP3   OH242554   0.878   6.368  11.936  0.1502 -0.3689 -0.3371
 6120TIP3    H142555   0.960   6.347  11.980 -1.3832 -3.7268  1.3870
 6120TIP3    H242556   0.848   6.284  11.901 -1.7046  1.0795 -2.5229
 6121TIP3   OH242557   4.918   6.078  10.992  0.0204  0.1434 -0.0865
 6121TIP3    H142558   4.905   6.143  10.923 -1.0060 -0.3007 -0.3377
 6121TIP3    H242559   4.950   6.000  10.946 -0.2157 -0.0061 -0.0004
 6122TIP3   OH242560   5.301   0.277   9.085 -0.4087 -0.0794  0.3038
 6122TIP3    H142561   5.363   0.210   9.116 -1.1315 -1.1502 -0.5039
 6122TIP3    H242562   5.286   0.333   9.162  1.3082  0.0320  0.6055
 6123TIP3   OH242563   2.887   0.907  10.572 -0.2147 -0.4977  0.0475
 6123TIP3    H142564   2.944   0.859  10.632 -0.3102  1.0571  1.4377
 6123TIP3    H242565   2.937   0.911  10.490  0.5547 -1.3645  0.4517
 6124TIP3   OH242566   3.651   1.423  10.715 -0.1205 -0.4096  0.0691
 6124TIP3    H142567   3.630   1.499  10.769  0.0834  0.0831 -0.5320
 6124TIP3    H242568   3.683   1.460  10.633 -1.2076 -1.1291 -0.7119
 6125TIP3   OH242569   3.161   2.420   9.341 -0.3540 -0.1566 -0.7113
 6125TIP3    H142570   3.252   2.449   9.333  0.2225 -1.9503 -1.2952
 6125TIP3    H242571   3.165   2.346   9.401 -1.5009 -0.0059 -0.4313
 6126TIP3   OH242572   5.634   2.915   9.249  0.3161 -0.3813 -0.4018
 6126TIP3    H142573   5.598   2.997   9.214  0.1440 -0.4244 -0.3260
 6126TIP3    H242574   5.658   2.936   9.339 -2.2673 -1.1203  0.5536
 6127TIP3   OH242575   3.832   0.048  11.092  0.3076 -0.8371  0.0415
 6127TIP3    H142576   3.868  -0.017  11.152 -0.1459 -1.3893 -0.2762
 6127TIP3    H242577   3.885   0.127  11.108  1.2569 -1.4500  0.0028
 6128TIP3   OH242578   3.303   6.597   9.237  0.5150 -0.7478 -0.3759
 6128TIP3    H142579   3.380   6.541   9.247  0.8507 -0.1732  0.2928
 6128TIP3    H242580   3.231   6.543   9.270  1.0995 -0.1643  2.0076
 6129TIP3   OH242581   5.328   5.402   9.365  0.3229 -0.2244 -0.5814
 6129TIP3    H142582   5.329   5.307   9.373  0.5431 -0.2553 -0.9430
 6129TIP3    H242583   5.237   5.427   9.381  0.5012 -0.3819  0.7568
 6130TIP3   OH242584   4.837   4.405  10.849 -0.0279  0.2294 -0.5674
 6130TIP3    H142585   4.750   4.419  10.885  0.4787  1.1928  0.3617
 6130TIP3    H242586   4.837   4.314  10.819 -0.8150 -0.3183  0.9921
 6131TIP3   OH242587   4.931   4.173   9.061 -0.0418  0.0159 -0.6662
 6131TIP3    H142588   4.911   4.255   9.016 -1.3890  0.0441 -0.0809
 6131TIP3    H242589   4.932   4.107   8.992  1.2541  0.5242 -1.1740
 6132TIP3   OH242590   3.592   1.399   8.971  0.1001 -0.9566  0.0336
 6132TIP3    H142591   3.577   1.344   9.048  2.0304 -1.5630  0.0157
 6132TIP3    H242592   3.591   1.337   8.898  0.0228 -0.6321 -0.2409
 6133TIP3   OH242593   1.182   4.716   9.386 -0.1026 -0.3046  0.2579
 6133TIP3    H142594   1.213   4.806   9.392 -1.3713  0.0853  1.3365
 6133TIP3    H242595   1.115   4.718   9.317 -0.3509 -0.3371  0.4925
 6134TIP3   OH242596   0.307   6.516  10.549 -0.4365  0.8331 -0.3574
 6134TIP3    H142597   0.380   6.481  10.496 -0.3746  0.6782 -0.1745
 6134TIP3    H242598   0.233   6.459  10.527 -0.0862 -0.0719  0.6932
 6135TIP3   OH242599   3.979   4.657  11.302  0.0647  0.2887  1.1544
 6135TIP3    H142600   4.056   4.710  11.322 -1.0963  1.7413  1.9769
 6135TIP3    H242601   3.949   4.689  11.217 -1.9176  2.6634  2.6104
 6136TIP3   OH242602   1.225   1.078   9.358  0.2281 -0.2529 -0.0178
 6136TIP3    H142603   1.135   1.111   9.356  0.0278 -0.8046 -0.5299
 6136TIP3    H242604   1.266   1.125   9.431 -0.3855  0.2275  0.0325
 6137TIP3   OH242605   3.090   5.186   9.879  0.2685 -0.5265  0.1387
 6137TIP3    H142606   3.006   5.211   9.841  0.1336 -1.1980 -0.0212
 6137TIP3    H242607   3.152   5.249   9.843 -0.1500 -0.0637  0.2090
 6138TIP3   OH242608   1.518   5.556   9.736 -0.0365 -0.0895  0.4196
 6138TIP3    H142609   1.505   5.649   9.755 -0.7001  0.0998 -0.8914
 6138TIP3    H242610   1.605   5.537   9.770 -0.4220  0.6605  1.9333
 6139TIP3   OH242611   4.640   1.874   9.439 -0.0293  0.5127 -0.0386
 6139TIP3    H142612   4.571   1.827   9.391  0.7025 -3.0427  2.0326
 6139TIP3    H242613   4.722   1.844   9.399  0.4818  2.0169 -0.2036
 6140TIP3   OH242614   3.452   2.429   8.972  0.6529 -0.1118  0.2014
 6140TIP3    H142615   3.378   2.479   8.939  1.3528  0.2549 -0.8556
 6140TIP3    H242616   3.526   2.490   8.971  1.0145 -0.5094  1.1128
 6141TIP3   OH242617   3.767   4.448   8.827 -0.3609 -0.1538 -0.3249
 6141TIP3    H142618   3.723   4.447   8.742 -1.3451 -2.6250  0.1101
 6141TIP3    H242619   3.848   4.399   8.813 -0.6411 -0.7808  0.1736
 6142TIP3   OH242620   1.962   5.708   9.861  0.1806 -0.3617  0.5125
 6142TIP3    H142621   1.969   5.730   9.954 -0.7367 -1.0600  0.7569
 6142TIP3    H242622   1.984   5.790   9.816  0.3306  0.0702  1.3429
 6143TIP3   OH242623   6.170   0.603  11.235 -0.2992 -0.0632 -0.4693
 6143TIP3    H142624   6.262   0.629  11.240 -0.3961  1.1004 -3.0890
 6143TIP3    H242625   6.125   0.680  11.201 -2.2479 -0.6951  0.4916
 6144TIP3   OH242626   1.465   1.091  10.641  0.1523  0.1344 -0.3279
 6144TIP3    H142627   1.537   1.048  10.594 -0.3417 -0.0941 -0.8887
 6144TIP3    H242628   1.437   1.161  10.583 -0.3426 -0.0298 -0.2884
 6145TIP3   OH242629   2.131   5.634   9.522  0.4883  0.6700  0.0313
 6145TIP3    H142630   2.171   5.613   9.607  2.1462  1.4653 -0.5175
 6145TIP3    H242631   2.043   5.597   9.528  0.5782  0.6695  2.0792
 6146TIP3   OH242632   2.591   6.152  12.159  0.0259 -0.3573 -0.2499
 6146TIP3    H142633   2.516   6.158  12.219 -0.9088 -2.6311 -1.0377
 6146TIP3    H242634   2.662   6.196  12.204 -1.1969 -0.1417  1.5825
 6147TIP3   OH242635   2.646   0.590  11.720  0.6784 -0.1256 -0.4889
 6147TIP3    H142636   2.561   0.582  11.763 -0.1142  0.7797 -1.8122
 6147TIP3    H242637   2.692   0.508  11.742 -0.3559 -0.4435  0.5882
 6148TIP3   OH242638   1.027   3.129   8.727 -0.7838 -0.1803  0.1201
 6148TIP3    H142639   0.948   3.182   8.718 -0.3235  0.6279  0.6186
 6148TIP3    H242640   1.086   3.160   8.658  1.5101  3.7776  3.3837
 6149TIP3   OH242641   1.697   2.220  11.463  0.0722 -0.4784  0.3657
 6149TIP3    H142642   1.755   2.277  11.514  0.6775 -2.2352  1.7181
 6149TIP3    H242643   1.630   2.193  11.526  0.3294 -1.9910  0.0140
 6150TIP3   OH242644   0.372   3.032  11.023 -0.2339 -0.1940 -0.2617
 6150TIP3    H142645   0.366   2.943  11.057 -1.1467  0.3804  1.1878
 6150TIP3    H242646   0.462   3.040  10.993 -0.2964 -1.7792 -0.9655
 6151TIP3   OH242647   2.177   2.718  10.956 -0.0173  0.4455  0.9059
 6151TIP3    H142648   2.251   2.658  10.968  0.0561  0.0828 -0.9984
 6151TIP3    H242649   2.107   2.662  10.923 -1.5578  0.5891  3.7248
 6152TIP3   OH242650   1.442   2.255   8.932 -0.6432 -0.2888  0.2227
 6152TIP3    H142651   1.393   2.172   8.938 -1.0648  0.0726  2.9449
 6152TIP3    H242652   1.383   2.320   8.968  0.7140  0.7120  0.7131
 6153TIP3   OH242653   4.374   2.451   9.214  0.2070 -0.0775  0.1011
 6153TIP3    H142654   4.446   2.390   9.195  0.7618  0.4280  0.5428
 6153TIP3    H242655   4.375   2.461   9.309 -0.9654 -0.6679  0.1882
 6154TIP3   OH242656   4.292   0.347  10.502  0.7904 -0.2743 -0.3373
 6154TIP3    H142657   4.263   0.261  10.471 -1.3807  0.3902 -0.2862
 6154TIP3    H242658   4.308   0.334  10.596  0.0932 -0.5388 -0.2510
 6155TIP3   OH242659   6.434   0.289  10.233 -0.0045  0.3061 -0.4188
 6155TIP3    H142660   6.482   0.297  10.150 -0.4656  1.6561 -0.5794
 6155TIP3    H242661   6.342   0.281  10.207 -0.1943  1.1506 -0.0393
 6156TIP3   OH242662   1.869   4.662   9.124 -0.2120 -0.0003 -0.6407
 6156TIP3    H142663   1.835   4.691   9.209 -0.2107 -0.8920 -0.3296
 6156TIP3    H242664   1.918   4.583   9.144  0.8474  0.4790 -1.3015
 6157TIP3   OH242665   6.378   4.155   9.555  0.0510 -0.3013  0.0457
 6157TIP3    H142666   6.283   4.147   9.555  0.0382 -0.3594 -0.9864
 6157TIP3    H242667   6.410   4.065   9.564 -0.0036 -0.3582 -0.3094
 6158TIP3   OH242668   2.487   3.510  13.136  0.0317  0.4783  0.4358
 6158TIP3    H142669   2.556   3.566  13.172 -1.9585  2.0533  2.0746
 6158TIP3    H242670   2.528   3.424  13.128  2.6225  1.6731 -0.2039
 6159TIP3   OH242671   4.651   3.581  11.366 -0.0996  0.1201  0.6471
 6159TIP3    H142672   4.706   3.548  11.437 -1.6106 -0.7172  1.4646
 6159TIP3    H242673   4.649   3.676  11.380  0.5861  0.0911  0.9992
 6160TIP3   OH242674   6.252   2.658  10.358  0.2142 -0.0841  0.5386
 6160TIP3    H142675   6.315   2.621  10.420 -0.3593 -0.9209  0.6485
 6160TIP3    H242676   6.244   2.750  10.383  1.0383 -0.0832  0.8152
 6161TIP3   OH242677   2.749   5.911  11.371 -0.3987 -0.0801  0.4650
 6161TIP3    H142678   2.676   5.855  11.397 -0.9322 -0.4835 -1.7042
 6161TIP3    H242679   2.771   5.882  11.283  1.6741  0.7839  0.6400
 6162TIP3   OH242680   2.818   4.748  12.738  0.3771 -0.3380 -0.0870
 6162TIP3    H142681   2.811   4.653  12.733  2.1136 -0.4831 -0.4237
 6162TIP3    H242682   2.727   4.779  12.735 -0.2158 -1.9701  0.0470
 6163TIP3   OH242683   3.194   4.676   8.259 -0.1570 -0.2764 -0.1018
 6163TIP3    H142684   3.146   4.751   8.293 -0.2433 -1.1022  1.7262
 6163TIP3    H242685   3.164   4.667   8.169 -1.6388  0.6563  0.2591
 6164TIP3   OH242686   0.696   4.002  11.349  0.5304  0.0779 -0.3539
 6164TIP3    H142687   0.650   3.922  11.374  1.4494  0.2142  1.9633
 6164TIP3    H242688   0.634   4.072  11.367  1.2640  0.1947  1.9617
 6165TIP3   OH242689   2.135   5.989   9.164 -0.1127 -0.5204  0.2349
 6165TIP3    H142690   2.044   5.984   9.135 -0.1848  1.3126  0.0476
 6165TIP3    H242691   2.146   6.080   9.193  0.9867 -1.3176  2.5694
 6166TIP3   OH242692   1.552   1.669   9.904 -0.0010  0.7774  0.7030
 6166TIP3    H142693   1.540   1.619   9.823 -0.0705  0.3812  0.9495
 6166TIP3    H242694   1.463   1.687   9.934  0.0171  0.2708  1.0774
 6167TIP3   OH242695   3.710   5.664   9.595  0.1390  0.6019  0.6367
 6167TIP3    H142696   3.741   5.595   9.654  0.1056 -0.2937 -0.3648
 6167TIP3    H242697   3.790   5.706   9.563  0.2454 -0.2277 -0.2106
 6168TIP3   OH242698   0.113   3.712   9.594 -0.6601  0.1978 -0.2201
 6168TIP3    H142699   0.058   3.710   9.516  1.2031 -0.1713 -1.6092
 6168TIP3    H242700   0.119   3.805   9.617 -0.7531  0.3731 -0.8782
 6169TIP3   OH242701   3.618   4.075  20.196  0.1857  0.4451  0.0659
 6169TIP3    H142702   3.672   4.014  20.146  0.2511  0.6290 -0.0925
 6169TIP3    H242703   3.572   4.021  20.261 -0.6230  0.0683 -0.8029
 6170TIP3   OH242704   2.099   2.256  10.074  0.2325 -1.0120 -0.5964
 6170TIP3    H142705   2.075   2.331  10.021  1.8243  0.8212  1.0848
 6170TIP3    H242706   2.023   2.239  10.130  0.5033  0.6289  0.3213
 6171TIP3   OH242707   6.387   2.257   8.944  0.2589 -0.4712  0.0098
 6171TIP3    H142708   6.443   2.333   8.928 -0.3780  0.0491  0.2412
 6171TIP3    H242709   6.324   2.258   8.872 -0.9262  0.3213  1.0182
 6172TIP3   OH242710   2.324   0.325  10.031  0.1669  0.5661  0.1473
 6172TIP3    H142711   2.368   0.408  10.016  1.0258 -0.1594 -1.6595
 6172TIP3    H242712   2.231   0.343  10.018  0.2056  1.4802  1.0324
 6173TIP3   OH242713   3.921   3.234  11.817 -0.3290 -0.6648 -0.4517
 6173TIP3    H142714   3.958   3.316  11.848 -2.3679 -0.1884  0.9260
 6173TIP3    H242715   3.892   3.189  11.896 -1.2753 -1.6589 -1.3276
 6174TIP3   OH242716   0.724   3.138  10.871 -0.1390 -0.3589  0.1280
 6174TIP3    H142717   0.793   3.202  10.890 -0.5191  0.6627 -1.7061
 6174TIP3    H242718   0.766   3.076  10.810 -0.6343 -0.1209 -0.4601
 6175TIP3   OH242719   0.664   6.570   9.834 -0.3607 -0.3280  0.0006
 6175TIP3    H142720   0.627   6.579   9.746 -1.2715 -1.4599  0.2472
 6175TIP3    H242721   0.712   6.652   9.848 -0.2918 -0.0822 -1.4977
 6176TIP3   OH242722   6.480   3.887   9.327 -0.0861  0.9084  0.3600
 6176TIP3    H142723   6.479   3.922   9.238 -2.5481 -0.7709 -0.3691
 6176TIP3    H242724   6.534   3.808   9.321  1.2406  1.7461  0.8279
 6177TIP3   OH242725   0.501   0.140   9.856  0.0837 -0.2985  0.5405
 6177TIP3    H142726   0.596   0.129   9.856  0.0136 -1.0503  1.2036
 6177TIP3    H242727   0.476   0.145   9.764  0.7898  0.2038  0.3678
 6178TIP3   OH242728   6.364   2.830   9.387 -0.2229 -0.0175 -0.0641
 6178TIP3    H142729   6.388   2.918   9.417  2.4256 -0.2601 -1.1832
 6178TIP3    H242730   6.391   2.773   9.459 -0.4782 -0.0452  0.0103
 6179TIP3   OH242731   0.262   6.633  11.338 -0.4634  0.5729 -0.5091
 6179TIP3    H142732   0.306   6.589  11.410  0.2505 -0.3854 -1.4930
 6179TIP3    H242733   0.273   6.727  11.357  1.4444  0.3587 -0.3605
 6180TIP3   OH242734   3.178   2.487   9.827  0.2791  0.1760 -0.5556
 6180TIP3    H142735   3.112   2.536   9.876  0.5034  0.1060 -0.1797
 6180TIP3    H242736   3.161   2.395   9.850  0.5738  0.1663 -0.3762
 6181TIP3   OH242737   0.227   1.726   9.034 -0.5247  0.7574 -0.2355
 6181TIP3    H142738   0.289   1.788   9.071  1.7759 -1.4417 -0.1178
 6181TIP3    H242739   0.253   1.641   9.071 -2.9815 -0.4389 -1.0149
 6182TIP3   OH242740   0.645   4.610  10.320  0.8033  0.2641 -0.1682
 6182TIP3    H142741   0.701   4.575  10.251  0.5299  1.6835 -1.1554
 6182TIP3    H242742   0.674   4.565  10.400  0.6444 -1.9482 -1.2865
 6183TIP3   OH242743   3.450   3.933  12.412  0.3549 -0.3456 -0.1666
 6183TIP3    H142744   3.491   3.956  12.496  1.3286 -2.8251  0.1116
 6183TIP3    H242745   3.392   3.860  12.434  0.8822 -1.2567 -1.6757
 6184TIP3   OH242746   4.109   6.224   9.497 -0.1533  0.0199  0.6518
 6184TIP3    H142747   4.166   6.169   9.551  0.9815  0.4593 -0.0697
 6184TIP3    H242748   4.167   6.261   9.431 -0.9378  1.8458  0.9322
 6185TIP3   OH242749   2.239   5.930  10.268  0.0820  0.0739 -0.3550
 6185TIP3    H142750   2.203   6.008  10.225  0.3271  0.9189  0.9119
 6185TIP3    H242751   2.249   5.956  10.360  2.7821 -0.5117 -0.4108
 6186TIP3   OH242752   4.542   1.419  10.291  0.3845 -0.4853  0.0674
 6186TIP3    H142753   4.558   1.353  10.358  1.2204  0.7575  1.1248
 6186TIP3    H242754   4.487   1.485  10.335  0.4700  0.0699 -0.6406
 6187TIP3   OH242755   3.828   0.885  10.582  0.2333  0.1212  0.3118
 6187TIP3    H142756   3.896   0.906  10.517  0.4196 -0.6439  0.2456
 6187TIP3    H242757   3.752   0.859  10.529  0.7695 -1.7273  0.3516
 6188TIP3   OH242758   0.144   3.759  10.334  0.1647 -0.2555 -0.0795
 6188TIP3    H142759   0.101   3.787  10.253  0.2173 -1.1947 -0.4355
 6188TIP3    H242760   0.232   3.797  10.328  0.7186 -1.6194 -1.2347
 6189TIP3   OH242761   2.299   1.102   8.809  0.1426  0.1482 -0.1655
 6189TIP3    H142762   2.204   1.094   8.822 -0.1873  0.4763 -2.0024
 6189TIP3    H242763   2.323   1.023   8.760  0.7154  0.3030 -0.1426
 6190TIP3   OH242764   0.970   2.895  10.973  0.2233 -0.2242 -0.2700
 6190TIP3    H142765   0.975   2.876  11.067 -0.9203 -0.3869 -0.2379
 6190TIP3    H242766   0.974   2.809  10.931 -0.3091 -0.2256 -0.3218
 6191TIP3   OH242767   4.794   4.534   8.727  0.3962  0.2871 -0.3730
 6191TIP3    H142768   4.889   4.528   8.722  0.4292  0.0876  0.4471
 6191TIP3    H242769   4.772   4.607   8.669  1.1443  1.0151  0.2308
 6192TIP3   OH242770   2.204   5.307   8.635 -0.2072  0.5523 -0.1710
 6192TIP3    H142771   2.141   5.258   8.688 -0.0377  0.3074 -0.1908
 6192TIP3    H242772   2.265   5.240   8.604 -0.1421  0.7357 -0.4400
 6193TIP3   OH242773   1.258   3.078   9.059  0.2274 -0.0259  0.0361
 6193TIP3    H142774   1.195   3.027   9.008  0.4361  0.3182 -0.5794
 6193TIP3    H242775   1.230   3.067   9.149 -0.2966 -0.4522 -0.1721
 6194TIP3   OH242776   1.005   4.142  11.452 -0.0948  0.1670  0.0709
 6194TIP3    H142777   0.917   4.181  11.458 -0.2459  0.0116 -0.9200
 6194TIP3    H242778   1.056   4.187  11.520 -0.1759  2.3125 -1.1981
 6195TIP3   OH242779   5.942   1.820  11.278  0.1255  0.1829  0.1664
 6195TIP3    H142780   5.912   1.791  11.364  1.2470 -0.2465  0.4439
 6195TIP3    H242781   5.960   1.913  11.289 -0.5643  0.3184  0.1508
 6196TIP3   OH242782   1.730   4.398   8.649 -0.3010  0.5227 -0.5776
 6196TIP3    H142783   1.737   4.462   8.720  1.4891  2.0767 -2.0269
 6196TIP3    H242784   1.818   4.397   8.610 -0.0957 -3.2170 -0.3546
 6197TIP3   OH242785   0.025   3.177   8.996 -0.3341 -0.7053  0.3134
 6197TIP3    H142786  -0.002   3.260   9.037 -1.4812 -0.2739 -1.2156
 6197TIP3    H242787   0.114   3.162   9.027 -0.2229  0.9506  0.8681
 6198TIP3   OH242788   5.315   5.504  11.956  0.1639 -0.2392 -0.6085
 6198TIP3    H142789   5.271   5.424  11.986  0.0186  0.3289  0.7639
 6198TIP3    H242790   5.408   5.487  11.971  0.0457  0.2644  0.7418
 6199TIP3   OH242791   5.945   5.639   8.425 -0.1139 -0.1215  0.4913
 6199TIP3    H142792   5.963   5.597   8.341  0.9722 -0.5446  0.9219
 6199TIP3    H242793   5.936   5.567   8.487  1.0785  0.2241  1.1009
 6200TIP3   OH242794   3.497   6.523  11.431 -0.4003  0.1262  0.4883
 6200TIP3    H142795   3.502   6.581  11.355  1.3969 -0.3427  0.2178
 6200TIP3    H242796   3.422   6.555  11.481  1.1919  3.4447  0.9762
 6201TIP3   OH242797   2.776   2.645  11.950  0.1933  0.1516  0.4025
 6201TIP3    H142798   2.716   2.584  11.994  0.5799 -0.4877  0.0593
 6201TIP3    H242799   2.841   2.666  12.017 -0.0198  0.2965  0.5656
 6202TIP3   OH242800   5.230   1.667  11.885 -0.3149 -0.0069  0.4232
 6202TIP3    H142801   5.316   1.708  11.884 -0.6810  0.8092 -1.3613
 6202TIP3    H242802   5.229   1.611  11.807 -0.7755 -1.4195  1.3999
 6203TIP3   OH242803   0.891   4.867   9.303 -0.3388  0.3865 -0.0690
 6203TIP3    H142804   0.951   4.832   9.237 -0.0660  0.6727  0.0247
 6203TIP3    H242805   0.808   4.878   9.257 -0.0558  0.9264 -0.4660
 6204TIP3   OH242806   0.784   3.834   9.068  0.4687 -0.2466 -0.1029
 6204TIP3    H142807   0.694   3.851   9.040  0.3719 -0.7605 -0.1273
 6204TIP3    H242808   0.775   3.770   9.139  0.8156 -0.2794 -0.0864
 6205TIP3   OH242809   1.161   5.968   9.208  0.8461  0.0655 -0.4076
 6205TIP3    H142810   1.242   5.929   9.175  1.9903  0.0069  2.2183
 6205TIP3    H242811   1.113   5.994   9.130  1.9340 -2.7723 -2.1506
 6206TIP3   OH242812   5.924   4.434  11.739  1.3371 -0.0061  0.1692
 6206TIP3    H142813   5.934   4.526  11.764  1.0983 -0.0210  0.3187
 6206TIP3    H242814   5.907   4.388  11.821 -2.8871  0.3950 -0.2256
 6207TIP3   OH242815   3.573   3.802   9.487 -0.2968  0.1070  0.5418
 6207TIP3    H142816   3.594   3.729   9.544  0.5323 -0.3613 -0.3286
 6207TIP3    H242817   3.612   3.779   9.403 -1.1711  0.9432 -0.1197
 6208TIP3   OH242818   6.579   4.425  10.134 -0.0682  0.2094  0.6881
 6208TIP3    H142819   6.507   4.366  10.112  0.2543  0.1664 -0.2823
 6208TIP3    H242820   6.654   4.368  10.147  0.3332  0.4179 -0.6241
 6209TIP3   OH242821   0.599   0.628   9.106 -0.3278 -0.9148 -0.4091
 6209TIP3    H142822   0.647   0.623   9.023  0.5141 -0.2792  0.0250
 6209TIP3    H242823   0.662   0.663   9.169 -1.3812  0.0065  0.1808
 6210TIP3   OH242824   5.274   3.831  11.472  0.3024  0.7142  0.0653
 6210TIP3    H142825   5.328   3.815  11.395 -0.0072  2.3293 -0.5285
 6210TIP3    H242826   5.186   3.844  11.438 -0.4399 -1.4604  0.9866
 6211TIP3   OH242827   1.328   4.682   8.447  0.1090  0.2349 -0.4636
 6211TIP3    H142828   1.368   4.746   8.506 -2.7252 -0.4898  2.5276
 6211TIP3    H242829   1.389   4.608   8.447  0.3242  0.3757  1.3779
 6212TIP3   OH242830   1.071   4.648  10.580  0.1724  0.0859  0.2403
 6212TIP3    H142831   1.101   4.603  10.501 -0.5617 -0.6739  0.3821
 6212TIP3    H242832   1.004   4.709  10.548 -1.1697 -1.2391  0.4176
 6213TIP3   OH242833   0.998   2.477   9.115 -0.4573  0.4990 -0.6757
 6213TIP3    H142834   0.969   2.530   9.040 -1.9042  2.4167  1.1350
 6213TIP3    H242835   0.959   2.519   9.191  0.6778 -1.5824  1.1756
 6214TIP3   OH242836   1.936   1.158   9.248  0.1978  0.2728 -0.4886
 6214TIP3    H142837   2.030   1.155   9.230  0.4145  1.8892  0.1304
 6214TIP3    H242838   1.903   1.226   9.189 -0.0486  1.6847  1.1859
 6215TIP3   OH242839   0.408   6.597   8.351 -0.0771  0.1071 -0.3571
 6215TIP3    H142840   0.320   6.599   8.389 -0.5953 -0.4412 -1.4604
 6215TIP3    H242841   0.427   6.504   8.341 -0.0630  0.2243 -1.6185
 6216TIP3   OH242842   4.581   6.169  11.569  0.2452  0.3266  0.3084
 6216TIP3    H142843   4.670   6.160  11.604  0.7957  2.6873 -0.2870
 6216TIP3    H242844   4.530   6.104  11.617  1.9657  0.0435  1.8915
 6217TIP3   OH242845   6.188   3.763  11.176 -0.1566  0.4816 -0.2012
 6217TIP3    H142846   6.259   3.727  11.229  0.2464  1.8376  0.2169
 6217TIP3    H242847   6.187   3.708  11.098 -0.2841 -1.0918  0.8656
 6218TIP3   OH242848   3.421   5.795  10.456 -0.2914  0.0567  0.3237
 6218TIP3    H142849   3.397   5.715  10.409  2.3749 -0.4465 -0.3135
 6218TIP3    H242850   3.412   5.865  10.391 -0.9744  0.0419  0.3958
 6219TIP3   OH242851   5.537   3.093   8.779  0.1706 -0.1361  0.3470
 6219TIP3    H142852   5.618   3.088   8.830  1.8997 -1.7552 -2.2787
 6219TIP3    H242853   5.520   3.002   8.752 -1.0573  0.5205 -1.2959
 6220TIP3   OH242854   4.678   1.095  10.171  0.3469 -0.3111 -0.4610
 6220TIP3    H142855   4.733   1.130  10.101  0.8611  2.1265  1.0391
 6220TIP3    H242856   4.738   1.086  10.246 -0.9022  0.8284  0.7370
 6221TIP3   OH242857   1.298   0.404  10.567 -0.0964 -0.4149  0.6552
 6221TIP3    H142858   1.280   0.427  10.658 -1.5711  1.5304 -0.0644
 6221TIP3    H242859   1.344   0.480  10.531  1.6838 -1.6864  0.0672
 6222TIP3   OH242860   5.805   4.725   9.866 -0.3672  0.3565 -0.1885
 6222TIP3    H142861   5.881   4.770   9.903  1.3912 -2.4349 -0.0961
 6222TIP3    H242862   5.731   4.782   9.886  1.3818  2.0763  1.8506
 6223TIP3   OH242863   0.621   5.665  10.563  0.3519  0.3485 -0.1750
 6223TIP3    H142864   0.539   5.638  10.521  1.4022 -0.9997 -1.4841
 6223TIP3    H242865   0.631   5.757  10.540  0.6108 -0.2017 -2.5026
 6224TIP3   OH242866   2.559   4.157  11.901  0.2062 -0.3677  0.7263
 6224TIP3    H142867   2.476   4.169  11.855  0.8223 -1.3029 -0.7354
 6224TIP3    H242868   2.613   4.231  11.873  0.8935 -1.4151 -0.8923
 6225TIP3   OH242869   1.632   3.818  10.384 -0.8806 -0.0116  0.0566
 6225TIP3    H142870   1.585   3.766  10.318 -0.8396  0.6205 -0.4771
 6225TIP3    H242871   1.577   3.812  10.463  0.2706 -2.8311  0.7874
 6226TIP3   OH242872   5.154   3.943   9.634  0.0350  1.0343  0.8570
 6226TIP3    H142873   5.114   4.029   9.621  1.2251  1.5143  0.1499
 6226TIP3    H242874   5.148   3.901   9.548 -1.3208  0.0345  1.4060
 6227TIP3   OH242875   3.596   3.476   9.938  0.0769  0.1583 -0.0747
 6227TIP3    H142876   3.650   3.473  10.017  1.0316  0.4397 -0.6915
 6227TIP3    H242877   3.576   3.384   9.919 -1.7037  0.1761  1.4864
 6228TIP3   OH242878   4.789   2.506   9.407 -0.2728 -0.3098 -0.1813
 6228TIP3    H142879   4.771   2.565   9.481  1.1306 -1.6538  1.3301
 6228TIP3    H242880   4.750   2.549   9.331  0.6192  2.5167  0.8500
 6229TIP3   OH242881   1.183   0.903   9.967  0.3211 -0.3530  0.2664
 6229TIP3    H142882   1.270   0.935   9.942  0.6167 -0.6687  0.8727
 6229TIP3    H242883   1.152   0.968  10.030  0.2793 -0.4443  0.3393
 6230TIP3   OH242884   2.975   4.226  10.542 -0.5253  0.1025 -0.0306
 6230TIP3    H142885   2.914   4.164  10.500 -1.5741  1.4687 -0.5972
 6230TIP3    H242886   3.042   4.241  10.476 -0.5574 -0.0054 -0.0895
 6231TIP3   OH242887   1.165   2.123  10.314 -0.3934  0.1400  0.3092
 6231TIP3    H142888   1.123   2.059  10.372  2.3130 -0.0893  2.2110
 6231TIP3    H242889   1.206   2.070  10.246 -1.5197  0.2311 -0.4749
 6232TIP3   OH242890   6.282   5.965  10.345 -0.1976  0.0305 -0.1297
 6232TIP3    H142891   6.317   5.881  10.374  0.8329  0.8029  0.9405
 6232TIP3    H242892   6.303   5.968  10.251  1.4122 -0.1510  0.1821
 6233TIP3   OH242893   3.921   5.513  10.070 -0.4215  0.3604 -0.0039
 6233TIP3    H142894   3.987   5.449  10.044 -1.3328 -0.0169 -1.4840
 6233TIP3    H242895   3.969   5.576  10.123  0.9356 -0.3791 -0.2958
 6234TIP3   OH242896   3.151   3.978  13.389  0.2440 -0.6822  0.2450
 6234TIP3    H142897   3.136   4.071  13.375 -2.0172 -0.9558  0.5008
 6234TIP3    H242898   3.185   3.946  13.305 -0.2070  0.1414 -0.2594
 6235TIP3   OH242899   5.927   2.739   9.323 -0.3142 -0.0458 -0.9350
 6235TIP3    H142900   5.882   2.708   9.244 -0.5052  0.1082 -0.8897
 6235TIP3    H242901   5.991   2.672   9.343 -2.3967 -1.7225  0.6453
 6236TIP3   OH242902   4.963   0.499   9.388  0.1968 -0.6500  0.2932
 6236TIP3    H142903   5.035   0.560   9.370  0.4240 -0.9378  0.2107
 6236TIP3    H242904   4.985   0.421   9.336  0.8497 -1.4945  1.7565
 6237TIP3   OH242905   2.242   4.006   8.918  0.4334 -0.2309 -0.1483
 6237TIP3    H142906   2.258   4.059   8.996 -0.3722 -1.1201  0.6622
 6237TIP3    H242907   2.304   4.038   8.853 -1.1384  2.8949 -0.3111
 6238TIP3   OH242908   2.975   3.661  10.467 -0.0077 -0.3843  0.1391
 6238TIP3    H142909   3.070   3.664  10.461  0.0132 -1.1300 -0.0378
 6238TIP3    H242910   2.946   3.658  10.376 -0.1821 -0.6131  0.2024
 6239TIP3   OH242911   0.459   4.797  10.207 -0.4378 -0.3164  0.4741
 6239TIP3    H142912   0.523   4.739  10.247  0.5393 -0.0816 -0.6834
 6239TIP3    H242913   0.475   4.790  10.113 -0.8533  1.1792  0.2594
 6240TIP3   OH242914   1.763   1.548  11.035 -0.1915  0.5712  0.1333
 6240TIP3    H142915   1.736   1.634  11.068  0.7005  0.8917  0.0414
 6240TIP3    H242916   1.749   1.489  11.109 -0.2492  0.9023  0.3878
 6241TIP3   OH242917   4.003   3.713   8.190  0.2077  0.6281  0.5764
 6241TIP3    H142918   4.076   3.684   8.244  0.0588  0.9528  0.9622
 6241TIP3    H242919   4.039   3.721   8.102  0.1251 -1.1986  0.3543
 6242TIP3   OH242920   5.516   4.387   9.713  0.7817  0.0257  0.7465
 6242TIP3    H142921   5.455   4.444   9.665 -0.5564  0.1352  2.4797
 6242TIP3    H242922   5.505   4.301   9.671  1.5846  0.6477 -0.8033
 6243TIP3   OH242923   2.713   4.042   9.630  0.4866 -0.7983 -0.3248
 6243TIP3    H142924   2.726   3.947   9.629  1.4022 -0.7357  1.4504
 6243TIP3    H242925   2.655   4.057   9.705 -0.5093 -0.0168 -1.2220
 6244TIP3   OH242926   4.055   1.789  11.247 -0.2238  0.1492 -0.3295
 6244TIP3    H142927   3.996   1.833  11.309  1.0590  0.4233  0.7508
 6244TIP3    H242928   4.024   1.815  11.161 -0.6224  1.7013  0.2540
 6245TIP3   OH242929   5.956   4.190  11.592  0.4951 -0.1161 -0.1658
 6245TIP3    H142930   5.933   4.140  11.670 -1.5975 -1.1474 -1.3755
 6245TIP3    H242931   5.956   4.282  11.621 -0.6562 -0.4433  0.9552
 6246TIP3   OH242932   2.562   3.444  10.602  0.3223 -0.5900  0.6372
 6246TIP3    H142933   2.534   3.369  10.654 -1.4686 -1.0820 -0.9663
 6246TIP3    H242934   2.631   3.410  10.545  0.0283 -0.8215  0.4249
 6247TIP3   OH242935   2.626   6.679  10.674  0.2116  0.0534 -0.1779
 6247TIP3    H142936   2.701   6.733  10.698 -0.2819  0.8333 -0.3402
 6247TIP3    H242937   2.597   6.639  10.756 -0.1230  0.9652  0.1613
 6248TIP3   OH242938   0.886   3.350  10.988 -0.1367 -0.2251 -0.3440
 6248TIP3    H142939   0.976   3.321  10.974  0.0549  0.0343  0.3029
 6248TIP3    H242940   0.893   3.443  11.008 -0.6113 -0.0667 -0.9082
 6249TIP3   OH242941   4.745   3.323   8.375 -0.1900 -0.5327  0.2228
 6249TIP3    H142942   4.812   3.387   8.348  0.6293 -0.8188  1.5108
 6249TIP3    H242943   4.665   3.353   8.332 -0.0684  1.9790  1.5926
 6250TIP3   OH242944   4.779   1.666   9.858 -0.5429  0.0519  0.1766
 6250TIP3    H142945   4.852   1.680   9.798 -0.1975 -1.0042  0.3191
 6250TIP3    H242946   4.777   1.744   9.913 -0.0017  0.4302 -0.3318
 6251TIP3   OH242947   2.054   1.567  11.499 -0.2908  0.3019 -0.3990
 6251TIP3    H142948   1.981   1.516  11.464 -1.6761  1.5638  0.5186
 6251TIP3    H242949   2.065   1.639  11.437 -0.1552  0.4026 -0.2586
 6252TIP3   OH242950   6.288   1.625  10.096 -0.1279 -0.4805  0.3321
 6252TIP3    H142951   6.199   1.629  10.130 -0.0879  1.0212  0.3223
 6252TIP3    H242952   6.343   1.612  10.173 -0.3508 -1.7228  0.3071
 6253TIP3   OH242953   1.770   5.789  10.558  0.3655  0.4607 -0.1582
 6253TIP3    H142954   1.804   5.878  10.561  0.8242  0.2569  1.4563
 6253TIP3    H242955   1.835   5.740  10.506  1.0122  0.7132  0.4001
 6254TIP3   OH242956   3.820   6.483  11.683  0.2253  0.0598 -0.0130
 6254TIP3    H142957   3.872   6.407  11.655  0.1912  0.4157 -1.0619
 6254TIP3    H242958   3.730   6.461  11.660 -0.0576 -0.3200  1.3120
 6255TIP3   OH242959   4.620   3.652  11.836 -0.0309  0.4131  0.0544
 6255TIP3    H142960   4.554   3.701  11.787  1.8777  1.7852 -1.2550
 6255TIP3    H242961   4.640   3.577  11.780  0.2383  0.5441 -0.0257
 6256TIP3   OH242962   4.985   3.047   8.493 -0.2900 -0.0980  0.4422
 6256TIP3    H142963   5.057   3.090   8.539 -0.8278 -0.0513  1.2459
 6256TIP3    H242964   5.012   2.955   8.489 -1.3153 -0.5769  3.0351
 6257TIP3   OH242965   1.075   4.828   9.637  0.1377 -0.7766 -0.1661
 6257TIP3    H142966   1.099   4.772   9.563 -0.6887 -1.2709 -0.0660
 6257TIP3    H242967   1.013   4.891   9.601 -0.9247 -1.5448  0.2654
 6258TIP3   OH242968   1.898   1.398  10.812 -0.1692  0.0162  0.2924
 6258TIP3    H142969   1.868   1.455  10.882  0.4606 -0.6258  1.1068
 6258TIP3    H242970   1.818   1.361  10.774 -0.6332  1.8982 -0.6883
 6259TIP3   OH242971   6.308   1.214   9.704  0.1510  0.1852 -0.2762
 6259TIP3    H142972   6.254   1.235   9.627  1.0570  0.3140 -0.8940
 6259TIP3    H242973   6.279   1.275   9.771 -0.2616  0.4513 -0.6905
 6260TIP3   OH242974   3.628   2.999  10.430 -0.3462 -0.2031  0.3707
 6260TIP3    H142975   3.617   2.945  10.352 -2.4383  0.1769  0.3507
 6260TIP3    H242976   3.614   3.089  10.399  1.2651  0.2184  0.7524
 6261TIP3   OH242977   6.595   2.950  10.372  0.1036 -0.2513 -0.0012
 6261TIP3    H142978   6.650   2.872  10.376  0.5204  0.0297 -0.1327
 6261TIP3    H242979   6.522   2.932  10.431  0.1069 -0.8078 -0.1676
 6262TIP3   OH242980   0.158   0.351   8.393 -0.2891  0.3412  0.0893
 6262TIP3    H142981   0.113   0.281   8.346 -1.6671  0.9223  0.4905
 6262TIP3    H242982   0.168   0.318   8.482  0.4627  0.0674 -0.0814
 6263TIP3   OH242983   0.792   5.312   9.759 -0.0401  0.3691 -0.0267
 6263TIP3    H142984   0.786   5.408   9.754  2.8551  0.6077 -0.9532
 6263TIP3    H242985   0.819   5.286   9.671  1.3193 -1.0482  0.7716
 6264TIP3   OH242986   6.307   6.201   9.088  0.0051 -0.1768 -0.0287
 6264TIP3    H142987   6.280   6.118   9.049  0.2647 -1.4711  2.3743
 6264TIP3    H242988   6.226   6.241   9.120  0.0072 -0.0047 -0.2309
 6265TIP3   OH242989   1.915   2.044  11.400 -0.5159 -0.2420 -0.5993
 6265TIP3    H142990   1.965   2.087  11.469 -1.1855 -0.3506 -0.0326
 6265TIP3    H242991   1.848   2.108  11.376 -0.9653 -0.6177 -0.3683
 6266TIP3   OH242992   4.080   4.863   9.256 -0.0881 -0.5751  0.2711
 6266TIP3    H142993   4.110   4.852   9.346  2.2103 -1.7123 -0.5599
 6266TIP3    H242994   4.147   4.917   9.215 -0.6847 -0.7530 -0.9846
 6267TIP3   OH242995   6.301   3.171  10.578 -0.6146  0.4526 -0.0481
 6267TIP3    H142996   6.216   3.210  10.597 -1.4860 -0.9391 -0.9146
 6267TIP3    H242997   6.330   3.133  10.661 -0.0660  2.2736  0.6385
 6268TIP3   OH242998   0.375   5.170  11.864  0.1309 -0.5958  0.2666
 6268TIP3    H142999   0.388   5.091  11.916 -1.4999 -1.2441 -0.2530
 6268TIP3    H243000   0.338   5.139  11.781 -0.1313  0.6698 -0.1194
 6269TIP3   OH243001   4.043   5.748   9.742  0.2643 -0.2783 -0.6950
 6269TIP3    H143002   4.000   5.679   9.792  0.5849 -0.1864 -0.2844
 6269TIP3    H243003   3.995   5.752   9.659 -1.1657  0.4918  0.1277
 6270TIP3   OH243004   1.106   2.156   9.226 -0.9334 -0.4629 -0.0277
 6270TIP3    H143005   1.146   2.231   9.269 -1.1381 -0.0587 -0.5369
 6270TIP3    H243006   1.021   2.146   9.268  0.1247 -2.0729  1.9182
 6271TIP3   OH243007   0.373   3.773  10.706 -0.3101  0.3941 -0.1948
 6271TIP3    H143008   0.359   3.684  10.738 -0.6487  0.4817 -0.0900
 6271TIP3    H243009   0.438   3.810  10.765  1.8588 -0.6338 -1.8041
 6272TIP3   OH243010   4.742   3.879  10.912  0.1857 -0.3155 -0.1928
 6272TIP3    H143011   4.699   3.932  10.845  1.5342  0.7310 -0.2741
 6272TIP3    H243012   4.690   3.893  10.991 -2.1021 -2.4530 -1.1897
 6273TIP3   OH243013   2.245   3.572  11.771 -0.5410 -0.5701 -0.3870
 6273TIP3    H143014   2.208   3.534  11.851 -1.5601 -1.0510 -1.0623
 6273TIP3    H243015   2.188   3.647  11.752  0.1265 -0.0263 -0.2857
 6274TIP3   OH243016   2.969   5.794   9.614  0.2407 -0.0769  0.0414
 6274TIP3    H143017   2.983   5.767   9.705  0.2766  0.2489  0.1327
 6274TIP3    H243018   3.020   5.731   9.563  0.0152 -0.4135  0.2315
 6275TIP3   OH243019   1.016   4.001  10.247  0.0961 -0.3134 -0.6400
 6275TIP3    H143020   1.039   4.088  10.214  0.4305  0.0823  0.5918
 6275TIP3    H243021   0.926   4.010  10.278  0.5158 -0.0736  0.5541
 6276TIP3   OH243022   1.729   3.328   9.348  0.0188  0.3686  0.3100
 6276TIP3    H143023   1.645   3.284   9.334 -0.2030  0.8047  0.2373
 6276TIP3    H243024   1.781   3.266   9.400 -0.4298  0.1892  0.5493
 6277TIP3   OH243025   6.446   6.060  11.759  0.1964  0.0645  0.2456
 6277TIP3    H143026   6.365   6.012  11.747 -0.0376  0.7421 -1.0455
 6277TIP3    H243027   6.514   6.006  11.719  0.1704  0.1151  0.1330
 6278TIP3   OH243028   5.704   6.529  11.364  0.2874  0.6922  0.0843
 6278TIP3    H143029   5.613   6.543  11.391 -0.4867  0.5629 -2.2741
 6278TIP3    H243030   5.751   6.511  11.446 -1.8163  0.6376  1.3395
 6279TIP3   OH243031   2.512   6.356  11.868 -0.1744  0.0599 -0.9374
 6279TIP3    H143032   2.516   6.261  11.876 -0.5797  0.1210  0.1082
 6279TIP3    H243033   2.527   6.373  11.775 -0.1501 -1.0254 -1.1406
 6280TIP3   OH243034   3.353   4.370   9.638 -0.2645  0.2535 -0.2011
 6280TIP3    H143035   3.428   4.317   9.663  0.5454  0.8950 -1.2187
 6280TIP3    H243036   3.278   4.310   9.647  0.7095 -1.4041 -2.1643
 6281TIP3   OH243037   1.066   3.125  10.824  0.0435  0.4095  0.5732
 6281TIP3    H143038   1.161   3.118  10.835  0.1535 -0.3095 -0.7115
 6281TIP3    H243039   1.030   3.072  10.895  0.6088  0.2049  0.7150
 6282TIP3   OH243040   3.837   3.594  11.319  0.2645  0.2142 -0.0486
 6282TIP3    H143041   3.812   3.545  11.398 -0.8551  0.6498 -0.1079
 6282TIP3    H243042   3.882   3.530  11.264  0.2070 -0.3426  0.5395
 6283TIP3   OH243043   0.785   3.141   9.808 -0.0817 -0.1475  0.0224
 6283TIP3    H143044   0.690   3.125   9.808 -0.8740  3.6779 -0.1516
 6283TIP3    H243045   0.806   3.164   9.898 -0.1911  2.7238 -0.5986
 6284TIP3   OH243046   4.668   6.329  11.380  0.3090 -0.1916  0.2055
 6284TIP3    H143047   4.672   6.259  11.445  0.5446  0.3397  0.7723
 6284TIP3    H243048   4.659   6.409  11.431  0.3524  0.2242 -0.4233
 6285TIP3   OH243049   4.066   1.433   9.756 -0.1797 -0.1952 -0.1238
 6285TIP3    H143050   3.999   1.387   9.807  0.1445  0.9568  1.3845
 6285TIP3    H243051   4.017   1.494   9.701 -0.3905  1.7032  2.0316
 6286TIP3   OH243052   1.179   2.601  10.079  0.1502  0.2364  0.1297
 6286TIP3    H143053   1.121   2.676  10.092  0.8365  0.9362 -0.6206
 6286TIP3    H243054   1.219   2.586  10.164 -0.0034  0.7325  0.2936
 6287TIP3   OH243055   1.373   5.448   8.692 -0.0762  0.3083 -0.1176
 6287TIP3    H143056   1.435   5.509   8.732  0.0430  0.9486 -1.2281
 6287TIP3    H243057   1.318   5.418   8.765  1.0691  0.2871  0.7561
 6288TIP3   OH243058   0.231   2.975   9.316  0.1399  0.6219 -0.1684
 6288TIP3    H143059   0.319   2.947   9.342 -0.0952 -1.7064 -1.6564
 6288TIP3    H243060   0.240   3.000   9.224 -1.0391 -1.3241 -0.8612
 6289TIP3   OH243061   4.411   0.590  10.439 -0.0298 -0.3102 -0.4753
 6289TIP3    H143062   4.358   0.514  10.461  0.7684 -0.1509  2.4000
 6289TIP3    H243063   4.497   0.555  10.419 -0.2103 -0.2878 -1.3319
 6290TIP3   OH243064   3.704   4.780  10.871  0.5240 -0.1596  0.1905
 6290TIP3    H143065   3.632   4.722  10.846  0.1689  0.0388  0.7429
 6290TIP3    H243066   3.716   4.837  10.795  0.1044 -0.1971  0.0941
 6291TIP3   OH243067   0.588   1.308  10.603  0.5432  0.2631 -0.2731
 6291TIP3    H143068   0.505   1.327  10.559  0.1348 -1.5177 -0.3517
 6291TIP3    H243069   0.616   1.392  10.639 -0.4773  1.2099 -1.6191
 6292TIP3   OH243070   3.589   3.279  11.149  0.3149  0.2233 -0.0518
 6292TIP3    H143071   3.574   3.327  11.067  0.1811  0.2424 -0.0161
 6292TIP3    H243072   3.620   3.346  11.210 -0.5246  0.3996  0.1933
 6293TIP3   OH243073   5.403   4.525   8.715 -0.1030  0.5659  0.0940
 6293TIP3    H143074   5.379   4.525   8.808 -0.1204  0.3548  0.0904
 6293TIP3    H243075   5.488   4.482   8.713 -0.6851 -0.6211 -0.1278
 6294TIP3   OH243076   3.951   6.557   9.872  0.0079  0.2222  0.2202
 6294TIP3    H143077   3.922   6.640   9.833 -0.4285 -0.1290 -0.2082
 6294TIP3    H243078   4.041   6.574   9.901 -0.3115  1.0617  0.7749
 6295TIP3   OH243079   3.554   1.838  10.708  0.2011 -0.0139 -0.2732
 6295TIP3    H143080   3.579   1.918  10.662  1.3468 -1.0749 -1.5879
 6295TIP3    H243081   3.526   1.867  10.795  1.4464  1.7121 -0.4174
 6296TIP3   OH243082   3.037   4.859   8.392  0.3348 -0.3712 -0.8844
 6296TIP3    H143083   3.045   4.846   8.486  1.3500 -0.4665 -0.9757
 6296TIP3    H243084   2.960   4.915   8.382 -0.6970 -1.5707 -0.1056
 6297TIP3   OH243085   4.893   3.903  12.233 -0.2970 -0.0540 -0.5425
 6297TIP3    H143086   4.982   3.873  12.215 -1.4182 -2.4519 -2.6107
 6297TIP3    H243087   4.873   3.867  12.319  0.8979  1.0585  0.2432
 6298TIP3   OH243088   5.086   6.665  10.792  0.1149 -0.9132  0.5517
 6298TIP3    H143089   5.090   6.587  10.848  0.1537 -1.1281  0.2474
 6298TIP3    H243090   4.997   6.699  10.806 -0.2013 -1.4995  0.0282
 6299TIP3   OH243091   0.548   5.832   9.654  0.1106  0.4876  0.4533
 6299TIP3    H143092   0.557   5.820   9.748 -1.2203  0.8053  0.6450
 6299TIP3    H243093   0.552   5.926   9.641  3.4608  0.3785 -0.2244
 6300TIP3   OH243094   2.398   3.606  11.523  0.1201 -0.5130 -0.2941
 6300TIP3    H143095   2.305   3.612  11.501  0.0642 -1.1936 -0.2829
 6300TIP3    H243096   2.400   3.591  11.617  0.2634  0.0670 -0.2067
 6301TIP3   OH243097   1.245   5.641   9.108 -0.5305 -0.7025  0.4352
 6301TIP3    H143098   1.229   5.548   9.127 -0.5785 -0.6388  0.7139
 6301TIP3    H243099   1.339   5.652   9.118 -0.8211 -0.0617  3.5241
 6302TIP3   OH243100   5.734   0.223  10.531 -0.5242  0.4779  0.2939
 6302TIP3    H143101   5.693   0.138  10.520  0.2574  0.3523 -2.4722
 6302TIP3    H243102   5.827   0.207  10.516 -0.3978  1.8212 -0.5764
 6303TIP3   OH243103   3.071   2.849  11.607 -0.0216 -0.1468 -0.0688
 6303TIP3    H143104   3.042   2.758  11.616 -0.5114 -0.2674 -2.1943
 6303TIP3    H243105   3.142   2.845  11.544 -0.6050  1.0193 -0.8405
 6304TIP3   OH243106   3.572   4.287   9.431 -0.7606 -0.2317 -0.1489
 6304TIP3    H143107   3.494   4.331   9.464 -1.4575 -1.8709  0.5305
 6304TIP3    H243108   3.612   4.248   9.509  0.3808  0.0587 -0.5851
 6305TIP3   OH243109   3.831   1.067  10.985 -0.2717 -0.3870 -0.6039
 6305TIP3    H143110   3.911   1.021  11.012  1.3240  0.6871 -3.2117
 6305TIP3    H243111   3.846   1.158  11.008 -0.3900 -0.0410 -1.8538
 6306TIP3   OH243112   3.432   0.905  11.322 -0.8234  0.0009 -0.1390
 6306TIP3    H143113   3.416   0.990  11.281 -3.6557 -0.5014 -0.3432
 6306TIP3    H243114   3.437   0.924  11.416  3.2566  0.8491 -0.3497
 6307TIP3   OH243115   3.059   3.707   8.986  0.2662  0.0905  0.2382
 6307TIP3    H143116   3.115   3.750   8.921 -2.5764  1.8142 -1.2341
 6307TIP3    H243117   3.086   3.745   9.069  0.9355  1.2640 -0.4789
 6308TIP3   OH243118   5.954   3.005  10.724  0.5416 -0.0025 -0.4392
 6308TIP3    H143119   5.983   2.941  10.788  0.7897 -0.3431 -0.8935
 6308TIP3    H243120   5.934   2.954  10.646 -0.9671  0.2584 -0.2478
 6309TIP3   OH243121   2.058   5.272  10.728  0.3421 -0.5135  0.6195
 6309TIP3    H143122   2.048   5.336  10.799  1.9308 -0.1849  0.6025
 6309TIP3    H243123   2.042   5.187  10.770 -0.9882 -0.1725  0.8280
 6310TIP3   OH243124   3.921   4.326  10.309  0.2224 -0.4338 -0.0120
 6310TIP3    H143125   3.976   4.252  10.286  0.2327 -0.6283  0.6208
 6310TIP3    H243126   3.898   4.366  10.225  2.0938  0.2100 -0.2700
 6311TIP3   OH243127   2.910   0.222  12.097 -0.4530  0.3534 -0.6375
 6311TIP3    H143128   2.979   0.283  12.125 -1.5511  1.9035 -1.2286
 6311TIP3    H243129   2.874   0.189  12.179  0.0964  0.5593 -0.3046
 6312TIP3   OH243130   6.077   6.237  11.706 -0.4267  0.0931 -0.4040
 6312TIP3    H143131   6.163   6.278  11.713  0.1779 -0.6938 -2.4155
 6312TIP3    H243132   6.066   6.188  11.788  0.0806  1.8773  0.7777
 6313TIP3   OH243133   4.942   4.280  12.213  0.0011 -0.1788  0.4719
 6313TIP3    H143134   5.012   4.233  12.258  0.7953  1.2661  0.8288
 6313TIP3    H243135   4.872   4.286  12.278  1.2655  2.1929  1.8090
 6314TIP3   OH243136   2.801   1.548  10.551 -0.1812  0.0844  0.0662
 6314TIP3    H143137   2.881   1.527  10.502  0.0652  0.2466  0.3946
 6314TIP3    H243138   2.820   1.519  10.640 -0.7332 -0.4708  0.0070
 6315TIP3   OH243139   5.771   5.938   9.817  0.1181  0.0045 -0.2346
 6315TIP3    H143140   5.723   5.967   9.895  1.6709 -0.0801  0.7795
 6315TIP3    H243141   5.766   5.842   9.821  1.2828 -0.0357  0.4753
 6316TIP3   OH243142   5.750   2.415  11.159  0.1058  0.0603 -0.6827
 6316TIP3    H143143   5.819   2.368  11.205  0.5098  2.0549  0.8743
 6316TIP3    H243144   5.678   2.419  11.222 -0.7148 -0.2986 -1.5762
 6317TIP3   OH243145   6.111   2.805   9.822 -0.0224  0.1508  0.4008
 6317TIP3    H143146   6.182   2.798   9.885 -0.4697 -2.7816  0.7560
 6317TIP3    H243147   6.152   2.788   9.737 -0.2294 -1.7471  0.6274
 6318TIP3   OH243148   2.962   4.286   8.517  0.0666 -0.0451  0.1383
 6318TIP3    H143149   3.033   4.328   8.469 -0.6347  1.5393  0.4249
 6318TIP3    H243150   2.990   4.195   8.527  1.6635  0.3536 -0.4574
 6319TIP3   OH243151   4.968   0.000  11.176  0.0045 -0.5801 -0.0432
 6319TIP3    H143152   4.918   0.024  11.254 -2.3299 -2.1688 -0.9643
 6319TIP3    H243153   5.010  -0.082  11.199 -0.4562 -0.9040 -0.3425
 6320TIP3   OH243154   0.309   4.130   9.521 -0.2858 -0.2429  0.0605
 6320TIP3    H143155   0.342   4.116   9.610 -1.0703 -1.9303  0.1219
 6320TIP3    H243156   0.374   4.089   9.464 -0.8005 -1.0076  0.0056
 6321TIP3   OH243157   2.048   4.942  11.164  0.0990 -0.0531 -0.2642
 6321TIP3    H143158   2.086   4.962  11.078 -1.9493  2.0317 -0.7754
 6321TIP3    H243159   2.049   5.026  11.211 -2.3375 -0.2339  0.2586
 6322TIP3   OH243160   5.435   3.638   9.593 -0.3050  0.2257  0.2253
 6322TIP3    H143161   5.463   3.610   9.506 -2.6460  1.1798 -0.8985
 6322TIP3    H243162   5.508   3.692   9.625  1.1076 -1.1147 -0.5684
 6323TIP3   OH243163   5.204   1.641  11.153 -0.2204 -0.0282  0.1101
 6323TIP3    H143164   5.165   1.564  11.193  0.7860 -0.6967 -0.1441
 6323TIP3    H243165   5.289   1.650  11.197 -0.0967  0.6069 -0.2434
 6324TIP3   OH243166   3.255   0.297  11.537 -0.3787  0.5453 -0.3388
 6324TIP3    H143167   3.164   0.302  11.507  0.2138 -0.0969 -2.3559
 6324TIP3    H243168   3.267   0.206  11.562 -0.9520  1.1171  2.3958
 6325TIP3   OH243169   0.664   2.875   9.436 -0.2575  0.3405  0.0803
 6325TIP3    H143170   0.739   2.927   9.405  0.6721 -1.0356 -0.0904
 6325TIP3    H243171   0.617   2.933   9.496  1.3607  1.0147  0.7570
 6326TIP3   OH243172   0.409   2.560  11.920 -0.1481  0.1868 -0.3219
 6326TIP3    H143173   0.422   2.468  11.941  0.3264  0.4923  0.7952
 6326TIP3    H243174   0.431   2.567  11.827  3.6888 -0.1175  0.4305
 6327TIP3   OH243175   1.428   1.065   9.640 -0.4127  0.1033 -0.5237
 6327TIP3    H143176   1.344   1.027   9.613  0.0234  0.1232 -2.0313
 6327TIP3    H243177   1.429   1.152   9.600  0.7296 -0.2818 -1.4027
 6328TIP3   OH243178   5.784   6.110   8.963  0.2853  0.3945 -0.0064
 6328TIP3    H143179   5.765   6.022   8.930  1.5794  0.5251 -1.1679
 6328TIP3    H243180   5.764   6.105   9.056  0.0256 -1.0374 -0.1147
 6329TIP3   OH243181   5.026   0.315  10.848 -0.2694  0.6353 -1.1765
 6329TIP3    H143182   5.004   0.407  10.865  1.4262  0.7015  1.1604
 6329TIP3    H243183   5.099   0.318  10.786 -0.6427  0.8265 -1.6094
 6330TIP3   OH243184   5.472   2.188   8.627  0.8489 -0.1164 -0.0232
 6330TIP3    H143185   5.419   2.228   8.558 -1.1548  2.5177  2.7511
 6330TIP3    H243186   5.438   2.099   8.635 -0.3748  0.2306 -0.9975
 6331TIP3   OH243187   1.298   4.019  10.716 -0.1391  0.3083  0.0993
 6331TIP3    H143188   1.302   4.078  10.641  1.2636  2.3794  1.6908
 6331TIP3    H243189   1.215   4.039  10.759 -0.7148 -0.5322 -0.5905
 6332TIP3   OH243190   2.870   0.253  11.003 -0.0641 -0.4640  0.5749
 6332TIP3    H143191   2.962   0.274  11.017  0.4852 -2.0057 -0.4338
 6332TIP3    H243192   2.843   0.309  10.930 -0.0927  0.3707  1.2150
 6333TIP3   OH243193   2.766   1.803  10.020 -0.1976 -0.7656  0.2876
 6333TIP3    H143194   2.834   1.757  10.070 -0.5283 -0.1859  1.2921
 6333TIP3    H243195   2.784   1.778   9.929  1.2342 -0.7896  0.5397
 6334TIP3   OH243196   2.549   0.187  11.895 -0.0139 -0.1872  0.2345
 6334TIP3    H143197   2.605   0.116  11.926 -0.2646 -1.6837 -2.4526
 6334TIP3    H243198   2.548   0.177  11.799 -3.9669  0.3896  0.0272
 6335TIP3   OH243199   4.869   2.879   9.795 -0.7251 -0.0425 -0.5725
 6335TIP3    H143200   4.911   2.947   9.743 -0.6017  0.8464  0.6434
 6335TIP3    H243201   4.941   2.824   9.826 -0.7113 -0.0488 -0.6153
 6336TIP3   OH243202   4.556   2.262   9.181  0.1648  0.5473 -0.5035
 6336TIP3    H143203   4.644   2.236   9.209  0.1252  0.7306 -0.2016
 6336TIP3    H243204   4.500   2.189   9.205  0.6745 -0.9256 -3.4217
 6337TIP3   OH243205   2.531   0.586   9.631 -0.2624  0.1752 -0.2904
 6337TIP3    H143206   2.596   0.636   9.581 -0.0086 -1.3628 -1.5750
 6337TIP3    H243207   2.447   0.627   9.609 -0.0065  0.3873 -0.9007
 6338TIP3   OH243208   0.233   4.043   9.178 -0.2532  0.2194  0.3601
 6338TIP3    H143209   0.198   4.034   9.267 -1.2294  0.5648  0.0157
 6338TIP3    H243210   0.302   3.977   9.173 -1.7329 -1.4009  0.6119
 6339TIP3   OH243211   1.767   4.932   9.276  0.3176  0.6823 -0.0456
 6339TIP3    H143212   1.830   4.913   9.345  0.2657  1.2933  0.1757
 6339TIP3    H243213   1.721   5.010   9.306 -0.0224  0.6845 -0.5583
 6340TIP3   OH243214   2.470   3.851  11.443  0.4915 -0.5741 -0.1906
 6340TIP3    H143215   2.487   3.756  11.440  0.5228 -0.6374  1.1824
 6340TIP3    H243216   2.461   3.870  11.537 -0.8808  0.5553 -0.5247
 6341TIP3   OH243217   5.087   1.211  11.477  0.1412 -0.2250 -0.5818
 6341TIP3    H143218   5.163   1.229  11.534  0.0998 -1.5561 -0.0697
 6341TIP3    H243219   5.126   1.180  11.395  0.1583 -0.2563 -0.5615
 6342TIP3   OH243220   1.678   0.692  10.975 -0.3733 -0.2449 -0.6286
 6342TIP3    H143221   1.772   0.678  10.964 -0.5856 -1.9508 -0.4831
 6342TIP3    H243222   1.642   0.676  10.888 -0.4671  1.2070 -0.8788
 6343TIP3   OH243223   3.799   3.989  11.664 -0.3416  0.2428 -0.0306
 6343TIP3    H143224   3.772   3.945  11.745 -0.1368  1.4678  0.7362
 6343TIP3    H243225   3.816   4.079  11.691 -0.0095  0.6092 -1.4030
 6344TIP3   OH243226   3.829   4.173  12.628  0.0383 -0.1878  0.3312
 6344TIP3    H143227   3.806   4.232  12.700 -0.4566  0.6751 -0.5217
 6344TIP3    H243228   3.830   4.086  12.669 -0.7274  0.2297  1.2864
 6345TIP3   OH243229   4.542   1.188  10.426  0.3802 -0.4116 -0.0635
 6345TIP3    H143230   4.554   1.138  10.345  0.8665 -0.6675  0.1618
 6345TIP3    H243231   4.481   1.136  10.477 -2.5462  1.3011 -1.5567
 6346TIP3   OH243232   0.769   0.834   9.493 -0.3434  0.0918  0.3935
 6346TIP3    H143233   0.708   0.780   9.443 -1.4093  0.6481  1.0550
 6346TIP3    H243234   0.833   0.772   9.527  1.2286 -0.1758 -2.6903
 6347TIP3   OH243235   2.192   0.886  10.487 -0.6318 -0.6946  0.4201
 6347TIP3    H143236   2.159   0.876  10.398  2.1857 -0.4783 -0.7546
 6347TIP3    H243237   2.248   0.810  10.501 -0.0702 -0.1059  1.5481
 6348TIP3   OH243238   2.666   3.737  10.151 -0.0767 -0.3806  0.1262
 6348TIP3    H143239   2.576   3.740  10.119  0.0581  0.7084 -0.1720
 6348TIP3    H243240   2.677   3.819  10.199  1.1077  0.0063 -0.7893
 6349TIP3   OH243241   2.482   0.032  11.393 -0.0254 -0.2175 -0.4801
 6349TIP3    H143242   2.566   0.001  11.359 -0.4165 -0.8018 -0.9342
 6349TIP3    H243243   2.453   0.097  11.329  0.6430  0.8800  0.3055
 6350TIP3   OH243244   4.695   2.653  10.560  0.4633  0.5617  0.7388
 6350TIP3    H143245   4.623   2.711  10.533 -0.9308 -0.4467  2.0874
 6350TIP3    H243246   4.763   2.667  10.494  0.2603  3.7766  1.0320
 6351TIP3   OH243247   5.256   5.027  10.714  0.2847 -0.5269  0.4152
 6351TIP3    H143248   5.186   4.975  10.676 -1.1312  2.1523 -0.9957
 6351TIP3    H243249   5.244   5.019  10.808 -0.9232 -1.3951  0.2068
 6352TIP3   OH243250   4.486   1.747  11.214  0.1237  0.3811 -0.2454
 6352TIP3    H143251   4.431   1.824  11.227 -0.1421  0.1531 -0.0102
 6352TIP3    H243252   4.459   1.686  11.283  0.5820  0.2198 -0.2049
 6353TIP3   OH243253   3.010   5.048  11.072 -0.8550 -0.2208  0.2327
 6353TIP3    H143254   2.988   4.987  11.002  0.6964  1.2376 -1.6444
 6353TIP3    H243255   2.925   5.079  11.104 -1.6148 -0.9064 -1.0441
 6354TIP3   OH243256   0.716   3.454   9.089  0.3738 -0.8392 -0.1944
 6354TIP3    H143257   0.765   3.497   9.018 -0.0329 -1.5605 -0.9237
 6354TIP3    H243258   0.760   3.484   9.169  1.0338 -0.2476 -0.7567
 6355TIP3   OH243259   1.778   5.789   8.957  0.4752  0.4789  0.2123
 6355TIP3    H143260   1.851   5.751   9.006 -0.9915  0.8877  2.8412
 6355TIP3    H243261   1.805   5.880   8.940  1.9667 -0.2711 -1.9441
 6356TIP3   OH243262   1.326   0.610   9.987 -0.3723 -0.4411  0.2587
 6356TIP3    H143263   1.233   0.621  10.005 -0.5312  1.5753 -1.4076
 6356TIP3    H243264   1.369   0.671  10.047 -0.2875 -0.0766 -0.1617
 6357TIP3   OH243265   2.694   5.298  10.503  0.1089  0.7187  0.6920
 6357TIP3    H143266   2.620   5.293  10.442  0.7033 -1.8394  0.0521
 6357TIP3    H243267   2.766   5.257  10.456  1.3223  1.0970  2.1571
 6358TIP3   OH243268   3.072   5.351  10.396  0.8864  0.0841  0.2211
 6358TIP3    H143269   3.081   5.341  10.491  2.2007  0.9534  0.2159
 6358TIP3    H243270   3.162   5.367  10.365  0.4727 -0.1115 -1.1665
 6359TIP3   OH243271   1.477   4.520   8.982  0.1791 -0.4930 -0.3874
 6359TIP3    H143272   1.403   4.551   9.034 -0.2231  0.5615 -1.5200
 6359TIP3    H243273   1.514   4.447   9.032 -1.3562 -0.7537  0.4069
 6360TIP3   OH243274   2.371   2.880  12.531 -0.4201  0.2959  0.0185
 6360TIP3    H143275   2.291   2.885  12.479  1.1086  3.3419 -2.3843
 6360TIP3    H243276   2.348   2.918  12.615 -1.6612  0.5417 -0.4186
 6361TIP3   OH243277   0.555   1.345  10.918 -0.2827 -0.5922 -0.0593
 6361TIP3    H143278   0.461   1.360  10.932  0.2286  1.2142  1.8995
 6361TIP3    H243279   0.586   1.424  10.874  0.7277 -0.0681  1.5238
 6362TIP3   OH243280   5.364   1.792   8.431 -0.0507 -0.1514 -0.6232
 6362TIP3    H143281   5.374   1.709   8.478  4.0915  0.7816  0.5464
 6362TIP3    H243282   5.414   1.781   8.350 -0.0138  0.9628 -0.7704
 6363TIP3   OH243283   3.147   1.955   9.251 -0.2759 -0.2481  0.0081
 6363TIP3    H143284   3.063   1.970   9.206 -0.0713  0.8870 -0.0138
 6363TIP3    H243285   3.213   1.968   9.182  0.0632  1.8707  0.6701
 6364TIP3   OH243286   3.585   0.240   9.555  0.9650 -0.0276 -0.3804
 6364TIP3    H143287   3.511   0.255   9.495  0.6485 -1.0177 -0.2584
 6364TIP3    H243288   3.575   0.306   9.622 -0.6513 -0.9929  0.4013
 6365TIP3   OH243289   4.011   6.495   9.031  0.2025  0.1718 -0.1904
 6365TIP3    H143290   4.050   6.532   9.110 -0.2465  2.5471 -1.0164
 6365TIP3    H243291   3.919   6.482   9.055  0.3664 -0.5027  0.1085
 6366TIP3   OH243292   1.552   5.673  11.778 -0.1438 -0.3770 -0.2528
 6366TIP3    H143293   1.570   5.616  11.852  1.5745  1.9382  1.2436
 6366TIP3    H243294   1.506   5.748  11.816  1.1140  1.0457 -1.4103
 6367TIP3   OH243295   2.586   5.246  11.924  0.3142 -1.0169  0.5567
 6367TIP3    H143296   2.629   5.300  11.991 -1.1040 -0.6718  1.2285
 6367TIP3    H243297   2.576   5.161  11.966 -1.3257 -0.5711  1.1358
 6368TIP3   OH243298   2.972   0.098  11.565  0.4911  0.0272 -0.0035
 6368TIP3    H143299   2.924   0.146  11.498  0.6381 -0.8504 -0.7519
 6368TIP3    H243300   2.939   0.134  11.648 -1.2115 -0.2998 -0.4908
 6369TIP3   OH243301   2.177   2.346  12.017  0.2725  0.2295 -0.3316
 6369TIP3    H143302   2.108   2.288  11.985  0.8363  0.3156 -1.7753
 6369TIP3    H243303   2.216   2.298  12.090  0.6947 -1.2329 -1.4632
 6370TIP3   OH243304   6.646   3.516   8.859 -0.2128 -0.1647  0.0132
 6370TIP3    H143305   6.671   3.473   8.941  1.0507 -0.7644 -0.6632
 6370TIP3    H243306   6.599   3.448   8.810  1.8953 -0.8865 -1.1098
 6371TIP3   OH243307   4.964   5.195  10.551 -0.2723  0.1606 -0.8690
 6371TIP3    H143308   5.027   5.227  10.616  0.0033  0.1862 -1.1475
 6371TIP3    H243309   5.016   5.183  10.471 -0.7437  0.8135 -1.2889
 6372TIP3   OH243310   4.437   4.638   9.354  0.1880  0.1620  0.3272
 6372TIP3    H143311   4.437   4.709   9.290 -0.4498  0.3740  0.5573
 6372TIP3    H243312   4.393   4.566   9.310 -0.5357  0.4116  0.6374
 6373TIP3   OH243313   5.080   0.667   9.034 -0.1318 -0.6033 -0.3523
 6373TIP3    H143314   5.108   0.615   8.959  0.8138 -0.6375  0.0041
 6373TIP3    H243315   5.097   0.758   9.009 -0.5292 -0.5600 -0.4677
 6374TIP3   OH243316   6.563   1.637   9.153 -0.3700  0.2431  0.2587
 6374TIP3    H143317   6.576   1.635   9.059 -0.0091 -0.0286  0.3154
 6374TIP3    H243318   6.608   1.717   9.182  1.8609 -1.0555  0.5495
 6375TIP3   OH243319   4.061   2.231  11.400  0.5735 -0.0029  0.4475
 6375TIP3    H143320   3.994   2.234  11.469 -0.2410  0.6571 -0.3420
 6375TIP3    H243321   4.137   2.274  11.438  0.1765  0.2443  0.9744
 6376TIP3   OH243322   4.129   5.858  10.914  0.5446 -0.1978  0.1420
 6376TIP3    H143323   4.209   5.845  10.864  0.9375 -2.2841  1.1813
 6376TIP3    H243324   4.067   5.797  10.876 -0.1472  0.4396  0.2221
 6377TIP3   OH243325   0.560   3.355   9.977  0.1128 -0.1433  0.3467
 6377TIP3    H143326   0.542   3.405  10.056  1.5152  0.3867  0.3561
 6377TIP3    H243327   0.650   3.325   9.987  0.1777 -0.4194 -0.8666
 6378TIP3   OH243328   1.331   3.845   9.406  0.4727 -0.0145  0.5207
 6378TIP3    H143329   1.388   3.852   9.483 -0.6908 -1.2695  1.5383
 6378TIP3    H243330   1.350   3.924   9.355  0.4940  1.4165  2.6219
 6379TIP3   OH243331   6.435   1.957  10.733  0.2661 -0.1034 -0.1426
 6379TIP3    H143332   6.453   2.041  10.689  1.0514 -0.4372 -0.4714
 6379TIP3    H243333   6.380   1.981  10.807  0.5314  0.7163 -0.1949
 6380TIP3   OH243334   2.316   1.214  10.718  0.3136  0.3856 -0.6124
 6380TIP3    H143335   2.340   1.245  10.631 -2.9782  0.9720 -1.4539
 6380TIP3    H243336   2.251   1.278  10.750 -0.5080 -1.1991  1.1421
 6381TIP3   OH243337   1.668   2.365   9.420  0.2447  0.2455 -0.1544
 6381TIP3    H143338   1.758   2.333   9.420  0.1595 -0.0615 -1.7703
 6381TIP3    H243339   1.636   2.346   9.509  2.0073  1.1208  0.7290
 6382TIP3   OH243340   3.163   0.887  10.726 -0.4337 -0.6257  0.1271
 6382TIP3    H143341   3.257   0.888  10.744 -0.0275 -2.3367 -1.5895
 6382TIP3    H243342   3.156   0.904  10.632 -1.6475 -2.4584 -0.1810
 6383TIP3   OH243343   0.769   5.245   8.490 -0.1047 -0.5667 -0.2161
 6383TIP3    H143344   0.847   5.231   8.436 -0.4136 -1.0203 -0.5562
 6383TIP3    H243345   0.753   5.161   8.532 -1.9507 -1.3414 -2.2375
 6384TIP3   OH243346   5.540   4.294   9.224 -0.1394  0.5412 -0.0458
 6384TIP3    H143347   5.534   4.390   9.220  0.0803  0.5359 -0.6194
 6384TIP3    H243348   5.604   4.278   9.294 -0.5804  0.7966  0.4206
 6385TIP3   OH243349   2.334   2.395  11.267 -0.4417 -0.5487 -0.2142
 6385TIP3    H143350   2.342   2.434  11.180 -0.8264 -0.3044 -0.1436
 6385TIP3    H243351   2.249   2.350  11.266  0.0208 -1.4360 -0.3122
 6386TIP3   OH243352   5.300   2.585   8.680  0.7397 -0.2923 -0.2303
 6386TIP3    H143353   5.304   2.560   8.588 -0.8104 -1.5955  0.0011
 6386TIP3    H243354   5.374   2.540   8.721 -1.1758 -3.7081 -0.0804
 6387TIP3   OH243355   1.344   2.720   9.890  0.2545  0.2720  0.1301
 6387TIP3    H143356   1.361   2.809   9.921 -1.1450 -0.1009  2.2033
 6387TIP3    H243357   1.291   2.681   9.959 -0.1864 -1.7985 -1.2942
 6388TIP3   OH243358   0.418   0.570   9.630  0.0859  0.3920 -0.6365
 6388TIP3    H143359   0.336   0.554   9.583  0.0857 -0.2349 -0.4312
 6388TIP3    H243360   0.408   0.658   9.666 -0.3094  0.4986 -0.9959
 6389TIP3   OH243361   3.212   2.259  11.320 -0.5772 -0.0737  0.1701
 6389TIP3    H143362   3.149   2.256  11.392 -0.1712  1.6449  0.6404
 6389TIP3    H243363   3.168   2.312  11.253 -0.2830 -0.2493 -0.1646
 6390TIP3   OH243364   4.495   1.767   9.885 -0.6371 -0.2187 -0.1293
 6390TIP3    H143365   4.575   1.746   9.838 -1.2279 -0.9253 -0.8539
 6390TIP3    H243366   4.514   1.747   9.977 -0.5605 -2.1296 -0.5410
 6391TIP3   OH243367   2.574   1.302  10.771  0.3699  0.3268 -0.2104
 6391TIP3    H143368   2.630   1.264  10.702  1.2996 -0.8753  1.1526
 6391TIP3    H243369   2.487   1.268  10.751  0.7808 -0.7162 -0.3293
 6392TIP3   OH243370   3.643   6.084  12.056 -0.0237  0.0106  0.4824
 6392TIP3    H143371   3.729   6.123  12.070  0.6554 -1.2330 -0.0598
 6392TIP3    H243372   3.604   6.135  11.985  0.1357  0.7638  0.9298
 6393TIP3   OH243373   0.730   6.519  11.038  0.6131  1.0555  0.1494
 6393TIP3    H143374   0.745   6.438  10.989  2.1835  1.2641  0.2461
 6393TIP3    H243375   0.653   6.500  11.091  0.4698 -0.0941 -0.4252
 6394TIP3   OH243376   1.327   6.458  12.097 -0.1102  0.1778  0.2566
 6394TIP3    H143377   1.407   6.492  12.058 -0.0721 -0.0151  0.1664
 6394TIP3    H243378   1.356   6.413  12.177 -0.2229  0.8589  0.6931
 6395TIP3   OH243379   4.099   3.658   8.932 -0.1811  0.0791 -0.0357
 6395TIP3    H143380   4.155   3.615   8.997 -0.1202 -2.0330 -1.3768
 6395TIP3    H243381   4.042   3.715   8.983  0.8427 -0.3832  1.7044
 6396TIP3   OH243382   3.247   3.422  19.106  0.5372  0.6682 -0.0247
 6396TIP3    H143383   3.186   3.350  19.120 -0.4841  1.7283  1.3599
 6396TIP3    H243384   3.258   3.461  19.193  1.4909  1.8362 -0.6317
 6397TIP3   OH243385   4.009   2.190   9.420  0.0301  0.5585  0.4633
 6397TIP3    H143386   4.060   2.112   9.398 -0.5692 -0.1414  1.5046
 6397TIP3    H243387   4.012   2.244   9.341  0.3315 -0.5802 -0.3150
 6398TIP3   OH243388   5.198   1.597   8.646 -0.3346 -0.1364 -0.0901
 6398TIP3    H143389   5.145   1.518   8.633  1.5958 -1.4496 -0.2939
 6398TIP3    H243390   5.288   1.569   8.632  0.3915  2.2351 -0.6555
 6399TIP3   OH243391   3.839   0.322   9.319 -0.3293 -0.3676  0.8898
 6399TIP3    H143392   3.755   0.331   9.274 -0.4895 -0.9825  1.0615
 6399TIP3    H243393   3.834   0.386   9.391 -1.6638 -2.0654  2.4064
 6400TIP3   OH243394   0.129   4.601   9.994  0.2912  0.2794 -0.5659
 6400TIP3    H143395   0.211   4.554   9.979 -1.2682 -2.2310 -1.7364
 6400TIP3    H243396   0.063   4.552   9.945 -1.9684  2.1494  0.3999
 6401TIP3   OH243397   4.246   1.629   9.938 -0.4588 -0.5862 -0.3506
 6401TIP3    H143398   4.239   1.615   9.844  0.2732 -0.5752 -0.4103
 6401TIP3    H243399   4.303   1.705   9.947 -0.5654 -0.5561  0.1059
 6402TIP3   OH243400   0.633   3.779  11.489 -0.3385 -0.3594 -0.0858
 6402TIP3    H143401   0.563   3.839  11.513  1.0136  1.0231  0.5586
 6402TIP3    H243402   0.656   3.734  11.571  0.0038 -0.2777 -0.1330
 6403TIP3   OH243403   5.946   5.474  11.352 -1.1336 -0.2090 -0.0018
 6403TIP3    H143404   5.982   5.421  11.282  0.7432  0.7244  0.1769
 6403TIP3    H243405   5.889   5.537  11.308 -0.2087  0.1760 -0.6802
 6404TIP3   OH243406   3.519   5.229   9.855 -0.8369  0.0882 -0.5901
 6404TIP3    H143407   3.476   5.188   9.779 -1.5008  2.4420 -1.5890
 6404TIP3    H243408   3.555   5.310   9.820  3.1198 -0.9557  0.5937
 6405TIP3   OH243409   6.587   1.268  10.793 -0.4634  0.3539  0.2680
 6405TIP3    H143410   6.582   1.227  10.879 -0.8008  0.2070  0.1830
 6405TIP3    H243411   6.596   1.195  10.732 -1.6063  0.3527  0.0715
 6406TIP3   OH243412   5.298   3.474  12.687 -0.0576  0.2198  0.1478
 6406TIP3    H143413   5.206   3.498  12.682 -0.3463 -0.6549  0.9360
 6406TIP3    H243414   5.300   3.380  12.667  0.5871  0.1147  0.6623
 6407TIP3   OH243415   6.643   4.134  11.193 -0.2806 -0.2978  0.3532
 6407TIP3    H143416   6.683   4.115  11.278 -0.7900  0.2857  0.7356
 6407TIP3    H243417   6.698   4.203  11.155 -1.4025  1.1530  1.2775
 6408TIP3   OH243418   5.704   2.156  10.758 -0.0051  0.2027 -0.4392
 6408TIP3    H143419   5.697   2.239  10.805  0.5712  0.4083 -0.7105
 6408TIP3    H243420   5.731   2.180  10.669 -1.4243 -0.1550 -0.9895
 6409TIP3   OH243421   3.356   1.114  10.141  0.4682  0.2325  0.6006
 6409TIP3    H143422   3.362   1.092  10.048  0.0555 -0.6130  0.7618
 6409TIP3    H243423   3.446   1.136  10.167  0.1680  3.3522 -0.6505
 6410TIP3   OH243424   2.921   3.499   9.739  0.1133  0.1070  0.2563
 6410TIP3    H143425   2.917   3.516   9.645 -1.3554  1.3792  0.5037
 6410TIP3    H243426   2.862   3.564   9.777  1.5094  0.3392  2.1633
 6411TIP3   OH243427   5.290   6.264  10.854  0.1918  0.1214  0.1026
 6411TIP3    H143428   5.229   6.337  10.843  2.7620  2.4129 -0.0041
 6411TIP3    H243429   5.304   6.258  10.948  1.5603  1.2328 -0.0019
 6412TIP3   OH243430   1.417   1.294   9.503 -0.1128  0.3624  0.1322
 6412TIP3    H143431   1.369   1.369   9.466 -0.6682  0.5655  1.2070
 6412TIP3    H243432   1.487   1.276   9.440 -2.1661 -0.5769 -2.0241
 6413TIP3   OH243433   4.162   3.052   9.015 -0.0389  0.1064 -0.0456
 6413TIP3    H143434   4.073   3.043   9.050  0.2303  0.9201  0.8801
 6413TIP3    H243435   4.161   3.001   8.934 -1.1481 -0.4798  0.3167
 6414TIP3   OH243436   1.983   1.109  10.560  0.1795 -0.3997 -0.0685
 6414TIP3    H143437   2.001   1.094  10.653  0.2573  1.1913  0.2028
 6414TIP3    H243438   2.047   1.174  10.533 -0.5794  0.0176 -0.9413
 6415TIP3   OH243439   1.615   6.267   9.968 -0.0395 -0.2117  0.5354
 6415TIP3    H143440   1.574   6.349   9.993 -0.0656  0.1432 -0.6260
 6415TIP3    H243441   1.667   6.242  10.044  2.7379  2.6492 -0.2497
 6416TIP3   OH243442   0.769   6.225   9.162  0.0529  0.1279 -0.1231
 6416TIP3    H143443   0.848   6.242   9.111  0.0762 -0.5226 -0.3047
 6416TIP3    H243444   0.797   6.164   9.230 -0.6075 -1.2674 -1.0725
 6417TIP3   OH243445   2.733   0.380  10.559  0.2569  0.0782  0.0572
 6417TIP3    H143446   2.667   0.368  10.627 -1.8887  0.0031 -1.9125
 6417TIP3    H243447   2.757   0.291  10.533 -1.6700 -0.0108 -1.6925
 6418TIP3   OH243448   0.274   4.561  11.760 -0.1606 -0.2546  0.2609
 6418TIP3    H143449   0.280   4.466  11.757  0.6326 -0.2946  2.0015
 6418TIP3    H243450   0.184   4.579  11.786  0.2100 -0.6165  1.8774
 6419TIP3   OH243451   6.354   3.078  10.817  0.0333  0.1570  0.2966
 6419TIP3    H143452   6.285   3.121  10.869 -1.0048 -0.6122 -0.4174
 6419TIP3    H243453   6.385   3.007  10.873  0.6268  0.8188  0.8269
 6420TIP3   OH243454   1.071   6.618  10.490 -0.3280 -0.2308 -0.4876
 6420TIP3    H143455   1.088   6.655  10.576 -0.5824 -1.3935  0.0907
 6420TIP3    H243456   0.993   6.664  10.459 -0.5489 -0.1692  0.1475
 6421TIP3   OH243457   2.448   0.585   9.884 -0.8397 -0.4179 -0.1296
 6421TIP3    H143458   2.489   0.592   9.797  2.3348  1.0283  1.3059
 6421TIP3    H243459   2.402   0.669   9.895 -0.1694 -0.0614  0.0306
 6422TIP3   OH243460   3.965   6.558  11.229 -0.3312  0.6276 -0.2712
 6422TIP3    H143461   3.920   6.474  11.238 -0.3845  0.7679  1.0640
 6422TIP3    H243462   4.055   6.541  11.258 -0.3023  0.9857 -0.1366
 6423TIP3   OH243463   3.288   4.031  11.762  0.2907 -0.2216 -0.0647
 6423TIP3    H143464   3.197   4.004  11.766 -0.8668  2.9174 -1.4760
 6423TIP3    H243465   3.334   3.955  11.727 -1.6188 -2.1189  1.3028
 6424TIP3   OH243466   1.072   0.162  10.192  0.2587 -0.3959  0.0720
 6424TIP3    H143467   1.015   0.117  10.253 -0.3585  0.6815  0.3129
 6424TIP3    H243468   1.071   0.254  10.221  1.2555 -0.1646 -0.5654
 6425TIP3   OH243469   4.299   3.250  10.032  0.0490 -0.2789 -0.5874
 6425TIP3    H143470   4.373   3.270   9.974  0.3605 -0.6062 -0.3083
 6425TIP3    H243471   4.250   3.332  10.038  1.2771  0.4015  0.5006
 6426TIP3   OH243472   6.439   2.455   9.663 -0.1359 -0.0004 -0.0795
 6426TIP3    H143473   6.449   2.450   9.758 -1.6503 -4.2172  0.0204
 6426TIP3    H243474   6.518   2.413   9.629 -0.8499 -0.9570 -0.5675
 6427TIP3   OH243475   1.954   6.312   9.927  0.1628  0.2882  0.1165
 6427TIP3    H143476   1.889   6.280   9.990  0.3235 -0.5661 -0.1413
 6427TIP3    H243477   2.037   6.275   9.958  0.4651  1.0134  0.1917
 6428TIP3   OH243478   2.399   1.134   9.604  0.3171  0.2495 -0.3872
 6428TIP3    H143479   2.335   1.100   9.667  0.9805 -0.2526  0.0203
 6428TIP3    H243480   2.370   1.224   9.587 -0.4017  0.0822 -0.0825
 6429TIP3   OH243481   3.867   6.004   9.892 -0.0882  0.1140 -0.0766
 6429TIP3    H143482   3.863   6.097   9.873 -0.1332  0.3146  0.8827
 6429TIP3    H243483   3.924   5.968   9.823 -0.4498  0.7615 -0.7235
 6430TIP3   OH243484   5.019   2.696   8.715 -0.0319  0.6839  0.0743
 6430TIP3    H143485   5.017   2.714   8.621  0.5434  1.2080  0.1535
 6430TIP3    H243486   5.112   2.685   8.735 -0.2353 -0.5964  0.3711
 6431TIP3   OH243487   0.833   4.826  10.557  0.5979 -0.0487 -0.2329
 6431TIP3    H143488   0.822   4.917  10.528  1.3274 -0.3833 -1.5963
 6431TIP3    H243489   0.750   4.806  10.601 -0.6718  0.4318 -2.2698
 6432TIP3   OH243490   5.002   2.336  11.017  0.0492  0.0934 -0.1635
 6432TIP3    H143491   5.094   2.360  11.024  0.3985 -1.2179 -0.1633
 6432TIP3    H243492   4.997   2.277  10.942 -0.9807  1.0044 -0.8530
 6433TIP3   OH243493   5.143   0.469  10.625 -0.5864 -0.2317  0.5530
 6433TIP3    H143494   5.054   0.505  10.624  0.4732  2.7505  0.9664
 6433TIP3    H243495   5.169   0.464  10.533 -0.5767  0.6909  0.4968
 6434TIP3   OH243496   0.806   1.917  11.207 -0.0876 -0.0883  0.0229
 6434TIP3    H143497   0.862   1.856  11.158 -0.5809 -0.5531  0.0288
 6434TIP3    H243498   0.850   2.002  11.199  0.4382 -0.3833 -0.2579
 6435TIP3   OH243499   1.215   4.993   9.432  0.1505 -0.1332 -0.8418
 6435TIP3    H143500   1.244   5.079   9.463  1.3095 -0.4461 -1.0149
 6435TIP3    H243501   1.120   5.001   9.425  0.1423  0.8018  0.1423
 6436TIP3   OH243502   4.438   3.140   8.441 -0.6694  0.0833  0.3806
 6436TIP3    H143503   4.412   3.086   8.367  0.2335  0.5713 -0.3151
 6436TIP3    H243504   4.533   3.130   8.447 -0.5761  1.0070  0.6897
 6437TIP3   OH243505   2.964   4.014  12.871 -0.8170  0.5689 -0.0402
 6437TIP3    H143506   2.931   4.085  12.816  0.3705  0.0984 -1.4224
 6437TIP3    H243507   2.885   3.969  12.902 -1.5417  1.6084 -0.3243
 6438TIP3   OH243508   1.628   1.409  10.291  0.4061 -0.3085  0.1575
 6438TIP3    H143509   1.680   1.335  10.324  1.1603  0.6911  1.3080
 6438TIP3    H243510   1.629   1.472  10.363  0.7435  1.3047 -1.2037
 6439TIP3   OH243511   5.730   5.856   8.870  0.7883 -0.2795  0.0723
 6439TIP3    H143512   5.692   5.819   8.789 -0.0637  0.1872  0.2460
 6439TIP3    H243513   5.700   5.797   8.939  0.0240  0.3058  0.2591
 6440TIP3   OH243514   3.019   1.583   9.466 -0.1771 -0.1624  0.0071
 6440TIP3    H143515   3.113   1.595   9.482  0.2919 -1.4684 -1.3674
 6440TIP3    H243516   2.988   1.532   9.540  0.8293 -1.9449 -0.7197
 6441TIP3   OH243517   3.625   5.601  11.889  0.0835 -0.6485  0.4305
 6441TIP3    H143518   3.554   5.549  11.927  0.7375 -0.0602  2.5809
 6441TIP3    H243519   3.632   5.570  11.799 -2.4462 -1.1812  0.3482
 6442TIP3   OH243520   1.884   5.156   9.608 -0.1834 -0.7472  0.3489
 6442TIP3    H143521   1.907   5.194   9.524 -3.6235  0.7234 -0.1267
 6442TIP3    H243522   1.926   5.212   9.673  1.0563 -0.8247 -0.3691
 6443TIP3   OH243523   5.345   1.690  11.436  0.5327 -0.3342 -0.2010
 6443TIP3    H143524   5.436   1.699  11.464  0.6805 -0.8174 -0.5256
 6443TIP3    H243525   5.315   1.781  11.426  1.1098 -0.1747 -0.5268
 6444TIP3   OH243526   6.109   2.537   9.313  0.2232  0.0146  0.2089
 6444TIP3    H143527   6.096   2.448   9.279  0.5748 -0.4817  1.3243
 6444TIP3    H243528   6.182   2.572   9.261 -0.5147  0.0173 -0.8712
 6445TIP3   OH243529   3.077   2.235   9.876 -0.3162 -0.1795 -0.6498
 6445TIP3    H143530   3.017   2.164   9.852  1.7082 -1.7221 -1.4098
 6445TIP3    H243531   3.058   2.252   9.968 -2.6453  0.1706 -1.1254
 6446TIP3   OH243532   6.158   6.064  10.930 -0.3917  0.1233  0.3277
 6446TIP3    H143533   6.223   6.083  10.998  2.0517 -0.7692 -1.6034
 6446TIP3    H243534   6.157   6.143  10.875 -1.0663  0.1891  0.4299
 6447TIP3   OH243535   1.998   0.127  11.104 -0.3836  0.3643  0.0397
 6447TIP3    H143536   1.922   0.105  11.051 -0.6850 -0.0574  0.6475
 6447TIP3    H243537   2.021   0.046  11.149  2.0045 -0.2725 -2.0635
 6448TIP3   OH243538   5.819   3.386  11.784 -0.1137  0.7478 -0.0839
 6448TIP3    H143539   5.843   3.433  11.864  0.0539 -0.5792  0.6879
 6448TIP3    H243540   5.771   3.309  11.816  0.3940 -0.0650 -1.2327
 6449TIP3   OH243541   1.018   1.596   9.200  0.0421  0.6375 -0.0641
 6449TIP3    H143542   0.984   1.685   9.193 -2.4133 -0.0650  1.4397
 6449TIP3    H243543   0.941   1.540   9.183  0.6011 -1.1196  2.5296
 6450TIP3   OH243544   3.918   5.465  11.138  0.5055  0.5051  0.4663
 6450TIP3    H143545   3.967   5.408  11.079  0.2867  1.6183 -0.8340
 6450TIP3    H243546   3.835   5.480  11.094 -0.8007 -0.7915  2.3209
 6451TIP3   OH243547   3.993   3.848   8.604  0.0395  0.5525  0.3116
 6451TIP3    H143548   4.083   3.879   8.614  0.3465 -0.5471  1.1500
 6451TIP3    H243549   3.956   3.853   8.692 -0.0108 -1.0660  0.4069
 6452TIP3   OH243550   3.166   3.168  10.676 -0.1539 -0.0944  0.2905
 6452TIP3    H143551   3.135   3.242  10.728  1.1366 -0.1155  1.1203
 6452TIP3    H243552   3.221   3.117  10.736 -0.0977 -1.1075 -0.5863
 6453TIP3   OH243553   4.995   4.664  12.011  0.5797 -0.0075  0.1033
 6453TIP3    H143554   5.021   4.752  11.983 -0.0093  0.0474 -0.3042
 6453TIP3    H243555   4.944   4.678  12.091 -2.8676  0.4705 -1.9562
 6454TIP3   OH243556   3.348   1.361   9.780  0.2775  0.4338  0.2561
 6454TIP3    H143557   3.270   1.338   9.729 -0.5291  1.9591  0.7355
 6454TIP3    H243558   3.401   1.414   9.720  0.9966 -0.6324 -0.0818
 6455TIP3   OH243559   6.317   4.295  11.405 -0.4765 -0.6208 -0.0408
 6455TIP3    H143560   6.280   4.249  11.330 -1.4388 -0.4627  0.3221
 6455TIP3    H243561   6.341   4.225  11.466 -1.5435 -0.6848  0.3297
 6456TIP3   OH243562   0.973   1.606   9.649  0.1395 -0.1207 -0.2412
 6456TIP3    H143563   1.063   1.633   9.632 -0.3325  1.2340 -0.7219
 6456TIP3    H243564   0.956   1.634   9.740  0.9219 -2.4914  0.7027
 6457TIP3   OH243565   3.784   3.824  11.196 -0.1234 -0.1647  0.3158
 6457TIP3    H143566   3.767   3.814  11.102 -0.2680  0.1920  0.3022
 6457TIP3    H243567   3.797   3.735  11.228 -2.4115 -0.5219  0.4193
 6458TIP3   OH243568   4.592   4.377   9.270 -0.0486  0.2830  0.4580
 6458TIP3    H143569   4.527   4.387   9.340 -0.7383 -1.7356  0.1653
 6458TIP3    H243570   4.630   4.290   9.286  3.1496  1.6570  1.0568
 6459TIP3   OH243571   2.136   2.660  10.146  0.3105  0.4049 -0.4193
 6459TIP3    H143572   2.054   2.630  10.186  0.2746 -0.7213 -1.2872
 6459TIP3    H243573   2.192   2.682  10.220 -0.4498  0.3051  0.1997
 6460TIP3   OH243574   1.754   2.886  10.264 -0.5297 -0.3533  0.1125
 6460TIP3    H143575   1.685   2.824  10.240  1.2147 -1.9843 -0.9042
 6460TIP3    H243576   1.790   2.916  10.181 -0.9778  1.6945  0.5982
 6461TIP3   OH243577   4.386   3.257   8.889  0.7726  0.0768 -0.3608
 6461TIP3    H143578   4.391   3.163   8.872  0.2310  0.0849 -0.5677
 6461TIP3    H243579   4.460   3.294   8.841  2.6424 -0.5140  1.8326
 6462TIP3   OH243580   2.567   2.508  11.746  0.0622 -0.1961 -0.1915
 6462TIP3    H143581   2.507   2.482  11.676 -0.2685 -1.1213  0.4248
 6462TIP3    H243582   2.533   2.593  11.775 -0.9985 -0.7370  0.1962
 6463TIP3   OH243583   1.436   6.330  10.274 -0.2962 -0.4456 -0.7173
 6463TIP3    H143584   1.378   6.291  10.339 -0.4595  0.0537 -0.5542
 6463TIP3    H243585   1.382   6.340  10.195  0.3374 -2.5173 -1.4644
 6464TIP3   OH243586   5.061   1.835  11.032 -0.0087  0.0359 -0.6178
 6464TIP3    H143587   5.001   1.862  11.101  2.2573  1.1219  1.0508
 6464TIP3    H243588   5.125   1.778  11.076  0.6425 -0.4720 -2.1440
 6465TIP3   OH243589   1.197   4.554  10.336 -0.1886 -0.3678  0.1804
 6465TIP3    H143590   1.211   4.609  10.259  1.0268 -1.3895 -0.3649
 6465TIP3    H243591   1.283   4.515  10.354 -0.7857 -1.3128  1.1417
 6466TIP3   OH243592   3.874   6.297   9.611  0.0341 -0.3787  0.1585
 6466TIP3    H143593   3.874   6.290   9.707  0.8709  1.3852  0.3266
 6466TIP3    H243594   3.957   6.258   9.584 -0.0044 -0.4757  0.1783
 6467TIP3   OH243595   0.576   3.853  10.880  0.7357  0.1145  0.1890
 6467TIP3    H143596   0.575   3.949  10.885  2.1724  0.1181  0.8896
 6467TIP3    H243597   0.602   3.825  10.968 -0.3564 -0.9585  0.1917
 6468TIP3   OH243598   3.225   5.344   9.677  0.4482 -0.6106 -0.5122
 6468TIP3    H143599   3.181   5.426   9.698  0.3702 -1.1130  1.3917
 6468TIP3    H243600   3.307   5.371   9.636  1.7537  0.5771  2.6098
 6469TIP3   OH243601   0.995   4.786  12.097  0.4130 -0.2564  0.3059
 6469TIP3    H143602   0.998   4.800  12.002 -0.6481  1.5606  0.4854
 6469TIP3    H243603   0.907   4.813  12.122  1.1345  0.6799  1.9822
 6470TIP3   OH243604   3.725   1.234  10.436 -0.1494  0.0218 -0.0519
 6470TIP3    H143605   3.768   1.212  10.518 -1.5515 -0.3311  0.6292
 6470TIP3    H243606   3.745   1.327  10.422 -0.7018  0.3610  1.2298
 6471TIP3   OH243607   1.454   3.542  10.669 -0.1456 -0.0091 -0.2201
 6471TIP3    H143608   1.380   3.508  10.618  0.1985 -0.8926 -0.1543
 6471TIP3    H243609   1.445   3.500  10.755  0.9001 -0.8014 -0.4777
 6472TIP3   OH243610   2.511   4.294  10.832  0.5051 -0.0417  0.0709
 6472TIP3    H143611   2.584   4.323  10.777  0.4213  0.1495  0.0611
 6472TIP3    H243612   2.435   4.295  10.774  0.6799 -1.2294 -0.1958
 6473TIP3   OH243613   3.407   3.603  12.952  0.2195 -0.7233 -0.4319
 6473TIP3    H143614   3.416   3.609  12.857  1.0763 -2.0829 -0.4499
 6473TIP3    H243615   3.432   3.690  12.984 -1.2499  0.1336 -1.5006
 6474TIP3   OH243616   1.527   3.248  11.306  0.8326  0.6997  0.3960
 6474TIP3    H143617   1.476   3.188  11.251  0.4341  0.9196  0.5221
 6474TIP3    H243618   1.610   3.258  11.260  0.4455  0.9982 -0.2440
 6475TIP3   OH243619   0.449   4.219   8.476  0.3927  0.4750  0.4903
 6475TIP3    H143620   0.529   4.219   8.424 -0.8460  0.6044 -1.5134
 6475TIP3    H243621   0.447   4.306   8.517  1.2302  0.4913  0.5034
 6476TIP3   OH243622   4.431   6.568   9.923 -0.3299 -0.0780 -0.0889
 6476TIP3    H143623   4.474   6.570   9.838  0.2404  3.1160  0.1739
 6476TIP3    H243624   4.494   6.523   9.980  1.1907  1.4642 -0.4809
 6477TIP3   OH243625   2.489   5.328   9.673 -0.5831  0.7508  0.2759
 6477TIP3    H143626   2.530   5.385   9.608  1.3850 -0.3501  0.4825
 6477TIP3    H243627   2.494   5.377   9.755  2.1993 -0.0913  0.6985
 6478TIP3   OH243628   5.744   0.205  10.150  0.0582  0.1687 -0.3088
 6478TIP3    H143629   5.760   0.188  10.057  1.1257  0.6452 -0.2329
 6478TIP3    H243630   5.651   0.226  10.156  0.1912  1.1347 -1.4274
 6479TIP3   OH243631   5.310   0.918  10.499  0.0030 -1.2677 -0.2640
 6479TIP3    H143632   5.253   0.902  10.575  0.6060 -1.1983  0.2128
 6479TIP3    H243633   5.350   1.003  10.517  0.9987 -1.7537 -0.1040
 6480TIP3   OH243634   3.916   6.508  10.803  0.0113  0.6435  0.1787
 6480TIP3    H143635   4.004   6.504  10.842  0.1291 -2.0819 -0.1732
 6480TIP3    H243636   3.870   6.433  10.840 -0.4956 -1.0054 -3.4025
 6481TIP3   OH243637   0.591   0.068   8.500  0.3422  0.2591 -0.0951
 6481TIP3    H143638   0.679   0.054   8.466  0.2596 -1.1690  0.1995
 6481TIP3    H243639   0.534   0.026   8.435 -0.0196  0.0628  0.3458
 6482TIP3   OH243640   0.312   0.298  10.597 -0.2483 -0.3837 -0.2728
 6482TIP3    H143641   0.334   0.212  10.562 -2.1879 -1.1697  0.2795
 6482TIP3    H243642   0.387   0.323  10.650  0.9404 -1.0739 -1.5783
 6483TIP3   OH243643   2.427   3.374  11.366  0.1269 -0.2616  0.4144
 6483TIP3    H143644   2.500   3.374  11.304  0.4931 -1.3846  0.8133
 6483TIP3    H243645   2.440   3.453  11.418 -1.1579  1.6690 -2.0004
 6484TIP3   OH243646   5.906   1.516   9.398  0.2241 -0.5089 -0.0511
 6484TIP3    H143647   5.902   1.491   9.490 -0.6248  0.3065  0.1401
 6484TIP3    H243648   5.852   1.594   9.391  1.0441 -0.0081 -1.0688
 6485TIP3   OH243649   5.478   6.395  10.675  0.0388  0.0582 -0.3859
 6485TIP3    H143650   5.418   6.346  10.732 -1.4196  0.0328 -1.8705
 6485TIP3    H243651   5.560   6.346  10.680 -0.3946 -0.6125  0.7581
 6486TIP3   OH243652   5.571   5.408  11.912  0.0653 -0.0229 -0.5786
 6486TIP3    H143653   5.515   5.331  11.922  1.7078 -1.2235 -0.0927
 6486TIP3    H243654   5.659   5.372  11.897  0.8146  1.7656 -0.7561
 6487TIP3   OH243655   4.926   5.350   8.655  0.4297 -0.8570  0.0261
 6487TIP3    H143656   4.895   5.297   8.581  0.5870  0.2875 -0.8783
 6487TIP3    H243657   4.847   5.366   8.707 -0.4931  1.3938 -1.8659
 6488TIP3   OH243658   5.506   5.670  12.077  0.0371 -0.0319 -0.1326
 6488TIP3    H143659   5.513   5.765  12.077  0.9600 -0.0501  1.9747
 6488TIP3    H243660   5.490   5.646  12.168  2.8445 -2.0385 -0.0061
 6489TIP3   OH243661   4.247   3.498  12.948  0.2681 -0.5134  0.2645
 6489TIP3    H143662   4.297   3.427  12.908  1.3402  0.0724  0.5241
 6489TIP3    H243663   4.172   3.510  12.890  2.8170  1.7572 -2.9192
 6490TIP3   OH243664   5.341   1.952   9.612 -0.4856 -0.0643  0.1747
 6490TIP3    H143665   5.350   2.034   9.660  0.4009 -0.6795  1.0871
 6490TIP3    H243666   5.427   1.911   9.617 -0.6625 -0.6421 -1.0564
 6491TIP3   OH243667   0.230   0.111   8.838 -0.6135 -0.0018  0.0681
 6491TIP3    H143668   0.148   0.143   8.876  0.4718  0.7738  1.8795
 6491TIP3    H243669   0.298   0.141   8.898  0.7552 -3.5112  0.4909
 6492TIP3   OH243670   4.091   1.066  12.117 -0.8531  0.0211  0.2167
 6492TIP3    H143671   4.051   1.152  12.131  1.5552  1.7746 -2.5988
 6492TIP3    H243672   4.180   1.074  12.152  0.0584 -0.6012 -1.8134
 6493TIP3   OH243673   0.305   6.337  10.777 -0.5147 -0.2870 -1.0729
 6493TIP3    H143674   0.217   6.355  10.809 -0.5473  0.4497 -1.5533
 6493TIP3    H243675   0.292   6.306  10.687 -0.4331 -2.4573 -0.4071
 6494TIP3   OH243676   6.067   4.431  11.298  0.8490  0.1435  0.0862
 6494TIP3    H143677   6.105   4.459  11.381 -1.4834 -0.5782  1.4783
 6494TIP3    H243678   5.996   4.494  11.281 -0.6055 -1.3872  0.2115
 6495TIP3   OH243679   0.593   0.610   9.419 -0.0053 -0.5039  0.5767
 6495TIP3    H143680   0.543   0.568   9.490  1.1375 -0.6874  1.3051
 6495TIP3    H243681   0.671   0.556   9.410  0.6887  0.5065  0.3676
 6496TIP3   OH243682   3.753   3.910  10.016 -0.0553 -0.2972 -0.2779
 6496TIP3    H143683   3.767   4.003  10.030 -3.0557  0.5252 -1.8528
 6496TIP3    H243684   3.818   3.867  10.072  0.9296  2.6835  1.0715
 6497TIP3   OH243685   3.842   5.563  11.427  0.2758  0.0533  0.2565
 6497TIP3    H143686   3.900   5.638  11.436  0.6347 -0.3934  2.2194
 6497TIP3    H243687   3.840   5.544  11.333  1.9353  1.1213 -0.0286
 6498TIP3   OH243688   3.853   5.902   8.907 -0.3285  0.6429 -0.3705
 6498TIP3    H143689   3.827   5.831   8.849 -1.2112  0.8952 -0.3087
 6498TIP3    H243690   3.877   5.974   8.848  0.5549  0.3030 -0.4329
 6499TIP3   OH243691   4.916   4.372   8.442  0.0026 -0.0859 -0.3504
 6499TIP3    H143692   4.881   4.461   8.436  0.2935  0.0034 -0.7992
 6499TIP3    H243693   4.990   4.379   8.503  0.6109  0.1770 -1.1002
 6500TIP3   OH243694   0.492   5.256   9.471  0.3158 -0.4630  0.3136
 6500TIP3    H143695   0.514   5.182   9.414 -0.4036 -1.1786  0.9468
 6500TIP3    H243696   0.490   5.331   9.412  0.1659 -1.0906 -0.5030
 6501TIP3   OH243697   1.835   0.666   9.165  0.5082  0.2311 -0.0662
 6501TIP3    H143698   1.863   0.695   9.252  0.5038 -3.2383  1.2745
 6501TIP3    H243699   1.743   0.690   9.160 -0.1745 -1.5231  2.0253
 6502TIP3   OH243700   5.705   2.225   9.742 -0.1233 -0.3402  0.0251
 6502TIP3    H143701   5.731   2.293   9.681 -0.2469 -0.1011  0.2336
 6502TIP3    H243702   5.781   2.167   9.749 -0.2956 -0.6667 -0.7551
 6503TIP3   OH243703   2.606   2.187  11.102  0.2055  0.4221 -0.7251
 6503TIP3    H143704   2.609   2.112  11.042  0.5010  0.9488 -1.3845
 6503TIP3    H243705   2.635   2.151  11.186 -2.2501 -0.8216 -0.3125
 6504TIP3   OH243706   0.470   2.225  10.797 -0.5180  0.0508 -0.4113
 6504TIP3    H143707   0.443   2.143  10.757 -1.2985 -0.4185  1.0045
 6504TIP3    H243708   0.388   2.272  10.814 -0.2709  0.0244  1.0119
 6505TIP3   OH243709   3.591   5.652  11.226 -0.2866  0.0153  0.4803
 6505TIP3    H143710   3.567   5.692  11.142 -1.1469  0.1495  0.7861
 6505TIP3    H243711   3.641   5.719  11.271 -1.0576  0.4640  0.6690
 6506TIP3   OH243712   6.639   1.004   9.162  0.3927 -0.4456  0.3161
 6506TIP3    H143713   6.692   1.031   9.087  0.9733 -2.2657  0.0258
 6506TIP3    H243714   6.702   0.967   9.223 -0.3299 -0.8988  0.7985
 6507TIP3   OH243715   5.163   3.192  10.972 -0.2691 -0.5517 -0.1323
 6507TIP3    H143716   5.149   3.221  10.882  1.2196  0.4151 -0.0985
 6507TIP3    H243717   5.130   3.264  11.026 -1.9287 -1.4800  0.1640
 6508TIP3   OH243718   0.582   3.795   9.352  1.3545 -0.1677  0.0140
 6508TIP3    H143719   0.562   3.889   9.357 -0.1261 -0.2236 -2.7222
 6508TIP3    H243720   0.530   3.756   9.422  0.2754  0.8794 -0.1685
 6509TIP3   OH243721   3.510   5.046  12.447  0.2742  0.4858  0.6074
 6509TIP3    H143722   3.591   5.098  12.446  1.8304 -1.7782  0.9567
 6509TIP3    H243723   3.465   5.073  12.526  1.1353  1.1822  0.8782
 6510TIP3   OH243724   5.393   1.393  10.808 -0.5832 -0.1454  0.2483
 6510TIP3    H143725   5.469   1.349  10.770  0.9014  0.7938  1.9990
 6510TIP3    H243726   5.318   1.341  10.777  0.7227 -1.0689 -1.5599
 6511TIP3   OH243727   4.994   4.982  11.945  0.2042 -0.4443 -0.1904
 6511TIP3    H143728   5.004   4.937  11.861 -1.3401 -0.2861 -0.4852
 6511TIP3    H243729   5.083   4.988  11.979  0.6804 -1.9013 -1.0859
 6512TIP3   OH243730   4.243   6.624  10.340 -0.0565  0.2646 -0.2005
 6512TIP3    H143731   4.196   6.546  10.309 -0.4107 -0.1756  1.3733
 6512TIP3    H243732   4.260   6.607  10.432  2.2355  0.9092 -0.4362
 6513TIP3   OH243733   0.113   2.047   8.675  0.0226  0.4610 -0.0931
 6513TIP3    H143734   0.069   2.064   8.758  1.3564  1.3713  0.4687
 6513TIP3    H243735   0.140   1.955   8.681  0.6695  0.6906  0.7823
 6514TIP3   OH243736   5.244   4.864  11.265 -0.3352 -0.9379  0.5219
 6514TIP3    H143737   5.266   4.845  11.357  1.2607  0.0840  0.3893
 6514TIP3    H243738   5.183   4.795  11.241 -2.1173 -0.2939  2.8336
 6515TIP3   OH243739   5.156   5.554   9.072  0.0018  0.8928 -0.2284
 6515TIP3    H143740   5.067   5.571   9.103  0.5124  2.8140  0.3511
 6515TIP3    H243741   5.192   5.641   9.054  1.9184  0.1985 -0.0013
 6516TIP3   OH243742   1.405   0.390   8.671  0.3474  0.0298 -0.7829
 6516TIP3    H143743   1.335   0.367   8.732 -1.9812  4.2013 -1.5335
 6516TIP3    H243744   1.380   0.347   8.589 -0.2173 -0.1100 -0.5428
 6517TIP3   OH243745   0.070   6.443   8.907 -0.4169  0.5469  0.3327
 6517TIP3    H143746   0.096   6.500   8.980 -0.5837 -0.3474  1.1115
 6517TIP3    H243747  -0.025   6.439   8.912 -0.7572  3.0604 -1.9476
 6518TIP3   OH243748   1.987   1.856  10.917  0.4176 -0.1623  0.2226
 6518TIP3    H143749   1.897   1.876  10.892  0.1982  0.1460  1.2073
 6518TIP3    H243750   2.041   1.893  10.848 -0.1310  1.1665  0.4887
 6519TIP3   OH243751   0.856   0.778   9.192 -0.2283  0.0199 -0.3280
 6519TIP3    H143752   0.833   0.859   9.146  1.1521 -0.0780 -1.2417
 6519TIP3    H243753   0.930   0.743   9.143  0.3137 -0.8949  1.0977
 6520TIP3   OH243754   3.306   6.152   9.831  0.3540  0.0580  0.6708
 6520TIP3    H143755   3.316   6.150   9.736  0.1085  0.3076  0.6387
 6520TIP3    H243756   3.213   6.169   9.845  0.5191  0.7442  0.9527
 6521TIP3   OH243757   1.204   4.289   9.915  0.5353  0.2681 -0.8484
 6521TIP3    H143758   1.230   4.229   9.844  0.0898 -0.0803 -0.7239
 6521TIP3    H243759   1.253   4.369   9.898  1.9083 -0.4696 -0.4630
 6522TIP3   OH243760   2.211   6.251   9.225  0.0378  0.2914  0.1060
 6522TIP3    H143761   2.172   6.310   9.160  0.0967 -0.2953 -0.4727
 6522TIP3    H243762   2.270   6.307   9.275  0.7339  0.5590 -0.9868
 6523TIP3   OH243763   5.652   2.403  10.915  0.8853  0.1808 -0.4432
 6523TIP3    H143764   5.665   2.417  11.008 -0.5533  1.0220 -0.3451
 6523TIP3    H243765   5.629   2.489  10.880  0.5502 -0.2870 -1.4188
 6524TIP3   OH243766   5.975   2.115  11.006 -0.3095 -0.0588 -0.4190
 6524TIP3    H143767   5.990   2.093  11.098 -1.5249  0.4423 -0.0893
 6524TIP3    H243768   5.924   2.041  10.972  0.7084 -0.5743 -0.8961
 6525TIP3   OH243769   6.326   1.324  10.354  0.9902  0.1173  0.1936
 6525TIP3    H143770   6.287   1.284  10.276 -1.3354 -0.1959  1.4269
 6525TIP3    H243771   6.330   1.417  10.334  1.6524 -0.0983 -0.7648
 6526TIP3   OH243772   2.896   4.461  10.354 -0.3254  0.4108 -0.3033
 6526TIP3    H143773   2.928   4.383  10.309  1.4168 -1.3126  3.4684
 6526TIP3    H243774   2.801   4.448  10.358  0.0063 -2.3788  1.3797
 6527TIP3   OH243775   5.536   5.383   9.631  0.1889  0.3663  0.2322
 6527TIP3    H143776   5.496   5.459   9.589 -0.1110  0.5405  0.8330
 6527TIP3    H243777   5.462   5.329   9.659  0.3894 -0.6129 -0.9974
 6528TIP3   OH243778   4.205   1.469  10.153 -0.1073  0.7377 -0.3927
 6528TIP3    H143779   4.227   1.541  10.094  1.1991  0.0321 -0.7983
 6528TIP3    H243780   4.178   1.398  10.095  1.8747 -0.2032 -0.2471
 6529TIP3   OH243781   3.101   5.503  10.879 -0.1556 -0.3320 -0.2310
 6529TIP3    H143782   3.097   5.450  10.959 -1.1902  0.3853  0.2201
 6529TIP3    H243783   3.085   5.442  10.808  0.3008 -0.8953  0.1408
 6530TIP3   OH243784   2.443   5.476  10.873 -0.4454 -0.3715  0.2006
 6530TIP3    H143785   2.490   5.398  10.845  0.8030  0.1431  0.7832
 6530TIP3    H243786   2.388   5.447  10.946  0.5996 -0.5732  0.9321
 6531TIP3   OH243787   5.985   5.999  11.602 -0.2321  0.4886 -0.2381
 6531TIP3    H143788   6.013   6.081  11.642 -0.6588  1.0705 -1.1030
 6531TIP3    H243789   5.895   6.015  11.573 -0.9657 -0.8669  1.1501
 6532TIP3   OH243790   5.159   2.775   9.231 -0.1039  0.1162  0.0010
 6532TIP3    H143791   5.161   2.814   9.318 -0.0449  0.0505  0.0293
 6532TIP3    H243792   5.067   2.779   9.205 -0.3034 -0.7788  0.4914
 6533TIP3   OH243793   4.779   4.590   9.354 -0.4844  0.0654  0.0553
 6533TIP3    H143794   4.748   4.599   9.264  1.7187 -0.0900 -0.7650
 6533TIP3    H243795   4.747   4.504   9.382  1.0770 -1.1225 -1.5824
 6534TIP3   OH243796   1.278   1.618   9.066  0.2852  0.7770 -0.2467
 6534TIP3    H143797   1.190   1.632   9.103  0.1861 -0.3130 -0.0325
 6534TIP3    H243798   1.294   1.695   9.013 -0.6199  1.2070  0.0804
 6535TIP3   OH243799   0.413   1.027  10.423  0.0587 -0.0944  0.4392
 6535TIP3    H143800   0.391   0.975  10.346  0.4816 -0.3761  0.5092
 6535TIP3    H243801   0.431   1.115  10.389 -1.2300  0.1709  0.3827
 6536TIP3   OH243802   1.994   0.769   9.441 -0.3614  0.1910  0.2642
 6536TIP3    H143803   2.065   0.818   9.399 -0.0345 -0.5586 -0.0883
 6536TIP3    H243804   1.950   0.833   9.496  0.8072  0.5995  0.7581
 6537TIP3   OH243805   4.227   4.840  11.318  0.0409  0.1381  0.2459
 6537TIP3    H143806   4.282   4.763  11.330 -3.3510 -2.5758 -0.1805
 6537TIP3    H243807   4.207   4.841  11.224  0.3680  1.8552  0.1630
 6538TIP3   OH243808   3.856   5.830  10.083 -0.4882  0.2977  0.0443
 6538TIP3    H143809   3.937   5.798  10.123 -0.9453 -1.2357 -0.1717
 6538TIP3    H243810   3.885   5.896  10.020  0.7082 -0.8869 -0.7113
 6539TIP3   OH243811   1.944   0.058  10.224  0.5663  0.5368  0.4840
 6539TIP3    H143812   1.977  -0.029  10.199  0.2471  0.8897 -1.2625
 6539TIP3    H243813   1.858   0.064  10.183  0.1356  1.2993  1.4500
 6540TIP3   OH243814   2.611   4.989   8.850  0.4180 -0.0238 -0.5259
 6540TIP3    H143815   2.585   5.078   8.874  0.0860 -0.4398  0.7938
 6540TIP3    H243816   2.540   4.957   8.794  0.3104  0.3946 -0.6263
 6541TIP3   OH243817   3.268   0.813  10.231  0.0241  0.2597  0.2506
 6541TIP3    H143818   3.351   0.824  10.278 -0.0753  1.4539  0.1692
 6541TIP3    H243819   3.216   0.888  10.258 -0.6986 -0.0002 -0.4102
 6542TIP3   OH243820   0.120   3.887  10.662 -0.0070  0.0130 -0.1774
 6542TIP3    H143821   0.194   3.827  10.651 -1.0734 -1.4997  0.5780
 6542TIP3    H243822   0.161   3.973  10.675  1.6661 -0.9600  1.4828
 6543TIP3   OH243823   4.093   4.302   9.582 -0.5490 -0.2186 -0.1952
 6543TIP3    H143824   4.091   4.387   9.538  0.9294  0.0340  0.1555
 6543TIP3    H243825   4.139   4.244   9.520  0.3250 -0.2105  0.4357
 6544TIP3   OH243826   2.902   3.068  11.617 -0.1777  0.1223 -0.3233
 6544TIP3    H143827   2.976   3.008  11.610  0.8735  1.3499  0.0114
 6544TIP3    H243828   2.832   3.014  11.654  1.1221 -0.6129  1.2049
 6545TIP3   OH243829   3.288   2.552  11.571 -0.1851 -0.4310 -0.1443
 6545TIP3    H143830   3.351   2.481  11.588 -0.0655 -0.1032  0.7930
 6545TIP3    H243831   3.294   2.609  11.647 -0.8889  0.1543 -0.5152
 6546TIP3   OH243832   1.470   5.789   9.432 -0.3107 -0.4395  0.3476
 6546TIP3    H143833   1.484   5.871   9.385  0.5100  0.5444  2.2287
 6546TIP3    H243834   1.551   5.740   9.419  0.0864  0.0155  1.0658
 6547TIP3   OH243835   2.316   1.547   9.140 -0.1095 -0.0236  0.1766
 6547TIP3    H143836   2.327   1.454   9.120 -0.1846 -0.1101  0.5401
 6547TIP3    H243837   2.227   1.567   9.111  0.0299  0.0236 -0.2299
 6548TIP3   OH243838   0.564   1.560   9.377  0.1853  0.6870  0.0247
 6548TIP3    H143839   0.516   1.591   9.454 -0.0051 -2.6554  1.4400
 6548TIP3    H243840   0.656   1.576   9.398  0.1069  0.1943  0.8076
 6549TIP3   OH243841   0.715   4.332   9.811 -0.4874  0.2698  0.1625
 6549TIP3    H143842   0.700   4.264   9.745 -1.1095  1.1478 -0.6251
 6549TIP3    H243843   0.691   4.413   9.767 -2.1192  0.7538  1.8592
 6550TIP3   OH243844   5.725   4.378  10.964 -0.4859  0.4433 -0.2543
 6550TIP3    H143845   5.638   4.349  10.938 -0.0817  0.9618 -2.3455
 6550TIP3    H243846   5.721   4.383  11.059 -2.6624  0.2518 -0.2900
 6551TIP3   OH243847   1.227   4.817  10.709 -0.2767  0.1104 -0.5493
 6551TIP3    H143848   1.169   4.752  10.668 -1.4716 -0.1806  1.4746
 6551TIP3    H243849   1.188   4.902  10.685 -0.5435 -0.0303 -0.6197
 6552TIP3   OH243850   3.871   1.750   9.365 -0.0081  0.0218 -0.0640
 6552TIP3    H143851   3.814   1.827   9.365  1.7306  1.3763 -0.5817
 6552TIP3    H243852   3.940   1.772   9.303  2.4754 -0.4535  2.3425
 6553TIP3   OH243853   5.912   4.025   9.911 -0.2744 -0.5012  0.2596
 6553TIP3    H143854   5.904   4.018   9.816 -2.7657 -2.0120  0.5033
 6553TIP3    H243855   5.856   3.956   9.946  1.4323 -0.7294  2.8651
 6554TIP3   OH243856   5.109   2.361   9.720  0.2267  0.1027  0.3702
 6554TIP3    H143857   5.113   2.344   9.626  1.8781  0.7836  0.2801
 6554TIP3    H243858   5.195   2.399   9.741 -0.0142 -0.2855  2.2018
 6555TIP3   OH243859   3.531   3.620  11.863  0.2290  0.2746  0.2766
 6555TIP3    H143860   3.505   3.601  11.772 -2.5145 -0.1764  1.0371
 6555TIP3    H243861   3.616   3.579  11.873 -0.2726 -1.3764 -1.5735
 6556TIP3   OH243862   0.299   5.692   9.628 -0.5862  0.1264  0.1113
 6556TIP3    H143863   0.366   5.663   9.566  0.8340 -1.0786  2.1022
 6556TIP3    H243864   0.347   5.738   9.696 -1.5142 -2.0411  2.3700
 6557TIP3   OH243865   2.338   5.955  12.135  0.5652  0.0927  0.2628
 6557TIP3    H143866   2.309   6.029  12.082 -0.4389  0.1925  0.9345
 6557TIP3    H243867   2.301   5.878  12.092  0.9614  0.0423  0.0067
 6558TIP3   OH243868   5.576   5.076  10.386  0.6105 -0.2072  0.0199
 6558TIP3    H143869   5.602   5.168  10.396 -0.8692  0.1526  0.7276
 6558TIP3    H243870   5.494   5.080  10.336  1.2831 -1.2503 -1.2210
 6559TIP3   OH243871   0.037   4.684  11.300  0.4274 -0.4486  0.3633
 6559TIP3    H143872  -0.044   4.634  11.290 -0.0513  0.7362 -2.5671
 6559TIP3    H243873   0.026   4.730  11.384 -1.4518 -1.1206  0.5282
 6560TIP3   OH243874   4.651   2.832   8.620 -0.9538 -0.5590  0.0938
 6560TIP3    H143875   4.633   2.910   8.569 -0.4519  1.1047  2.2880
 6560TIP3    H243876   4.603   2.846   8.702  0.6797 -1.6376  1.2915
 6561TIP3   OH243877   0.832   1.401  10.728 -0.5386 -0.1522  0.1167
 6561TIP3    H143878   0.816   1.453  10.650 -1.3078 -0.4001  0.1064
 6561TIP3    H243879   0.819   1.462  10.801  1.7644  0.5189  0.0542
 6562TIP3   OH243880   3.232   1.353   8.710 -0.3592  0.1489  0.2263
 6562TIP3    H143881   3.191   1.427   8.756 -0.8327  0.5343 -0.7843
 6562TIP3    H243882   3.303   1.394   8.660 -0.9564  0.0228 -0.7561
 6563TIP3   OH243883   4.845   2.481  11.203  0.0787  0.2911 -0.2038
 6563TIP3    H143884   4.933   2.445  11.189  1.0264  1.6018  1.8995
 6563TIP3    H243885   4.791   2.439  11.136  2.6638  0.8453 -2.8046
 6564TIP3   OH243886   2.464   2.366   9.512  0.7434 -0.5162 -0.3432
 6564TIP3    H143887   2.462   2.282   9.558 -1.4781  0.6538  1.9238
 6564TIP3    H243888   2.538   2.412   9.551 -0.4905  0.0625  1.4347
 6565TIP3   OH243889   0.028   5.021  10.527 -0.2890  0.6052 -0.0934
 6565TIP3    H143890  -0.055   5.016  10.480 -0.9028  0.3895  0.9834
 6565TIP3    H243891   0.074   5.095  10.486 -1.0016  0.7207 -0.7093
 6566TIP3   OH243892   3.064   5.302  10.664 -0.8595  0.1097  0.3887
 6566TIP3    H143893   3.107   5.241  10.724 -0.3689 -0.0160 -0.0917
 6566TIP3    H243894   2.978   5.263  10.648 -0.5070 -0.5277 -0.0067
 6567TIP3   OH243895   1.331   3.414   9.692 -0.0502 -0.6273  0.5226
 6567TIP3    H143896   1.347   3.507   9.710 -0.5194  0.0547 -2.1227
 6567TIP3    H243897   1.263   3.389   9.754  0.0517  0.8037  1.2603
 6568TIP3   OH243898   5.171   2.337   9.217 -0.2757  0.5432 -0.3412
 6568TIP3    H143899   5.110   2.403   9.184  0.3583  0.2207 -2.3178
 6568TIP3    H243900   5.189   2.281   9.141  1.0937 -0.4355  0.6511
 6569TIP3   OH243901   2.120   2.302  11.105 -0.1363 -0.1412  0.3022
 6569TIP3    H143902   2.116   2.206  11.108  1.9530 -0.2677  0.4950
 6569TIP3    H243903   2.139   2.321  11.013  1.4880 -0.0637  0.6269
 6570TIP3   OH243904   5.946   4.863   9.247 -0.0013  0.2571 -0.1728
 6570TIP3    H143905   5.982   4.947   9.277  1.7839 -1.3631  2.6189
 6570TIP3    H243906   5.912   4.822   9.326  0.6109 -2.3504 -1.1755
 6571TIP3   OH243907   2.501   4.066  10.486 -0.9737  0.2041  0.4665
 6571TIP3    H143908   2.473   4.158  10.485  0.3017  0.6055  0.3743
 6571TIP3    H243909   2.426   4.019  10.450 -1.3371  1.3074 -0.3087
 6572TIP3   OH243910   1.563   5.665  10.290 -0.2956  0.1209  0.1495
 6572TIP3    H143911   1.526   5.699  10.209  1.0024  0.2089 -0.4166
 6572TIP3    H243912   1.646   5.711  10.301  0.0126 -0.6029  1.0079
 6573TIP3   OH243913   5.829   2.603   9.085  0.5778  0.5004  0.5214
 6573TIP3    H143914   5.820   2.508   9.093 -1.1831  0.6445  0.6429
 6573TIP3    H243915   5.857   2.617   8.994 -0.2685 -0.0802  0.1633
 6574TIP3   OH243916   5.719   4.996   9.672 -0.4534  0.3153  0.0040
 6574TIP3    H143917   5.653   5.032   9.612 -1.6285 -1.2419  0.2928
 6574TIP3    H243918   5.667   4.955   9.741  0.8397 -0.8361  0.3123
 6575TIP3   OH243919   3.255   1.337  10.297  0.4003 -0.2071  0.1079
 6575TIP3    H143920   3.305   1.261  10.265 -0.1940 -1.4265  1.9508
 6575TIP3    H243921   3.314   1.411  10.283  1.6896 -1.2419 -0.1655
 6576TIP3   OH243922   5.720   3.461  11.228  0.1591 -0.8601  0.2818
 6576TIP3    H143923   5.801   3.510  11.214 -0.2101 -0.3271 -0.0577
 6576TIP3    H243924   5.744   3.370  11.210  0.2278 -0.4815 -1.8856
 6577TIP3   OH243925   4.395   5.294   8.907  0.2188  0.2790  0.5343
 6577TIP3    H143926   4.379   5.206   8.943  0.6255  0.4825  1.2497
 6577TIP3    H243927   4.488   5.309   8.924  0.2932  0.6069 -0.1428
 6578TIP3   OH243928   2.172   0.245  11.514  0.2297 -0.1121  0.1083
 6578TIP3    H143929   2.093   0.235  11.567 -0.7475  0.5007 -1.1553
 6578TIP3    H243930   2.162   0.182  11.442 -0.0290  1.2137 -1.0684
 6579TIP3   OH243931   2.610   2.532  11.306  0.3085 -0.1731 -0.8965
 6579TIP3    H143932   2.525   2.488  11.311 -0.4036  1.2165 -0.0521
 6579TIP3    H243933   2.661   2.494  11.378  0.0297 -0.2744 -0.7506
 6580TIP3   OH243934   1.956   6.258  11.663  0.2690 -0.2198  0.3970
 6580TIP3    H143935   1.879   6.205  11.643  1.1207 -1.8598  1.2678
 6580TIP3    H243936   1.953   6.269  11.758  0.8536  0.0957  0.3811
 6581TIP3   OH243937   4.324   1.913  11.342  0.9129  0.1177 -0.2990
 6581TIP3    H143938   4.261   1.873  11.282  0.9620 -1.7463  0.8043
 6581TIP3    H243939   4.278   1.918  11.426  1.3544  1.2529 -0.1078
 6582TIP3   OH243940   5.196   3.489   9.229  0.3388 -0.5502 -0.5952
 6582TIP3    H143941   5.109   3.530   9.234  0.0227 -1.3244  0.4910
 6582TIP3    H243942   5.254   3.561   9.203 -0.3122  0.4319  0.5458
 6583TIP3   OH243943   3.101   3.871   9.201 -0.5158 -0.9388  0.5904
 6583TIP3    H143944   3.148   3.814   9.261  0.1074 -1.0435  0.0075
 6583TIP3    H243945   3.145   3.956   9.209 -0.3496 -0.9870  0.1819
 6584TIP3   OH243946   4.350   1.969   8.828 -0.3935  0.1093 -0.4451
 6584TIP3    H143947   4.290   1.902   8.861 -0.1872  0.5382  0.8723
 6584TIP3    H243948   4.333   1.973   8.734 -1.5247 -0.6664 -0.2886
 6585TIP3   OH243949   5.649   2.009  10.203  0.2349 -0.8718 -0.1164
 6585TIP3    H143950   5.576   2.042  10.151  1.0932 -1.9830 -2.1396
 6585TIP3    H243951   5.702   2.087  10.221  0.1330 -0.5006 -1.3041
 6586TIP3   OH243952   0.520   5.704  10.842 -0.0655  0.4234  0.0084
 6586TIP3    H143953   0.510   5.620  10.796  2.6519 -1.1877  2.0189
 6586TIP3    H243954   0.575   5.757  10.783  1.2361 -0.6313  0.2236
 6587TIP3   OH243955   3.050   2.757  10.523 -0.2142 -0.3929 -1.2368
 6587TIP3    H143956   3.025   2.819  10.591  0.2188 -0.2672 -1.1907
 6587TIP3    H243957   3.022   2.672  10.557  0.1203 -0.3463 -0.8397
 6588TIP3   OH243958   5.394   5.510  11.695 -0.0524 -0.0617  0.1928
 6588TIP3    H143959   5.350   5.498  11.778 -1.1173  2.0013  0.0005
 6588TIP3    H243960   5.485   5.483  11.711 -0.2613  0.2323  1.9922
 6589TIP3   OH243961   4.720   1.382   9.870  0.7559  0.6891 -0.7907
 6589TIP3    H143962   4.667   1.408   9.945  0.0366 -0.5523 -0.8360
 6589TIP3    H243963   4.764   1.462   9.842  0.7282  1.2495  0.7009
 6590TIP3   OH243964   5.198   1.255   8.635 -0.5004 -0.2422 -0.8811
 6590TIP3    H143965   5.137   1.298   8.575 -1.4461 -0.4398 -0.0879
 6590TIP3    H243966   5.283   1.261   8.591 -0.6725  1.9493 -1.0609
 6591TIP3   OH243967   2.693   0.463  11.381  0.1904  0.5152 -1.0247
 6591TIP3    H143968   2.756   0.527  11.348 -0.2700  0.3049 -2.4111
 6591TIP3    H243969   2.617   0.515  11.406  0.6501  0.7057  0.0139
 6592TIP3   OH243970   4.051   1.776  10.062  0.3068  0.2395  0.5296
 6592TIP3    H143971   4.091   1.708  10.008 -1.5668  0.2345 -0.9831
 6592TIP3    H243972   4.054   1.855  10.008 -1.1972  0.3435  0.5447
 6593TIP3   OH243973   0.197   0.813  10.958 -0.1076  0.2267 -0.2675
 6593TIP3    H143974   0.264   0.759  10.916 -1.8752 -2.4258  0.0743
 6593TIP3    H243975   0.173   0.876  10.890  1.5308  0.1635 -0.9658
 6594TIP3   OH243976   2.021   5.353   9.048 -0.7159  0.1559  0.4145
 6594TIP3    H143977   2.074   5.306   9.113 -0.8302  1.1601  1.2602
 6594TIP3    H243978   1.973   5.284   9.002 -0.6860 -0.5851  1.4468
 6595TIP3   OH243979   3.674   2.214   9.280 -0.2057 -0.1359  0.1637
 6595TIP3    H143980   3.581   2.236   9.279 -0.5567 -1.5165 -0.0977
 6595TIP3    H243981   3.710   2.257   9.202 -0.4990  0.8371  0.5487
 6596TIP3   OH243982   5.360   5.663  11.040 -0.3469 -0.0592 -0.6230
 6596TIP3    H143983   5.297   5.665  11.112 -1.7298 -0.3717 -1.7825
 6596TIP3    H243984   5.411   5.584  11.055 -1.5113 -0.8485 -0.6898
 6597TIP3   OH243985   5.502   3.095  10.201  0.0155  0.0431 -0.0681
 6597TIP3    H143986   5.407   3.093  10.213  0.0335 -0.1965  0.0355
 6597TIP3    H243987   5.537   3.105  10.289  0.0982 -0.2039 -0.0730
 6598TIP3   OH243988   3.005   2.560  10.926  0.2857 -0.7042 -0.6262
 6598TIP3    H143989   2.958   2.632  10.885  0.2110 -0.0773  0.5400
 6598TIP3    H243990   2.979   2.483  10.875 -1.8038 -0.3420 -0.1781
 6599TIP3   OH243991   3.220   5.860   9.017 -0.2296  0.2757 -0.1052
 6599TIP3    H143992   3.125   5.859   9.000 -0.3444  1.5647  0.3629
 6599TIP3    H243993   3.230   5.814   9.101 -0.2253 -1.4204 -0.9922
 6600TIP3   OH243994   4.471   4.623  10.758 -0.1713 -0.5551 -0.4333
 6600TIP3    H143995   4.537   4.586  10.699  0.6196 -0.9788  0.6981
 6600TIP3    H243996   4.478   4.572  10.838 -0.9713  0.2644  0.1835
 6601TIP3   OH243997   1.418   4.516  11.951 -0.3372  0.0922  0.0349
 6601TIP3    H143998   1.379   4.437  11.914 -1.3363  0.0340  1.1506
 6601TIP3    H243999   1.409   4.505  12.046 -0.8490  1.7169  0.2046
 6602TIP3   OH244000   3.871   2.059  10.925  0.1509  0.1365 -0.2712
 6602TIP3    H144001   3.909   2.079  11.010  2.5583 -1.1536 -0.9460
 6602TIP3    H244002   3.776   2.065  10.938  0.4767  0.4319  2.3454
 6603TIP3   OH244003   4.410   2.380   8.314  0.2274 -0.0780  0.1535
 6603TIP3    H144004   4.326   2.337   8.298  0.8786 -1.4006  0.1480
 6603TIP3    H244005   4.403   2.415   8.403 -0.4595  0.1605  0.0109
 6604TIP3   OH244006   2.248   6.009  10.528  0.3324 -0.1915 -0.1452
 6604TIP3    H144007   2.321   6.063  10.559 -1.3570  1.4162  1.2598
 6604TIP3    H244008   2.234   5.946  10.599  0.1667 -0.2966 -0.2721
 6605TIP3   OH244009   1.852   3.720   9.239 -0.4977  0.1525  0.1179
 6605TIP3    H144010   1.924   3.657   9.237 -1.4263 -0.9264 -1.4775
 6605TIP3    H244011   1.773   3.667   9.244 -1.2552  1.2578  0.4259
 6606TIP3   OH244012   1.286   4.691  11.178 -0.4850  0.5283 -0.0789
 6606TIP3    H144013   1.285   4.672  11.084  1.1419 -2.4904  0.3777
 6606TIP3    H244014   1.216   4.637  11.214 -0.7751  1.2899  0.5142
 6607TIP3   OH244015   5.185   6.346   9.614 -0.1031 -0.0256  0.2812
 6607TIP3    H144016   5.107   6.380   9.571 -0.3450  0.2233  0.9172
 6607TIP3    H244017   5.169   6.359   9.707  2.0099  2.9501  0.3543
 6608TIP3   OH244018   3.818   3.848   8.822  0.2859 -0.6883 -0.4599
 6608TIP3    H144019   3.818   3.774   8.883 -1.3235  0.0831  0.5522
 6608TIP3    H244020   3.734   3.842   8.777 -0.9830  1.7337  1.3004
 6609TIP3   OH244021   3.657   3.420  12.718  0.0120  0.2188  0.1899
 6609TIP3    H144022   3.695   3.411  12.805 -0.7268  0.0460  0.4937
 6609TIP3    H244023   3.594   3.349  12.711  0.1098  0.1928 -0.5155
 6610TIP3   OH244024   2.851   4.852  18.458 -0.8276 -0.6313 -0.8484
 6610TIP3    H144025   2.911   4.783  18.432 -0.3482  0.0575 -1.6139
 6610TIP3    H244026   2.765   4.810  18.460 -0.2202 -1.9074  1.3326
 6611TIP3   OH244027   5.147   6.590   9.853  0.7080 -0.2350 -0.3133
 6611TIP3    H144028   5.156   6.600   9.948  1.5107 -0.0173 -0.4017
 6611TIP3    H244029   5.123   6.499   9.840 -0.7800  0.0586  0.1745
 6612TIP3   OH244030   5.955   6.646  10.748 -0.4247 -0.3846  0.2068
 6612TIP3    H144031   6.014   6.591  10.800 -0.7390 -1.1370 -0.2252
 6612TIP3    H244032   5.870   6.604  10.757 -0.4620 -0.5858 -1.0050
 6613TIP3   OH244033   2.132   3.175   9.965  0.1149  0.4117 -0.5700
 6613TIP3    H144034   2.108   3.113  10.034  3.1023 -0.5044 -0.2400
 6613TIP3    H244035   2.059   3.238   9.964 -1.2994 -1.0543  1.5574
 6614TIP3   OH244036   5.427   6.526  11.117  0.3676  0.1100  0.2976
 6614TIP3    H144037   5.383   6.547  11.200  2.0386 -0.8376  1.4976
 6614TIP3    H244038   5.395   6.592  11.055 -1.2011  0.6359  1.5931
 6615TIP3   OH244039   4.969   1.080   8.686 -0.6889 -0.7170 -0.1166
 6615TIP3    H144040   4.911   1.156   8.697  0.1857  0.3037 -2.0349
 6615TIP3    H244041   5.055   1.118   8.669 -0.0719 -2.1607 -0.3745
 6616TIP3   OH244042   2.674   5.209  10.095  0.2307 -0.1607  0.2303
 6616TIP3    H144043   2.632   5.176  10.016 -0.3483  1.6363 -0.2691
 6616TIP3    H244044   2.646   5.149  10.164 -2.1130  0.1887 -0.3313
 6617TIP3   OH244045   5.880   5.016  10.970  0.1032 -0.1139 -0.4232
 6617TIP3    H144046   5.849   5.002  10.881  1.0188  0.2563 -0.8074
 6617TIP3    H244047   5.951   4.953  10.982  0.6405  0.4979 -0.3031
 6618TIP3   OH244048   4.886   1.571   8.776  0.1751 -0.5874  0.1110
 6618TIP3    H144049   4.826   1.564   8.850 -0.9277 -1.0034 -0.8006
 6618TIP3    H244050   4.940   1.647   8.796 -2.5417  1.6140 -0.3452
 6619TIP3   OH244051   5.319   2.870   8.627 -0.7522 -0.1321 -0.0256
 6619TIP3    H144052   5.279   2.790   8.593  0.5116 -0.8746  0.1953
 6619TIP3    H244053   5.381   2.841   8.693 -0.6414  1.0710  0.4336
 6620TIP3   OH244054   5.151   2.835   9.506  0.3924  0.0445 -0.0673
 6620TIP3    H144055   5.138   2.925   9.535 -0.6543 -0.1434  0.0777
 6620TIP3    H244056   5.132   2.782   9.583  1.0060 -0.3089 -0.1525
 6621TIP3   OH244057   1.132   6.314  11.971 -0.4781 -0.4083 -0.0746
 6621TIP3    H144058   1.176   6.369  12.036 -1.0736  2.0889 -1.6333
 6621TIP3    H244059   1.193   6.242  11.955  1.5160  1.0878  0.3349
 6622TIP3   OH244060   1.487   2.631   9.433 -0.0360  0.2770  0.0637
 6622TIP3    H144061   1.546   2.565   9.395  0.7881  0.8842  0.2535
 6622TIP3    H244062   1.431   2.581   9.492  0.4987 -0.2824  0.1184
 6623TIP3   OH244063   2.643   6.262  10.567  0.0115 -0.4279 -0.1177
 6623TIP3    H144064   2.569   6.218  10.610  0.7885 -0.1420  1.6183
 6623TIP3    H244065   2.692   6.191  10.525  0.4915 -1.1085  1.4791
 6624TIP3   OH244066   5.127   1.393   9.720 -0.6023  0.3809 -0.4949
 6624TIP3    H144067   5.053   1.451   9.702 -1.0679  0.1917  0.7100
 6624TIP3    H244068   5.157   1.419   9.808  0.8625  0.5453 -1.0120
 6625TIP3   OH244069   0.264   0.621   8.351  0.5643  0.6534 -0.3254
 6625TIP3    H144070   0.197   0.673   8.306  0.5022 -0.7517 -1.9795
 6625TIP3    H244071   0.227   0.532   8.353  0.6490  0.6173  2.4447
 6626TIP3   OH244072   4.928   3.561   9.247  0.2244  0.6062  0.3437
 6626TIP3    H144073   4.878   3.634   9.209 -0.8122 -0.8197 -1.1916
 6626TIP3    H244074   4.872   3.485   9.234  1.7170 -0.6484  0.9703
 6627TIP3   OH244075   2.233   3.085  11.827 -0.3442  0.0928 -0.2813
 6627TIP3    H144076   2.245   3.013  11.766  0.4672 -0.6105  0.6734
 6627TIP3    H244077   2.199   3.157  11.774  0.3388 -0.4926 -1.5354
 6628TIP3   OH244078   6.010   2.831  10.936  0.4996 -0.0204 -0.1036
 6628TIP3    H144079   6.040   2.769  10.870 -0.4772  0.8947 -1.4434
 6628TIP3    H244080   5.977   2.776  11.007 -0.3325 -1.0573 -1.2585
 6629TIP3   OH244081   3.599   2.667  10.717 -0.3065 -0.2087  0.1060
 6629TIP3    H144082   3.659   2.664  10.791 -0.9489  0.5562  0.6753
 6629TIP3    H244083   3.654   2.653  10.640  0.2121 -2.2995  0.7827
 6630TIP3   OH244084   0.089   2.822  11.867  0.3384 -0.4396 -0.8930
 6630TIP3    H144085   0.100   2.901  11.920 -1.6827  0.1300 -1.2292
 6630TIP3    H244086   0.068   2.754  11.931 -0.0983 -0.2002 -0.7759
 6631TIP3   OH244087   0.619   2.200   9.209 -0.0717 -0.4515  0.4416
 6631TIP3    H144088   0.647   2.170   9.295  0.8269 -0.7346  0.0640
 6631TIP3    H244089   0.612   2.295   9.218 -0.0898 -0.4900  0.8523
 6632TIP3   OH244090   0.631   1.651  10.476 -0.4231 -0.5721  0.3974
 6632TIP3    H144091   0.658   1.697  10.556  0.5655 -0.8949  0.2631
 6632TIP3    H244092   0.691   1.577  10.470 -1.2651 -1.2254 -0.0085
 6633TIP3   OH244093   4.329   5.113  12.950  0.1877 -0.8352 -0.1429
 6633TIP3    H144094   4.395   5.108  12.880 -0.6691 -0.4066 -1.0106
 6633TIP3    H244095   4.250   5.076  12.911 -0.8222  1.1017 -0.0525
 6634TIP3   OH244096   2.696   4.313  12.251 -0.0910  0.5576 -0.5591
 6634TIP3    H144097   2.634   4.350  12.188 -2.2781  0.8307  1.6064
 6634TIP3    H244098   2.715   4.385  12.311  1.2073  0.0638 -0.3480
 6635TIP3   OH244099   5.537   4.707  10.792  0.3475 -0.5754  0.2886
 6635TIP3    H144100   5.537   4.777  10.728 -0.3899 -1.0769 -0.2736
 6635TIP3    H244101   5.569   4.630  10.744 -2.1958 -1.4895 -0.1336
 6636TIP3   OH244102   1.983   0.395  10.539 -0.2012  0.1713 -0.3289
 6636TIP3    H144103   1.889   0.375  10.538 -0.3356  0.6801  1.0978
 6636TIP3    H244104   2.021   0.328  10.595 -0.1100  1.5383  1.3102
 6637TIP3   OH244105   6.532   4.129  10.284 -0.2644  0.5275  0.1528
 6637TIP3    H144106   6.511   4.196  10.348  1.6475  0.1616  1.2519
 6637TIP3    H244107   6.498   4.048  10.322 -0.9040  0.5855 -0.2770
 6638TIP3   OH244108   5.126   1.258  10.434 -0.0511 -0.3663 -0.8185
 6638TIP3    H144109   5.193   1.280  10.499 -1.4325  1.6723  0.0385
 6638TIP3    H244110   5.056   1.217  10.486  0.1617 -1.7142 -1.5643
 6639TIP3   OH244111   3.072   3.551  13.389 -0.4503 -0.2384  0.2396
 6639TIP3    H144112   3.100   3.600  13.466 -0.2725 -1.7415  1.1760
 6639TIP3    H244113   3.019   3.479  13.424 -2.6988  0.5699 -1.2487
 6640TIP3   OH244114   2.150   2.657  10.511 -0.3453  0.3086  0.3185
 6640TIP3    H144115   2.081   2.597  10.482  0.5805 -0.9621  0.6797
 6640TIP3    H244116   2.106   2.715  10.574 -1.0011 -0.7666  0.8901
 6641TIP3   OH244117   0.294   5.647  11.670 -0.3222 -0.3508  0.3242
 6641TIP3    H144118   0.243   5.603  11.738 -0.1467 -1.2055 -0.0816
 6641TIP3    H244119   0.365   5.691  11.718 -0.5147 -0.4800  0.7356
 6642TIP3   OH244120   5.903   3.666  10.124 -0.2559 -0.6069  0.0654
 6642TIP3    H144121   5.963   3.695  10.192 -1.5295 -0.7736  1.3054
 6642TIP3    H244122   5.948   3.685  10.042  1.1281  0.0101  0.9405
 6643TIP3   OH244123   5.767   5.750   9.436 -0.4157 -0.7924  0.5324
 6643TIP3    H144124   5.694   5.806   9.464 -0.5417 -0.9614  0.5428
 6643TIP3    H244125   5.822   5.808   9.384 -0.8511 -0.8027  0.0483
 6644TIP3   OH244126   4.670   1.919  11.384  0.2332  0.0718  0.5370
 6644TIP3    H144127   4.580   1.903  11.357 -0.6227  1.4970  2.4007
 6644TIP3    H244128   4.664   1.978  11.458  2.6643 -0.6157  1.3936
 6645TIP3   OH244129   3.197   2.578  12.263 -0.0980 -0.1927  0.3807
 6645TIP3    H144130   3.230   2.546  12.347 -1.6792  1.8585  1.9148
 6645TIP3    H244131   3.245   2.660  12.248 -1.2412  0.5020  0.3648
 6646TIP3   OH244132   0.076   2.327  10.367 -0.2140  0.0123 -0.1033
 6646TIP3    H144133   0.140   2.284  10.424 -0.0975 -0.5247 -0.6272
 6646TIP3    H244134  -0.009   2.307  10.406 -0.1421 -0.4480 -0.1803
 6647TIP3   OH244135   0.583   0.412  10.706 -0.2674 -0.5110 -0.1151
 6647TIP3    H144136   0.670   0.381  10.728 -0.0843 -1.0128 -1.4205
 6647TIP3    H244137   0.552   0.457  10.785 -0.0718 -2.9552  1.4477
 6648TIP3   OH244138   1.982   2.851  11.239 -0.2312  0.1725 -0.5159
 6648TIP3    H144139   1.970   2.770  11.288 -2.6376  0.4159 -0.5817
 6648TIP3    H244140   2.075   2.871  11.248 -0.0383 -1.3165  1.5094
 6649TIP3   OH244141   5.164   4.136  10.437  0.4265  0.2948 -0.3138
 6649TIP3    H144142   5.129   4.207  10.384  1.1795  1.4615  0.6819
 6649TIP3    H244143   5.248   4.115  10.396  0.5124  0.4518 -0.2200
 6650TIP3   OH244144   3.981   0.781   9.995  0.3169  0.1503  0.4571
 6650TIP3    H144145   4.063   0.740   9.968  0.7764  0.9489  0.5979
 6650TIP3    H244146   3.954   0.833   9.920 -0.9596 -1.3914 -0.2180
 6651TIP3   OH244147   2.930   2.744  11.175 -0.1889  0.1744  0.2496
 6651TIP3    H144148   3.006   2.729  11.120 -0.2935  1.1708 -0.1917
 6651TIP3    H244149   2.855   2.728  11.117 -0.2995  1.4528  0.0009
 6652TIP3   OH244150   5.777   4.134   9.342  0.6015  0.2661 -0.2893
 6652TIP3    H144151   5.830   4.206   9.307  0.2677  0.7524  0.1868
 6652TIP3    H244152   5.841   4.076   9.384  0.8639  0.3142 -0.6139
 6653TIP3   OH244153   3.139   3.685  11.206 -0.3660  0.6389  1.0728
 6653TIP3    H144154   3.146   3.718  11.117 -0.7808  0.6713  1.0518
 6653TIP3    H244155   3.050   3.707  11.233 -0.0442  1.1864  1.7166
 6654TIP3   OH244156   5.990   0.098   8.608 -0.1171 -0.4295 -0.3212
 6654TIP3    H144157   6.014   0.084   8.516  1.7949 -0.4026  0.1379
 6654TIP3    H244158   6.059   0.055   8.658  0.6495  2.2481  1.1196
 6655TIP3   OH244159   0.920   5.646   8.654 -0.1296  0.6080  0.2898
 6655TIP3    H144160   0.891   5.555   8.661 -0.0876  0.5713 -0.0343
 6655TIP3    H244161   0.877   5.679   8.576  0.0913  0.7813  0.2419
 6656TIP3   OH244162   5.944   5.448  10.683  0.2372  0.4783 -0.5073
 6656TIP3    H144163   5.935   5.518  10.748  0.4696  0.0750 -0.0309
 6656TIP3    H244164   5.956   5.494  10.600  0.4545  1.0048 -0.1903
 6657TIP3   OH244165   2.069   6.193  10.929  0.2754  0.3691 -0.1208
 6657TIP3    H144166   2.147   6.153  10.967 -1.4210 -2.5052  0.6699
 6657TIP3    H244167   2.058   6.149  10.845 -0.1681  1.2127 -0.5153
 6658TIP3   OH244168   3.975   0.575  10.493 -0.0738 -0.5554 -0.1206
 6658TIP3    H144169   3.988   0.636  10.420  0.3783 -0.2161  0.2411
 6658TIP3    H244170   3.891   0.534  10.475 -0.0096 -0.4018 -0.7863
 6659TIP3   OH244171   6.127   1.191  10.131  0.2649 -0.3632 -0.0530
 6659TIP3    H144172   6.114   1.224  10.043 -0.6720 -1.6436 -0.4170
 6659TIP3    H244173   6.164   1.103  10.119 -0.9496 -1.0195  0.7824
 6660TIP3   OH244174   0.842   1.550  11.008  0.1382  0.3649 -0.4157
 6660TIP3    H144175   0.761   1.545  11.058 -0.3769 -1.1329 -1.3512
 6660TIP3    H244176   0.886   1.629  11.041 -2.3783  2.1013 -0.9814
 6661TIP3   OH244177   4.160   5.002  12.788 -0.0925 -0.1410  0.3712
 6661TIP3    H144178   4.135   5.064  12.719  0.9589  0.3402  0.4142
 6661TIP3    H244179   4.076   4.968  12.820 -0.7135  1.3981  0.4835
 6662TIP3   OH244180   3.440   1.116   9.876  0.5134  0.2479 -0.0092
 6662TIP3    H144181   3.535   1.128   9.878  0.4694  0.5441  0.5649
 6662TIP3    H244182   3.405   1.201   9.852  0.4278 -0.1020 -1.1753
 6663TIP3   OH244183   4.369   2.243   8.876 -0.0711 -0.1387 -0.3857
 6663TIP3    H144184   4.455   2.285   8.876  1.1550 -2.4111  1.1778
 6663TIP3    H244185   4.383   2.162   8.827 -0.0934 -2.5107  3.1590
 6664TIP3   OH244186   4.290   4.615  10.170  0.5380 -0.1516  0.3941
 6664TIP3    H144187   4.198   4.635  10.153  0.1620 -1.3285  0.9268
 6664TIP3    H244188   4.309   4.657  10.254  0.2633 -0.5018  0.6375
 6665TIP3   OH244189   4.752   4.207  11.138 -0.0495 -0.8519  0.0592
 6665TIP3    H144190   4.707   4.270  11.081  0.0520 -0.3630  0.5112
 6665TIP3    H244191   4.726   4.122  11.104 -1.7728 -0.6068  0.6247
 6666TIP3   OH244192   4.880   2.422  10.669 -0.1630  0.4234 -0.9055
 6666TIP3    H144193   4.822   2.491  10.637 -0.2441  0.9266  0.2921
 6666TIP3    H244194   4.965   2.441  10.628 -0.2830  1.0049 -0.8938
 6667TIP3   OH244195   2.642   2.119  10.000 -0.0171  0.3415 -0.1796
 6667TIP3    H144196   2.673   2.119  10.091 -1.9880  1.1876  0.5462
 6667TIP3    H244197   2.579   2.047   9.996 -0.9721  1.1636 -0.4606
 6668TIP3   OH244198   3.568   0.254   8.865  0.1812 -0.3735 -0.4096
 6668TIP3    H144199   3.555   0.343   8.831 -0.6006 -0.2328  0.2312
 6668TIP3    H244200   3.480   0.217   8.870  0.6230 -1.7406 -2.0831
 6669TIP3   OH244201   4.433   6.029  10.344  0.2851 -0.5351 -0.3339
 6669TIP3    H144202   4.442   6.120  10.317 -0.6744 -0.1111  0.6561
 6669TIP3    H244203   4.460   5.978  10.268  3.7659  0.5040  0.0555
 6670TIP3   OH244204   1.610   5.386   9.512 -0.0132 -0.7482  0.0775
 6670TIP3    H144205   1.587   5.406   9.603 -1.4940 -1.2200 -0.1615
 6670TIP3    H244206   1.626   5.471   9.472 -0.2847 -0.4677  0.5565
 6671TIP3   OH244207   6.042   5.838  11.021  0.2532  0.0926 -0.4687
 6671TIP3    H144208   5.990   5.897  11.076 -1.8246 -0.9630 -1.1945
 6671TIP3    H244209   6.078   5.896  10.953 -0.2487  0.8084 -0.1428
 6672TIP3   OH244210   2.166   3.125   9.702  0.2909 -0.5368 -0.0704
 6672TIP3    H144211   2.166   3.143   9.796  0.1532  0.2219 -0.2131
 6672TIP3    H244212   2.190   3.208   9.661  0.3217 -0.8537 -0.7086
 6673TIP3   OH244213   2.369   6.474  11.178  0.2206  0.2603 -0.2637
 6673TIP3    H144214   2.335   6.452  11.264  0.2432  1.1643 -0.0126
 6673TIP3    H244215   2.463   6.458  11.184  0.1625 -0.0693 -0.2468
 6674TIP3   OH244216   6.648   1.337  10.215 -0.3374 -0.0446 -0.0659
 6674TIP3    H144217   6.601   1.259  10.185  0.5276 -0.8499  0.6618
 6674TIP3    H244218   6.739   1.321  10.193 -0.0862  0.5707  0.4947
 6675TIP3   OH244219   1.368   4.133  11.157  0.8132  0.2328  0.8105
 6675TIP3    H144220   1.381   4.075  11.231 -1.1069  0.8650  1.7253
 6675TIP3    H244221   1.448   4.186  11.153  0.6264  0.7975  3.0367
 6676TIP3   OH244222   2.255   1.176   9.243 -0.1747 -0.2010 -0.3838
 6676TIP3    H144223   2.281   1.240   9.177  2.5802  0.0159  0.8009
 6676TIP3    H244224   2.289   1.093   9.209  0.0649 -0.3047  0.1016
 6677TIP3   OH244225   2.659   3.240  12.773 -0.1146  0.2629 -0.5309
 6677TIP3    H144226   2.584   3.222  12.830 -0.9651  1.7391 -1.1236
 6677TIP3    H244227   2.707   3.158  12.769  0.1593  0.1780  2.5381
 6678TIP3   OH244228   3.490   0.581   9.068  0.6703 -0.3370 -0.2063
 6678TIP3    H144229   3.453   0.669   9.064  0.6184 -0.2948  0.9378
 6678TIP3    H244230   3.556   0.586   9.137 -1.7050 -2.0102  2.4301
 6679TIP3   OH244231   4.528   1.247  12.365  0.5624 -0.4920 -0.1973
 6679TIP3    H144232   4.498   1.332  12.332 -0.0731 -1.7500 -3.1575
 6679TIP3    H244233   4.620   1.242  12.340  0.5314 -0.7690 -0.2624
 6680TIP3   OH244234   1.291   4.763  12.117 -0.1536 -1.3076  0.2500
 6680TIP3    H144235   1.304   4.677  12.157 -0.2370 -0.3021  2.6017
 6680TIP3    H244236   1.196   4.773  12.112 -0.1969 -2.3414 -2.4598
 6681TIP3   OH244237   3.876   5.080   8.863 -0.2794  0.4875  0.3447
 6681TIP3    H144238   3.904   5.165   8.898 -0.5680  0.3114  1.0105
 6681TIP3    H244239   3.847   5.031   8.940 -1.7766  0.4215 -0.2507
 6682TIP3   OH244240   2.864   1.112  11.091  0.0340  0.1323 -0.1758
 6682TIP3    H144241   2.917   1.148  11.162  0.0350  1.3279 -0.7452
 6682TIP3    H244242   2.836   1.027  11.122 -0.1701  0.7340  1.3548
 6683TIP3   OH244243   0.584   0.371  11.257  0.4554 -0.0037 -0.0076
 6683TIP3    H144244   0.598   0.283  11.222  2.0431  0.4431 -0.5891
 6683TIP3    H244245   0.630   0.371  11.340  0.6201  0.3284 -0.0969
 6684TIP3   OH244246   5.549   0.102  11.585  0.4835  0.1790 -0.2463
 6684TIP3    H144247   5.525   0.099  11.678  0.8271 -0.6536 -0.1746
 6684TIP3    H244248   5.627   0.158  11.582  0.5533  0.0944 -0.0107
 6685TIP3   OH244249   1.839   0.338  10.819 -0.7051 -0.6484 -0.6417
 6685TIP3    H144250   1.871   0.249  10.810 -0.2616 -0.3475 -2.4054
 6685TIP3    H244251   1.744   0.329  10.825 -0.5703 -1.3196  1.0431
 6686TIP3   OH244252   2.577   0.433   9.386 -0.0707  0.0738 -0.4920
 6686TIP3    H144253   2.567   0.506   9.326 -0.8634 -0.1922 -0.7019
 6686TIP3    H244254   2.558   0.470   9.473  0.7441  0.3821 -0.4384
 6687TIP3   OH244255   0.389   3.706  10.034 -0.2851 -0.4919 -0.0719
 6687TIP3    H144256   0.408   3.761   9.958 -0.0535 -0.9517 -0.3509
 6687TIP3    H244257   0.457   3.727  10.097 -0.5618 -0.0037  0.0657
 6688TIP3   OH244258   2.566   3.744   9.325  0.0520 -0.4508 -0.7231
 6688TIP3    H144259   2.514   3.696   9.390 -1.0951  0.4016 -0.9760
 6688TIP3    H244260   2.653   3.705   9.331  0.4516  0.6277  2.4499
 6689TIP3   OH244261   4.990   3.427  10.971 -0.6452  1.2867 -0.4788
 6689TIP3    H144262   4.928   3.407  10.901 -1.0590  0.1295  0.1891
 6689TIP3    H244263   4.935   3.454  11.044 -0.3987  0.1032  0.1665
 6690TIP3   OH244264   0.163   2.494   9.322  0.1869 -0.6729 -0.1748
 6690TIP3    H144265   0.203   2.415   9.359  1.3386 -0.2815 -0.5283
 6690TIP3    H244266   0.169   2.559   9.392 -2.6526 -1.4007  0.8868
 6691TIP3   OH244267   0.957   0.038  11.336 -0.1264 -0.2446  0.3695
 6691TIP3    H144268   1.008   0.112  11.304 -0.3458 -0.7756 -1.2780
 6691TIP3    H244269   0.949   0.054  11.430  2.7111  0.0821  0.6440
 6692TIP3   OH244270   3.139   3.832  10.969 -0.7094  0.3389 -1.0080
 6692TIP3    H144271   3.225   3.818  10.930  0.0328 -1.1990  0.9792
 6692TIP3    H244272   3.109   3.916  10.935  2.3447  1.7720 -0.4503
 6693TIP3   OH244273   5.491   4.260  10.906 -1.2517  0.5103 -0.1416
 6693TIP3    H144274   5.519   4.205  10.980 -1.0438  1.1922  0.2920
 6693TIP3    H244275   5.397   4.274  10.921 -0.7472  2.7383  1.4161
 6694TIP3   OH244276   0.814   5.197  11.595 -0.5004  0.2820  0.1482
 6694TIP3    H144277   0.756   5.157  11.530 -0.8149  0.7640  0.1202
 6694TIP3    H244278   0.874   5.127  11.621 -0.1557  0.1748 -0.9043
 6695TIP3   OH244279   4.126   1.902   8.356 -0.0261 -0.5628  0.2123
 6695TIP3    H144280   4.047   1.901   8.410  0.1124  0.5371  0.4570
 6695TIP3    H244281   4.146   1.810   8.341 -2.2153 -0.8911 -1.1363
 6696TIP3   OH244282   1.553   6.327   9.665 -0.0774  0.1686 -0.5424
 6696TIP3    H144283   1.628   6.301   9.718  0.1825 -0.7013 -1.2967
 6696TIP3    H244284   1.589   6.345   9.579 -0.6353  0.4615 -0.7204
 6697TIP3   OH244285   4.885   2.545   8.441 -0.0671 -0.1369  0.3768
 6697TIP3    H144286   4.808   2.567   8.494 -1.2161  2.6711 -2.1529
 6697TIP3    H244287   4.850   2.497   8.366  0.7164  0.3969 -0.3597
 6698TIP3   OH244288   4.279   5.083   9.041  0.5444 -0.4827  0.5656
 6698TIP3    H144289   4.272   5.013   8.976  1.5858 -0.9407  0.9192
 6698TIP3    H244290   4.193   5.126   9.040  1.2727  1.1675 -2.9223
 6699TIP3   OH244291   4.502   1.330   9.638  0.3535 -0.1320  0.1294
 6699TIP3    H144292   4.565   1.335   9.710  1.0964 -0.2894 -0.4954
 6699TIP3    H244293   4.496   1.420   9.605 -1.5448  0.3654  1.6638
 6700TIP3   OH244294   5.605   6.124   8.685  0.4761 -0.3097  0.1776
 6700TIP3    H144295   5.631   6.194   8.744  0.5651 -0.1411 -0.0638
 6700TIP3    H244296   5.674   6.121   8.618 -0.7148  0.9451 -1.1591
 6701TIP3   OH244297   0.626   2.259   9.518 -0.3295 -0.6075  0.8659
 6701TIP3    H144298   0.680   2.338   9.518  1.1236 -1.5570  0.0415
 6701TIP3    H244299   0.648   2.215   9.600 -1.2440 -0.1094  1.3916
 6702TIP3   OH244300   2.368   1.321   8.991 -0.5209 -0.5337  0.3251
 6702TIP3    H144301   2.356   1.249   8.930 -0.2032  0.1102 -0.5084
 6702TIP3    H244302   2.400   1.394   8.938  0.1953 -0.0883  1.3217
 6703TIP3   OH244303   6.083   6.185  10.410  0.1151  0.3014  0.2095
 6703TIP3    H144304   6.147   6.115  10.399 -0.9028 -0.4412 -1.4501
 6703TIP3    H244305   6.101   6.246  10.340 -1.3179 -0.2300 -0.6795
 6704TIP3   OH244306   6.338   5.095   8.960 -0.1247  0.4571  0.2932
 6704TIP3    H144307   6.299   5.085   8.873  1.8486 -0.7056 -0.5363
 6704TIP3    H244308   6.327   5.188   8.981  1.8794  1.4986 -2.5514
 6705TIP3   OH244309   1.826   6.308   9.681 -0.2607  0.0954  0.9768
 6705TIP3    H144310   1.866   6.273   9.600 -2.0198  1.9343 -0.7994
 6705TIP3    H244311   1.901   6.339   9.732  0.8368  0.4418 -0.7334
 6706TIP3   OH244312   6.012   1.332   8.929 -0.3953  0.5758 -0.3123
 6706TIP3    H144313   5.976   1.353   9.015 -0.6266  0.9945 -0.5086
 6706TIP3    H244314   5.988   1.240   8.915  0.2884  0.2705  0.3828
 6707TIP3   OH244315   4.588   4.218  12.997  0.1125  0.5515 -0.2082
 6707TIP3    H144316   4.599   4.309  13.026 -0.0557  0.6322 -0.3980
 6707TIP3    H244317   4.626   4.166  13.068 -0.1707  0.7542  0.0975
 6708TIP3   OH244318   5.266   4.087   9.170 -0.0243  0.0004  0.2936
 6708TIP3    H144319   5.186   4.035   9.162 -1.0003  1.4003  0.5769
 6708TIP3    H244320   5.333   4.024   9.199 -0.5968 -1.5181 -1.4896
 6709TIP3   OH244321   0.202   5.167   9.806  0.1013  0.1052 -0.1442
 6709TIP3    H144322   0.131   5.103   9.792  1.4959 -1.4782 -0.2889
 6709TIP3    H244323   0.211   5.211   9.722 -1.5818  1.3125  0.2507
 6710TIP3   OH244324   2.828   4.694   8.676  0.2604 -0.2099  0.1413
 6710TIP3    H144325   2.736   4.717   8.686 -0.2725 -2.0174 -0.3059
 6710TIP3    H244326   2.845   4.630   8.745  0.8606 -0.7423 -0.4886
 6711TIP3   OH244327   0.868   6.591   9.539  0.3948  0.2326  0.7391
 6711TIP3    H144328   0.914   6.543   9.471  1.0036  1.8798 -0.0547
 6711TIP3    H244329   0.925   6.586   9.616  1.1700  0.9035  0.2253
 6712TIP3   OH244330   3.413   3.053   9.260  0.3528 -0.4875 -0.2252
 6712TIP3    H144331   3.413   3.127   9.321  1.3618  1.1209 -2.0563
 6712TIP3    H244332   3.327   3.012   9.271 -0.1747  0.8714  0.9389
 6713TIP3   OH244333   4.158   0.471  10.266 -0.8572  0.2162 -0.2649
 6713TIP3    H144334   4.167   0.468  10.362  0.2937 -1.8003 -0.4091
 6713TIP3    H244335   4.113   0.554  10.250 -0.2729  1.0374  1.9585
 6714TIP3   OH244336   6.053   0.411  10.819  0.1291 -0.7101  0.0389
 6714TIP3    H144337   6.120   0.458  10.868 -0.9104  0.0309  0.7775
 6714TIP3    H244338   6.046   0.326  10.863 -0.2506 -0.3388  0.7062
 6715TIP3   OH244339   1.808   6.457  11.021  0.4638 -0.0665 -0.1943
 6715TIP3    H144340   1.779   6.368  11.035  0.6633 -0.0263  0.5428
 6715TIP3    H244341   1.734   6.501  10.979  0.2063 -0.4668 -0.1602
 6716TIP3   OH244342   3.752   4.303  11.542 -0.1570  0.2542  0.0048
 6716TIP3    H144343   3.827   4.319  11.484  1.1717 -2.7788  0.7144
 6716TIP3    H244344   3.697   4.242  11.493 -1.5237  1.3823  0.0703
 6717TIP3   OH244345   0.269   5.854  10.008 -0.0633 -0.0451  0.1653
 6717TIP3    H144346   0.338   5.843  10.073 -0.6104 -0.4603  0.6997
 6717TIP3    H244347   0.204   5.788  10.032 -1.7862  1.9047  1.1729
 6718TIP3   OH244348   3.990   4.852  11.884  0.0428  0.7331  0.2028
 6718TIP3    H144349   3.934   4.777  11.906  0.5973  0.4363  0.6494
 6718TIP3    H244350   4.034   4.826  11.803  1.1455  0.0426  0.9916
 6719TIP3   OH244351   1.675   6.441   9.441  0.2956  0.3487  0.6794
 6719TIP3    H144352   1.770   6.451   9.448  0.5806  0.1204 -1.9098
 6719TIP3    H244353   1.663   6.380   9.368 -1.8411  1.8807 -0.3529
 6720TIP3   OH244354   4.896   6.482  10.564 -0.1962 -0.1960  0.2104
 6720TIP3    H144355   4.823   6.442  10.518  0.9488 -1.0264 -0.9588
 6720TIP3    H244356   4.911   6.565  10.519 -0.9973  0.4319  1.0618
 6721TIP3   OH244357   5.576   2.477   9.964  0.0238 -0.4883  0.4378
 6721TIP3    H144358   5.653   2.425   9.989 -0.3626 -0.5885  1.4550
 6721TIP3    H244359   5.517   2.469  10.038 -0.4205  0.6819  0.2271
 6722TIP3   OH244360   4.531   1.074   9.270 -0.3370  0.3405  0.1965
 6722TIP3    H144361   4.471   1.149   9.260 -1.5933 -0.4586  1.4485
 6722TIP3    H244362   4.617   1.110   9.247 -1.1120  1.8016 -0.6104
 6723TIP3   OH244363   3.811   1.111  10.005  0.4429 -0.7403 -0.2802
 6723TIP3    H144364   3.862   1.083  10.080 -0.3945 -0.4746  0.4041
 6723TIP3    H244365   3.771   1.031   9.970  0.3422 -0.7814 -0.0693
 6724TIP3   OH244366   5.202   3.267  12.470 -0.2716 -0.2975 -0.0000
 6724TIP3    H144367   5.226   3.227  12.386 -0.6196  1.3110 -0.8988
 6724TIP3    H244368   5.244   3.211  12.536  0.0165 -1.5890 -1.2334
 6725TIP3   OH244369   2.927   4.019  10.377 -0.2164  0.4335  0.4706
 6725TIP3    H144370   2.841   3.982  10.358 -0.2013  1.2304 -1.4364
 6725TIP3    H244371   2.973   4.017  10.293  1.1817  1.1505  1.1831
 6726TIP3   OH244372   4.614   6.324   9.988  0.3810 -0.1836 -0.6319
 6726TIP3    H144373   4.631   6.237   9.951  1.8985  0.0365 -0.5206
 6726TIP3    H244374   4.696   6.372   9.975 -0.4600  1.2670 -0.7703
 6727TIP3   OH244375   4.727   2.356  10.943  0.1826 -0.3345 -0.4354
 6727TIP3    H144376   4.750   2.288  11.007  0.6052  0.0529 -0.1753
 6727TIP3    H244377   4.770   2.329  10.862  0.7683 -0.1142 -0.2001
 6728TIP3   OH244378   4.279   3.226  11.780 -0.2592 -0.2120 -0.0926
 6728TIP3    H144379   4.246   3.314  11.798 -0.5579 -0.5058  0.8747
 6728TIP3    H244380   4.272   3.217  11.685 -0.1714  0.8238 -0.2128
 6729TIP3   OH244381   6.665   3.484  10.047  0.2567 -0.1738 -0.0207
 6729TIP3    H144382   6.757   3.507  10.061 -0.2303  1.9676 -0.0329
 6729TIP3    H244383   6.648   3.509   9.956 -0.7544  1.1348  0.4868
 6730TIP3   OH244384   4.466   1.616   9.616  0.0338  0.1249 -0.0630
 6730TIP3    H144385   4.378   1.641   9.647 -1.0139  0.5746 -3.0839
 6730TIP3    H244386   4.511   1.699   9.602  0.9099 -0.1024  1.2186
 6731TIP3   OH244387   1.336   3.695   9.757 -0.2684  0.2029 -0.1407
 6731TIP3    H144388   1.367   3.782   9.733  0.8762  0.2200  1.2338
 6731TIP3    H244389   1.317   3.702   9.851 -1.8631 -0.5733 -0.3720
 6732TIP3   OH244390   5.048   3.756   8.573 -0.3602  0.0034 -0.5363
 6732TIP3    H144391   5.062   3.662   8.580 -2.8939 -0.3545  1.6044
 6732TIP3    H244392   5.129   3.795   8.604  0.8439 -1.4284 -1.7434
 6733TIP3   OH244393   1.668   5.172  10.787  0.1188 -0.5471  0.1955
 6733TIP3    H144394   1.727   5.125  10.846 -0.8630 -0.6628  1.1324
 6733TIP3    H244395   1.586   5.179  10.837 -0.9896 -1.2997 -1.4223
 6734TIP3   OH244396   4.671   3.937  11.172  0.0257 -0.0540 -0.1872
 6734TIP3    H144397   4.626   3.978  11.246 -1.1687 -0.7375 -0.5212
 6734TIP3    H244398   4.760   3.921  11.204 -0.5223 -0.4919  1.1651
 6735TIP3   OH244399   0.551   4.828  10.920  0.4348  0.4218  0.7763
 6735TIP3    H144400   0.462   4.794  10.913 -0.5633  2.8400  0.5253
 6735TIP3    H244401   0.578   4.842  10.829  1.4210 -0.9903  0.8131
 6736TIP3   OH244402   1.300   6.518  10.996  0.1922  0.7333  0.4842
 6736TIP3    H144403   1.210   6.485  10.998 -0.3319  2.0916  0.1266
 6736TIP3    H244404   1.320   6.541  11.087  0.5615 -0.5086  0.7375
 6737TIP3   OH244405   0.808   6.108  11.812 -0.1543  0.5617 -0.4869
 6737TIP3    H144406   0.744   6.104  11.883  0.1913 -1.1543 -0.2331
 6737TIP3    H244407   0.755   6.114  11.732 -0.5888  0.4226 -0.2086
 6738TIP3   OH244408   1.568   1.265  11.010  0.2375  0.7347  0.2008
 6738TIP3    H144409   1.615   1.312  11.080 -0.0349 -0.1505  0.9994
 6738TIP3    H244410   1.553   1.178  11.047  0.5091  0.0952 -1.1599
 6739TIP3   OH244411   1.955   4.608   9.728 -0.0257 -0.0973  0.3903
 6739TIP3    H144412   2.023   4.644   9.671  0.4270 -0.3542  0.7673
 6739TIP3    H244413   1.908   4.685   9.761 -0.1678  0.0616 -0.1719
 6740TIP3   OH244414   0.364   3.158  11.537 -0.1035 -0.6155  0.2212
 6740TIP3    H144415   0.269   3.147  11.541 -0.2494  0.3365 -0.4336
 6740TIP3    H244416   0.387   3.131  11.448 -0.1380  1.7222 -0.5506
 6741TIP3   OH244417   5.527   1.485   9.658  0.3294  0.3814 -0.4564
 6741TIP3    H144418   5.576   1.404   9.639 -0.2917  0.5563 -3.1939
 6741TIP3    H244419   5.528   1.491   9.753  0.9011 -2.5404 -0.1736
 6742TIP3   OH244420   4.649   1.198  11.661  0.6939  0.2265 -0.1992
 6742TIP3    H144421   4.620   1.254  11.734  1.4801  0.2774  0.0837
 6742TIP3    H244422   4.623   1.246  11.582 -0.4343  0.0341  0.0316
 6743TIP3   OH244423   3.132   6.190  10.526 -0.3800  0.2416 -0.1351
 6743TIP3    H144424   3.206   6.250  10.518  1.0490 -1.4486 -0.0902
 6743TIP3    H244425   3.108   6.170  10.435 -0.3332  0.2690 -0.1534
 6744TIP3   OH244426   6.363   6.176  11.088 -0.0531  0.4387  0.1916
 6744TIP3    H144427   6.365   6.170  11.183 -0.3178  0.7954  0.2226
 6744TIP3    H244428   6.421   6.250  11.067  1.0372 -0.4416 -0.0089
 6745TIP3   OH244429   3.854   2.787   8.993 -0.5235  0.2143  0.3125
 6745TIP3    H144430   3.857   2.856   9.059  0.0967  0.0401  0.4743
 6745TIP3    H244431   3.836   2.833   8.911  2.6610  1.0029 -0.0913
 6746TIP3   OH244432   2.486   6.482  12.102  0.0550  0.2843  0.2817
 6746TIP3    H144433   2.499   6.430  12.023  1.7282 -0.0160  0.7042
 6746TIP3    H244434   2.426   6.430  12.155 -1.1549  0.5322 -0.8004
 6747TIP3   OH244435   1.058   0.265  10.520  0.3820 -0.3685  0.2207
 6747TIP3    H144436   0.963   0.271  10.509  0.3845 -0.0682  0.3596
 6747TIP3    H244437   1.088   0.356  10.525  0.6928 -0.4576  0.0579
 6748TIP3   OH244438   5.358   5.260   9.798  0.9537 -0.0422  0.5797
 6748TIP3    H144439   5.288   5.218   9.849  0.7130  0.9283  1.0760
 6748TIP3    H244440   5.386   5.334   9.852  1.2111  0.5710 -0.3615
 6749TIP3   OH244441   0.429   5.978  10.689  0.1086  0.2263 -0.1025
 6749TIP3    H144442   0.445   6.038  10.762  0.1893  0.8698 -0.6413
 6749TIP3    H244443   0.507   5.984  10.634 -0.5385  0.8439 -0.9909
 6750TIP3   OH244444   2.490   4.413   9.613 -0.6399 -0.2358 -0.0665
 6750TIP3    H144445   2.466   4.321   9.600 -0.4915 -0.1968 -0.6314
 6750TIP3    H244446   2.574   4.409   9.658 -1.3496 -0.3726  1.2997
 6751TIP3   OH244447   4.552   2.042  11.608 -0.2426  0.3673  0.0548
 6751TIP3    H144448   4.487   1.975  11.631  0.5014 -0.0948  0.8885
 6751TIP3    H244449   4.606   2.051  11.686  2.5821 -1.4505 -1.5136
 6752TIP3   OH244450   6.568   2.459   9.919 -0.4969  0.3313  0.5788
 6752TIP3    H144451   6.505   2.389   9.934 -1.0654  0.6284 -0.3114
 6752TIP3    H244452   6.628   2.454   9.993 -0.8240 -0.7664  0.7868
 6753TIP3   OH244453   3.433   4.922  11.182 -0.3393 -0.5461 -0.1652
 6753TIP3    H144454   3.382   4.922  11.263 -1.1827 -1.3516 -0.6701
 6753TIP3    H244455   3.479   5.005  11.183 -0.1361 -0.6489  1.2598
 6754TIP3   OH244456   1.027   2.236  11.431 -0.2302 -0.4657  0.4747
 6754TIP3    H144457   1.061   2.281  11.508  0.8975 -2.1968  1.0380
 6754TIP3    H244458   1.009   2.147  11.461  0.7149 -1.3268 -1.3559
 6755TIP3   OH244459   4.114   4.011   9.790  0.0297  0.0690  0.2243
 6755TIP3    H144460   4.101   3.923   9.828  0.7760  0.0056  0.3378
 6755TIP3    H244461   4.147   4.064   9.863  1.6281 -0.0886 -0.3425
 6756TIP3   OH244462   0.253   4.383   8.758  0.2080 -0.3084  0.2019
 6756TIP3    H144463   0.207   4.318   8.705  0.5440 -1.5643  1.3867
 6756TIP3    H244464   0.253   4.346   8.846  2.3159  0.2712  0.5052
 6757TIP3   OH244465   3.226   4.540  12.372 -0.0644  0.0399  0.3200
 6757TIP3    H144466   3.261   4.510  12.289  0.9859 -0.1709  0.8208
 6757TIP3    H244467   3.155   4.600  12.348  0.6768  0.5269 -0.7347
 6758TIP3   OH244468   5.898   5.281   9.381 -0.6030  0.2413 -0.7107
 6758TIP3    H144469   5.978   5.282   9.328  0.8317 -1.2595  1.2518
 6758TIP3    H244470   5.850   5.360   9.354  1.5144  1.1826 -1.9867
 6759TIP3   OH244471   2.741   5.638   9.118  0.2368  0.3729  0.3136
 6759TIP3    H144472   2.648   5.658   9.120  0.1904  0.2736 -0.5099
 6759TIP3    H244473   2.775   5.668   9.202 -0.3685  1.2421  0.2453
 6760TIP3   OH244474   4.993   5.732   9.635  0.3655  0.2279 -0.7362
 6760TIP3    H144475   4.972   5.683   9.715  0.1866  1.1848 -0.1746
 6760TIP3    H244476   5.051   5.802   9.664  1.0501  0.0400 -1.6118
 6761TIP3   OH244477   1.184   0.108   9.747  0.7632 -0.0451  0.1397
 6761TIP3    H144478   1.269   0.135   9.782  0.9803 -1.4264  0.7487
 6761TIP3    H244479   1.201   0.088   9.655  0.6836  1.4041 -0.2178
 6762TIP3   OH244480   1.310   0.205  11.459 -0.2154 -0.2936  0.1887
 6762TIP3    H144481   1.249   0.241  11.524 -0.3785  0.5832 -0.4180
 6762TIP3    H244482   1.397   0.223  11.495 -0.3088 -0.5933  0.5673
 6763TIP3   OH244483   3.105   1.437  10.498  0.2601 -0.3519  0.0033
 6763TIP3    H144484   3.168   1.394  10.441 -0.5310 -1.2681 -0.2043
 6763TIP3    H244485   3.044   1.367  10.523  0.1196  0.2058  1.3074
 6764TIP3   OH244486   2.157   0.523  11.665 -0.0318 -0.2616 -0.1073
 6764TIP3    H144487   2.130   0.543  11.755 -1.5997 -0.9191 -0.3899
 6764TIP3    H244488   2.143   0.429  11.656 -3.3669  0.2394 -2.0304
 6765TIP3   OH244489   6.042   6.308  10.811  0.0251 -0.3743 -0.6053
 6765TIP3    H144490   5.978   6.338  10.746 -1.1813  0.0238  0.7044
 6765TIP3    H244491   5.990   6.295  10.891  1.1654 -2.4294 -0.1379
 6766TIP3   OH244492   5.298   3.151   8.944  0.4800 -0.0154 -0.3254
 6766TIP3    H144493   5.267   3.138   8.855 -1.0675  0.9967  0.0386
 6766TIP3    H244494   5.346   3.234   8.941  0.1831  0.1645 -0.1671
 6767TIP3   OH244495   2.248   2.645   9.210  0.4362  0.2342  0.1488
 6767TIP3    H144496   2.250   2.655   9.114 -1.1867 -0.8456 -0.0296
 6767TIP3    H244497   2.314   2.578   9.228 -0.6879 -1.0940 -0.4777
 6768TIP3   OH244498   0.846   3.483  11.483 -0.0742  0.0818 -0.8092
 6768TIP3    H144499   0.854   3.487  11.578 -1.7543 -0.1193 -0.6245
 6768TIP3    H244500   0.847   3.389  11.463 -3.3054 -0.1129 -0.5506
 6769TIP3   OH244501   3.522   2.147   8.899  0.0408 -0.0075 -0.3000
 6769TIP3    H144502   3.569   2.220   8.941  0.9445 -0.9038  0.2990
 6769TIP3    H244503   3.542   2.156   8.806 -1.2266  1.4679 -0.4684
 6770TIP3   OH244504   1.580   6.052   9.331  0.1490 -0.0471 -0.3889
 6770TIP3    H144505   1.640   6.021   9.398 -1.9581 -0.6897  1.3312
 6770TIP3    H244506   1.614   6.137   9.305  1.4955 -0.1565  0.9118
 6771TIP3   OH244507   2.122   3.683  10.962 -0.0669 -0.1377  0.1530
 6771TIP3    H144508   2.174   3.686  11.042 -1.6916  0.8154  1.2584
 6771TIP3    H244509   2.170   3.625  10.903  2.3329  0.8795  0.9777
 6772TIP3   OH244510   3.494   5.118  10.348 -0.1731  0.1616 -0.5272
 6772TIP3    H144511   3.425   5.067  10.306  0.3204  0.2368 -1.4769
 6772TIP3    H244512   3.550   5.146  10.275  0.2008  1.0871  0.0993
 6773TIP3   OH244513   4.116   5.668   9.147  0.1301  0.1540  0.0806
 6773TIP3    H144514   4.112   5.730   9.220  0.4724  0.5798 -0.2468
 6773TIP3    H244515   4.138   5.723   9.071  2.0073 -0.5545  0.0424
 6774TIP3   OH244516   5.945   5.148   9.638 -0.1215 -0.0800 -0.9961
 6774TIP3    H144517   5.924   5.179   9.550 -0.3367  1.9443 -0.2767
 6774TIP3    H244518   5.867   5.102   9.667 -0.7667  0.8837 -1.1707
 6775TIP3   OH244519   2.363   3.520   8.924 -0.1152  0.2671  0.3291
 6775TIP3    H144520   2.330   3.457   8.988 -0.8677 -0.4808 -0.7484
 6775TIP3    H244521   2.348   3.605   8.965 -2.1210 -0.1085  0.5181
 6776TIP3   OH244522   0.181   5.628  10.964  0.1280 -0.4151  0.0809
 6776TIP3    H144523   0.243   5.662  10.900 -1.9923 -0.8220 -2.3326
 6776TIP3    H244524   0.142   5.706  11.003  0.7102 -0.1593  0.1666
 6777TIP3   OH244525   3.194   3.991  10.477  0.5044 -0.2544 -0.1935
 6777TIP3    H144526   3.223   3.944  10.398  2.6599  3.1894 -1.7029
 6777TIP3    H244527   3.101   4.007  10.462  1.0901  1.2739 -2.6820
 6778TIP3   OH244528   0.416   1.734  10.333  0.5729 -0.0764  0.0565
 6778TIP3    H144529   0.453   1.817  10.306 -1.7553  1.3524  0.9128
 6778TIP3    H244530   0.483   1.693  10.388  0.9887  2.2879  1.4399
 6779TIP3   OH244531   0.196   5.834  10.649  0.0801 -0.1103  0.5502
 6779TIP3    H144532   0.283   5.861  10.680 -1.3513  2.0987  3.0118
 6779TIP3    H244533   0.148   5.916  10.636 -2.4774 -1.2607  1.9953
 6780TIP3   OH244534   2.520   2.838  10.791 -0.0958 -0.5402  0.3059
 6780TIP3    H144535   2.544   2.872  10.704  1.7139 -0.9108  0.6271
 6780TIP3    H244536   2.520   2.743  10.780  0.3625 -0.5950  0.7509
 6781TIP3   OH244537   2.395   4.878  11.649  0.4340  0.6685  0.4596
 6781TIP3    H144538   2.350   4.923  11.578 -0.2551  0.4477  0.7411
 6781TIP3    H244539   2.403   4.787  11.620 -1.1343  0.2420  1.2105
 6782TIP3   OH244540   5.494   4.017   8.547  0.0077 -0.1168  0.5059
 6782TIP3    H144541   5.584   3.987   8.540  0.0787 -0.0335  1.0158
 6782TIP3    H244542   5.497   4.091   8.608 -0.3986 -0.1030  0.5167
 6783TIP3   OH244543   0.572   2.596   9.476 -0.2177  0.0000 -0.9611
 6783TIP3    H144544   0.586   2.690   9.468 -2.5142  0.4011 -0.8330
 6783TIP3    H244545   0.505   2.587   9.544  0.6270 -1.8092 -0.2825
 6784TIP3   OH244546   5.101   4.799  10.631  0.5435 -0.5261 -0.2876
 6784TIP3    H144547   5.021   4.780  10.680 -0.6218  1.7474 -1.1634
 6784TIP3    H244548   5.087   4.760  10.545 -0.1568  0.7926 -0.8026
 6785TIP3   OH244549   3.274   5.400  11.575  0.4918 -0.1538 -0.0598
 6785TIP3    H144550   3.279   5.481  11.626 -0.7253  1.5761 -2.4595
 6785TIP3    H244551   3.198   5.354  11.611  0.2093  0.5824  0.3067
 6786TIP3   OH244552   6.298   3.461  10.729 -0.0757 -0.2110 -0.1876
 6786TIP3    H144553   6.321   3.379  10.772  2.3124  0.9725  0.9813
 6786TIP3    H244554   6.320   3.447  10.637 -2.1308 -1.6766 -0.5184
 6787TIP3   OH244555   6.225   4.420   8.982  0.4230  0.3755  0.0644
 6787TIP3    H144556   6.252   4.346   9.037  2.1351  0.2371 -0.8755
 6787TIP3    H244557   6.222   4.495   9.041  1.1119  0.0143  0.5683
 6788TIP3   OH244558   2.329   1.970  10.523  0.6700 -0.3738 -0.2941
 6788TIP3    H144559   2.404   1.912  10.533 -0.3801 -1.7004  0.1223
 6788TIP3    H244560   2.313   1.974  10.429  2.3710  1.4497 -0.5925
 6789TIP3   OH244561   6.018   4.370  10.909 -0.2658  0.0560  0.3885
 6789TIP3    H144562   5.935   4.381  10.861  1.0696 -0.8440 -2.3377
 6789TIP3    H244563   6.074   4.439  10.875  0.5300 -0.1956  1.1782
 6790TIP3   OH244564   2.982   3.452   8.887 -0.1586 -0.2965 -0.5534
 6790TIP3    H144565   2.917   3.449   8.817 -0.8655 -0.2116  0.0824
 6790TIP3    H244566   3.000   3.545   8.900  1.1271 -0.3670 -1.6446
 6791TIP3   OH244567   4.596   1.051   8.943 -0.2962 -0.0875  0.5075
 6791TIP3    H144568   4.533   1.109   8.900  0.1275  0.8511  1.1076
 6791TIP3    H244569   4.568   0.963   8.920 -0.6742  0.3668 -0.8357
 6792TIP3   OH244570   6.659   2.388   9.542  0.6372  0.5934 -0.0474
 6792TIP3    H144571   6.737   2.423   9.585 -0.0908  1.8878  0.2769
 6792TIP3    H244572   6.692   2.331   9.473  1.8655 -1.1937  1.9003
 6793TIP3   OH244573   6.451   3.735  11.349  0.0515 -0.0332 -0.7708
 6793TIP3    H144574   6.506   3.764  11.422 -0.8213  0.3259 -0.2438
 6793TIP3    H244575   6.433   3.816  11.300 -0.8040  0.0242 -0.3828
 6794TIP3   OH244576   4.961   4.152   9.345  0.0137  0.3505 -0.0094
 6794TIP3    H144577   4.975   4.161   9.251  0.2023  1.3001  0.1002
 6794TIP3    H244578   4.867   4.138   9.354  0.4006 -3.5750 -0.5770
 6795TIP3   OH244579   3.543   6.254  10.264 -0.2681  0.3577 -0.3334
 6795TIP3    H144580   3.578   6.293  10.184  1.9135  0.3650  0.5488
 6795TIP3    H244581   3.479   6.318  10.296  0.7475  1.6114 -0.7095
 6796TIP3   OH244582   4.346   0.306   9.668  0.3592  0.8309 -0.1157
 6796TIP3    H144583   4.311   0.282   9.753 -0.6160 -0.6292 -0.8824
 6796TIP3    H244584   4.315   0.237   9.609  0.1734  2.2973 -1.8350
 6797TIP3   OH244585   6.093   0.723   9.305 -0.0314 -0.2396 -0.4747
 6797TIP3    H144586   6.167   0.724   9.244 -1.7126 -0.4656 -2.6386
 6797TIP3    H244587   6.054   0.811   9.297 -0.8022 -0.5681 -0.4262
 6798TIP3   OH244588   5.246   4.297   8.983 -0.4093 -0.2972 -0.2791
 6798TIP3    H144589   5.200   4.254   9.055 -1.7169 -1.9459 -1.9577
 6798TIP3    H244590   5.314   4.235   8.958  2.0716  1.5889  1.3765
 6799TIP3   OH244591   1.497   2.942   9.034 -0.3051 -0.3014 -0.0979
 6799TIP3    H144592   1.411   2.979   9.018 -0.6548 -0.2720  1.6536
 6799TIP3    H244593   1.558   3.006   8.998 -0.9730  0.5548  0.2688
 6800TIP3   OH244594   2.674   6.626  11.945 -0.2526 -0.1300 -0.2665
 6800TIP3    H144595   2.614   6.579  12.003  0.7013 -1.2722 -0.1660
 6800TIP3    H244596   2.759   6.619  11.988 -0.0569  1.6170 -0.3242
 6801TIP3   OH244597   3.630   0.001   9.750  0.0968  0.1713 -0.1587
 6801TIP3    H144598   3.670   0.087   9.736 -0.2518  0.5379  1.0091
 6801TIP3    H244599   3.670  -0.054   9.683  1.7555  0.7794  0.2732
 6802TIP3   OH244600   0.945   3.196  10.569 -0.5127  0.2458 -0.0683
 6802TIP3    H144601   1.001   3.128  10.531 -0.1964  0.5548 -0.1515
 6802TIP3    H244602   0.964   3.193  10.663  2.0451  2.4949 -0.4073
 6803TIP3   OH244603   1.690   3.472   9.952  0.0711 -0.1046 -0.3921
 6803TIP3    H144604   1.604   3.430   9.958 -0.1245  0.2085 -0.9905
 6803TIP3    H244605   1.688   3.520   9.869  2.0413 -2.8402 -2.2065
 6804TIP3   OH244606   5.381   0.996   8.775  0.0180 -0.7194  0.2581
 6804TIP3    H144607   5.296   0.974   8.813 -0.6832 -0.4862 -1.1280
 6804TIP3    H244608   5.368   1.081   8.733  1.4881  0.2879  1.6742
 6805TIP3   OH244609   0.845   3.834   9.826 -0.5408  0.3081  0.2873
 6805TIP3    H144610   0.796   3.864   9.903 -0.0424 -0.8145  1.0578
 6805TIP3    H244611   0.786   3.772   9.783 -0.1140 -0.4510  0.7843
 6806TIP3   OH244612   5.653   1.013   9.111 -0.2459 -0.2336  0.0219
 6806TIP3    H144613   5.652   1.006   9.016  1.5942  0.5709 -0.1162
 6806TIP3    H244614   5.582   1.074   9.131 -0.2613  0.0753 -0.9043
 6807TIP3   OH244615   3.030   5.104   9.566  0.2042  0.2856 -0.0290
 6807TIP3    H144616   2.947   5.151   9.575 -1.0189 -1.7879  0.1501
 6807TIP3    H244617   3.086   5.142   9.634 -1.0717  0.8128  0.7670
 6808TIP3   OH244618   5.362   1.672  10.837 -0.0309  0.4891  0.2223
 6808TIP3    H144619   5.273   1.701  10.817 -0.0359  0.3571  0.0489
 6808TIP3    H244620   5.363   1.579  10.813  0.0697  0.4202  0.4976
 6809TIP3   OH244621   5.019   1.431   8.497  0.1546  0.6525 -0.4107
 6809TIP3    H144622   4.967   1.499   8.454  2.3926  4.0431  1.7665
 6809TIP3    H244623   4.957   1.388   8.557 -1.0755  1.6396 -0.9267
 6810TIP3   OH244624   6.261   5.117   8.703  0.1414  0.1849 -0.0741
 6810TIP3    H144625   6.209   5.048   8.663 -0.7041  0.5199  0.4042
 6810TIP3    H244626   6.259   5.188   8.639 -0.6109  0.4586  0.2362
 6811TIP3   OH244627   2.182   0.739  10.246  0.1509  0.1939  0.8725
 6811TIP3    H144628   2.191   0.677  10.317  1.3046 -0.2392  0.3613
 6811TIP3    H244629   2.119   0.698  10.186  0.6156 -0.3121  0.7250
 6812TIP3   OH244630   4.067   2.148   8.766 -0.3304 -0.2638 -0.2727
 6812TIP3    H144631   4.102   2.219   8.820 -0.2722  0.4667 -1.2522
 6812TIP3    H244632   4.143   2.112   8.721 -0.4706 -0.4589 -0.3545
 6813TIP3   OH244633   2.282   0.786  11.546  0.0494  0.1476  0.7705
 6813TIP3    H144634   2.260   0.873  11.578 -0.3070 -0.1360  1.3041
 6813TIP3    H244635   2.235   0.726  11.604  1.3586 -0.4420  1.2551
 6814TIP3   OH244636   4.611   1.140  12.038  0.5352 -0.0088 -0.0230
 6814TIP3    H144637   4.675   1.102  11.979  0.4798  0.5577 -0.4548
 6814TIP3    H244638   4.662   1.167  12.115  0.7368 -0.0058 -0.1579
 6815TIP3   OH244639   5.775   3.122   8.546  0.2981 -0.1541 -0.6049
 6815TIP3    H144640   5.790   3.039   8.592 -0.0768  0.6348  1.0338
 6815TIP3    H244641   5.692   3.110   8.500 -0.0955 -0.4705  0.1732
 6816TIP3   OH244642   4.161   4.210  12.416  0.3055 -0.1528  0.4268
 6816TIP3    H144643   4.113   4.279  12.461  0.1917  0.0759 -0.0332
 6816TIP3    H244644   4.238   4.254  12.380  0.2784 -0.2827  0.2065
 6817TIP3   OH244645   1.774   0.397   9.069 -0.1236  0.0070 -0.8094
 6817TIP3    H144646   1.795   0.423   8.979  4.8562 -2.3648 -0.6385
 6817TIP3    H244647   1.816   0.464   9.123 -0.4094 -0.2407 -0.2740
 6818TIP3   OH244648   6.056   6.001   9.808 -0.2611 -0.0329  0.1835
 6818TIP3    H144649   6.054   5.913   9.771  0.2783  0.2506 -0.5711
 6818TIP3    H244650   5.965   6.032   9.802 -0.5554 -0.7419  0.9821
 6819TIP3   OH244651   4.768   1.856   9.066 -0.1097 -0.0700  0.6146
 6819TIP3    H144652   4.811   1.925   9.117 -0.1141 -0.6961  1.4914
 6819TIP3    H244653   4.813   1.776   9.092  0.0045 -0.3832 -0.5204
 6820TIP3   OH244654   2.320   5.595  11.963  0.2698  0.4437  0.0712
 6820TIP3    H144655   2.233   5.573  11.996  1.1616  0.3198  2.5752
 6820TIP3    H244656   2.377   5.589  12.040  2.5764  0.1625 -1.5512
 6821TIP3   OH244657   5.899   0.003  11.853 -0.1599  0.1365 -0.3629
 6821TIP3    H144658   5.947   0.084  11.836 -1.2211  0.8141 -0.2425
 6821TIP3    H244659   5.821   0.031  11.901 -1.6936 -0.6487 -2.2425
 6822TIP3   OH244660   2.243   2.546   9.548 -0.4218 -0.3122 -0.5264
 6822TIP3    H144661   2.290   2.464   9.560 -3.1705 -2.2162 -1.8752
 6822TIP3    H244662   2.268   2.576   9.461  1.4780  1.0156  0.4024
 6823TIP3   OH244663   1.185   2.457   9.852  0.4997  0.2800  0.1643
 6823TIP3    H144664   1.164   2.473   9.944  1.3230 -0.5694  0.5211
 6823TIP3    H244665   1.266   2.505   9.837  1.0772 -0.6363  0.2623
 6824TIP3   OH244666   2.847   2.372  18.272 -0.4072 -0.3402  0.2353
 6824TIP3    H144667   2.762   2.341  18.302 -0.5368  0.2197  0.4555
 6824TIP3    H244668   2.828   2.420  18.192 -0.3357  0.0509  0.4536
 6825TIP3   OH244669   3.342   5.431   9.376 -0.1770  0.1332 -0.0663
 6825TIP3    H144670   3.306   5.455   9.290 -0.4788  0.5641  0.1815
 6825TIP3    H244671   3.411   5.495   9.392  0.0539 -0.1020 -0.0944
 6826TIP3   OH244672   3.566   0.680  10.725 -0.4650 -0.1769  0.4267
 6826TIP3    H144673   3.653   0.701  10.693 -1.0080  1.7793  0.0983
 6826TIP3    H244674   3.577   0.600  10.775  1.0747 -1.3076 -1.5975
 6827TIP3   OH244675   0.798   6.035   9.381  0.1380  0.2266  0.6687
 6827TIP3    H144676   0.803   5.947   9.345 -0.0332 -0.0103  1.2133
 6827TIP3    H244677   0.738   6.027   9.455  0.3975  0.7299  0.9362
 6828TIP3   OH244678   5.623   3.725   9.774  0.3464  0.1062  0.3062
 6828TIP3    H144679   5.671   3.721   9.857 -0.0419 -0.0880  0.5220
 6828TIP3    H244680   5.584   3.813   9.774  1.1831  0.5001 -0.1482
 6829TIP3   OH244681   0.536   4.005   9.005 -0.7221  0.0823 -0.4656
 6829TIP3    H144682   0.556   4.056   8.926 -0.6399  0.2664 -0.3263
 6829TIP3    H244683   0.474   3.938   8.975 -1.6958  0.9390 -0.4300
 6830TIP3   OH244684   3.109   0.164  10.400 -0.2590 -0.1094 -0.0347
 6830TIP3    H144685   3.096   0.247  10.447 -0.4221 -0.7813  1.1256
 6830TIP3    H244686   3.145   0.191  10.315 -0.5433  1.1673  0.2215
 6831TIP3   OH244687   6.072   4.757  11.380  0.0974 -0.1650 -0.4785
 6831TIP3    H144688   6.071   4.836  11.325 -1.2489  0.4251  0.3286
 6831TIP3    H244689   5.989   4.713  11.360 -0.1806 -0.2046  0.6854
 6832TIP3   OH244690   4.727   0.783  10.895 -0.1989 -0.1211 -0.0650
 6832TIP3    H144691   4.670   0.837  10.950  0.2127 -0.4908  0.7285
 6832TIP3    H244692   4.669   0.747  10.828 -0.3802  1.8664 -1.0685
 6833TIP3   OH244693   1.245   1.911  10.804  0.0381 -0.4099  0.0986
 6833TIP3    H144694   1.290   1.987  10.767 -0.5929  1.0690  2.2343
 6833TIP3    H244695   1.243   1.927  10.898 -3.5018 -1.2032  0.2933
 6834TIP3   OH244696   3.912   0.755   9.335  0.2436 -0.8281  0.1743
 6834TIP3    H144697   3.959   0.807   9.270  1.3062 -1.7478  0.1631
 6834TIP3    H244698   3.962   0.673   9.341  1.8805  0.1857  4.0814
 6835TIP3   OH244699   3.854   5.037   9.670 -0.5836  0.6245  0.0739
 6835TIP3    H144700   3.805   4.987   9.735  0.4983  0.9803  1.2092
 6835TIP3    H244701   3.873   5.120   9.714 -0.6816  1.2699 -1.0716
 6836TIP3   OH244702   1.313   5.006  11.294 -0.1131  0.2367 -0.0286
 6836TIP3    H144703   1.329   4.973  11.383 -0.0844 -0.5232 -0.3049
 6836TIP3    H244704   1.232   4.963  11.267 -0.4832  0.9864 -0.1259
 6837TIP3   OH244705   4.234   0.562   8.813  0.1292 -0.3674 -0.4140
 6837TIP3    H144706   4.201   0.472   8.816 -1.2894  0.1557  0.4568
 6837TIP3    H244707   4.223   0.595   8.902  1.4416  0.4115 -0.5111
 6838TIP3   OH244708   5.369   0.765   9.871 -0.5098 -0.0179  0.2358
 6838TIP3    H144709   5.377   0.730   9.782 -0.3552  0.2953  0.1254
 6838TIP3    H244710   5.278   0.747   9.896 -0.7041  0.3549 -0.1842
 6839TIP3   OH244711   1.998   0.606   9.753 -0.1521 -0.5012  0.1841
 6839TIP3    H144712   2.082   0.616   9.708  0.6113 -0.9075  1.4594
 6839TIP3    H244713   1.952   0.688   9.736  1.7363  1.0275  1.9247
 6840TIP3   OH244714   2.593   3.706  10.572  0.1828  0.3289  0.8404
 6840TIP3    H144715   2.505   3.743  10.565  0.3739  0.6100 -0.2134
 6840TIP3    H244716   2.579   3.611  10.574 -0.0636  0.2189 -1.9088
 6841TIP3   OH244717   5.659   6.668   9.606 -0.0235 -0.3401  0.5545
 6841TIP3    H144718   5.699   6.730   9.545 -0.3659  0.5109  1.1679
 6841TIP3    H244719   5.684   6.582   9.573  0.5377  0.1242 -0.2698
 6842TIP3   OH244720   1.255   2.278   9.439 -0.2016 -0.2906 -0.2385
 6842TIP3    H144721   1.325   2.253   9.380  0.8212  0.2583  0.7135
 6842TIP3    H244722   1.255   2.210   9.507 -0.2469 -0.0002  0.0531
 6843TIP3   OH244723   2.566   3.685  11.913 -0.2353 -0.2402 -0.0183
 6843TIP3    H144724   2.568   3.603  11.864 -3.1205 -0.1497 -0.4789
 6843TIP3    H244725   2.489   3.677  11.970  0.7196  1.2756  1.6060
 6844TIP3   OH244726   0.489   6.381   8.603  0.1179 -0.7485 -0.0431
 6844TIP3    H144727   0.472   6.321   8.675  0.9442 -2.5727 -1.2836
 6844TIP3    H244728   0.450   6.464   8.631 -0.7540 -1.7435  1.8945
 6845TIP3   OH244729   2.329   6.298   9.657  0.4135 -0.2936  0.1321
 6845TIP3    H144730   2.417   6.321   9.630  0.1410  1.7632  0.8400
 6845TIP3    H244731   2.312   6.353   9.734 -2.2454  0.9732 -1.2318
 6846TIP3   OH244732   3.362   0.223  10.677  0.2182  0.2570 -0.2383
 6846TIP3    H144733   3.424   0.270  10.732  0.8596  0.3278 -0.9943
 6846TIP3    H244734   3.354   0.277  10.598  0.5523 -0.6032 -0.8866
 6847TIP3   OH244735   1.776   5.400   9.857 -0.0258 -0.0912  0.1139
 6847TIP3    H144736   1.862   5.365   9.880 -0.0540 -0.9592 -0.9976
 6847TIP3    H244737   1.715   5.332   9.883 -0.4018  0.5735  1.0049
 6848TIP3   OH244738   1.390   3.318   8.837  0.3603  0.1082  0.4089
 6848TIP3    H144739   1.369   3.329   8.745  0.6882 -0.9227  0.1977
 6848TIP3    H244740   1.309   3.290   8.878  0.3030  0.2169  0.3700
 6849TIP3   OH244741   0.914   1.398  11.319  0.2688  0.1056  0.5936
 6849TIP3    H144742   0.909   1.310  11.355  0.1958 -1.5148 -2.9999
 6849TIP3    H244743   1.007   1.412  11.301  0.4217  1.2593  2.0671
 6850TIP3   OH244744   1.680   3.993  11.732  0.1070  0.3030  0.5184
 6850TIP3    H144745   1.775   3.987  11.738  0.0977 -0.4932 -0.0477
 6850TIP3    H244746   1.649   3.983  11.822  0.4666 -1.4157  0.4695
 6851TIP3   OH244747   1.338   1.943  10.182  0.3450  0.1325 -0.2340
 6851TIP3    H144748   1.402   1.874  10.202 -1.2591 -0.4380  4.1608
 6851TIP3    H244749   1.390   2.015  10.146  3.1045 -1.1426  0.8892
 6852TIP3   OH244750   2.464   1.146  11.008 -0.0295 -0.1476 -0.4281
 6852TIP3    H144751   2.444   1.157  10.915 -1.9649  0.1138 -0.0415
 6852TIP3    H244752   2.507   1.227  11.034  1.3728 -0.5900 -1.2628
 6853TIP3   OH244753   0.917   3.994   9.299  0.6765 -0.2009 -0.0652
 6853TIP3    H144754   0.917   3.907   9.338 -0.3037 -0.5492 -0.7977
 6853TIP3    H244755   0.843   3.993   9.238  0.4217  1.2572  0.1797
 6854TIP3   OH244756   1.796   6.156  10.155 -0.4036  0.1470  0.0498
 6854TIP3    H144757   1.842   6.183  10.235 -0.2630 -3.0262  1.1753
 6854TIP3    H244758   1.750   6.076  10.180 -1.0645 -0.4840 -2.8492
 6855TIP3   OH244759   3.312   4.956  10.222 -0.6201  0.2020 -0.0566
 6855TIP3    H144760   3.323   4.947  10.127  0.1266 -0.6215  0.0879
 6855TIP3    H244761   3.298   4.866  10.253  0.2631  0.3188  0.7296
 6856TIP3   OH244762   0.733   0.252  11.521  0.2911  0.0979 -0.3395
 6856TIP3    H144763   0.791   0.176  11.530 -0.5266 -0.3720  1.6085
 6856TIP3    H244764   0.648   0.221  11.553 -0.3433  1.5291 -0.5629
 6857TIP3   OH244765   2.881   0.623  10.343 -0.2457 -0.1206  0.3381
 6857TIP3    H144766   2.845   0.547  10.297 -0.4813  0.7087 -0.9152
 6857TIP3    H244767   2.976   0.615  10.333 -0.2420 -0.5468  0.7092
 6858TIP3   OH244768   4.533   4.844  12.104 -0.0926 -0.4056  0.2377
 6858TIP3    H144769   4.524   4.904  12.179  0.2290 -0.6004  0.4352
 6858TIP3    H244770   4.571   4.765  12.142 -0.7201 -0.8210  0.0172
 6859TIP3   OH244771   3.103   3.030   9.218  0.4063  0.0020 -0.7588
 6859TIP3    H144772   3.116   3.058   9.309  1.6557  0.4596 -1.0547
 6859TIP3    H244773   3.036   2.962   9.223  1.0500 -0.5744  0.6076
 6860TIP3   OH244774   5.786   2.688   9.764  0.8716 -0.4241 -0.2134
 6860TIP3    H144775   5.723   2.629   9.807  1.8109 -0.8305  0.6473
 6860TIP3    H244776   5.776   2.670   9.671 -1.5423  0.8019 -0.2716
 6861TIP3   OH244777   3.969   4.210  10.653  0.1643 -1.1819 -0.4114
 6861TIP3    H144778   3.874   4.208  10.656 -0.0207  1.0503 -2.1642
 6861TIP3    H244779   3.992   4.152  10.581 -0.0061 -0.4940 -1.0332
 6862TIP3   OH244780   2.667   6.330  11.249 -0.5167 -0.1864 -0.5675
 6862TIP3    H144781   2.609   6.254  11.254 -1.0061  0.1970 -0.3578
 6862TIP3    H244782   2.681   6.343  11.155 -0.2145 -0.6912 -0.5995
 6863TIP3   OH244783   0.019   2.820   9.304 -0.3675 -0.8477  0.2453
 6863TIP3    H144784  -0.051   2.885   9.293  1.4506  1.4587  1.5626
 6863TIP3    H244785   0.098   2.871   9.317  1.4393 -3.3767 -0.0613
 6864TIP3   OH244786   1.448   2.352  11.100  0.7943 -0.0808  0.1134
 6864TIP3    H144787   1.495   2.357  11.017  2.2135 -0.0602  0.8858
 6864TIP3    H244788   1.365   2.397  11.084  0.5157 -1.1580 -1.6237
 6865TIP3   OH244789   2.139   4.243  10.255 -0.0751  0.5537  0.1315
 6865TIP3    H144790   2.117   4.282  10.339 -0.5019  1.8797 -0.5762
 6865TIP3    H244791   2.057   4.240  10.207 -0.3196 -2.3118  0.5322
 6866TIP3   OH244792   5.389   5.985  10.965  0.0673 -0.4073  0.0602
 6866TIP3    H144793   5.363   5.902  11.006 -1.9915  0.2212  0.1690
 6866TIP3    H244794   5.455   6.022  11.023 -0.2471 -1.1701  0.9167
 6867TIP3   OH244795   0.240   6.034   8.583 -0.1045 -0.0526  0.6267
 6867TIP3    H144796   0.244   6.124   8.617 -0.4919  0.7518 -1.3043
 6867TIP3    H244797   0.148   6.023   8.558 -0.5082 -1.7353  2.6130
 6868TIP3   OH244798   6.318   6.202  10.665 -0.3427  0.2676  0.0231
 6868TIP3    H144799   6.336   6.108  10.665 -0.2697  0.2686 -1.0549
 6868TIP3    H244800   6.227   6.209  10.637 -0.7436  0.4733  1.3089
 6869TIP3   OH244801   1.978   4.635   8.710  0.3422  0.1626 -0.3266
 6869TIP3    H144802   1.885   4.634   8.734  0.1725 -0.6168 -0.9433
 6869TIP3    H244803   2.004   4.727   8.718 -0.8697  0.6510 -1.5087
 6870TIP3   OH244804   4.793   6.100   9.031 -0.1869  0.4281 -0.1395
 6870TIP3    H144805   4.796   6.144   8.946  2.0436  1.1800  0.2812
 6870TIP3    H244806   4.742   6.159   9.087  1.8822  2.0429  0.1323
 6871TIP3   OH244807   0.719   1.831   8.836 -0.4116 -0.7239 -0.3024
 6871TIP3    H144808   0.808   1.815   8.806 -0.2381 -0.5632  0.1180
 6871TIP3    H244809   0.725   1.912   8.888 -1.0126 -0.0625 -1.2233
 6872TIP3   OH244810   1.924   4.157  11.602 -0.5253 -0.1142  0.0956
 6872TIP3    H144811   1.833   4.173  11.577 -1.4330 -0.8296  2.5895
 6872TIP3    H244812   1.923   4.068  11.639  1.6668 -1.0041 -1.7517
 6873TIP3   OH244813   6.422   2.770   8.898 -0.4764 -0.0234 -0.0302
 6873TIP3    H144814   6.449   2.862   8.893  0.6091 -0.2506  1.2675
 6873TIP3    H244815   6.401   2.747   8.807  1.5214  0.8446 -0.7831
 6874TIP3   OH244816   1.798   2.245  10.008  0.3525 -0.0720  0.0520
 6874TIP3    H144817   1.801   2.320   9.948  2.0383  0.4875  0.7842
 6874TIP3    H244818   1.812   2.284  10.095  1.4594 -1.2367  0.4227
 6875TIP3   OH244819   1.776   0.338  11.188 -0.6345 -0.0857 -0.0288
 6875TIP3    H144820   1.822   0.260  11.155 -0.6703 -0.0778 -0.0997
 6875TIP3    H244821   1.830   0.412  11.159 -1.0895 -0.0348 -0.7863
 6876TIP3   OH244822   0.278   4.722  11.455  0.2085  0.1549 -0.3641
 6876TIP3    H144823   0.207   4.728  11.520 -0.0188 -0.3905 -0.5551
 6876TIP3    H244824   0.233   4.711  11.372  0.5209 -0.7268 -0.4280
 6877TIP3   OH244825   5.771   6.202   9.711  0.1809  0.0243 -0.3734
 6877TIP3    H144826   5.845   6.219   9.653 -0.4234  0.5625 -1.0162
 6877TIP3    H244827   5.782   6.111   9.739  1.6516  0.4245  0.3995
 6878TIP3   OH244828   3.566   2.765  10.268  0.3643  0.4474  0.0160
 6878TIP3    H144829   3.570   2.819  10.189  0.0656  2.0629  1.0538
 6878TIP3    H244830   3.532   2.681  10.237 -0.9012  1.4096 -1.4137
 6879TIP3   OH244831   2.688   3.908  10.380 -0.2095 -0.1371  0.5359
 6879TIP3    H144832   2.663   3.835  10.436 -1.2564  0.4475  0.8508
 6879TIP3    H244833   2.630   3.979  10.405 -0.8211  0.1052 -1.3677
 6880TIP3   OH244834   4.981   1.692   9.677 -0.3338  0.0492  0.0915
 6880TIP3    H144835   4.971   1.738   9.594 -2.1079 -0.5464 -0.0517
 6880TIP3    H244836   5.070   1.714   9.705 -0.4955  2.1150 -0.8189
 6881TIP3   OH244837   2.674   4.079  10.671 -0.0812  0.2776 -0.0527
 6881TIP3    H144838   2.628   4.129  10.739 -1.1432 -3.6170  2.4247
 6881TIP3    H244839   2.605   4.047  10.614  0.1358 -0.9245  0.3267
 6882TIP3   OH244840   3.623   5.590  11.592  0.2308  0.0784  0.3910
 6882TIP3    H144841   3.620   5.495  11.575  2.1420 -0.1698  1.1327
 6882TIP3    H244842   3.692   5.622  11.534  0.3755  0.8229  0.9594
 6883TIP3   OH244843   0.525   5.041   8.327 -0.0475  0.1645 -0.2201
 6883TIP3    H144844   0.612   5.010   8.302  0.2039  0.5431  0.1678
 6883TIP3    H244845   0.480   4.963   8.360 -0.2077 -0.2353 -1.3478
 6884TIP3   OH244846   6.303   4.814   8.934 -0.6202 -0.6967 -0.1122
 6884TIP3    H144847   6.238   4.762   8.982 -0.1472 -0.3525  0.9381
 6884TIP3    H244848   6.285   4.905   8.959  0.3541 -0.6088  0.3227
 6885TIP3   OH244849   6.354   5.537   9.203 -0.2480 -0.3109 -0.7067
 6885TIP3    H144850   6.351   5.631   9.222 -1.5075  0.0355 -2.4039
 6885TIP3    H244851   6.361   5.533   9.108  1.9457 -1.9572 -0.5514
 6886TIP3   OH244852   0.008   3.701  11.610 -0.0414 -0.6612  0.1166
 6886TIP3    H144853   0.050   3.705  11.696 -0.6698 -1.4457  0.4797
 6886TIP3    H244854  -0.077   3.744  11.623  0.4437  0.5392 -0.5038
 6887TIP3   OH244855   1.723   4.883  10.662  0.6942  0.2567  0.3965
 6887TIP3    H144856   1.651   4.946  10.657  2.2667  2.1520  0.7804
 6887TIP3    H244857   1.710   4.839  10.746 -1.2617 -1.0753 -0.5252
 6888TIP3   OH244858   1.780   5.990  10.833 -0.3117 -0.4492 -0.0116
 6888TIP3    H144859   1.785   5.898  10.809 -1.1296 -1.1942  2.3577
 6888TIP3    H244860   1.687   6.012  10.825 -0.1460  0.1363 -0.3953
 6889TIP3   OH244861   2.092   5.964  11.822  0.1889  0.0560 -0.1139
 6889TIP3    H144862   2.114   5.964  11.729  1.5472 -0.6977  0.1889
 6889TIP3    H244863   2.092   5.871  11.847 -0.1525  0.2483  0.6418
 6890TIP3   OH244864   4.351   4.587  11.177  0.2723  0.1786 -0.0212
 6890TIP3    H144865   4.306   4.656  11.128  0.7999 -0.5490 -1.6228
 6890TIP3    H244866   4.443   4.614  11.176  0.0358  1.4690  2.9079
 6891TIP3   OH244867   2.662   4.579   9.038 -0.8995  0.0534  0.1174
 6891TIP3    H144868   2.660   4.512   8.969  1.5495  0.3547 -0.3334
 6891TIP3    H244869   2.705   4.654   8.997 -1.5948  1.1207  1.2795
 6892TIP3   OH244870   1.373   1.403  10.400 -0.2399 -0.0548 -0.1457
 6892TIP3    H144871   1.431   1.388  10.326 -0.8816  1.5089 -1.0228
 6892TIP3    H244872   1.332   1.318  10.416  1.4400 -0.9184 -0.1976
 6893TIP3   OH244873   5.576   3.069   9.808 -0.2064  0.0140 -0.3422
 6893TIP3    H144874   5.482   3.075   9.824 -0.3325  0.2649 -1.1235
 6893TIP3    H244875   5.617   3.097   9.890 -0.7916 -1.7437  0.6133
 6894TIP3   OH244876   0.110   3.250  10.574  0.2404  0.6314  0.4430
 6894TIP3    H144877   0.054   3.233  10.499  0.4656  1.3191  0.1108
 6894TIP3    H244878   0.115   3.345  10.579  0.4848  0.5872  1.1383
 6895TIP3   OH244879   3.595   4.402  10.497  0.1507  0.2118 -0.7564
 6895TIP3    H144880   3.625   4.336  10.434  1.5604 -0.0235  0.1014
 6895TIP3    H244881   3.613   4.363  10.582  0.1141  1.3272 -0.2220
 6896TIP3   OH244882   4.291   6.344  11.159  0.1267  0.0256  0.1038
 6896TIP3    H144883   4.332   6.273  11.209 -1.7311 -0.3236  1.2129
 6896TIP3    H244884   4.243   6.395  11.224 -0.7951  0.7056 -1.0716
 6897TIP3   OH244885   0.159   0.413  11.504 -0.3312  0.1559 -0.2054
 6897TIP3    H144886   0.079   0.406  11.556 -0.0708 -1.8147  0.0065
 6897TIP3    H244887   0.131   0.393  11.415 -0.5052  2.0631 -0.6259
 6898TIP3   OH244888   3.244   3.932  11.364  0.2622 -0.7742 -0.6319
 6898TIP3    H144889   3.209   3.846  11.340 -0.2611 -0.3252 -1.5324
 6898TIP3    H244890   3.308   3.951  11.295  1.3675 -1.0223  0.3050
 6899TIP3   OH244891   0.698   2.596  11.668 -0.2096  0.8019 -0.8524
 6899TIP3    H144892   0.721   2.529  11.732 -0.7657 -0.6379 -2.1090
 6899TIP3    H244893   0.612   2.570  11.636 -0.3235  1.9770 -1.5578
 6900TIP3   OH244894   2.838   1.961  11.005  0.3725  0.3775 -0.0759
 6900TIP3    H144895   2.851   1.972  11.100 -1.5468 -2.4192  0.6404
 6900TIP3    H244896   2.897   1.889  10.981 -0.7292 -0.4328 -0.4698
 6901TIP3   OH244897   4.083   0.996  10.146 -0.1817 -0.4292  0.2257
 6901TIP3    H144898   4.033   0.939  10.088  1.0585 -1.4475  0.1379
 6901TIP3    H244899   4.159   1.023  10.095 -0.6097  1.1506  0.3479
 6902TIP3   OH244900   0.470   2.727  10.075  0.1071 -0.3164 -0.1275
 6902TIP3    H144901   0.525   2.796  10.038 -0.0190  0.3373  0.8699
 6902TIP3    H244902   0.380   2.755  10.056  0.0760 -0.5714 -0.3547
 6903TIP3   OH244903   5.367   2.416   9.764 -0.1238 -0.3430  0.4487
 6903TIP3    H144904   5.399   2.424   9.674  1.2370 -0.6590  0.8803
 6903TIP3    H244905   5.443   2.435   9.818 -1.4885  2.3387  1.6040
 6904TIP3   OH244906   1.430   5.945   9.138 -0.4674 -0.4346  0.3460
 6904TIP3    H144907   1.443   5.850   9.129  0.1658 -0.2368 -0.9287
 6904TIP3    H244908   1.489   5.970   9.209  0.8822 -0.6923 -0.6506
 6905TIP3   OH244909   0.206   2.753  10.840  0.1730  0.4908  0.5165
 6905TIP3    H144910   0.275   2.720  10.896  0.1582 -1.4471 -0.5314
 6905TIP3    H244911   0.125   2.736  10.888  0.2854  0.7282  0.7892
 6906TIP3   OH244912   0.199   4.134  10.763 -0.0547 -0.3925  0.1442
 6906TIP3    H144913   0.281   4.148  10.717 -0.8241 -0.2397 -1.2193
 6906TIP3    H244914   0.136   4.190  10.719 -1.4043 -2.1518 -0.2882
 6907TIP3   OH244915   1.554   3.592  11.419 -0.1735  0.6183  0.5463
 6907TIP3    H144916   1.573   3.542  11.339 -2.3179 -1.7546  1.3921
 6907TIP3    H244917   1.488   3.656  11.392  1.5750  2.1886 -0.2357
 6908TIP3   OH244918   4.624   0.832   8.433 -0.1495  0.2204  0.2531
 6908TIP3    H144919   4.679   0.831   8.511 -1.0255  0.5803  0.8924
 6908TIP3    H244920   4.579   0.747   8.434  1.5599 -0.7698 -1.1565
 6909TIP3   OH244921   3.263   2.964  10.859  0.3269 -0.2071 -0.5795
 6909TIP3    H144922   3.329   2.960  10.790  1.0567 -0.2486  0.1008
 6909TIP3    H244923   3.296   3.030  10.920 -0.0869 -0.4839 -0.0475
 6910TIP3   OH244924   6.003   0.377   8.634 -0.3935 -0.4986 -0.1822
 6910TIP3    H144925   6.095   0.397   8.620 -0.3654  0.0120  0.6437
 6910TIP3    H244926   6.000   0.283   8.649  0.1574 -0.3545  0.9480
 6911TIP3   OH244927   5.176   0.878  10.233 -1.0921  0.1245  0.5193
 6911TIP3    H144928   5.132   0.796  10.212 -0.8175 -0.1806  1.1114
 6911TIP3    H244929   5.224   0.860  10.314 -0.3256  0.6087  0.1891
 6912TIP3   OH244930   3.001   0.393  11.458 -0.0754 -0.3072 -1.0556
 6912TIP3    H144931   2.908   0.376  11.475 -0.2689  0.7964 -0.9321
 6912TIP3    H244932   3.008   0.393  11.362 -0.0782 -1.0194 -1.0570
 6913TIP3   OH244933   2.124   2.147   9.420 -0.3455 -0.0653 -0.3906
 6913TIP3    H144934   2.217   2.149   9.399 -0.1839  0.0823  0.3412
 6913TIP3    H244935   2.085   2.098   9.348 -0.2981  3.2688 -2.9418
 6914TIP3   OH244936   0.900   4.197   9.082 -0.4374  0.1201  0.0967
 6914TIP3    H144937   0.896   4.279   9.032  0.6625  0.3015  0.2718
 6914TIP3    H244938   0.949   4.137   9.025 -0.8695 -0.2866  0.1502
 6915TIP3   OH244939   1.563   3.603  11.722  0.4138  0.6126 -0.2323
 6915TIP3    H144940   1.484   3.621  11.774  0.5565  1.3870 -0.2619
 6915TIP3    H244941   1.542   3.635  11.635  0.5323  0.2252 -0.4051
 6916TIP3   OH244942   0.699   1.141  10.299  0.8091 -0.0789 -0.0237
 6916TIP3    H144943   0.668   1.089  10.373  1.4141 -0.1310  0.1966
 6916TIP3    H244944   0.620   1.163  10.250  0.3238  0.4680  0.9772
 6917TIP3   OH244945   4.261   3.884   8.639 -0.0842  0.1263  0.3959
 6917TIP3    H144946   4.305   3.957   8.682  1.1203 -0.9456  1.0331
 6917TIP3    H244947   4.308   3.806   8.669 -0.3024 -0.7944 -1.5295
 6918TIP3   OH244948   3.542   4.258  13.165  0.2483 -0.1833  0.2080
 6918TIP3    H144949   3.464   4.245  13.111 -0.3368 -1.7475  1.3708
 6918TIP3    H244950   3.570   4.170  13.189  2.2871  0.3525 -0.0118
 6919TIP3   OH244951   5.237   6.438   8.717  0.0112 -0.5020 -0.4168
 6919TIP3    H144952   5.232   6.528   8.687 -1.4757 -0.6376 -0.6199
 6919TIP3    H244953   5.214   6.442   8.810  2.2128 -0.4102  0.2035
 6920TIP3   OH244954   6.661   6.486   9.890  0.0443 -0.3595 -0.1343
 6920TIP3    H144955   6.683   6.577   9.872 -1.2151  0.1896  0.9098
 6920TIP3    H244956   6.741   6.437   9.870  1.4215  1.2079  1.2457
 6921TIP3   OH244957   6.599   1.480   8.913  0.0763 -0.3063 -0.1261
 6921TIP3    H144958   6.526   1.419   8.905  0.3404 -0.5491 -0.7807
 6921TIP3    H244959   6.660   1.437   8.973 -0.3512 -0.0612  0.4941
 6922TIP3   OH244960   1.474   1.746  10.421 -0.2791  1.0522 -0.1031
 6922TIP3    H144961   1.555   1.699  10.442 -0.7218  0.3161 -0.0219
 6922TIP3    H244962   1.405   1.682  10.435 -0.7270  0.9598 -2.4524
 6923TIP3   OH244963   5.700   5.513   8.868 -0.2204  0.1372 -0.5128
 6923TIP3    H144964   5.781   5.463   8.876 -0.5440 -0.6771 -1.8990
 6923TIP3    H244965   5.691   5.559   8.952  0.4644 -1.5645  0.5351
 6924TIP3   OH244966   5.321   3.372  10.022  0.7213 -0.0676  0.1738
 6924TIP3    H144967   5.379   3.416  10.084  1.1533 -0.8971  0.3661
 6924TIP3    H244968   5.365   3.382   9.937  2.7675 -3.2546  0.6964
 6925TIP3   OH244969   4.068   6.672  11.633  0.4913  0.2942  0.0418
 6925TIP3    H144970   4.001   6.631  11.687  0.9386  0.5923  0.8399
 6925TIP3    H244971   4.138   6.694  11.694  1.2714  0.0898 -0.7606
 6926TIP3   OH244972   1.751   1.777  10.081 -0.0946  0.1792 -0.1160
 6926TIP3    H144973   1.801   1.706  10.042 -0.2940  1.3650 -2.7150
 6926TIP3    H244974   1.668   1.777  10.034  0.4491  2.9701 -1.2702
 6927TIP3   OH244975   6.360   3.639   9.642  0.0357 -0.2606  0.1805
 6927TIP3    H144976   6.357   3.562   9.586  1.0403 -0.3787  0.2698
 6927TIP3    H244977   6.405   3.610   9.721  0.4948  0.4198  0.1804
 6928TIP3   OH244978   1.133   5.348   9.395 -0.3754  0.1224  1.0523
 6928TIP3    H144979   1.060   5.410   9.393 -1.3480 -1.0001  0.5525
 6928TIP3    H244980   1.133   5.315   9.485 -1.0511 -0.5237  0.8179
 6929TIP3   OH244981   4.615   6.621  10.762 -0.5034 -0.4880 -0.6324
 6929TIP3    H144982   4.691   6.622  10.820 -0.8630  0.9063 -0.1394
 6929TIP3    H244983   4.633   6.551  10.700  1.4868  0.2028 -0.9144
 6930TIP3   OH244984   1.786   2.896  10.558 -0.7726  0.0056  0.3496
 6930TIP3    H144985   1.765   2.894  10.464  3.3979 -2.8445 -0.8619
 6930TIP3    H244986   1.734   2.825  10.595  0.9861 -2.1257 -0.9896
 6931TIP3   OH244987   4.254   0.700   9.079 -0.2355  0.3709 -0.5130
 6931TIP3    H144988   4.253   0.637   9.151  0.1092 -0.7085 -1.4149
 6931TIP3    H244989   4.287   0.781   9.117  1.8356 -0.7127  0.1425
 6932TIP3   OH244990   3.460   2.594  11.222 -0.0031  0.2676  0.0044
 6932TIP3    H144991   3.365   2.580  11.217 -0.1804  1.3452  0.1316
 6932TIP3    H244992   3.472   2.646  11.302  0.8965 -1.3868  0.9902
 6933TIP3   OH244993   1.417   0.039  11.749 -0.4458 -0.2083  0.0292
 6933TIP3    H144994   1.322   0.046  11.748 -0.5108 -0.6051 -2.5444
 6933TIP3    H244995   1.447   0.109  11.690  0.9132  0.2357  1.1794
 6934TIP3   OH244996   1.796   4.469  10.851  0.2315  0.2940 -0.6104
 6934TIP3    H144997   1.840   4.461  10.767 -0.0427  0.9626 -0.8177
 6934TIP3    H244998   1.706   4.494  10.829  0.4879  1.7603 -0.0792
 6935TIP3   OH244999   2.157   1.632  10.990 -0.2742  0.1212  0.0691
 6935TIP3    H145000   2.222   1.702  10.996  0.4247 -0.5588  0.6500
 6935TIP3    H245001   2.075   1.677  10.968  0.5129  0.9151 -1.3785
 6936TIP3   OH245002   5.913   3.305   9.379  0.0412 -0.3986  0.2135
 6936TIP3    H145003   5.928   3.398   9.367  3.5275 -0.9556 -1.0437
 6936TIP3    H245004   5.867   3.277   9.300 -0.9369  0.1889  0.5563
 6937TIP3   OH245005   6.004   0.534   8.942 -0.1041  0.2785  0.6213
 6937TIP3    H145006   5.975   0.545   9.032 -1.7421 -2.4022  0.5061
 6937TIP3    H245007   5.925   0.544   8.889  0.6927  1.0271 -0.4905
 6938TIP3   OH245008   0.117   4.238   8.553 -0.4014  0.1344 -0.4467
 6938TIP3    H145009   0.048   4.180   8.520 -0.4464  0.6492 -1.2831
 6938TIP3    H245010   0.196   4.210   8.507 -0.0303 -0.4628  0.5200
 6939TIP3   OH245011   4.632   4.595  11.190 -0.0730  0.4239 -0.5750
 6939TIP3    H145012   4.634   4.544  11.271  0.5599  0.6811 -0.4192
 6939TIP3    H245013   4.611   4.684  11.218  1.1308  0.7211 -0.5623
 6940TIP3   OH245014   4.622   1.567   8.543 -0.0165  0.1537 -0.2558
 6940TIP3    H145015   4.674   1.637   8.580  0.6222 -1.1266  1.3805
 6940TIP3    H245016   4.685   1.500   8.518 -0.7664 -1.0143  0.8583
 6941TIP3   OH245017   3.859   4.088  11.296 -0.6339  0.3301  0.0688
 6941TIP3    H145018   3.942   4.083  11.343 -1.3700 -0.0485  1.3701
 6941TIP3    H245019   3.832   3.997  11.285  0.0279  0.3298 -2.0873
 6942TIP3   OH245020   0.413   1.869   9.185  0.1218  0.0117  0.9038
 6942TIP3    H145021   0.413   1.932   9.257 -1.1984  2.3684 -0.9835
 6942TIP3    H245022   0.501   1.874   9.148  0.0177  0.8242  0.7491
 6943TIP3   OH245023   2.155   1.262  10.437  0.1562 -0.1349 -0.6490
 6943TIP3    H145024   2.191   1.175  10.420 -0.8336 -1.1866  2.0403
 6943TIP3    H245025   2.231   1.318  10.450  0.7936 -0.7934 -1.4695
 6944TIP3   OH245026   0.525   6.206  10.418 -0.4580 -0.4887 -0.2793
 6944TIP3    H145027   0.562   6.164  10.495 -1.2523 -0.2656  0.2411
 6944TIP3    H245028   0.469   6.139  10.379  0.6594 -0.9179 -1.2202
 6945TIP3   OH245029   4.592   5.083  10.446  0.4975  0.0678  0.8295
 6945TIP3    H145030   4.580   4.988  10.449 -1.5727  0.2323 -0.1474
 6945TIP3    H245031   4.556   5.115  10.529 -1.6485  0.1751 -0.0787
 6946TIP3   OH245032   5.754   6.024   9.220  0.2843 -0.6438  0.1811
 6946TIP3    H145033   5.811   5.949   9.206  0.3208 -0.5148 -0.4052
 6946TIP3    H245034   5.803   6.082   9.279  0.6099 -0.6941 -0.0412
 6947TIP3   OH245035   0.678   1.412   8.766 -0.0013 -0.3418  0.6919
 6947TIP3    H145036   0.675   1.406   8.670 -0.1316 -0.5431  0.7081
 6947TIP3    H245037   0.666   1.322   8.796 -0.7594 -0.1804  0.9136
 6948TIP3   OH245038   0.513   2.051   8.732 -0.6266  0.0436 -0.1160
 6948TIP3    H145039   0.494   1.970   8.779 -0.6581  0.3826  0.4718
 6948TIP3    H245040   0.457   2.117   8.775 -1.6359  0.1138 -1.4778
 6949TIP3   OH245041   4.936   3.705   8.902 -0.4326  0.2077 -0.1444
 6949TIP3    H145042   4.849   3.745   8.903 -0.3282  0.4288  0.0806
 6949TIP3    H245043   4.939   3.656   8.819 -1.1613 -0.6751  0.3345
 6950TIP3   OH245044   3.859   3.135  10.381 -0.4283  0.6642  0.1766
 6950TIP3    H145045   3.788   3.193  10.408 -1.0089 -0.5605  1.3868
 6950TIP3    H245046   3.847   3.056  10.434  1.3057  0.0765 -0.2487
 6951TIP3   OH245047   0.387   4.904   8.577 -0.6035  0.6758 -0.0668
 6951TIP3    H145048   0.469   4.900   8.626  0.1231 -1.0301 -1.3164
 6951TIP3    H245049   0.320   4.878   8.640  0.1501 -0.3358  0.3490
 6952TIP3   OH245050   4.833   1.311   8.681  0.2820 -0.1007 -0.0977
 6952TIP3    H145051   4.830   1.398   8.720  1.7693  0.0770 -0.3483
 6952TIP3    H245052   4.743   1.296   8.650 -0.0095  1.2999  0.0172
 6953TIP3   OH245053   1.987   2.435   8.998 -0.1091 -0.4683 -0.0626
 6953TIP3    H145054   1.892   2.420   9.001  0.0765 -1.5544  2.3804
 6953TIP3    H245055   2.003   2.503   9.064  0.9828 -1.5540  0.8250
 6954TIP3   OH245056   4.008   0.180  11.374  0.5683 -0.3122  0.2104
 6954TIP3    H145057   3.945   0.154  11.306  0.0448  0.2671  0.4645
 6954TIP3    H245058   4.003   0.110  11.439 -0.3813  0.1040  0.5975
 6955TIP3   OH245059   2.126   1.074   9.760  0.0942  0.4652 -0.1237
 6955TIP3    H145060   2.076   1.091   9.681  0.3601  0.1644 -0.3563
 6955TIP3    H245061   2.067   1.024   9.816  0.4876 -0.8269 -0.8306
 6956TIP3   OH245062   3.412   0.875  10.807  0.0964  0.1188 -0.1131
 6956TIP3    H145063   3.474   0.948  10.805  0.4620 -0.2066 -0.7827
 6956TIP3    H245064   3.466   0.798  10.792 -0.4684 -0.1653 -0.7159
 6957TIP3   OH245065   3.027   0.925   8.837 -0.1940  0.0526  0.2560
 6957TIP3    H145066   3.074   0.843   8.820  0.0823 -0.0782  1.5659
 6957TIP3    H245067   2.935   0.899   8.844 -0.0297 -0.2815  1.3880
 6958TIP3   OH245068   3.022   2.591  10.031  0.2950 -0.5549 -0.1050
 6958TIP3    H145069   3.024   2.566  10.123  1.1803 -0.5037 -0.0931
 6958TIP3    H245070   2.934   2.568  10.001  0.1204 -0.9174  0.6561
 6959TIP3   OH245071   5.395   3.405   8.991 -0.3131 -0.1575  0.7004
 6959TIP3    H145072   5.339   3.482   8.977 -0.7703 -0.5945  0.1053
 6959TIP3    H245073   5.476   3.425   8.944 -0.4979 -0.1135  0.4024
 6960TIP3   OH245074   5.845   6.340  10.270  0.1516  0.0839  0.4295
 6960TIP3    H145075   5.776   6.277  10.289 -0.5127  0.7470  0.2419
 6960TIP3    H245076   5.815   6.386  10.191  1.1951 -0.1898 -0.1498
 6961TIP3   OH245077   0.629   6.540  11.347  0.0229  0.0430 -0.0933
 6961TIP3    H145078   0.556   6.511  11.402  1.1108 -0.1529  1.2974
 6961TIP3    H245079   0.702   6.483  11.372  0.7880  0.5501 -1.1036
 6962TIP3   OH245080   4.125   6.056  10.134 -0.0657  0.2497  0.3709
 6962TIP3    H145081   4.151   6.018  10.050  0.8716  0.0436  0.7402
 6962TIP3    H245082   4.171   6.002  10.199 -0.2151  0.8510  0.9828
 6963TIP3   OH245083   1.177   1.067  11.569  0.4498 -0.0532  0.0159
 6963TIP3    H145084   1.248   1.075  11.633  2.1282 -0.1169 -1.7760
 6963TIP3    H245085   1.217   1.088  11.485 -1.7465  0.2434 -1.0307
 6964TIP3   OH245086   2.689   2.270  11.821 -0.2968 -0.0794 -0.1255
 6964TIP3    H145087   2.763   2.270  11.883 -1.9606 -0.8720  1.9755
 6964TIP3    H245088   2.644   2.352  11.838 -1.6327 -0.9804  0.8806
 6965TIP3   OH245089   4.113   0.756  11.239  0.0947  0.3612 -0.3208
 6965TIP3    H145090   4.054   0.697  11.285 -1.2174  0.6961 -1.5053
 6965TIP3    H245091   4.200   0.718  11.252 -0.2896  0.0765  1.8114
 6966TIP3   OH245092   1.699   5.197   9.322 -0.3984  0.3790 -0.5858
 6966TIP3    H145093   1.635   5.183   9.252 -2.4872 -0.9534  1.4406
 6966TIP3    H245094   1.657   5.260   9.380  0.4673  0.0671  0.4009
 6967TIP3   OH245095   5.219   5.713  10.813  0.0918  0.0994  0.0272
 6967TIP3    H145096   5.278   5.701  10.738  0.8972 -2.9199  1.0126
 6967TIP3    H245097   5.270   5.685  10.889 -2.3466 -2.2202  0.9924
 6968TIP3   OH245098   4.044   0.934  10.414 -0.1382 -0.2555  0.0271
 6968TIP3    H145099   4.128   0.894  10.391 -0.5572 -0.8922 -0.4285
 6968TIP3    H245100   4.016   0.979  10.335  0.5592  1.3875  0.6768
 6969TIP3   OH245101   3.543   5.967  11.799  0.1578  0.0464  0.0884
 6969TIP3    H145102   3.457   6.001  11.823 -0.6844 -0.6110 -1.8075
 6969TIP3    H245103   3.525   5.901  11.733  1.9051 -2.4953  1.9571
 6970TIP3   OH245104   2.216   0.708   8.825  0.0193 -0.0347  0.4965
 6970TIP3    H145105   2.127   0.705   8.859 -0.2600  1.4129 -0.0425
 6970TIP3    H245106   2.224   0.795   8.785  1.2701 -0.6064 -0.5662
 6971TIP3   OH245107   5.817   1.642  11.091 -0.8363  0.5792  0.1722
 6971TIP3    H145108   5.728   1.635  11.056  0.6104  0.8889 -4.0482
 6971TIP3    H245109   5.812   1.715  11.154 -3.5006  0.6658 -0.0161
 6972TIP3   OH245110   4.270   4.545  13.044  0.0397 -0.7903  0.5313
 6972TIP3    H145111   4.182   4.506  13.051 -1.7967  3.1391  3.2294
 6972TIP3    H245112   4.262   4.609  12.973 -0.0130  0.9676  2.0607
 6973TIP3   OH245113   0.145   3.968   8.822 -0.1517 -0.8539 -0.2335
 6973TIP3    H145114   0.161   3.899   8.887  0.6298  0.7478  1.3528
 6973TIP3    H245115   0.223   3.967   8.767 -0.4760 -1.7061 -0.7044
 6974TIP3   OH245116   4.496   3.707  10.773 -0.4668  0.1446  0.2611
 6974TIP3    H145117   4.428   3.757  10.818  0.0936  0.6748  0.5313
 6974TIP3    H245118   4.528   3.766  10.705 -0.9246 -0.4532 -0.4922
 6975TIP3   OH245119   2.800   1.783   9.721 -0.1420 -0.5319 -0.0807
 6975TIP3    H145120   2.846   1.787   9.636 -1.1116 -0.2007 -0.5973
 6975TIP3    H245121   2.708   1.792   9.699 -0.4182 -0.5625  1.0151
 6976TIP3   OH245122   2.778   3.267   9.650 -0.2332 -0.4711  0.1317
 6976TIP3    H145123   2.867   3.239   9.674 -0.4656 -0.1524  1.4495
 6976TIP3    H245124   2.791   3.340   9.590  0.4364  0.5615  1.4856
 6977TIP3   OH245125   5.971   3.006   9.171  0.4192  0.1166 -0.1182
 6977TIP3    H145126   5.921   3.087   9.170  0.5992  0.3028  1.8324
 6977TIP3    H245127   5.924   2.949   9.233  0.2714 -1.3085 -1.4704
 6978TIP3   OH245128   5.374   4.235   8.698 -0.2496 -0.4578  0.1492
 6978TIP3    H145129   5.346   4.325   8.684 -0.5287 -0.5282  0.2624
 6978TIP3    H245130   5.433   4.240   8.774 -1.4126 -0.5814  1.0859
 6979TIP3   OH245131   5.205   3.796  10.657  0.1706  0.4432 -0.3832
 6979TIP3    H145132   5.195   3.813  10.563  1.5280 -0.9526 -0.8239
 6979TIP3    H245133   5.122   3.755  10.682 -0.5349  1.5811 -0.7497
 6980TIP3   OH245134   5.277   6.504  11.343 -0.3107 -0.8859 -0.1753
 6980TIP3    H145135   5.214   6.442  11.379 -1.7635  0.6056 -0.0480
 6980TIP3    H245136   5.285   6.572  11.410 -0.3998  0.1562 -1.2011
 6981TIP3   OH245137   1.385   4.385  10.545  0.2783  0.5411 -0.2242
 6981TIP3    H145138   1.407   4.292  10.544  2.2774  0.9586 -1.8110
 6981TIP3    H245139   1.392   4.410  10.637 -2.1074 -1.1732  0.5499
 6982TIP3   OH245140   0.984   6.020   9.007 -0.5872  0.2084 -0.3582
 6982TIP3    H145141   1.068   6.040   8.964 -0.2749  0.1633  0.2201
 6982TIP3    H245142   0.957   5.937   8.968 -0.0310 -0.1130 -0.0853
 6983TIP3   OH245143   3.661   5.011   8.732  0.2756  0.7719 -0.5321
 6983TIP3    H145144   3.742   5.037   8.776  0.5120 -1.4549  0.5358
 6983TIP3    H245145   3.659   5.063   8.652  2.7296  0.9826 -0.5445
 6984TIP3   OH245146   0.394   0.639  10.168 -0.2232  0.4895  0.0610
 6984TIP3    H145147   0.367   0.558  10.211 -0.4560 -0.1963 -1.3195
 6984TIP3    H245148   0.437   0.611  10.088  1.3978  1.6853  0.4367
 6985TIP3   OH245149   2.000   1.788  11.286 -0.1357 -0.3816 -0.3868
 6985TIP3    H145150   1.984   1.752  11.198 -2.1397  1.7009 -0.9415
 6985TIP3    H245151   1.965   1.876  11.283  1.3667  0.3949  2.0256
 6986TIP3   OH245152   3.545   0.641  11.806 -0.2761 -0.2885  0.1516
 6986TIP3    H145153   3.525   0.549  11.827 -0.6604 -0.5679 -1.3205
 6986TIP3    H245154   3.460   0.684  11.804 -0.1548 -0.0484  0.1961
 6987TIP3   OH245155   1.957   4.919   9.487 -0.4191 -0.4960  0.3259
 6987TIP3    H145156   2.024   4.860   9.520 -0.3353  0.2416  1.5417
 6987TIP3    H245157   1.913   4.952   9.566 -1.5666 -0.2154 -0.3964
 6988TIP3   OH245158   5.044   0.961  11.152 -0.2315 -0.1542  0.0068
 6988TIP3    H145159   4.962   0.977  11.199  0.5797 -2.5062  2.5134
 6988TIP3    H245160   5.085   1.046  11.144 -3.0608  1.2123 -1.8635
 6989TIP3   OH245161   3.141   3.368  11.329  0.8939 -0.0643 -0.3142
 6989TIP3    H145162   3.149   3.385  11.423  2.7074 -0.5819 -0.3420
 6989TIP3    H245163   3.054   3.401  11.307  1.1646  1.9042  1.1654
 6990TIP3   OH245164   2.196   0.155  10.323 -0.2184  0.4037  0.6031
 6990TIP3    H145165   2.120   0.100  10.303 -0.7097  1.1171  0.4913
 6990TIP3    H245166   2.218   0.196  10.240  0.9655 -0.6190  0.3896
 6991TIP3   OH245167   1.725   4.224  11.303  0.1593 -0.0483  0.1446
 6991TIP3    H145168   1.700   4.139  11.338  1.3701 -0.2492  0.5632
 6991TIP3    H245169   1.808   4.208  11.258 -0.3941  0.5927 -1.1736
 6992TIP3   OH245170   1.196   1.430  11.250 -0.2187  0.3038  0.3437
 6992TIP3    H145171   1.284   1.430  11.288  0.6638 -0.7209 -1.5527
 6992TIP3    H245172   1.205   1.480  11.170 -1.2538 -0.1750 -0.0813
 6993TIP3   OH245173   2.492   5.409   9.953  0.5651  0.0873 -0.0499
 6993TIP3    H145174   2.431   5.470   9.995  0.1010 -0.4930  0.1268
 6993TIP3    H245175   2.458   5.323   9.974  1.2797 -0.2418 -0.2149
 6994TIP3   OH245176   3.504   5.885  10.930 -0.1023  0.5598 -0.0818
 6994TIP3    H145177   3.427   5.835  10.901  0.3662 -0.3100  0.1556
 6994TIP3    H245178   3.575   5.821  10.930 -0.0262  0.5067  2.8893
 6995TIP3   OH245179   2.891   3.684  10.933 -0.3950 -0.2769 -0.0498
 6995TIP3    H145180   2.868   3.709  10.844  1.2659  0.2841 -0.3423
 6995TIP3    H245181   2.984   3.704  10.941 -0.4877 -0.4103  1.7839
 6996TIP3   OH245182   6.548   2.995   9.673 -0.0905  0.0186  0.3013
 6996TIP3    H145183   6.569   2.908   9.639 -0.9050 -0.9959  2.2338
 6996TIP3    H245184   6.456   3.008   9.648 -0.3254 -0.2136  1.0161
 6997TIP3   OH245185   1.152   0.485   9.430 -0.1525  0.2599  0.2053
 6997TIP3    H145186   1.222   0.457   9.371 -1.1058  0.7902 -1.2188
 6997TIP3    H245187   1.187   0.469   9.518  0.7978 -1.8184 -0.4879
 6998TIP3   OH245188   5.141   2.555  11.268 -0.3599 -0.3469  0.3010
 6998TIP3    H145189   5.163   2.636  11.314  2.4597 -1.0373  0.3504
 6998TIP3    H245190   5.225   2.522  11.235 -1.3791 -3.2432  0.2649
 6999TIP3   OH245191   3.046   0.768   9.602  0.5274 -0.0271  0.4787
 6999TIP3    H145192   3.031   0.770   9.696 -0.1075  0.1281  0.3807
 6999TIP3    H245193   3.116   0.705   9.590 -1.5009 -2.5251  0.7892
 7000TIP3   OH245194   4.160   3.421  11.468  0.1656 -0.0120  0.2317
 7000TIP3    H145195   4.130   3.486  11.533 -0.8615  0.6870 -0.9031
 7000TIP3    H245196   4.254   3.416  11.482 -0.0643 -0.2114  2.0737
 7001TIP3   OH245197   2.026   0.291  10.022  0.1447  0.2726 -0.5904
 7001TIP3    H145198   2.052   0.231   9.952 -0.9538 -0.4138 -0.4317
 7001TIP3    H245199   1.940   0.260  10.050  0.1836  1.0642  0.4789
 7002TIP3   OH245200   6.396   3.543   9.983 -0.3756  0.4891 -0.0619
 7002TIP3    H145201   6.464   3.491  10.027 -0.9425  1.2782  1.8586
 7002TIP3    H245202   6.321   3.483   9.977 -0.3280  0.4029  0.1751
 7003TIP3   OH245203   1.536   3.860  11.077  0.0062 -0.6479  0.0506
 7003TIP3    H145204   1.590   3.910  11.015  0.1322 -1.6709 -0.6923
 7003TIP3    H245205   1.463   3.827  11.025 -0.9931  0.1489  0.9038
 7004TIP3   OH245206   4.996   1.196  12.078 -0.4962  0.1487 -0.3042
 7004TIP3    H145207   5.068   1.253  12.051  0.9712 -1.5576 -0.1418
 7004TIP3    H245208   4.928   1.212  12.012  1.5291 -1.0749 -2.8665
 7005TIP3   OH245209   3.515   2.541  11.930 -0.0914  0.0476  0.1865
 7005TIP3    H145210   3.599   2.581  11.906  0.0106 -0.8655 -1.1104
 7005TIP3    H245211   3.536   2.449  11.944 -1.1308 -0.6058 -2.0472
 7006TIP3   OH245212   4.564   2.074  10.315  0.0373  0.1853 -0.3398
 7006TIP3    H145213   4.609   1.994  10.290  0.1328  0.0239  0.3401
 7006TIP3    H245214   4.593   2.139  10.251  0.9206 -0.0126 -0.1468
 7007TIP3   OH245215   0.830   4.593   9.112  0.1684  0.1868  0.2388
 7007TIP3    H145216   0.842   4.535   9.036  1.1607  1.1006 -0.3322
 7007TIP3    H245217   0.764   4.656   9.083 -0.1348 -0.0261  0.4717
 7008TIP3   OH245218   0.267   6.006   9.736 -0.1485  0.7317  0.1900
 7008TIP3    H145219   0.346   6.019   9.788 -0.9936 -0.5738  1.9124
 7008TIP3    H245220   0.195   6.016   9.799 -1.3159  0.8156 -1.0977
 7009TIP3   OH245221   6.477   5.168   9.987  0.1197 -0.4610 -0.3179
 7009TIP3    H145222   6.493   5.162   9.893  0.0472  1.1049 -0.4516
 7009TIP3    H245223   6.483   5.078  10.018  0.7656 -0.9252 -1.7203
 7010TIP3   OH245224   0.586   4.595  11.502  0.0324 -0.1720 -0.0694
 7010TIP3    H145225   0.554   4.577  11.591  3.6664 -0.2961  1.3809
 7010TIP3    H245226   0.569   4.689  11.490 -1.5233 -0.3827  0.2387
 7011TIP3   OH245227   0.072   3.188  11.502  0.3623  0.7836  0.3421
 7011TIP3    H145228   0.051   3.280  11.518  0.3423  0.8129  0.1541
 7011TIP3    H245229   0.073   3.180  11.406 -0.7688  0.3404  0.3442
 7012TIP3   OH245230   0.068   0.988  11.160 -0.1906 -0.3173  0.0015
 7012TIP3    H145231   0.085   0.898  11.130  0.5532 -0.3465  0.4792
 7012TIP3    H245232   0.107   0.992  11.247  1.2831  0.9510 -0.6708
 7013TIP3   OH245233   5.902   4.226  11.211  0.3224 -0.2850 -0.3342
 7013TIP3    H145234   5.970   4.294  11.207  0.6114 -0.6146 -1.6367
 7013TIP3    H245235   5.912   4.178  11.129  0.1862 -1.9740  0.5865
 7014TIP3   OH245236   0.061   0.601   9.662  0.2684 -0.0342 -0.2072
 7014TIP3    H145237   0.103   0.595   9.748  0.8584 -1.1369 -0.5475
 7014TIP3    H245238   0.025   0.689   9.659  0.0209 -0.0596  1.2672
 7015TIP3   OH245239   4.417   2.296  11.004  0.2037  0.3363 -0.1122
 7015TIP3    H145240   4.508   2.296  10.975  0.7091  0.8633  1.3870
 7015TIP3    H245241   4.421   2.279  11.098 -1.0615  2.4991  0.4155
 7016TIP3   OH245242   1.144   5.516   8.520  0.4075 -0.5805  0.2661
 7016TIP3    H145243   1.094   5.563   8.587 -0.3528 -1.2845  0.2146
 7016TIP3    H245244   1.209   5.467   8.570 -0.6122 -1.6646  0.5927
 7017TIP3   OH245245   5.586   0.835  11.587  0.0707 -0.2090  0.5247
 7017TIP3    H145246   5.619   0.845  11.676  0.3605 -0.0493  0.4024
 7017TIP3    H245247   5.524   0.906  11.576 -0.8687 -0.9436  1.0015
 7018TIP3   OH245248   5.742   0.003   8.697  0.1886 -0.0486  0.8500
 7018TIP3    H145249   5.824   0.024   8.653 -0.0004  1.6622  1.2342
 7018TIP3    H245250   5.676   0.005   8.628 -0.0230  2.0735  1.0499
 7019TIP3   OH245251   5.073   2.758   8.449 -0.2505  0.8792  0.0617
 7019TIP3    H145252   5.010   2.696   8.411 -0.0642  0.1670  0.8789
 7019TIP3    H245253   5.154   2.742   8.400 -0.2002  0.4550  0.2737
 7020TIP3   OH245254   4.872   6.475  10.035 -0.1570 -0.3631 -0.8445
 7020TIP3    H145255   4.895   6.459  10.126 -0.1641 -0.6252 -0.8873
 7020TIP3    H245256   4.895   6.566  10.020 -0.5151 -0.2069 -0.4713
 7021TIP3   OH245257   0.806   4.968   8.609  0.1219 -0.1755  0.3115
 7021TIP3    H145258   0.730   4.964   8.668 -0.7002 -0.7860 -0.7483
 7021TIP3    H245259   0.825   4.876   8.588 -1.0366  0.0485 -2.1011
 7022TIP3   OH245260   0.630   0.197   9.378 -0.1482 -0.3189  0.0958
 7022TIP3    H145261   0.551   0.148   9.399 -0.0063 -1.6260 -2.1364
 7022TIP3    H245262   0.609   0.245   9.298  0.9703  0.2334  0.1052
 7023TIP3   OH245263   5.509   0.359  10.161 -0.0259  0.0475 -0.6600
 7023TIP3    H145264   5.564   0.423  10.115 -0.6307  0.7953 -0.3593
 7023TIP3    H245265   5.512   0.387  10.253 -1.9199  0.8703 -0.8062
 7024TIP3   OH245266   5.268   4.398   9.301 -0.0966  0.3147  0.0724
 7024TIP3    H145267   5.311   4.373   9.220 -1.0515 -1.9839  0.2027
 7024TIP3    H245268   5.182   4.428   9.274 -0.7728 -1.3615  0.2397
 7025TIP3   OH245269   3.383   0.460   9.436 -0.7522 -0.6575 -0.5389
 7025TIP3    H145270   3.313   0.496   9.492 -0.0336 -0.5394  0.3095
 7025TIP3    H245271   3.464   0.493   9.475 -0.1707 -1.5731 -0.9282
 7026TIP3   OH245272   4.406   1.093   9.550  0.0402 -0.9586  0.0120
 7026TIP3    H145273   4.427   1.184   9.569 -1.8040 -0.5444  0.2622
 7026TIP3    H245274   4.475   1.064   9.491  0.2789  0.8087 -0.6265
 7027TIP3   OH245275   6.555   1.362   9.507 -0.3199  0.4028 -0.2805
 7027TIP3    H145276   6.545   1.382   9.600  1.4855 -1.3678  0.3673
 7027TIP3    H245277   6.588   1.444   9.469  0.1048  0.7995  0.8746
 7028TIP3   OH245278   0.147   5.566  10.661 -0.3317 -0.4095 -0.7215
 7028TIP3    H145279   0.181   5.656  10.661  0.6917 -0.7794  0.2236
 7028TIP3    H245280   0.094   5.562  10.581  1.0986  0.4904 -1.7954
 7029TIP3   OH245281   1.100   0.788   9.743  0.0668  0.3208  0.3337
 7029TIP3    H145282   1.081   0.864   9.688  1.5252  2.2308  2.3039
 7029TIP3    H245283   1.133   0.825   9.825  1.7921 -2.4683  1.0353
 7030TIP3   OH245284   0.238   5.234   9.539 -0.3204 -0.1829 -0.3650
 7030TIP3    H145285   0.330   5.260   9.543 -0.4981  0.3196  2.6330
 7030TIP3    H245286   0.217   5.234   9.446  3.2508 -2.4150 -1.3503
 7031TIP3   OH245287   4.266   2.202  10.770  0.1415 -0.3236  0.2848
 7031TIP3    H145288   4.210   2.277  10.751  0.1865 -0.6271 -1.1878
 7031TIP3    H245289   4.322   2.231  10.842 -0.4698  0.7197  0.3615
 7032TIP3   OH245290   1.629   3.613   9.734 -0.5002 -0.1719 -0.0523
 7032TIP3    H145291   1.541   3.598   9.698  0.1556 -0.8430 -1.4425
 7032TIP3    H245292   1.671   3.671   9.671 -0.8119  2.5366  2.0092
 7033TIP3   OH245293   2.807   2.976   9.501  0.0634  0.0819 -1.0668
 7033TIP3    H145294   2.750   3.053   9.494 -0.2081 -0.1823 -1.8080
 7033TIP3    H245295   2.796   2.946   9.592  0.9826  1.5341 -0.4364
 7034TIP3   OH245296   0.209   1.303  10.154  0.1010 -0.1575  1.0206
 7034TIP3    H145297   0.257   1.383  10.177 -0.8871  0.6189  0.4788
 7034TIP3    H245298   0.185   1.316  10.062 -1.9556 -0.0888  1.5360
 7035TIP3   OH245299   0.182   4.521   9.143  0.3726 -0.3036 -0.1876
 7035TIP3    H145300   0.202   4.484   9.229 -0.1205 -0.4726 -0.1377
 7035TIP3    H245301   0.260   4.571   9.118 -0.4196  1.9814  1.5394
 7036TIP3   OH245302   1.065   2.769  12.085  0.4403 -0.1273 -0.0663
 7036TIP3    H145303   1.013   2.782  12.165  1.2534  0.4726  0.3860
 7036TIP3    H245304   1.010   2.805  12.015  0.2256  0.4795  0.3988
 7037TIP3   OH245305   3.161   1.380  11.529 -0.2297  0.5396  0.8520
 7037TIP3    H145306   3.105   1.413  11.599 -0.8174 -0.1920  0.7388
 7037TIP3    H245307   3.105   1.380  11.452 -0.4228 -1.1822  0.9503
 7038TIP3   OH245308   0.729   6.373  19.061  0.6388 -0.5360  0.5058
 7038TIP3    H145309   0.795   6.307  19.042  0.3908 -0.5102 -0.4909
 7038TIP3    H245310   0.737   6.437  18.991 -0.7632 -0.7970  0.0635
 7039TIP3   OH245311   3.507   2.394  10.649 -0.5196 -0.3072  0.6400
 7039TIP3    H145312   3.570   2.343  10.699 -1.1373  0.1050  1.8872
 7039TIP3    H245313   3.499   2.476  10.698 -0.8796  0.2614 -0.3431
 7040TIP3   OH245314   1.522   4.234  11.999  0.6979  0.3684  0.2488
 7040TIP3    H145315   1.447   4.237  11.940 -0.3975  0.6987  1.5813
 7040TIP3    H245316   1.551   4.143  11.997 -0.1377  0.0979  0.1675
 7041TIP3   OH245317   6.338   3.464  11.096  0.7110  0.3398 -0.3434
 7041TIP3    H145318   6.374   3.375  11.098  1.2489  0.5560 -0.3065
 7041TIP3    H245319   6.414   3.521  11.094  0.3722  0.8248  0.2183
 7042TIP3   OH245320   5.290   6.174   8.935  0.2353  0.0185  0.6671
 7042TIP3    H145321   5.307   6.088   8.898  1.4057 -0.6631  2.6827
 7042TIP3    H245322   5.369   6.225   8.916 -1.0800  1.2852 -1.9982
 7043TIP3   OH245323   2.316   4.920   8.826 -0.1906 -0.1240  0.0682
 7043TIP3    H145324   2.265   4.960   8.897 -2.4638 -1.4255 -0.7356
 7043TIP3    H245325   2.340   4.834   8.860  2.4210  0.8094  0.7956
 7044TIP3   OH245326   6.277   6.329   9.484  0.3778 -0.4898 -0.1441
 7044TIP3    H145327   6.359   6.376   9.502 -0.0236 -0.0684  0.6351
 7044TIP3    H245328   6.304   6.238   9.472  0.9125 -0.4383  0.5905
 7045TIP3   OH245329   0.510   2.957  11.352  0.4524 -0.0195  0.1110
 7045TIP3    H145330   0.604   2.953  11.334  0.4139  1.1853 -0.4551
 7045TIP3    H245331   0.469   2.957  11.266 -0.0003  0.6833  0.3170
 7046TIP3   OH245332   0.943   4.585   8.336 -0.2131  0.4305  0.1429
 7046TIP3    H145333   0.913   4.494   8.336 -0.6621  0.5612 -0.6992
 7046TIP3    H245334   1.021   4.585   8.282  1.2020  0.1450  2.0974
 7047TIP3   OH245335   1.694   0.062  11.344  0.5026 -0.3843  0.8641
 7047TIP3    H145336   1.770   0.014  11.311  0.1958 -0.4568  0.2369
 7047TIP3    H245337   1.729   0.145  11.376  0.7904 -0.2045  0.1069
 7048TIP3   OH245338   3.657   0.888   9.919  0.4735  0.3318  0.1088
 7048TIP3    H145339   3.569   0.881   9.955  1.5635 -0.1519  2.9945
 7048TIP3    H245340   3.645   0.921   9.830 -2.5982 -0.0381  0.2981
 7049TIP3   OH245341   6.663   6.099   8.538 -0.7541 -0.0553 -0.6610
 7049TIP3    H145342   6.612   6.157   8.481  0.5005 -0.3485 -2.1344
 7049TIP3    H245343   6.714   6.158   8.593 -0.8687  0.2362 -0.8626
 7050TIP3   OH245344   1.325   6.119  11.905 -0.1431  0.4806 -0.4220
 7050TIP3    H145345   1.410   6.140  11.942  0.0094 -3.0936  1.7235
 7050TIP3    H245346   1.337   6.034  11.863 -2.6828 -0.2933  0.2147
 7051TIP3   OH245347   0.685   3.575   8.520 -0.0137  0.3818 -0.2187
 7051TIP3    H145348   0.724   3.501   8.566  0.0017  0.0354 -0.7872
 7051TIP3    H245349   0.751   3.602   8.456 -0.9334 -0.6274 -1.6498
 7052TIP3   OH245350   0.747   0.386   8.830 -0.0759 -0.6538  0.4512
 7052TIP3    H145351   0.661   0.349   8.852  0.2800  0.1966  3.8194
 7052TIP3    H245352   0.806   0.352   8.897  1.6787  0.7529 -0.2849
 7053TIP3   OH245353   3.782   2.994  10.852 -0.0721 -0.0023 -0.2170
 7053TIP3    H145354   3.781   3.090  10.854  0.8543  0.0082  0.3536
 7053TIP3    H245355   3.763   2.969  10.942 -0.3366 -0.3581 -0.3714
 7054TIP3   OH245356   4.874   3.555   8.279  0.4010 -0.0352  0.1904
 7054TIP3    H145357   4.841   3.623   8.337  1.0955  0.5053 -0.0418
 7054TIP3    H245358   4.961   3.585   8.253  0.6312 -0.9090 -0.0814
 7055TIP3   OH245359   2.309   6.025  10.968 -0.4607  0.5596 -0.3858
 7055TIP3    H145360   2.401   6.001  10.952 -0.4907  0.0877  0.1153
 7055TIP3    H245361   2.296   6.010  11.061 -1.3603 -0.4811 -0.6543
 7056TIP3   OH245362   1.114   2.968  10.489  0.3822  0.4702 -0.8180
 7056TIP3    H145363   1.132   2.929  10.575  1.2540  0.6806 -0.9017
 7056TIP3    H245364   1.028   2.934  10.466  1.1241 -1.4874 -0.9191
 7057TIP3   OH245365   3.429   3.536  10.941 -0.1614 -0.5008  0.1144
 7057TIP3    H145366   3.384   3.515  11.023 -0.0685 -2.2624 -0.2439
 7057TIP3    H245367   3.522   3.535  10.964 -0.1487 -0.6700  0.0563
 7058TIP3   OH245368   6.258   0.508   9.910  0.0521 -0.0427  0.3168
 7058TIP3    H145369   6.327   0.462   9.862 -0.9648 -2.5385  1.0728
 7058TIP3    H245370   6.182   0.450   9.904 -1.9579  2.4723 -0.2411
 7059TIP3   OH245371   0.845   2.571   8.878  0.6099 -0.4036 -0.3986
 7059TIP3    H145372   0.834   2.576   8.783 -1.5344 -2.3673 -0.3345
 7059TIP3    H245373   0.794   2.645   8.912 -3.4194 -2.7656 -0.6695
 7060TIP3   OH245374   1.243   3.372  11.689 -0.1017  0.8749  0.3146
 7060TIP3    H145375   1.190   3.395  11.765  1.1054  2.8954  0.6094
 7060TIP3    H245376   1.326   3.342  11.725  1.0269  3.2523 -0.1335
 7061TIP3   OH245377   1.217   5.179   8.642  0.1579  0.1699 -0.1968
 7061TIP3    H145378   1.122   5.177   8.633  0.1905  1.1238 -0.9253
 7061TIP3    H245379   1.233   5.232   8.720  0.0947  0.1669 -0.1822
 7062TIP3   OH245380   2.707   6.423   8.767 -0.0900 -0.1232 -0.4227
 7062TIP3    H145381   2.644   6.484   8.727  0.3795 -0.5664 -1.8828
 7062TIP3    H245382   2.652   6.364   8.819 -1.0866 -1.2481 -2.6180
 7063TIP3   OH245383   2.222   0.350   8.851 -0.1548  0.3265  0.1895
 7063TIP3    H145384   2.264   0.362   8.936  1.1768  0.9643 -0.5283
 7063TIP3    H245385   2.188   0.436   8.827  0.8735  0.5416 -0.6053
 7064TIP3   OH245386   3.854   4.994  12.505  0.0043 -0.5349 -0.0156
 7064TIP3    H145387   3.803   5.067  12.470  0.0807 -0.3315  0.2938
 7064TIP3    H245388   3.932   5.035  12.542 -0.3770 -0.6778  0.9799
 7065TIP3   OH245389   1.777   5.676  10.063 -0.0218 -0.3127 -0.2878
 7065TIP3    H145390   1.803   5.634   9.981  1.5274  1.3504 -0.7197
 7065TIP3    H245391   1.859   5.689  10.111 -0.6603  0.5698  0.6188
 7066TIP3   OH245392   1.104   4.523   8.599  0.3203  0.1310  0.2276
 7066TIP3    H145393   1.163   4.494   8.668  1.1391  1.3596  0.0739
 7066TIP3    H245394   1.161   4.565   8.535 -0.8301  3.0142  0.9317
 7067TIP3   OH245395   2.748   5.758  11.151  0.2286 -0.3442 -0.7079
 7067TIP3    H145396   2.692   5.727  11.080  0.0821 -0.0774 -0.7093
 7067TIP3    H245397   2.814   5.689  11.160  0.7324 -0.0086 -1.6494
 7068TIP3   OH245398   3.330   3.567   9.980  0.3495 -0.1669  0.5200
 7068TIP3    H145399   3.366   3.613   9.905  1.1327  0.5960  1.3469
 7068TIP3    H245400   3.406   3.546  10.035 -0.1497 -1.1564  0.8698
 7069TIP3   OH245401   5.511   2.795  11.049 -0.0799  0.2226 -0.0722
 7069TIP3    H145402   5.506   2.859  10.978 -0.0315  1.4169  0.9647
 7069TIP3    H245403   5.587   2.740  11.027  0.8196  1.4934 -0.2254
 7070TIP3   OH245404   1.258   2.810  11.859  0.6408  0.1634  0.0756
 7070TIP3    H145405   1.215   2.726  11.839  0.8294 -0.0836  0.6870
 7070TIP3    H245406   1.320   2.789  11.929  2.2372  0.3705 -1.2012
 7071TIP3   OH245407   4.874   3.901  11.969 -0.3226  0.1218 -0.3610
 7071TIP3    H145408   4.844   3.898  12.060  1.2544  0.3666  0.2014
 7071TIP3    H245409   4.920   3.818  11.956  1.8738  1.1892  0.0091
 7072TIP3   OH245410   0.661   1.005  10.568 -0.3114  0.3228 -0.7315
 7072TIP3    H145411   0.669   1.031  10.660  4.2785  3.2966 -1.6093
 7072TIP3    H245412   0.579   1.046  10.539 -1.5289 -0.1192  1.7596
 7073TIP3   OH245413   6.325   3.099  10.052 -0.2687  0.7342  0.0432
 7073TIP3    H145414   6.391   3.037  10.023 -0.7973 -0.1613  0.7054
 7073TIP3    H245415   6.375   3.174  10.085  0.4344 -0.0797  0.8823
 7074TIP3   OH245416   5.214   5.247   8.769 -0.2349 -0.1271  0.3609
 7074TIP3    H145417   5.131   5.279   8.735 -0.0141 -0.4038 -0.4714
 7074TIP3    H245418   5.219   5.282   8.858 -0.9581  0.3920  0.2068
 7075TIP3   OH245419   5.103   6.438  10.970  0.4545  0.2910 -0.0204
 7075TIP3    H145420   5.028   6.381  10.954  0.3399  0.8812 -1.7727
 7075TIP3    H245421   5.151   6.396  11.042 -0.7207 -0.8941  0.0992
 7076TIP3   OH245422   6.200   1.716  10.842  0.0560 -0.6269  0.3897
 7076TIP3    H145423   6.231   1.785  10.900  0.2386 -0.1386 -0.2833
 7076TIP3    H245424   6.208   1.636  10.894  1.4868 -0.3804  0.5871
 7077TIP3   OH245425   2.771   6.537   9.578  0.1800 -0.1238  0.0862
 7077TIP3    H145426   2.798   6.587   9.500 -0.3263  1.3597  0.8204
 7077TIP3    H245427   2.682   6.566   9.595  0.3237 -0.3345  1.2921
 7078TIP3   OH245428   5.332   5.653   8.637 -0.3454  0.6347 -0.2626
 7078TIP3    H145429   5.263   5.593   8.663  1.4115 -0.8387  1.2309
 7078TIP3    H245430   5.294   5.704   8.565 -2.1739 -1.7412 -1.1005
 7079TIP3   OH245431   2.494   4.999  11.210  0.2099 -0.5068  0.2293
 7079TIP3    H145432   2.451   5.007  11.125  0.6469 -2.0595 -0.1737
 7079TIP3    H245433   2.569   4.941  11.194  0.5168 -0.5249  1.5889
 7080TIP3   OH245434   6.457   4.726  11.095  0.4868 -0.0670 -0.7283
 7080TIP3    H145435   6.364   4.709  11.087  0.5573 -1.0762  0.3014
 7080TIP3    H245436   6.487   4.664  11.162  1.7077  0.8853 -0.3483
 7081TIP3   OH245437   1.796   5.200  11.201 -0.3091  0.8455 -0.3084
 7081TIP3    H145438   1.707   5.199  11.236 -0.8186  0.1518 -1.5677
 7081TIP3    H245439   1.846   5.250  11.265 -1.1007 -0.6845  1.6139
 7082TIP3   OH245440   0.867   0.490  11.475 -0.2031  0.0984 -0.8339
 7082TIP3    H145441   0.822   0.411  11.503 -0.9963  1.1646  1.1810
 7082TIP3    H245442   0.797   0.554  11.462  0.5525  1.1996  0.2531
 7083TIP3   OH245443   3.309   2.685   8.992 -0.0834 -0.6909  0.0787
 7083TIP3    H145444   3.231   2.692   9.048 -1.2709 -1.9064 -1.3343
 7083TIP3    H245445   3.381   2.712   9.048 -1.3697 -0.6957  1.8207
 7084TIP3   OH245446   6.163   3.843   9.772 -0.3790 -0.0299  0.2774
 7084TIP3    H145447   6.245   3.813   9.733 -0.3682  1.0889 -0.6202
 7084TIP3    H245448   6.180   3.934   9.796 -0.6135 -0.4601  2.3107
 7085TIP3   OH245449   4.808   0.141  11.353 -0.0785  0.3611 -0.0990
 7085TIP3    H145450   4.787   0.180  11.438 -2.5144 -1.9129  0.4986
 7085TIP3    H245451   4.782   0.206  11.289 -2.4053  0.4773  0.8726
 7086TIP3   OH245452   3.750   5.429  10.919  0.2019 -0.5525 -0.2301
 7086TIP3    H145453   3.658   5.446  10.898 -0.8038 -2.2246  2.3307
 7086TIP3    H245454   3.777   5.365  10.854 -0.3734  0.0758 -1.1150
 7087TIP3   OH245455   3.997   3.624  11.658 -0.0267 -0.1260  0.1510
 7087TIP3    H145456   3.913   3.635  11.613  0.0864  0.8976  0.1695
 7087TIP3    H245457   4.052   3.694  11.625  0.5735 -0.3121  0.7198
 7088TIP3   OH245458   0.879   3.604  11.098  0.5951  0.2310  0.5644
 7088TIP3    H145459   0.875   3.676  11.035  1.5468  1.2487  1.6127
 7088TIP3    H245460   0.932   3.638  11.170 -0.8192 -0.7115  2.1408
 7089TIP3   OH245461   3.278   4.105   8.662  0.1543  0.0593  0.3456
 7089TIP3    H145462   3.191   4.071   8.681 -0.8342  1.6300 -1.0783
 7089TIP3    H245463   3.282   4.187   8.710  0.0663  0.9433 -1.1108
 7090TIP3   OH245464   1.060   2.080   9.610 -0.8309 -0.4543 -0.4268
 7090TIP3    H145465   1.061   2.095   9.515 -0.9866  2.4873 -0.0429
 7090TIP3    H245466   1.151   2.090   9.637 -0.8965 -0.5156 -0.1765
 7091TIP3   OH245467   5.263   2.200   8.978  0.3055  0.0262  0.0439
 7091TIP3    H145468   5.306   2.119   8.951 -3.4950 -3.6634  3.6306
 7091TIP3    H245469   5.185   2.206   8.922 -0.9002 -0.4620  1.6178
 7092TIP3   OH245470   1.229   0.168  11.190  0.3248  0.1397 -0.5621
 7092TIP3    H145471   1.171   0.230  11.234  0.6531  0.7056 -0.9030
 7092TIP3    H245472   1.315   0.211  11.193  0.6338 -0.4801 -0.4602
 7093TIP3   OH245473   3.421   5.526   8.324  0.2128  0.2910 -0.5767
 7093TIP3    H145474   3.364   5.511   8.399  0.5648  0.8071 -0.1989
 7093TIP3    H245475   3.409   5.449   8.269 -0.8017  0.3626 -0.4740
 7094TIP3   OH245476   3.347   6.371  10.503 -0.6938 -0.2006  0.2191
 7094TIP3    H145477   3.393   6.434  10.448  0.4120 -0.1805  1.1277
 7094TIP3    H245478   3.413   6.340  10.565 -1.9796  0.0725  1.8013
 7095TIP3   OH245479   5.421   3.194   9.566 -0.8758  0.0088  0.0333
 7095TIP3    H145480   5.463   3.109   9.555 -1.7094 -0.3485 -0.4978
 7095TIP3    H245481   5.408   3.227   9.477  0.9532  1.4884  0.2489
 7096TIP3   OH245482   6.560   3.824   9.025  0.2274  0.2982  0.6290
 7096TIP3    H145483   6.527   3.746   8.980 -0.9117  0.5144  1.0760
 7096TIP3    H245484   6.655   3.808   9.032  0.0413 -0.9782  0.5793
 7097TIP3   OH245485   6.121   4.400   8.629 -0.1823 -0.6032 -0.2679
 7097TIP3    H145486   6.063   4.375   8.701  0.4170 -0.6529  0.2055
 7097TIP3    H245487   6.145   4.491   8.649  1.6039 -1.2419  0.7209
 7098TIP3   OH245488   2.178   1.761  11.650 -0.4930  0.6063 -0.2623
 7098TIP3    H145489   2.117   1.695  11.617  0.2223  0.0382 -0.4658
 7098TIP3    H245490   2.234   1.714  11.711  1.0204  0.6357 -1.5425
 7099TIP3   OH245491   2.627   4.946  11.758 -0.4103 -0.0241 -0.0431
 7099TIP3    H145492   2.533   4.942  11.774 -0.0726 -1.5602  1.8754
 7099TIP3    H245493   2.635   4.950  11.662 -2.4005  0.0074 -0.2496
 7100TIP3   OH245494   1.170   0.031  10.732 -0.2690  0.1499  0.2502
 7100TIP3    H145495   1.255  -0.008  10.711  0.4581  0.2491  2.6238
 7100TIP3    H245496   1.188   0.125  10.738 -0.9488  0.3634 -0.8737
 7101TIP3   OH245497   0.195   2.094   9.615  0.4513  0.6564 -0.3658
 7101TIP3    H145498   0.106   2.079   9.646  0.3706 -1.1410 -1.3532
 7101TIP3    H245499   0.246   2.108   9.694 -0.3357 -0.4342  0.3555
 7102TIP3   OH245500   5.379   5.990  11.807  0.1441  0.6108  0.3456
 7102TIP3    H145501   5.360   5.910  11.857  1.7685 -0.7295 -1.0387
 7102TIP3    H245502   5.313   5.991  11.738  0.6626 -0.1086 -0.1900
 7103TIP3   OH245503   6.215   4.596  12.131 -0.1320  0.0067  0.8217
 7103TIP3    H145504   6.167   4.620  12.210  0.1003 -0.9345  1.2701
 7103TIP3    H245505   6.270   4.671  12.111  1.0760 -0.3663  2.5487
 7104TIP3   OH245506   0.233   4.664   9.658  0.2426  0.6994 -0.4788
 7104TIP3    H145507   0.282   4.738   9.621  1.0724  0.4045  0.0197
 7104TIP3    H245508   0.146   4.701   9.677 -0.4179  0.7285 -3.1905
 7105TIP3   OH245509   5.653   5.478  10.610  0.5361 -0.1615 -0.2161
 7105TIP3    H145510   5.737   5.452  10.647 -0.2186 -1.4938  0.6458
 7105TIP3    H245511   5.588   5.444  10.671 -0.6603  0.1134 -1.2871
 7106TIP3   OH245512   3.140   6.094  10.269 -0.3796 -0.2230 -0.1843
 7106TIP3    H145513   3.102   6.006  10.271 -0.1590 -0.3160 -0.1455
 7106TIP3    H245514   3.232   6.081  10.247 -0.3890  0.0127 -0.3815
 7107TIP3   OH245515   3.002   2.913  10.767  0.1945  0.7073 -0.0158
 7107TIP3    H145516   3.054   2.926  10.847 -1.2193  2.3888  0.6851
 7107TIP3    H245517   2.979   3.001  10.739 -0.9472  0.0577 -1.2294
 7108TIP3   OH245518   0.210   4.954   9.509  0.1687  0.3293 -0.7239
 7108TIP3    H145519   0.125   4.916   9.488  0.3682 -0.6174  0.0836
 7108TIP3    H245520   0.190   5.039   9.548 -0.3213  0.7606 -1.8625
 7109TIP3   OH245521   1.106   5.155  11.428  0.4537 -0.1624 -0.1088
 7109TIP3    H145522   1.087   5.084  11.367  1.4941 -0.5229 -0.0329
 7109TIP3    H245523   1.076   5.122  11.513 -1.4225  0.5195 -0.4429
 7110TIP3   OH245524   3.470   1.518  10.926  0.4760  0.2034  0.7092
 7110TIP3    H145525   3.395   1.504  10.984  0.6247 -1.8461  0.4952
 7110TIP3    H245526   3.432   1.524  10.839  0.5337 -1.2995  0.5456
 7111TIP3   OH245527   0.461   5.255   8.475  0.3791 -0.7445  0.0806
 7111TIP3    H145528   0.454   5.195   8.400  0.6904 -1.5662  0.7000
 7111TIP3    H245529   0.555   5.269   8.484  0.2501  1.1913 -1.0994
 7112TIP3   OH245530   4.990   2.213  10.037  0.3614 -0.1998  0.5210
 7112TIP3    H145531   4.997   2.122  10.008 -1.3369 -0.4898  0.8943
 7112TIP3    H245532   5.010   2.264   9.959  0.3230 -0.9083  0.0309
 7113TIP3   OH245533   3.871   3.097   8.745 -0.3650 -0.4596 -0.0583
 7113TIP3    H145534   3.905   3.120   8.658 -2.8218 -3.1890 -1.9295
 7113TIP3    H245535   3.838   3.180   8.779  0.9173  0.7557 -1.5545
 7114TIP3   OH245536   4.586   4.402   8.975 -0.1444 -0.1699 -0.3341
 7114TIP3    H145537   4.532   4.328   8.946 -1.0828  0.5974 -0.5914
 7114TIP3    H245538   4.590   4.393   9.070 -1.4436  0.2364 -0.2291
 7115TIP3   OH245539   5.562   6.401   9.210  0.0725 -0.2856 -0.3156
 7115TIP3    H145540   5.494   6.340   9.239 -0.3770  0.1357 -0.4611
 7115TIP3    H245541   5.619   6.412   9.287 -1.4728  1.3353  0.6813
 7116TIP3   OH245542   2.674   0.221   9.727 -0.2438 -0.4711 -0.3014
 7116TIP3    H145543   2.674   0.131   9.693 -0.6670 -2.0094  3.2593
 7116TIP3    H245544   2.582   0.245   9.731 -0.0697  1.0355 -3.0517
 7117TIP3   OH245545   2.343   3.709  12.075  0.2761 -0.7395  0.1678
 7117TIP3    H145546   2.277   3.645  12.048 -0.0596  0.1746 -1.3369
 7117TIP3    H245547   2.295   3.772  12.129  0.5414 -1.5670  1.3937
 7118TIP3   OH245548   4.989   4.091  11.662 -0.7742  0.9060 -0.8382
 7118TIP3    H145549   5.001   4.173  11.615 -0.2586  1.6019  0.4483
 7118TIP3    H245550   5.043   4.100  11.740  0.9818 -1.5118 -1.6618
 7119TIP3   OH245551   2.666   2.500   8.910 -0.0714  0.0826 -0.3155
 7119TIP3    H145552   2.657   2.572   8.848 -0.1932  1.5141  1.2794
 7119TIP3    H245553   2.749   2.517   8.954  0.6005 -1.5809 -0.8866
 7120TIP3   OH245554   2.675   0.829  11.909 -0.0901  0.4760  0.1773
 7120TIP3    H145555   2.690   0.760  11.974  0.4964 -0.2718 -0.7221
 7120TIP3    H245556   2.605   0.795  11.853  0.8548  0.1620 -0.8506
 7121TIP3   OH245557   1.923   0.663  11.285 -0.1117  0.6747 -0.1836
 7121TIP3    H145558   1.942   0.576  11.320  0.7692  0.5473 -0.9511
 7121TIP3    H245559   1.870   0.646  11.207  0.5625  0.7812 -0.6745
 7122TIP3   OH245560   2.055   3.818   8.802 -0.1941  0.1078  0.0654
 7122TIP3    H145561   2.090   3.729   8.797  0.5360  0.4708 -1.8502
 7122TIP3    H245562   2.127   3.870   8.835  0.2154  0.3890 -1.2266
 7123TIP3   OH245563   3.955   4.078  11.028 -0.0764  0.4158 -0.9097
 7123TIP3    H145564   3.874   4.053  10.984 -0.3971  0.3659 -0.3041
 7123TIP3    H245565   3.927   4.105  11.116  0.6744 -0.6022 -0.3353
 7124TIP3   OH245566   2.231   3.498  10.779 -0.2384 -0.5995 -0.1442
 7124TIP3    H145567   2.242   3.410  10.745  1.1390 -0.2975 -0.5446
 7124TIP3    H245568   2.320   3.526  10.803 -0.0719  1.8466 -2.9770
 7125TIP3   OH245569   2.863   5.685  10.799  0.3769  0.6801 -0.0520
 7125TIP3    H145570   2.802   5.628  10.752  0.0230  1.5763 -0.6817
 7125TIP3    H245571   2.925   5.624  10.840  0.0243 -0.1597 -0.7397
 7126TIP3   OH245572   3.874   4.596  11.536 -0.1572 -0.2192 -0.1945
 7126TIP3    H145573   3.779   4.592  11.526 -0.2766  1.0374  0.3038
 7126TIP3    H245574   3.906   4.624  11.450 -0.4902  2.0485  0.3550
 7127TIP3   OH245575   3.406   4.561   9.900 -0.4284 -0.0585 -0.2843
 7127TIP3    H145576   3.313   4.565   9.879 -0.4746  1.1240  0.0829
 7127TIP3    H245577   3.412   4.587   9.992  0.3697  1.2371 -0.6699
 7128TIP3   OH245578   2.711   6.069   9.418 -0.0895 -0.1621 -0.1534
 7128TIP3    H145579   2.800   6.067   9.454 -0.3903  0.9497  0.7148
 7128TIP3    H245580   2.723   6.058   9.324  1.1294  1.6167 -0.2520
 7129TIP3   OH245581   0.335   1.377  10.501 -0.3278 -0.0127  0.0131
 7129TIP3    H145582   0.283   1.297  10.507 -0.5608  0.0758 -0.7232
 7129TIP3    H245583   0.284   1.435  10.445 -0.8339  1.1948  1.6463
 7130TIP3   OH245584   3.029   3.955   9.551  0.6251 -0.5344  0.0109
 7130TIP3    H145585   2.993   3.887   9.608  0.4381 -1.0434 -0.6982
 7130TIP3    H245586   3.124   3.943   9.555  0.6493 -0.1640  0.6957
 7131TIP3   OH245587   0.003   6.255  11.663 -0.0858  0.1016  0.0675
 7131TIP3    H145588   0.093   6.257  11.631 -0.0617  0.5802  0.1538
 7131TIP3    H245589  -0.044   6.312  11.602 -0.5123 -0.8454 -0.5136
 7132TIP3   OH245590   3.623   1.827  11.520  0.4882  0.6516  0.1272
 7132TIP3    H145591   3.561   1.814  11.448  0.6035 -1.1915  0.3155
 7132TIP3    H245592   3.700   1.865  11.478  1.6215 -2.8001 -1.3641
 7133TIP3   OH245593   6.608   4.066   8.468 -0.1604 -0.1852 -0.7269
 7133TIP3    H145594   6.547   3.996   8.446 -0.1141 -0.5376  0.2274
 7133TIP3    H245595   6.553   4.144   8.477 -0.2019 -0.0702 -1.8696
 7134TIP3   OH245596   6.360   1.950   8.815 -0.2900  0.2678  0.2182
 7134TIP3    H145597   6.439   1.900   8.798 -1.1079 -1.0784  0.2673
 7134TIP3    H245598   6.327   1.916   8.898 -1.2234  0.4208 -0.0714
 7135TIP3   OH245599   4.019   2.659  11.063  0.5612  0.0952 -0.2212
 7135TIP3    H145600   3.981   2.633  11.147 -0.6929 -1.2604 -1.1533
 7135TIP3    H245601   4.095   2.602  11.053  0.7215  0.2689  0.0079
 7136TIP3   OH245602   2.682   5.512   8.659  0.1647 -0.2318  0.3755
 7136TIP3    H145603   2.629   5.591   8.650  2.6493  1.4178 -1.3476
 7136TIP3    H245604   2.750   5.537   8.723 -0.9070 -2.2043  2.3994
 7137TIP3   OH245605   4.634   2.940   9.118 -0.1425 -0.6106 -0.1123
 7137TIP3    H145606   4.678   3.023   9.131 -1.1640 -0.2824  1.4865
 7137TIP3    H245607   4.552   2.948   9.167  0.0740 -2.8306  0.6974
 7138TIP3   OH245608   0.391   0.658  10.811 -0.1328  0.0831  0.0457
 7138TIP3    H145609   0.453   0.689  10.877 -2.2395  0.6816  1.8940
 7138TIP3    H245610   0.406   0.714  10.735  2.1958 -0.4537  0.0382
 7139TIP3   OH245611   0.295   3.227   8.636  0.1013  0.3485 -0.0602
 7139TIP3    H145612   0.254   3.148   8.601  0.2745 -0.1981  0.9264
 7139TIP3    H245613   0.367   3.194   8.690  0.7084  1.2230 -0.3253
 7140TIP3   OH245614   5.268   4.957  10.983 -0.4783 -0.1616  0.3548
 7140TIP3    H145615   5.205   4.918  11.044  0.1682 -0.7201  0.6845
 7140TIP3    H245616   5.354   4.940  11.023  0.1064 -1.9683 -1.4336
 7141TIP3   OH245617   5.753   5.865  11.403 -0.1398 -0.4581 -0.2167
 7141TIP3    H145618   5.679   5.805  11.392 -0.1696 -0.1967 -1.7269
 7141TIP3    H245619   5.714   5.944  11.440  0.0851 -1.6801  2.9247
 7142TIP3   OH245620   3.264   6.028  11.811 -0.1197 -0.0801  0.2422
 7142TIP3    H145621   3.268   6.120  11.837 -1.9825  0.1840 -0.1962
 7142TIP3    H245622   3.175   6.001  11.836  0.0879 -1.4885 -0.4690
 7143TIP3   OH245623   4.133   1.447  11.125  0.2479 -0.1113 -0.8653
 7143TIP3    H145624   4.141   1.470  11.218  0.5366 -1.2634 -0.5988
 7143TIP3    H245625   4.189   1.511  11.081  0.2789  0.3179 -0.2324
 7144TIP3   OH245626   3.373   2.195   9.846 -0.0178  0.4952 -0.0157
 7144TIP3    H145627   3.284   2.207   9.813 -0.2518  0.9416  0.7472
 7144TIP3    H245628   3.364   2.195   9.941  0.8629  1.1126  0.0835
 7145TIP3   OH245629   4.529   1.275   8.664  0.2565  0.2978 -0.2243
 7145TIP3    H145630   4.454   1.269   8.723  1.1628 -0.8535  0.8617
 7145TIP3    H245631   4.518   1.203   8.603 -0.1389  0.8626 -0.8306
 7146TIP3   OH245632   1.265   1.001  11.114  0.5663 -0.6822 -0.0940
 7146TIP3    H145633   1.344   1.001  11.060  0.5915 -0.9142 -0.0556
 7146TIP3    H245634   1.212   0.929  11.080  1.0752 -1.5619  0.9092
 7147TIP3   OH245635   4.230   2.939   8.759  0.6211  0.1966 -0.2714
 7147TIP3    H145636   4.194   2.850   8.767  0.0874  0.4274 -0.0445
 7147TIP3    H245637   4.324   2.928   8.773  0.7085 -0.4783 -1.2782
 7148TIP3   OH245638   3.161   0.560  10.846  0.0466  0.1610  0.1423
 7148TIP3    H145639   3.078   0.513  10.857  0.6226 -0.7960  0.4148
 7148TIP3    H245640   3.150   0.639  10.900 -1.2673  0.8345 -1.0221
 7149TIP3   OH245641   3.996   4.102   9.362 -0.1186  0.1545  0.3341
 7149TIP3    H145642   4.005   4.177   9.303 -1.3029 -0.4748 -0.6832
 7149TIP3    H245643   4.086   4.079   9.384  0.2978  1.3749  0.0355
 7150TIP3   OH245644   0.179   6.522   8.526  0.4426  0.2321  0.0286
 7150TIP3    H145645   0.089   6.491   8.525  0.6986 -0.6528 -2.2520
 7150TIP3    H245646   0.172   6.617   8.535 -0.5165 -0.0250  3.1871
 7151TIP3   OH245647   6.579   5.048  11.377 -0.1780  0.1345 -0.1952
 7151TIP3    H145648   6.669   5.021  11.397  0.0148  0.5005 -0.5553
 7151TIP3    H245649   6.564   5.018  11.287 -0.2993  0.3607 -0.2517
 7152TIP3   OH245650   0.302   6.528   9.403  1.0645 -0.1642 -0.2356
 7152TIP3    H145651   0.222   6.579   9.398  0.5306 -0.6119  2.3656
 7152TIP3    H245652   0.355   6.559   9.329 -0.8989  1.1440 -1.1747
 7153TIP3   OH245653   1.367   2.815  12.384  0.0302 -0.3656  0.3204
 7153TIP3    H145654   1.284   2.862  12.387  0.3284  0.1716  0.3657
 7153TIP3    H245655   1.419   2.852  12.455  0.2497 -0.8150  0.4005
 7154TIP3   OH245656   4.813   5.930  10.043 -0.0471 -0.2974  0.8808
 7154TIP3    H145657   4.740   5.950   9.985  0.7341 -2.2551 -0.9013
 7154TIP3    H245658   4.775   5.877  10.113 -0.5842  0.0486  0.8543
 7155TIP3   OH245659   6.274   1.924   9.838 -0.1394  0.3444 -0.2624
 7155TIP3    H145660   6.263   1.829   9.829 -1.9303  0.5188 -0.3134
 7155TIP3    H245661   6.267   1.957   9.748  0.9178  0.5075 -0.2973
 7156TIP3   OH245662   5.521   1.975  11.464  0.1492 -0.1827 -0.0967
 7156TIP3    H145663   5.572   1.896  11.446  0.5980  0.0015  0.3433
 7156TIP3    H245664   5.430   1.947  11.457  0.3067 -0.5822 -0.5994
 7157TIP3   OH245665   6.546   6.340   9.547  0.3563 -0.4181 -0.1508
 7157TIP3    H145666   6.578   6.251   9.531 -0.4111 -0.7179 -0.0971
 7157TIP3    H245667   6.624   6.391   9.570  0.6587 -1.3687  1.0590
 7158TIP3   OH245668   4.712   4.195   9.894 -0.0336 -0.0360 -0.3608
 7158TIP3    H145669   4.646   4.148   9.845  0.4625  0.3705 -1.4471
 7158TIP3    H245670   4.713   4.283   9.856 -0.2264  0.5571  0.9423
 7159TIP3   OH245671   2.475   0.344  12.486  0.7730 -0.4906  0.3532
 7159TIP3    H145672   2.421   0.325  12.563  0.7885 -0.5661  0.3460
 7159TIP3    H245673   2.542   0.404  12.519 -1.6620  2.9710 -0.4578
 7160TIP3   OH245674   3.830   0.626  11.184 -0.2059 -0.1469 -0.3179
 7160TIP3    H145675   3.742   0.630  11.222  0.1071  0.7204  0.3263
 7160TIP3    H245676   3.823   0.675  11.102  0.1013  1.5060  0.6098
 7161TIP3   OH245677   0.625   3.616  11.757 -0.1067 -0.3231 -0.5295
 7161TIP3    H145678   0.677   3.662  11.823 -1.7988  0.9694 -0.0200
 7161TIP3    H245679   0.610   3.529  11.794  0.0973 -0.0649  0.1771
 7162TIP3   OH245680   3.509   0.592  10.373  0.2741  0.3367  0.1644
 7162TIP3    H145681   3.509   0.644  10.292 -1.4256 -1.4830 -1.1135
 7162TIP3    H245682   3.576   0.525  10.358 -1.1458 -0.9994 -0.5097
 7163TIP3   OH245683   4.593   6.113   9.831  0.3020 -0.1850  0.8012
 7163TIP3    H145684   4.650   6.067   9.770  0.4041 -0.4762  1.1152
 7163TIP3    H245685   4.515   6.135   9.779  0.3555 -0.4943  0.5856
 7164TIP3   OH245686   0.352   4.065  10.366  0.2459 -0.3011  0.2108
 7164TIP3    H145687   0.373   4.140  10.421 -0.6558 -0.5795  0.9638
 7164TIP3    H245688   0.263   4.082  10.334  0.7132 -0.1937 -1.0960
 7165TIP3   OH245689   1.781   1.990   9.541  0.4153 -0.0072  0.1944
 7165TIP3    H145690   1.749   2.079   9.525  0.7358  0.1701  0.5289
 7165TIP3    H245691   1.807   1.990   9.633 -2.3853 -1.2885  1.1086
 7166TIP3   OH245692   3.329   4.690  10.192  0.1560 -0.0747 -0.9267
 7166TIP3    H145693   3.421   4.678  10.216  0.1394  0.8981 -0.3595
 7166TIP3    H245694   3.280   4.652  10.265  0.1118  0.6778 -0.5572
 7167TIP3   OH245695   3.521   4.765  12.399 -0.1078  0.3027  0.0416
 7167TIP3    H145696   3.525   4.722  12.484 -0.0875  1.3701  0.5928
 7167TIP3    H245697   3.528   4.858  12.418  1.2910  0.5066 -1.2324
 7168TIP3   OH245698   3.315   4.002   9.495 -0.1249 -0.1082 -0.0686
 7168TIP3    H145699   3.389   3.963   9.449 -0.5699 -0.8070 -0.2051
 7168TIP3    H245700   3.266   4.047   9.427  0.2993  0.5670  0.0629
 7169TIP3   OH245701   3.407   6.507  11.120 -0.1496 -0.0634  0.0392
 7169TIP3    H145702   3.328   6.516  11.066  0.0959 -0.0693 -0.3219
 7169TIP3    H245703   3.379   6.452  11.194 -0.6139  0.3408  0.1753
 7170TIP3   OH245704   0.446   1.660  11.010 -0.1615 -0.5961  0.4543
 7170TIP3    H145705   0.375   1.597  11.021 -0.1955 -0.9912 -1.6511
 7170TIP3    H245706   0.454   1.702  11.096 -0.9041 -2.6404  1.6097
 7171TIP3   OH245707   0.856   0.449   9.298  0.0872 -0.5743  0.3319
 7171TIP3    H145708   0.830   0.417   9.212  1.4907  0.6689 -0.6129
 7171TIP3    H245709   0.894   0.373   9.342 -1.9711 -1.5936  0.4843
 7172TIP3   OH245710   2.662   6.439   9.203  0.4212  0.1981 -0.2114
 7172TIP3    H145711   2.630   6.508   9.146  1.0897  0.7372  0.0435
 7172TIP3    H245712   2.728   6.482   9.258  0.2222 -0.4464  0.5473
 7173TIP3   OH245713   6.487   3.175  11.430  0.0147  0.7436  0.2436
 7173TIP3    H145714   6.457   3.264  11.445 -1.5012  0.1132  1.0685
 7173TIP3    H245715   6.576   3.174  11.466 -0.2017  1.7295  0.8471
 7174TIP3   OH245716   2.794   1.972   8.808 -0.0517 -0.0243  0.6371
 7174TIP3    H145717   2.807   2.056   8.852 -0.4450 -0.9059  2.5306
 7174TIP3    H245718   2.800   1.993   8.714 -4.2534  2.9155  0.7518
 7175TIP3   OH245719   3.826   4.951  10.660  0.3314 -0.0386  0.2697
 7175TIP3    H145720   3.797   5.011  10.590 -1.4550  0.6817  1.5524
 7175TIP3    H245721   3.870   5.008  10.723  0.9840 -0.5190  0.2567
 7176TIP3   OH245722   4.022   2.427  10.453 -0.0779  0.1404  0.4039
 7176TIP3    H145723   4.092   2.480  10.415 -0.3032  1.0329  1.2083
 7176TIP3    H245724   4.008   2.464  10.540  0.1972 -1.6545  1.2540
 7177TIP3   OH245725   4.142   3.049  10.134 -0.2835 -0.4729  0.3918
 7177TIP3    H145726   4.200   3.115  10.096 -1.4241 -1.1373 -2.8854
 7177TIP3    H245727   4.179   2.965  10.106 -1.9750 -0.9501 -0.6184
 7178TIP3   OH245728   1.427   4.668  11.710 -0.1468 -0.3675  0.4642
 7178TIP3    H145729   1.411   4.593  11.767  2.8528 -2.7694 -1.5757
 7178TIP3    H245730   1.356   4.667  11.647 -1.6568  0.3224  2.0557
 7179TIP3   OH245731   3.249   0.286   8.984  1.0780 -0.1065 -0.8785
 7179TIP3    H145732   3.276   0.194   8.985 -1.1971 -0.8758  1.3939
 7179TIP3    H245733   3.266   0.317   9.073 -0.2179  0.9736 -0.9682
 7180TIP3   OH245734   2.231   3.366   9.120  0.2246  0.2311 -0.4637
 7180TIP3    H145735   2.186   3.371   9.205  1.1827 -0.2836  0.0914
 7180TIP3    H245736   2.239   3.273   9.102  1.4747  0.2905 -0.3135
 7181TIP3   OH245737   3.024   4.871  10.422  0.3141  0.0107 -0.1265
 7181TIP3    H145738   3.063   4.785  10.407 -2.1313 -0.8847 -2.0944
 7181TIP3    H245739   3.061   4.927  10.354  0.4075 -0.0480 -0.1236
 7182TIP3   OH245740   3.999   4.383  12.575  0.3058 -0.2987  0.1567
 7182TIP3    H145741   3.943   4.307  12.591 -0.9674  0.8770  1.5796
 7182TIP3    H245742   4.035   4.404  12.661  0.6224  0.7231 -0.2202
 7183TIP3   OH245743   0.764   3.742  10.442 -0.5938  0.4668  0.1401
 7183TIP3    H145744   0.705   3.726  10.368  0.6884  0.3500 -0.8979
 7183TIP3    H245745   0.722   3.698  10.516 -2.0760  0.8764 -0.4256
 7184TIP3   OH245746   6.233   5.628   9.920 -0.2629 -0.0951  0.4211
 7184TIP3    H145747   6.218   5.650  10.013 -1.3528 -2.4996  0.8877
 7184TIP3    H245748   6.174   5.555   9.903  0.6457 -0.3634 -1.9228
 7185TIP3   OH245749   1.800   1.231  10.076  0.2606 -0.0595  0.6363
 7185TIP3    H145750   1.783   1.250  10.168  0.8726  1.5587  0.4408
 7185TIP3    H245751   1.895   1.242  10.067  0.2744 -0.7059 -0.0867
 7186TIP3   OH245752   2.032   4.610  11.831 -0.3523 -0.2155  0.2432
 7186TIP3    H145753   2.096   4.680  11.847 -0.8113 -0.2505  2.6890
 7186TIP3    H245754   1.947   4.654  11.836 -0.6126 -0.7697  0.9184
 7187TIP3   OH245755   2.735   2.365  11.531  0.7138 -0.0900 -0.5512
 7187TIP3    H145756   2.682   2.437  11.565  2.0791  0.8810 -0.3940
 7187TIP3    H245757   2.763   2.317  11.609  0.9458  0.0326 -0.5600
 7188TIP3   OH245758   1.228   2.662  11.123 -0.1961 -0.0679  0.4149
 7188TIP3    H145759   1.164   2.724  11.156 -2.1554 -2.3546  1.1870
 7188TIP3    H245760   1.196   2.576  11.152  1.5890 -1.5934 -1.7589
 7189TIP3   OH245761   4.473   4.940   8.828 -0.5517 -0.3790 -0.2417
 7189TIP3    H145762   4.488   4.847   8.841  0.0590 -0.1962  0.4264
 7189TIP3    H245763   4.413   4.945   8.753 -0.5891 -1.2993 -0.2786
 7190TIP3   OH245764   1.911   2.427  11.242 -0.0682 -0.5827  0.6414
 7190TIP3    H145765   1.985   2.383  11.201 -1.1022 -2.7348  0.9467
 7190TIP3    H245766   1.861   2.463  11.168  0.8301  0.1839  0.3903
 7191TIP3   OH245767   3.131   2.445  12.005 -0.5023  0.5868  0.3045
 7191TIP3    H145768   3.146   2.381  12.074 -3.1910 -1.7439 -1.0843
 7191TIP3    H245769   3.073   2.510  12.045  0.6038  1.1108  1.1207
 7192TIP3   OH245770   5.876   6.377  11.970 -0.1918 -0.3128 -0.1355
 7192TIP3    H145771   5.793   6.424  11.982 -0.6415 -1.2958  0.7583
 7192TIP3    H245772   5.850   6.292  11.935  0.4562 -0.5714  0.0070
 7193TIP3   OH245773   4.887   3.018  10.178  0.1655 -0.0001 -0.2139
 7193TIP3    H145774   4.939   3.089  10.141  0.0791 -0.1332 -0.5951
 7193TIP3    H245775   4.915   2.940  10.131 -1.6082  0.1890 -1.6929
 7194TIP3   OH245776   5.004   5.090   9.022 -0.1845 -0.0494  0.0436
 7194TIP3    H145777   4.978   5.073   9.113  0.1605 -0.7137  0.0211
 7194TIP3    H245778   5.081   5.146   9.029 -1.4656  1.8223  0.1165
 7195TIP3   OH245779   5.559   3.938  10.176 -0.3934 -0.0750 -0.4367
 7195TIP3    H145780   5.532   3.867  10.234 -0.2846 -0.3991 -0.7810
 7195TIP3    H245781   5.551   4.017  10.230 -1.6587 -0.1955 -0.4114
 7196TIP3   OH245782   3.306   5.350  10.041 -0.5117 -0.1350 -0.0992
 7196TIP3    H145783   3.396   5.354  10.072 -0.2327  0.2331 -0.9240
 7196TIP3    H245784   3.313   5.336   9.946 -1.3059  0.4396 -0.2577
 7197TIP3   OH245785   2.276   3.385  10.130  0.7871 -0.3875  0.6859
 7197TIP3    H145786   2.341   3.456  10.133 -0.4164  0.7432  2.9778
 7197TIP3    H245787   2.209   3.417  10.070  1.6768 -0.9847 -0.6694
 7198TIP3   OH245788   0.026   6.049  10.624 -0.6326 -0.2971 -0.3280
 7198TIP3    H145789  -0.029   6.069  10.548 -0.1517  0.1859 -0.5540
 7198TIP3    H245790  -0.010   6.101  10.695 -1.1590 -0.8421 -0.1881
 7199TIP3   OH245791   5.696   3.120  10.629 -0.3025 -0.5012 -0.4622
 7199TIP3    H145792   5.764   3.094  10.567 -0.6948 -0.5711 -0.8735
 7199TIP3    H245793   5.742   3.132  10.712  0.6440  1.8156 -1.2261
 7200TIP3   OH245794   5.978   1.586   9.997 -0.4593 -0.1478  0.0231
 7200TIP3    H145795   5.956   1.531  10.072  0.0995 -0.0060  0.2944
 7200TIP3    H245796   5.901   1.641   9.985 -1.4321 -1.6024 -0.8341
 7201TIP3   OH245797   0.860   3.872  11.058  0.1357  0.3216 -0.5688
 7201TIP3    H145798   0.865   3.914  10.972  1.6270  0.7380 -0.3063
 7201TIP3    H245799   0.917   3.925  11.113  0.0361 -0.5780  0.4214
 7202TIP3   OH245800   2.573   3.465  11.753  1.0127  0.2311 -0.4470
 7202TIP3    H145801   2.637   3.495  11.689 -0.2044 -0.4292 -2.0345
 7202TIP3    H245802   2.555   3.374  11.729  0.1366  0.1229  0.5121
 7203TIP3   OH245803   3.642   2.248  12.164 -0.4405  0.3427 -0.3645
 7203TIP3    H145804   3.561   2.299  12.168 -0.8474 -0.3918  1.6147
 7203TIP3    H245805   3.616   2.159  12.186  0.9646  0.2000  0.8938
 7204TIP3   OH245806   3.942   5.104  10.878  0.1857  0.0442  0.1037
 7204TIP3    H145807   4.035   5.109  10.900  0.3943 -1.8223 -0.2226
 7204TIP3    H245808   3.904   5.052  10.949 -0.8401  1.6314  0.7863
 7205TIP3   OH245809   6.422   5.906   9.758  0.3292  0.1016  0.2675
 7205TIP3    H145810   6.368   5.984   9.771  0.8371  0.1616  2.4648
 7205TIP3    H245811   6.506   5.928   9.797  1.0477 -0.9628 -0.6172
 7206TIP3   OH245812   6.208   2.175   8.758 -0.2781 -0.9383 -0.0214
 7206TIP3    H145813   6.144   2.171   8.829  0.2854  1.4622  0.7450
 7206TIP3    H245814   6.260   2.095   8.767 -0.1205 -0.6339  2.4219
 7207TIP3   OH245815   0.850   2.922  10.450  0.3162  0.6641  0.1735
 7207TIP3    H145816   0.792   2.922  10.374  0.3818  3.4944  0.0209
 7207TIP3    H245817   0.799   2.964  10.519  1.2282  0.7007  0.8465
 7208TIP3   OH245818   1.770   5.977   9.530  0.3359  0.1001  0.5850
 7208TIP3    H145819   1.827   5.925   9.472  0.6758 -0.8518  1.7363
 7208TIP3    H245820   1.830   6.017   9.593 -0.1112  0.4333  0.8025
 7209TIP3   OH245821   5.342   1.626   9.121 -0.1067 -0.6918 -0.0404
 7209TIP3    H145822   5.290   1.551   9.093  0.4544 -1.0384 -0.1564
 7209TIP3    H245823   5.341   1.623   9.216 -0.7143 -0.4092 -0.0365
 7210TIP3   OH245824   2.948   6.202  10.100 -0.3031 -0.1397 -0.0584
 7210TIP3    H145825   2.871   6.240  10.143 -0.6818  0.6180 -1.3442
 7210TIP3    H245826   3.003   6.171  10.172 -0.9698  0.9553  0.9632
 7211TIP3   OH245827   1.733   4.310  11.753  0.2680 -0.2949 -0.1362
 7211TIP3    H145828   1.668   4.253  11.794 -0.1412 -1.1494 -1.8588
 7211TIP3    H245829   1.818   4.275  11.781  0.0284  0.2888  1.4222
 7212TIP3   OH245830   2.628   2.037   9.283 -0.0228  0.3338  0.2257
 7212TIP3    H145831   2.689   2.085   9.339 -1.4981 -0.8139  3.0019
 7212TIP3    H245832   2.637   1.946   9.309 -3.2069  0.1623  1.2083
 7213TIP3   OH245833   5.881   1.492   8.748  0.1221 -0.1858  0.0859
 7213TIP3    H145834   5.927   1.433   8.807  0.4027  0.2744  0.3365
 7213TIP3    H245835   5.881   1.576   8.794  0.3983  0.1927 -0.5890
 7214TIP3   OH245836   5.076   5.448  10.901 -0.8077  0.5922 -0.3976
 7214TIP3    H145837   5.131   5.406  10.836  0.7139 -2.0652  2.3563
 7214TIP3    H245838   5.133   5.459  10.977 -2.1485  4.6284  0.2404
 7215TIP3   OH245839   4.060   6.105  10.842 -0.2440 -0.3074 -0.1623
 7215TIP3    H145840   3.967   6.092  10.864 -0.1698  1.3517  1.4339
 7215TIP3    H245841   4.102   6.023  10.869 -1.1023 -0.6916  0.0667
 7216TIP3   OH245842   6.204   4.577  10.719 -0.0824  0.0845 -0.1077
 7216TIP3    H145843   6.252   4.659  10.709 -0.2160  0.6134  2.6930
 7216TIP3    H245844   6.112   4.603  10.716 -0.1535 -0.2179 -0.7140
 7217TIP3   OH245845   4.468   0.322   8.922 -0.3821 -0.2766  0.5951
 7217TIP3    H145846   4.385   0.302   8.878  0.5631 -1.5892 -0.6758
 7217TIP3    H245847   4.531   0.329   8.851  1.0907 -1.8580  1.6811
 7218TIP3   OH245848   6.271   1.375   8.874 -0.5000  0.1571 -0.3283
 7218TIP3    H145849   6.248   1.410   8.788 -1.2065 -1.5184 -0.8563
 7218TIP3    H245850   6.189   1.374   8.923 -0.3052  0.0846  0.0039
 7219TIP3   OH245851   1.672   6.279   9.204 -0.6154  0.1359  0.0879
 7219TIP3    H145852   1.623   6.333   9.143  0.5278  1.2605  0.1141
 7219TIP3    H245853   1.764   6.301   9.188 -0.1973 -0.6732  1.1621
 7220TIP3   OH245854   4.601   1.915  11.049 -0.4550 -0.3659 -0.6750
 7220TIP3    H145855   4.527   1.910  10.989 -1.3850  1.0324  0.3032
 7220TIP3    H245856   4.584   1.848  11.115 -1.3335  0.5294  0.0339
 7221TIP3   OH245857   2.654   3.342  12.471 -0.4669 -0.7475  0.5736
 7221TIP3    H145858   2.702   3.333  12.389  0.0730  0.1739  0.7658
 7221TIP3    H245859   2.709   3.298  12.536  0.6896  1.1431  0.9773
 7222TIP3   OH245860   2.844   4.897   9.496 -0.8003  0.8301 -0.2116
 7222TIP3    H145861   2.913   4.960   9.515 -0.6176  0.2982  0.9628
 7222TIP3    H245862   2.792   4.893   9.577  0.0054 -1.5406  0.2765
 7223TIP3   OH245863   6.050   4.977  11.253 -0.2126 -0.3634  0.3720
 7223TIP3    H145864   6.069   4.956  11.162  0.2114  1.1859  0.0703
 7223TIP3    H245865   5.957   4.999  11.254  0.1770  1.4854 -0.1112
 7224TIP3   OH245866   4.025   4.324   9.217 -0.2166 -0.2107 -0.5654
 7224TIP3    H145867   4.109   4.369   9.203 -0.8610  0.6068 -2.0268
 7224TIP3    H245868   3.960   4.394   9.218 -0.7141 -0.5139  3.2850
 7225TIP3   OH245869   3.902   3.670  13.259  0.2517  0.8600 -0.2108
 7225TIP3    H145870   3.829   3.628  13.305 -0.6719  1.1061 -1.3859
 7225TIP3    H245871   3.959   3.598  13.234  1.2804  0.8006  2.0963
 7226TIP3   OH245872   1.968   5.003  10.021 -0.6902  0.0863  0.3000
 7226TIP3    H145873   2.061   4.986  10.004 -0.8258 -0.4565  0.0427
 7226TIP3    H245874   1.951   4.960  10.105 -0.6152  0.5336  0.5429
 7227TIP3   OH245875   6.415   1.297   9.215  0.0663  0.3839  0.1229
 7227TIP3    H145876   6.479   1.320   9.282  0.8975  0.1805 -0.5815
 7227TIP3    H245877   6.335   1.340   9.242  0.7463  1.4206  0.5286
 7228TIP3   OH245878   6.013   3.403   8.892  0.4439 -0.5200  0.3566
 7228TIP3    H145879   5.992   3.357   8.810 -1.3884 -2.1184  1.6062
 7228TIP3    H245880   5.938   3.460   8.907 -0.3627 -1.9052  1.9716
 7229TIP3   OH245881   0.333   0.599   8.975  0.0534  0.2687  0.2521
 7229TIP3    H145882   0.419   0.613   9.013  0.4962  0.6648 -0.8373
 7229TIP3    H245883   0.294   0.686   8.971 -1.1616 -0.1283  2.4096
 7230TIP3   OH245884   3.331   4.848  10.925 -0.4937 -0.6959 -0.1799
 7230TIP3    H145885   3.329   4.757  10.955  0.6649 -0.2603  1.3764
 7230TIP3    H245886   3.389   4.892  10.988 -1.7572  1.3050 -0.3515
 7231TIP3   OH245887   6.409   3.425   9.468 -0.1901  0.5683 -0.1981
 7231TIP3    H145888   6.347   3.355   9.450 -0.5320  0.8732 -0.2246
 7231TIP3    H245889   6.492   3.380   9.486 -0.2779  0.1802 -0.7375
 7232TIP3   OH245890   4.515   6.597  11.158 -0.0947 -0.1732  0.1262
 7232TIP3    H145891   4.582   6.534  11.132 -0.5794 -1.5310  1.9735
 7232TIP3    H245892   4.434   6.545  11.162 -0.5456  0.6044  1.4728
 7233TIP3   OH245893   1.744   2.493  11.028 -0.3250  0.3754 -0.0313
 7233TIP3    H145894   1.690   2.425  10.988 -0.4813  0.9443 -0.8122
 7233TIP3    H245895   1.711   2.575  10.991 -0.2503  0.9036  1.0133
 7234TIP3   OH245896   0.239   3.427  11.292  0.5164  0.2501  0.4507
 7234TIP3    H145897   0.278   3.350  11.251 -0.3487 -0.4242  0.8361
 7234TIP3    H245898   0.311   3.487  11.305  1.0724 -0.1500 -0.6303
 7235TIP3   OH245899   5.623   6.162  10.321  0.1052 -0.2135  0.2288
 7235TIP3    H145900   5.547   6.150  10.377 -0.7866  0.1193 -0.8789
 7235TIP3    H245901   5.692   6.111  10.363 -0.7342 -0.5396  1.2412
 7236TIP3   OH245902   0.020   3.424  11.091  0.6682  0.2576  0.8574
 7236TIP3    H145903   0.038   3.343  11.044 -0.9891  0.0213  0.5453
 7236TIP3    H245904   0.092   3.434  11.153  2.2104 -0.1230 -0.8073
 7237TIP3   OH245905   3.449   2.494   9.364 -0.0097  0.1337 -0.1763
 7237TIP3    H145906   3.475   2.414   9.319  2.2643 -0.1378  1.4679
 7237TIP3    H245907   3.523   2.553   9.355 -0.5941  1.0692  0.8767
 7238TIP3   OH245908   3.236   1.252   9.086  0.2798 -0.5492 -0.1142
 7238TIP3    H145909   3.228   1.228   8.994  1.1021 -1.2695 -0.0152
 7238TIP3    H245910   3.147   1.275   9.113 -0.5336 -3.0217 -0.3918
 7239TIP3   OH245911   5.330   2.470  11.056  0.5904  0.2969 -0.5227
 7239TIP3    H145912   5.288   2.544  11.013 -0.9189 -0.7659 -0.9783
 7239TIP3    H245913   5.351   2.410  10.984 -0.6936 -0.8794  0.0286
 7240TIP3   OH245914   5.244   4.876   9.585  0.4263  0.0498 -0.1700
 7240TIP3    H145915   5.251   4.828   9.503  1.6316 -0.1829  0.0452
 7240TIP3    H245916   5.154   4.862   9.614 -1.0793  2.7607 -3.0016
 7241TIP3   OH245917   3.454   4.534  11.883  0.2922  1.0737 -0.7076
 7241TIP3    H145918   3.450   4.530  11.979  1.5001  0.3421 -0.6578
 7241TIP3    H245919   3.514   4.463  11.859 -1.4422  0.0037 -2.1381
 7242TIP3   OH245920   2.274   4.103  11.845 -0.1500 -0.2329 -0.2900
 7242TIP3    H145921   2.328   4.108  11.923 -0.4866  0.0348 -0.0740
 7242TIP3    H245922   2.185   4.122  11.875 -0.2215  0.2740 -0.7976
 7243TIP3   OH245923   6.081   0.389  11.381 -0.0577  0.3271  0.7745
 7243TIP3    H145924   6.006   0.428  11.426 -0.5396 -1.7017  1.8650
 7243TIP3    H245925   6.126   0.463  11.341 -1.4673  1.8484  1.8525
 7244TIP3   OH245926   5.388   2.965  10.869 -0.2521 -0.3344 -0.4166
 7244TIP3    H145927   5.429   3.051  10.878  0.4153 -0.5879 -0.9830
 7244TIP3    H245928   5.413   2.936  10.781 -1.4632 -0.5884 -0.6981
 7245TIP3   OH245929   1.731   1.600  10.507 -0.2228 -0.3349 -0.1562
 7245TIP3    H145930   1.811   1.548  10.503 -0.5603 -0.8836  0.1042
 7245TIP3    H245931   1.760   1.690  10.492  0.2082 -0.7359 -2.0445
 7246TIP3   OH245932   2.464   1.559   8.885 -0.1598  0.0774  0.4215
 7246TIP3    H145933   2.518   1.638   8.891  1.6366 -1.0883  0.2580
 7246TIP3    H245934   2.395   1.573   8.950  0.5312  1.4701  0.9016
 7247TIP3   OH245935   2.035   3.290  11.772 -0.2934 -0.1491  0.0152
 7247TIP3    H145936   1.942   3.310  11.765  0.0483  1.2503 -0.7371
 7247TIP3    H245937   2.054   3.294  11.866 -0.9509 -0.2634  0.1533
 7248TIP3   OH245938   1.262   6.462   9.265  0.3465  0.5450 -0.0891
 7248TIP3    H145939   1.339   6.513   9.241  0.4886  0.0168 -0.7936
 7248TIP3    H245940   1.295   6.373   9.279 -0.0228  0.4676  0.3337
 7249TIP3   OH245941   6.612   2.668  11.327  0.0488  0.0241  0.2799
 7249TIP3    H145942   6.592   2.759  11.350 -0.2268  0.3675 -1.1854
 7249TIP3    H245943   6.704   2.670  11.300 -0.0530 -0.0505 -0.0831
 7250TIP3   OH245944   1.512   6.556  10.016 -0.3697  0.2292 -0.0864
 7250TIP3    H145945   1.445   6.559  10.084 -0.6680  0.6283 -0.3935
 7250TIP3    H245946   1.481   6.617   9.949 -0.2144 -0.3554 -0.6984
 7251TIP3   OH245947   3.433   1.673   8.926 -0.2856  0.2089 -0.5952
 7251TIP3    H145948   3.501   1.609   8.947 -0.7280 -0.8875 -2.3141
 7251TIP3    H245949   3.480   1.741   8.878 -0.2599 -0.1562 -1.0945
 7252TIP3   OH245950   2.819   2.295   9.255  0.6572  0.2846 -0.4001
 7252TIP3    H145951   2.906   2.319   9.288 -0.0665  1.6694  0.5784
 7252TIP3    H245952   2.772   2.378   9.248 -1.4209 -0.6238  1.4981
 7253TIP3   OH245953   6.317   5.007   9.461 -0.1112  0.0403  0.0983
 7253TIP3    H145954   6.405   4.969   9.453 -0.2253  0.0397 -1.4513
 7253TIP3    H245955   6.330   5.100   9.442 -0.6334 -0.2087 -1.6624
 7254TIP3   OH245956   5.635   3.333  10.449 -0.2559 -0.0617 -0.1830
 7254TIP3    H145957   5.719   3.377  10.432  0.4066 -2.0914 -3.1086
 7254TIP3    H245958   5.648   3.286  10.531  1.0501  0.6219  0.0246
 7255TIP3   OH245959   2.106   4.219   9.347 -0.4845 -0.0282 -0.4206
 7255TIP3    H145960   2.086   4.148   9.407  0.3430 -0.8645 -1.0962
 7255TIP3    H245961   2.169   4.274   9.394 -0.8736  0.0762 -0.0210
 7256TIP3   OH245962   4.964   1.459  10.022  0.5952 -0.3195 -0.6143
 7256TIP3    H145963   4.895   1.516   9.987 -0.4431 -1.2385 -0.1331
 7256TIP3    H245964   4.920   1.408  10.090  2.5277  1.4290  2.1512
 7257TIP3   OH245965   0.578   4.703  11.152 -0.1133  0.1047  0.0371
 7257TIP3    H145966   0.505   4.642  11.157  0.2953 -0.6547 -2.0953
 7257TIP3    H245967   0.557   4.759  11.078  0.9380  0.6028  0.0986
 7258TIP3   OH245968   1.708   1.128   9.687 -0.4492 -0.3471 -0.2551
 7258TIP3    H145969   1.634   1.085   9.644 -0.6940 -0.3199  0.1354
 7258TIP3    H245970   1.668   1.196   9.741 -0.0653  0.3998 -0.8812
 7259TIP3   OH245971   6.165   1.665   8.773 -0.0413 -0.0441 -0.7145
 7259TIP3    H145972   6.243   1.703   8.735  1.1227  0.6247  2.0779
 7259TIP3    H245973   6.097   1.731   8.760  0.6694  0.7650 -0.4339
 7260TIP3   OH245974   2.169   4.734   9.124  0.0630  0.3251  0.3532
 7260TIP3    H145975   2.243   4.761   9.179  1.7572  1.6128 -2.3019
 7260TIP3    H245976   2.133   4.816   9.090 -1.0573 -0.3927 -0.2677
 7261TIP3   OH245977   4.256   4.435   9.776  0.3194 -0.4694  0.7227
 7261TIP3    H145978   4.204   4.385   9.713 -0.4401  0.2600  0.7522
 7261TIP3    H245979   4.297   4.368   9.831 -0.0475 -1.0793  0.2750
 7262TIP3   OH245980   3.654   3.739   9.238  0.2637 -0.0439  0.3136
 7262TIP3    H145981   3.599   3.675   9.193  1.3395 -0.9443  0.2456
 7262TIP3    H245982   3.710   3.775   9.169  1.0861 -0.5548  0.7014
 7263TIP3   OH245983   3.593   2.416  11.045  0.0570  0.4601  0.0571
 7263TIP3    H145984   3.530   2.464  11.099 -0.0652  0.8744 -0.4539
 7263TIP3    H245985   3.539   2.370  10.981  0.2807  1.0373 -0.5594
 7264TIP3   OH245986   3.220   5.791   9.990  0.3871 -0.2920 -0.0954
 7264TIP3    H145987   3.304   5.832   9.967  0.2098  0.3445  0.3575
 7264TIP3    H245988   3.245   5.712  10.039  0.7281 -0.5889 -0.7401
 7265TIP3   OH245989   0.402   2.140  19.492  0.1377  1.0145  0.0910
 7265TIP3    H145990   0.468   2.178  19.550  1.0123 -0.9280  0.4323
 7265TIP3    H245991   0.407   2.193  19.412  0.6556  2.1657  0.8542
 7266TIP3   OH245992   5.203   0.602   9.277  0.2455  0.0934 -0.7179
 7266TIP3    H145993   5.295   0.596   9.250  0.5746 -2.3533  0.6637
 7266TIP3    H245994   5.154   0.613   9.195  1.7210  1.1839 -1.4921
 7267TIP3   OH245995   5.249   2.642  10.878 -0.1208 -0.3288 -0.3530
 7267TIP3    H145996   5.178   2.642  10.814 -1.1389  2.0952  0.6621
 7267TIP3    H245997   5.310   2.708  10.847  1.3041 -1.7795 -0.7480
 7268TIP3   OH245998   0.746   1.815  10.676 -0.6231  0.3681 -0.0878
 7268TIP3    H145999   0.829   1.826  10.723 -1.4359  1.4724  1.1406
 7268TIP3    H246000   0.726   1.902  10.643 -1.7193  0.3070  0.3863
 7269TIP3   OH246001   2.788   0.451   9.066  0.4227  0.2575  0.0009
 7269TIP3    H146002   2.823   0.472   9.152  1.9960 -0.3683 -0.4395
 7269TIP3    H246003   2.819   0.523   9.010  0.4329  0.0439 -0.2690
 7270TIP3   OH246004   4.095   5.131  12.229 -0.1319 -0.1588  0.6462
 7270TIP3    H146005   4.113   5.081  12.150  0.6941  2.6927 -1.1177
 7270TIP3    H246006   4.006   5.164  12.216  0.4830  1.4214  0.1815
 7271TIP3   OH246007   2.717   3.199  11.453 -0.4612 -0.0416 -0.2951
 7271TIP3    H146008   2.676   3.148  11.383  0.3549 -1.3487  0.1348
 7271TIP3    H246009   2.791   3.145  11.481 -1.0533  0.2140  1.9027
 7272TIP3   OH246010   6.230   0.442  11.026  0.1819 -0.2504 -0.4288
 7272TIP3    H146011   6.195   0.452  11.115 -1.2297  0.6140 -1.0471
 7272TIP3    H246012   6.324   0.431  11.038  0.0855  0.4124  1.1414
 7273TIP3   OH246013   2.863   5.377  11.528 -0.0937 -0.2960 -0.6424
 7273TIP3    H146014   2.869   5.317  11.603 -2.0745  0.6570  0.3678
 7273TIP3    H246015   2.825   5.457  11.564 -0.1503  0.5663 -2.4892
 7274TIP3   OH246016   4.769   5.366   9.314  0.7256 -0.2414 -0.1131
 7274TIP3    H146017   4.794   5.454   9.343  0.0071  0.5096 -1.6941
 7274TIP3    H246018   4.852   5.320   9.302  1.1177  0.3259  0.3958
 7275TIP3   OH246019   3.685   6.658  10.111 -0.5593  0.0356  0.5411
 7275TIP3    H146020   3.595   6.643  10.140  0.0266 -2.4910  1.2881
 7275TIP3    H246021   3.735   6.587  10.151  1.5295  0.5741 -0.9754
 7276TIP3   OH246022   6.320   4.406   9.388 -0.5264 -0.4017 -0.0731
 7276TIP3    H146023   6.284   4.341   9.328 -1.8772  0.8496 -0.6830
 7276TIP3    H246024   6.322   4.362   9.473  0.1114 -1.7451 -0.7587
 7277TIP3   OH246025   4.402   1.578   8.709  0.0211  0.3447 -0.5995
 7277TIP3    H146026   4.364   1.491   8.693  0.9830 -0.1966 -0.0747
 7277TIP3    H246027   4.488   1.574   8.669 -0.3742  1.4935 -1.6228
 7278TIP3   OH246028   3.515   2.350  10.364  0.2116  0.1732 -0.1030
 7278TIP3    H146029   3.501   2.340  10.458 -2.3209 -0.6302 -0.4868
 7278TIP3    H246030   3.610   2.357  10.354  0.5070  1.0165  2.5548
 7279TIP3   OH246031   5.622   2.212  11.546  0.0730  0.0300  0.2291
 7279TIP3    H146032   5.620   2.212  11.642 -0.7611 -0.5403  0.2260
 7279TIP3    H246033   5.573   2.134  11.522 -0.5407  0.6825 -0.6747
 7280TIP3   OH246034   2.960   2.211  11.409  0.2736  0.1124  0.0883
 7280TIP3    H146035   2.870   2.238  11.389 -0.5110 -0.9102  1.9903
 7280TIP3    H246036   2.992   2.280  11.468  1.0049  0.8092 -1.0826
 7281TIP3   OH246037   3.854   2.292   9.098 -0.0546  0.1482  0.0072
 7281TIP3    H146038   3.935   2.283   9.047  0.5948 -0.8756  1.1791
 7281TIP3    H246039   3.862   2.377   9.141 -0.1071  0.5300 -0.7268
 7282TIP3   OH246040   2.350   2.263   9.060 -0.0736  0.4167 -0.2697
 7282TIP3    H146041   2.370   2.194   9.123  0.3847 -0.3568 -1.2326
 7282TIP3    H246042   2.365   2.344   9.108 -0.0777 -0.1436  0.7166
 7283TIP3   OH246043   1.401   0.482  10.263 -0.0301  0.3332  0.5476
 7283TIP3    H146044   1.313   0.490  10.227  0.4158  0.3311 -0.5649
 7283TIP3    H246045   1.400   0.538  10.341 -1.0724  0.1461  0.6821
 7284TIP3   OH246046   2.604   0.166  11.606  0.2554  0.0961 -0.1845
 7284TIP3    H146047   2.582   0.255  11.577  1.6385  0.0416 -1.5685
 7284TIP3    H246048   2.561   0.109  11.542  0.6146 -0.1624 -0.1996
 7285TIP3   OH246049   1.910   6.034  10.571  0.0494  0.8894 -0.1962
 7285TIP3    H146050   1.858   6.106  10.606 -2.0931 -0.9188  0.6214
 7285TIP3    H246051   1.911   6.049  10.476 -0.0823  2.1391 -0.0197
 7286TIP3   OH246052   1.658   4.844   8.895  0.3611 -0.0096 -0.2252
 7286TIP3    H146053   1.751   4.831   8.914  0.8213  3.1378  0.1047
 7286TIP3    H246054   1.655   4.860   8.801  0.3211  0.9350 -0.0706
 7287TIP3   OH246055   4.549   5.624   9.511  0.4878 -0.1793  0.4499
 7287TIP3    H146056   4.514   5.555   9.568 -0.4994 -0.7886 -0.8266
 7287TIP3    H246057   4.481   5.691   9.510  0.7036  0.0383  0.3750
 7288TIP3   OH246058   0.082   4.884   9.988 -0.4048  0.7252 -0.0099
 7288TIP3    H146059   0.075   4.788   9.985 -1.6832  0.8043 -0.1037
 7288TIP3    H246060   0.034   4.914   9.911 -0.8666  1.4870  0.5647
 7289TIP3   OH246061   4.717   4.246   8.740  0.4737  0.5834  0.1731
 7289TIP3    H146062   4.748   4.337   8.734  0.8830  0.3913 -1.0287
 7289TIP3    H246063   4.798   4.194   8.746  0.3456  0.2024 -1.0097
 7290TIP3   OH246064   5.964   2.554  10.430  0.4051 -0.8306 -0.4345
 7290TIP3    H146065   5.927   2.541  10.342  1.1833 -0.5929 -0.8133
 7290TIP3    H246066   6.056   2.530  10.420  0.4620 -0.9693  0.3683
 7291TIP3   OH246067   4.229   3.619   8.396 -0.2898 -0.0657 -0.4804
 7291TIP3    H146068   4.213   3.612   8.490  0.2670 -1.6055 -0.4679
 7291TIP3    H246069   4.314   3.663   8.389  0.4511 -1.3900 -0.1728
 7292TIP3   OH246070   6.283   2.063  10.461  0.4020  0.1778  0.1523
 7292TIP3    H146071   6.326   1.980  10.480 -0.2946  0.0868  1.4361
 7292TIP3    H246072   6.350   2.129  10.476  0.5823 -0.0747  0.4649
 7293TIP3   OH246073   6.663   2.708   8.665  0.3036 -0.0107  0.0935
 7293TIP3    H146074   6.570   2.710   8.645  0.1287 -1.7070  0.5345
 7293TIP3    H246075   6.679   2.618   8.695  1.8143  0.5970  1.2713
 7294TIP3   OH246076   4.443   5.544  10.258  0.1672  0.2010 -0.3453
 7294TIP3    H146077   4.395   5.461  10.268  1.3037 -0.4671 -0.2094
 7294TIP3    H246078   4.490   5.554  10.341  0.4529  0.7159 -0.5660
 7295TIP3   OH246079   2.236   0.059   8.934  0.2617  0.4108 -0.0901
 7295TIP3    H146080   2.316   0.015   8.905 -0.7506  0.0063 -2.4388
 7295TIP3    H246081   2.254   0.152   8.921 -0.3340  0.2302 -2.7096
 7296TIP3   OH246082   2.074   2.993  10.995  0.6554  0.0956 -0.1277
 7296TIP3    H146083   2.087   2.900  11.017  1.2322  0.0308 -0.7158
 7296TIP3    H246084   1.988   2.996  10.954  0.6438 -0.1901 -0.1289
 7297TIP3   OH246085   3.368   6.091   9.550 -0.0582 -0.0863 -0.1777
 7297TIP3    H146086   3.321   6.077   9.468  0.7501  2.3013 -1.1387
 7297TIP3    H246087   3.446   6.036   9.543 -0.4494 -0.6047 -0.5784
 7298TIP3   OH246088   2.816   5.520   9.796  0.6711 -0.3358 -0.4019
 7298TIP3    H146089   2.858   5.486   9.717 -1.1208 -0.1386 -1.4924
 7298TIP3    H246090   2.860   5.604   9.812  2.7565 -1.4734  0.3190
 7299TIP3   OH246091   4.167   6.615   8.825 -1.0925 -0.1479  0.4342
 7299TIP3    H146092   4.142   6.545   8.885 -1.3018  0.4540  1.0435
 7299TIP3    H246093   4.206   6.568   8.750 -0.6947 -0.8913  1.0867
 7300TIP3   OH246094   1.731   3.495  10.671  0.2239  0.2265  0.0188
 7300TIP3    H146095   1.756   3.523  10.583 -2.0333  0.6179 -0.5602
 7300TIP3    H246096   1.637   3.507  10.674 -0.0123 -1.5159  1.8969
 7301TIP3   OH246097   5.178   3.966   9.936  0.1154 -0.3537 -0.2837
 7301TIP3    H146098   5.159   3.951   9.844 -1.8393 -2.2025  0.3245
 7301TIP3    H246099   5.097   4.004   9.972 -1.1970 -4.3055  1.5476
 7302TIP3   OH246100   1.256   6.047   8.859  0.0949  0.0160  0.0472
 7302TIP3    H146101   1.335   6.002   8.828  1.0721  1.5538  0.2397
 7302TIP3    H246102   1.216   6.081   8.779 -0.1756 -0.4248 -0.0102
 7303TIP3   OH246103   1.030   1.901  10.483 -0.2377 -0.1074  0.1282
 7303TIP3    H146104   1.045   1.823  10.536  1.4616 -0.4785 -0.8246
 7303TIP3    H246105   0.951   1.882  10.434 -0.0307 -1.0972  0.1550
 7304TIP3   OH246106   6.124   6.504  11.896 -1.1564 -0.0821 -0.3085
 7304TIP3    H146107   6.093   6.594  11.899 -1.3573 -0.1572  2.0316
 7304TIP3    H246108   6.044   6.451  11.909 -0.6567 -0.4121  1.8648
 7305TIP3   OH246109   5.796   1.845   9.745  0.1940 -0.4024  0.0985
 7305TIP3    H146110   5.711   1.884   9.761  0.1846 -1.0236  1.8176
 7305TIP3    H246111   5.854   1.886   9.810  1.2571  0.1060 -1.1205
 7306TIP3   OH246112   3.873   6.287  11.187  0.0670  0.4250 -0.1779
 7306TIP3    H146113   3.938   6.216  11.186  0.2172  0.5679 -0.9541
 7306TIP3    H246114   3.825   6.276  11.105  0.4013  1.4994 -0.5418
 7307TIP3   OH246115   3.375   5.520  12.003 -0.2126  0.2361 -0.0345
 7307TIP3    H146116   3.348   5.577  11.931  0.0750  1.2318  0.6277
 7307TIP3    H246117   3.321   5.546  12.077 -0.7701 -1.0367  0.0358
 7308TIP3   OH246118   0.499   3.431   8.739 -0.5916  0.0588  0.8044
 7308TIP3    H146119   0.468   3.396   8.655 -0.6420  1.7496  0.0766
 7308TIP3    H246120   0.589   3.399   8.746 -0.4523  0.2144 -0.0977
 7309TIP3   OH246121   6.539   0.806   9.435  0.2970 -0.7867 -0.8023
 7309TIP3    H146122   6.508   0.892   9.404  0.7787 -0.8235 -1.3941
 7309TIP3    H246123   6.566   0.760   9.355 -0.0890 -1.5500 -0.5061
 7310TIP3   OH246124   3.023   3.884  13.611 -0.1314  0.0030  0.4600
 7310TIP3    H146125   3.055   3.794  13.604 -1.5572 -0.4522 -0.7078
 7310TIP3    H246126   3.059   3.928  13.534 -0.1054  0.2078  0.5897
 7311TIP3   OH246127   5.050   4.394  10.357  0.0268 -0.2157  0.7472
 7311TIP3    H146128   5.026   4.460  10.421  0.0489 -1.0083  1.5873
 7311TIP3    H246129   5.134   4.425  10.321 -0.0932  0.3396  0.9430
 7312TIP3   OH246130   5.450   5.089   9.589 -0.5638 -0.2575  0.0615
 7312TIP3    H146131   5.396   5.011   9.579 -0.9744 -0.3502  2.3181
 7312TIP3    H246132   5.416   5.132   9.668  0.2919  1.6718 -0.5484
 7313TIP3   OH246133   2.353   4.787  11.059  0.3400  0.1713 -0.5327
 7313TIP3    H146134   2.275   4.793  11.113 -1.0881 -1.1251 -2.3268
 7313TIP3    H246135   2.358   4.872  11.015  0.5411  0.6246  0.3621
 7314TIP3   OH246136   2.670   3.490  10.300  0.4388  0.4648 -0.2815
 7314TIP3    H146137   2.711   3.553  10.241  0.0771  1.3116  0.3551
 7314TIP3    H246138   2.591   3.534  10.331 -0.1439 -0.5436 -0.2952
 7315TIP3   OH246139   1.389   6.090   9.701  0.3643  0.1592  0.4149
 7315TIP3    H146140   1.439   6.170   9.687  0.8736  0.6966  4.0904
 7315TIP3    H246141   1.456   6.022   9.715  0.0008 -0.1809  0.5240
 7316TIP3   OH246142   3.703   4.150  10.150 -0.3651  0.2654 -0.1924
 7316TIP3    H146143   3.669   4.237  10.133  1.0999  0.7752 -0.7417
 7316TIP3    H246144   3.793   4.165  10.181 -0.1150 -1.0323 -0.2213
 7317TIP3   OH246145   1.363   6.244  12.298  0.3429  0.3826  0.1309
 7317TIP3    H146146   1.452   6.209  12.295  0.1367 -0.4254  2.0169
 7317TIP3    H246147   1.308   6.168  12.279  0.0319  0.9625 -1.4214
 7318TIP3   OH246148   0.574   5.138  11.392 -0.8088  0.0422 -0.1647
 7318TIP3    H146149   0.536   5.158  11.477  0.5759 -1.1220  0.7617
 7318TIP3    H246150   0.563   5.044  11.381 -0.2216  0.0448 -0.8923
 7319TIP3   OH246151   4.287   2.537  11.044 -0.0889 -0.6149  0.1010
 7319TIP3    H146152   4.359   2.597  11.060  0.3414 -0.7746 -1.1382
 7319TIP3    H246153   4.328   2.462  11.001 -1.2175  0.1248 -2.4548
 7320TIP3   OH246154   0.236   0.307   9.713 -0.2245  0.2478 -0.1561
 7320TIP3    H146155   0.268   0.363   9.784 -0.8327 -0.3532  0.5929
 7320TIP3    H246156   0.286   0.226   9.722  0.0780  0.3562 -0.7559
 7321TIP3   OH246157   1.169   4.004   8.556  0.0780  0.3130  0.0568
 7321TIP3    H146158   1.204   4.039   8.638  2.5803 -0.1376 -0.7245
 7321TIP3    H246159   1.151   3.912   8.575 -1.8404  0.7908  0.7607
 7322TIP3   OH246160   5.272   0.049   8.589 -0.1362 -0.2318 -0.3872
 7322TIP3    H146161   5.187   0.045   8.633 -0.2382 -0.3632 -0.5996
 7322TIP3    H246162   5.251   0.068   8.498  0.1102  0.7983 -0.2418
 7323TIP3   OH246163   6.190   6.370   9.904  0.2331 -0.0577 -0.0873
 7323TIP3    H146164   6.167   6.414   9.986  1.9136 -0.6804  0.7870
 7323TIP3    H246165   6.258   6.426   9.866  0.2114 -0.3231 -0.5159
 7324TIP3   OH246166   1.143   1.132  10.156 -0.0039 -0.2367  0.0056
 7324TIP3    H146167   1.161   1.207  10.100 -0.8299  0.3103  0.4509
 7324TIP3    H246168   1.206   1.141  10.228  0.4991 -0.4783 -0.3990
 7325TIP3   OH246169   3.979   3.014  11.652 -0.1807 -0.0790  0.0717
 7325TIP3    H146170   3.950   3.097  11.691 -1.5946 -0.0365 -0.9919
 7325TIP3    H246171   4.054   3.038  11.598 -1.1759  0.7369 -1.0240
 7326TIP3   OH246172   2.084   1.316  10.143 -0.4030  0.2520  0.3401
 7326TIP3    H146173   2.112   1.239  10.194 -0.9942 -0.7519 -0.8054
 7326TIP3    H246174   2.118   1.391  10.193 -0.2746 -0.7145  1.7848
 7327TIP3   OH246175   5.500   2.398  11.291 -0.0532  0.0504 -0.5573
 7327TIP3    H146176   5.514   2.452  11.368 -0.4893 -1.4478  0.6167
 7327TIP3    H246177   5.445   2.452  11.234  0.0461  1.0828  0.2948
 7328TIP3   OH246178   6.641   0.714   8.744 -0.3212 -0.2071  1.1341
 7328TIP3    H146179   6.685   0.709   8.829  1.1479 -0.5061  0.3900
 7328TIP3    H246180   6.675   0.794   8.704  0.2783 -0.9061  0.1786
 7329TIP3   OH246181   4.865   4.767  10.776  0.2585  0.4030  0.5662
 7329TIP3    H146182   4.854   4.860  10.754  0.5221  0.4464  0.6146
 7329TIP3    H246183   4.843   4.762  10.869 -0.9519  0.2036  0.2818
 7330TIP3   OH246184   2.558   0.023   9.557 -0.2731  0.0339  0.4926
 7330TIP3    H146185   2.474   0.027   9.511 -0.0418  0.8789  0.1239
 7330TIP3    H246186   2.619   0.071   9.501  0.1040  0.7607  1.4858
 7331TIP3   OH246187   6.183   4.324  10.199 -0.3944 -0.5689  0.1786
 7331TIP3    H146188   6.200   4.278  10.282 -0.9685 -1.1813 -0.0360
 7331TIP3    H246189   6.244   4.285  10.137  1.3288  1.1572  0.7155
 7332TIP3   OH246190   6.259   5.371   9.015  1.2062 -0.3657 -0.1689
 7332TIP3    H146191   6.329   5.416   8.967  0.5773  0.8543  0.0274
 7332TIP3    H246192   6.180   5.387   8.963  0.7600 -0.2271  0.5454
 7333TIP3   OH246193   0.530   6.608  10.745 -0.1920 -0.0516 -0.0137
 7333TIP3    H146194   0.477   6.529  10.741  1.1953 -0.9768 -1.3807
 7333TIP3    H246195   0.569   6.606  10.833 -0.6036 -0.5818  0.1648
 7334TIP3   OH246196   4.968   3.562   9.540  0.0266 -0.2986 -0.5241
 7334TIP3    H146197   4.941   3.601   9.457  1.1330  0.4149 -0.5753
 7334TIP3    H246198   4.927   3.475   9.540 -0.6075 -0.0179 -1.4605
 7335TIP3   OH246199   5.635   3.460   9.924  0.1760 -0.0444 -0.4160
 7335TIP3    H146200   5.702   3.521   9.892 -1.6946  1.7340 -1.1884
 7335TIP3    H246201   5.556   3.484   9.876 -1.5621 -0.5870  1.9702
 7336TIP3   OH246202   6.239   4.530   9.969 -0.0466 -0.4860  0.1881
 7336TIP3    H146203   6.187   4.450   9.963 -0.2526 -0.3817  0.5187
 7336TIP3    H246204   6.183   4.591  10.018  0.3224 -0.3203  0.4110
 7337TIP3   OH246205   1.751   0.552  10.095 -0.1318 -0.2064 -0.2651
 7337TIP3    H146206   1.761   0.475  10.150  0.3973 -0.3263 -0.5214
 7337TIP3    H246207   1.839   0.587  10.086 -0.5723  1.4204  1.2490
 7338TIP3   OH246208   3.327   4.544   9.221 -0.1040  0.7871  0.0907
 7338TIP3    H146209   3.418   4.548   9.194 -0.0897  2.4281  0.3286
 7338TIP3    H246210   3.280   4.597   9.156 -0.8129  0.4330  0.2965
 7339TIP3   OH246211   5.514   2.084   9.837 -0.1098 -0.2424  0.2143
 7339TIP3    H146212   5.584   2.140   9.804 -1.0134  1.8841  1.6237
 7339TIP3    H246213   5.444   2.145   9.862 -1.7818 -2.1409  0.4613
 7340TIP3   OH246214   2.431   0.040   9.864 -0.0607  0.6754 -0.0736
 7340TIP3    H146215   2.450   0.073   9.776 -1.1496  2.3421  0.2634
 7340TIP3    H246216   2.463   0.109   9.922  2.1655 -1.1306  0.9736
 7341TIP3   OH246217   4.522   2.869  10.573  0.7462  0.7194 -0.6342
 7341TIP3    H146218   4.463   2.906  10.508  0.1866 -0.2038 -0.6758
 7341TIP3    H246219   4.551   2.944  10.626  0.8503  1.4081 -1.6525
 7342TIP3   OH246220   6.217   0.040   9.365 -0.1219 -0.0252  0.3979
 7342TIP3    H146221   6.244   0.125   9.399 -2.6111  0.6076  0.9578
 7342TIP3    H246222   6.226  -0.020   9.439 -2.4494  0.6890  1.3319
 7343TIP3   OH246223   5.049   2.767  12.177 -0.0352  0.4567 -0.0804
 7343TIP3    H146224   4.969   2.728  12.211  0.5807 -0.7381  0.0577
 7343TIP3    H246225   5.049   2.856  12.211  0.4978 -0.6123  3.0965
 7344TIP3   OH246226   5.152   3.333  11.286 -0.1448 -0.3538 -0.1249
 7344TIP3    H146227   5.126   3.241  11.290 -0.3327 -0.3759 -1.4064
 7344TIP3    H246228   5.247   3.332  11.297  0.0230 -0.8459 -1.3987
 7345TIP3   OH246229   2.843   1.600   8.881  0.0168 -0.0334 -0.3391
 7345TIP3    H146230   2.871   1.589   8.790 -1.7323  1.4127 -1.1235
 7345TIP3    H246231   2.805   1.687   8.884  0.1770  0.0298  1.8601
 7346TIP3   OH246232   2.914   3.321  13.272 -0.7111  0.3121  0.8185
 7346TIP3    H146233   2.852   3.323  13.199 -1.3330  0.1996  1.3372
 7346TIP3    H246234   2.984   3.380  13.245  0.9304 -2.4191 -1.5108
 7347TIP3   OH246235   6.471   2.894  11.366  0.6775  0.2489 -0.0748
 7347TIP3    H146236   6.489   2.986  11.346 -0.0611  0.8133  1.6217
 7347TIP3    H246237   6.376   2.886  11.356  0.9100 -0.8073 -1.8717
 7348TIP3   OH246238   6.308   5.825   8.745 -0.2355  0.3202  0.1526
 7348TIP3    H146239   6.343   5.833   8.833 -1.2882 -0.2873  0.6432
 7348TIP3    H246240   6.224   5.872   8.748 -0.4413 -0.0015 -0.4274
 7349TIP3   OH246241   6.537   2.121  11.023  0.3711 -0.4073  0.1569
 7349TIP3    H146242   6.558   2.093  11.112 -0.9946 -0.5138  0.4773
 7349TIP3    H246243   6.451   2.081  11.005 -0.1593  0.9795 -0.5559
 7350TIP3   OH246244   6.677   1.889   9.202  0.2430 -0.2423  0.1808
 7350TIP3    H146245   6.602   1.948   9.194  1.0591  0.9235  0.8443
 7350TIP3    H246246   6.748   1.933   9.155  1.0794 -0.2859  1.3489
 7351TIP3   OH246247   4.903   6.684  10.406  0.7894 -0.5494  0.1400
 7351TIP3    H146248   4.837   6.717  10.345  2.0105  0.4511 -0.7144
 7351TIP3    H246249   4.902   6.746  10.479  0.3766 -0.8907  0.4324
 7352TIP3   OH246250   4.639   3.813  11.512  0.2252  0.1172  0.6140
 7352TIP3    H146251   4.575   3.799  11.581  0.0552 -1.9508  0.0968
 7352TIP3    H246252   4.703   3.873  11.550 -2.0586  2.4378  1.0729
 7353TIP3   OH246253   5.434   3.694  11.001 -0.7888 -0.0628 -0.0928
 7353TIP3    H146254   5.353   3.728  10.963  0.6695 -0.2111 -3.7292
 7353TIP3    H246255   5.438   3.602  10.972  1.1311  0.2441 -1.0218
 7354TIP3   OH246256   0.192   3.744   8.995 -0.2931  0.0877  0.4819
 7354TIP3    H146257   0.263   3.726   9.057  0.7161  0.5590 -0.4958
 7354TIP3    H246258   0.163   3.658   8.966  0.2783 -0.1017  0.4644
 7355TIP3   OH246259   4.883   2.589  10.918  0.6975  0.1125  0.0679
 7355TIP3    H146260   4.878   2.493  10.920 -0.0331  0.1585  1.2134
 7355TIP3    H246261   4.909   2.613  11.007  0.5387  0.9983 -0.1186
 7356TIP3   OH246262   0.274   4.975  11.641 -0.0558  0.5167  0.0562
 7356TIP3    H146263   0.305   4.894  11.603  0.8539  0.5993  0.5858
 7356TIP3    H246264   0.188   4.954  11.677  0.8394 -0.6755  1.6362
 7357TIP3   OH246265   2.879   5.958  10.903  0.0631 -0.5282 -0.4826
 7357TIP3    H146266   2.954   5.929  10.955 -0.3714 -1.0804 -0.1532
 7357TIP3    H246267   2.843   5.877  10.867 -1.1028 -0.3992  0.3482
 7358TIP3   OH246268   4.217   4.788  11.066 -0.3018 -0.0604  0.3225
 7358TIP3    H146269   4.245   4.801  10.975 -0.2448 -2.4299 -0.0611
 7358TIP3    H246270   4.127   4.756  11.059 -0.5781  0.4850  1.1756
 7359TIP3   OH246271   3.797   1.016  10.267 -0.0485  0.5030 -0.0803
 7359TIP3    H146272   3.782   1.076  10.340  1.9180  2.4729 -1.1724
 7359TIP3    H246273   3.744   0.939  10.289 -0.7784  1.6207  2.6062
 7360TIP3   OH246274   4.483   5.937  11.687  0.0999 -0.4042 -0.2622
 7360TIP3    H146275   4.522   5.889  11.759 -0.6149 -1.9221 -0.8386
 7360TIP3    H246276   4.498   5.883  11.610 -0.1857  0.6017 -1.0627
 7361TIP3   OH246277   0.196   3.792  11.784  0.4894 -0.0037  0.1953
 7361TIP3    H146278   0.254   3.773  11.857 -0.4617 -0.8248  0.7646
 7361TIP3    H246279   0.220   3.881  11.757  0.1242  0.7739  2.2370
 7362TIP3   OH246280   6.427   3.517  10.503 -0.4795  0.1866  0.1300
 7362TIP3    H146281   6.460   3.433  10.469  0.0975  0.1563  0.7252
 7362TIP3    H246282   6.500   3.577  10.492 -0.8403  0.5740 -0.1495
 7363TIP3   OH246283   2.764   4.252  11.280  0.2125  0.6514 -0.4080
 7363TIP3    H146284   2.682   4.219  11.316  0.2620 -0.5750 -1.3769
 7363TIP3    H246285   2.779   4.200  11.201  1.5988  1.2921 -0.6017
 7364TIP3   OH246286   6.214   3.718   9.073  0.0935 -0.1374 -0.8538
 7364TIP3    H146287   6.187   3.699   8.983 -1.3502 -0.1655 -0.4409
 7364TIP3    H246288   6.225   3.813   9.075 -0.5747 -0.0510 -0.8931
 7365TIP3   OH246289   5.519   3.462  10.882  0.6377  0.0317 -0.1130
 7365TIP3    H146290   5.569   3.492  10.806  0.8370 -1.8251 -0.7547
 7365TIP3    H246291   5.575   3.397  10.924 -1.0200 -1.8318 -0.6378
 7366TIP3   OH246292   5.856   0.930  10.305  0.8340  0.0594 -0.1930
 7366TIP3    H146293   5.893   0.844  10.323 -0.1904 -0.0674  1.6402
 7366TIP3    H246294   5.779   0.912  10.251 -0.2806 -0.4175  1.4465
 7367TIP3   OH246295   4.352   3.165  11.244  0.1286  0.0393 -1.0966
 7367TIP3    H146296   4.367   3.254  11.276 -0.9618  0.6712 -2.2754
 7367TIP3    H246297   4.431   3.145  11.193 -0.5859  1.2706 -2.7827
 7368TIP3   OH246298   6.103   4.944   8.567  0.1958  0.2053  0.4000
 7368TIP3    H146299   6.045   4.919   8.495  1.0498 -0.4978 -0.0620
 7368TIP3    H246300   6.158   4.868   8.581  1.6279  1.1766  0.2203
 7369TIP3   OH246301   3.577   6.330  10.005  0.2009 -0.3830  0.4462
 7369TIP3    H146302   3.508   6.288   9.954 -0.7187  0.2404  1.1587
 7369TIP3    H246303   3.569   6.423   9.984  1.2093 -0.3553  0.0980
 7370TIP3   OH246304   4.881   4.385   9.731 -0.4876  0.2036  0.7880
 7370TIP3    H146305   4.940   4.458   9.718  0.3023 -0.7065 -1.1658
 7370TIP3    H246306   4.794   4.424   9.733 -0.1112  1.1729 -0.6299
 7371TIP3   OH246307   1.135   3.722   8.576 -0.0307  0.5513  0.4302
 7371TIP3    H146308   1.216   3.695   8.620 -0.2436  0.4514  0.7699
 7371TIP3    H246309   1.066   3.706   8.642 -0.3346  0.5534  0.1145
 7372TIP3   OH246310   0.905   2.314   8.546  0.5092  0.0417  0.1177
 7372TIP3    H146311   0.967   2.351   8.608  0.3732 -0.2649  0.4364
 7372TIP3    H246312   0.877   2.231   8.585  0.1015  0.0502 -0.1462
 7373TIP3   OH246313   5.598   4.520   9.398 -0.4013 -0.4773 -0.1443
 7373TIP3    H146314   5.635   4.501   9.484 -1.0560 -1.4774 -0.0663
 7373TIP3    H246315   5.530   4.586   9.414 -0.3970 -0.5284  0.0804
 7374TIP3   OH246316   2.944   6.435  10.478  0.1311  0.8032 -0.0235
 7374TIP3    H146317   2.868   6.397  10.521 -0.7009  2.7293  0.2839
 7374TIP3    H246318   3.006   6.453  10.550  0.0370  1.1192 -0.0212
 7375TIP3   OH246319   2.144   1.294  11.588  0.0494  0.1875  0.4063
 7375TIP3    H146320   2.114   1.370  11.538 -1.3005 -1.1223 -0.9096
 7375TIP3    H246321   2.141   1.321  11.679 -2.1072  1.1811  0.0953
 7376TIP3   OH246322   2.784   4.533  11.828  0.6400  0.5025 -0.6512
 7376TIP3    H146323   2.729   4.509  11.754 -2.4241 -1.8914  2.1331
 7376TIP3    H246324   2.782   4.629  11.828 -0.7049  0.5420 -2.6045
 7377TIP3   OH246325   1.081   3.754   9.381 -0.1684  0.5091 -0.2171
 7377TIP3    H146326   1.161   3.806   9.374 -0.6302  1.2726  0.0516
 7377TIP3    H246327   1.076   3.730   9.473 -0.7977  1.3849 -0.0049
 7378TIP3   OH246328   2.856   2.249  12.199 -0.3557 -0.2986  0.4709
 7378TIP3    H146329   2.904   2.261  12.117 -1.0104  0.7168  0.2109
 7378TIP3    H246330   2.830   2.157  12.198  1.0890 -0.7291  0.3638
 7379TIP3   OH246331   2.593   2.630  10.302 -0.0310 -0.1618  0.1825
 7379TIP3    H146332   2.568   2.600  10.214  0.6458  2.0841 -0.8313
 7379TIP3    H246333   2.515   2.675  10.335  0.0923 -0.0251  0.2863
 7380TIP3   OH246334   1.656   2.857   9.276 -0.1537  0.0685  0.1531
 7380TIP3    H146335   1.645   2.868   9.182  1.0865 -1.6555 -0.2370
 7380TIP3    H246336   1.627   2.768   9.294 -0.6425  0.4641  1.4705
 7381TIP3   OH246337   4.582   1.105  10.902  0.2153 -0.3031  0.0259
 7381TIP3    H146338   4.635   1.067  10.832  1.2265  0.4647  0.3443
 7381TIP3    H246339   4.555   1.031  10.955  0.7401 -0.7408 -0.3094
 7382TIP3   OH246340   2.380   3.872  12.972 -0.4666  0.4201 -0.0567
 7382TIP3    H146341   2.470   3.891  12.999 -1.0515  2.1294  0.8072
 7382TIP3    H246342   2.355   3.794  13.022 -0.3352  1.4748  1.7171
 7383TIP3   OH246343   1.479   3.260  11.782  0.4270 -0.4532 -0.1606
 7383TIP3    H146344   1.530   3.315  11.722  0.5527  0.0366  0.3956
 7383TIP3    H246345   1.535   3.250  11.859 -0.0937 -0.3633  0.2301
 7384TIP3   OH246346   3.716   4.362  11.236  0.1226  0.8296 -0.4690
 7384TIP3    H146347   3.695   4.268  11.236 -0.3622  0.9304  0.2500
 7384TIP3    H246348   3.804   4.367  11.273 -0.5315  0.7776  1.1829
 7385TIP3   OH246349   6.664   4.975  10.824  0.1099 -0.0155 -0.1329
 7385TIP3    H146350   6.715   5.036  10.877 -0.9308  0.2985  0.5353
 7385TIP3    H246351   6.696   4.988  10.734 -0.0189  1.4228  0.0154
 7386TIP3   OH246352   5.383   5.197  11.343 -0.6054  0.8548 -0.0603
 7386TIP3    H146353   5.316   5.258  11.312 -2.4624 -0.6544  0.7818
 7386TIP3    H246354   5.365   5.186  11.436  0.3357 -0.1939  0.0228
 7387TIP3   OH246355   0.226   2.347  10.843 -0.2390  0.0660  0.2415
 7387TIP3    H146356   0.158   2.282  10.863 -1.8736  1.9458  1.1691
 7387TIP3    H246357   0.193   2.393  10.765  0.2795  0.5882  0.3219
 7388TIP3   OH246358   3.043   4.932   8.886  0.2108  0.1854  0.5547
 7388TIP3    H146359   3.104   4.934   8.812  0.2461  1.0171  0.5934
 7388TIP3    H246360   3.099   4.913   8.961 -0.1466 -3.2973  0.1163
 7389TIP3   OH246361   5.412   3.920   9.763 -0.1152  0.1733 -0.0433
 7389TIP3    H146362   5.363   3.934   9.682  0.2877  0.9436 -0.1682
 7389TIP3    H246363   5.346   3.893   9.827 -0.6442  0.8274 -0.3005
 7390TIP3   OH246364   4.240   2.575  10.319 -0.2222 -0.2498 -0.3677
 7390TIP3    H146365   4.316   2.561  10.375 -0.9900 -1.7865  0.3727
 7390TIP3    H246366   4.276   2.610  10.237  1.2739 -0.8808 -0.0191
 7391TIP3   OH246367   2.112   4.368  11.697  0.1270  0.3266 -0.2237
 7391TIP3    H146368   2.050   4.296  11.712  0.7649  0.1135  1.6486
 7391TIP3    H246369   2.075   4.441  11.746  0.0282  0.9823 -1.2547
 7392TIP3   OH246370   2.594   3.374   9.877 -0.5666  0.3769  0.0789
 7392TIP3    H146371   2.633   3.328   9.803  0.5654  2.5144 -0.7480
 7392TIP3    H246372   2.607   3.315   9.952  1.7226 -0.2211 -0.7106
 7393TIP3   OH246373   6.464   5.583  10.240  0.2151 -0.4996 -0.0484
 7393TIP3    H146374   6.521   5.516  10.200  1.1523  1.3589 -2.0188
 7393TIP3    H246375   6.451   5.648  10.171 -3.4481 -0.2367  0.6958
 7394TIP3   OH246376   4.893   0.803   9.202 -0.4375  0.1707  0.1945
 7394TIP3    H146377   4.912   0.810   9.296  1.4427  0.0911 -0.1269
 7394TIP3    H246378   4.950   0.731   9.172 -1.6493 -0.3858 -0.8643
 7395TIP3   OH246379   6.401   5.606  10.688 -0.3435  0.6497 -0.1584
 7395TIP3    H146380   6.469   5.639  10.746  1.0716  0.8855 -1.8711
 7395TIP3    H246381   6.396   5.513  10.706 -2.6958  1.2295  3.0389
 7396TIP3   OH246382   6.177   5.622  12.042  0.5575  0.3131  0.4111
 7396TIP3    H146383   6.176   5.555  11.974 -0.4255  1.3274 -0.6171
 7396TIP3    H246384   6.264   5.663  12.034  0.9574 -0.4669  0.6918
 7397TIP3   OH246385   4.355   6.689  10.910 -0.0299 -0.6502 -0.2098
 7397TIP3    H146386   4.386   6.724  10.993 -0.3850 -2.7112  0.8641
 7397TIP3    H246387   4.434   6.677  10.857  0.1995  0.6169 -0.1929
 7398TIP3   OH246388   0.612   5.623   9.503  0.2301  0.4077  0.3311
 7398TIP3    H146389   0.688   5.588   9.551  0.8621  3.4089  1.7630
 7398TIP3    H246390   0.584   5.698   9.555 -1.5880  1.4528 -1.9944
 7399TIP3   OH246391   3.668   5.873  11.375  0.0737  0.6574 -0.3314
 7399TIP3    H146392   3.697   5.930  11.446  0.9567  0.3445 -0.4192
 7399TIP3    H246393   3.739   5.876  11.311  1.3057 -2.3000  0.6889
 7400TIP3   OH246394   0.509   3.891  11.793  0.5797  0.2690  0.4542
 7400TIP3    H146395   0.481   3.837  11.867 -0.1496 -0.2579 -0.1889
 7400TIP3    H246396   0.437   3.954  11.780  0.2316 -0.2883 -0.4278
 7401TIP3   OH246397   5.131   1.483  10.287  0.3204  0.2195  0.1077
 7401TIP3    H146398   5.219   1.459  10.260  0.0841  0.6033 -1.0975
 7401TIP3    H246399   5.102   1.412  10.344  1.8852  0.7362  1.6097
 7402TIP3   OH246400   4.130   1.270   9.145 -0.0445  0.1381 -0.5071
 7402TIP3    H146401   4.041   1.260   9.177  0.9414 -0.3757  2.3241
 7402TIP3    H246402   4.147   1.188   9.097 -0.6271 -0.3556  0.1122
 7403TIP3   OH246403   5.085   4.670  11.192  0.2498 -0.1802  0.9180
 7403TIP3    H146404   5.048   4.629  11.270  0.8111 -1.0609  0.7337
 7403TIP3    H246405   5.143   4.603  11.154 -0.8439 -0.1829 -0.8617
 7404TIP3   OH246406   3.718   6.488  10.534  0.5951  0.6714  0.6659
 7404TIP3    H146407   3.642   6.501  10.477  0.7107 -2.6691 -0.4863
 7404TIP3    H246408   3.694   6.413  10.588  2.8076 -0.0771  0.6804
 7405TIP3   OH246409   2.096   2.173   8.919  0.4107  0.3860 -0.5960
 7405TIP3    H146410   2.051   2.252   8.946 -0.5988 -0.1886 -0.5543
 7405TIP3    H246411   2.186   2.184   8.951  0.3841  1.6702 -0.9330
 7406TIP3   OH246412   0.409   3.056  12.292 -0.2103 -0.1281  0.0169
 7406TIP3    H146413   0.362   3.001  12.230 -0.9041 -1.0194  1.2927
 7406TIP3    H246414   0.367   3.142  12.285  1.7267  0.7560 -2.9510
 7407TIP3   OH246415   5.848   2.567  10.685  0.2061  0.4830  0.1249
 7407TIP3    H146416   5.845   2.554  10.590  0.6644 -0.0173  0.1692
 7407TIP3    H246417   5.910   2.500  10.716 -0.3060  0.3279  0.8313
 7408TIP3   OH246418   4.599   4.424  10.993 -0.5297 -0.0713 -0.3282
 7408TIP3    H146419   4.618   4.461  11.080 -1.0242  1.0989 -0.6960
 7408TIP3    H246420   4.508   4.397  10.998 -0.3893 -0.5537 -0.3077
 7409TIP3   OH246421   2.911   1.979   9.133  0.1365 -0.6050  0.2416
 7409TIP3    H146422   2.831   1.934   9.105 -0.3911 -0.3721  1.3243
 7409TIP3    H246423   2.889   2.072   9.129 -0.0229 -0.5647  1.5499
 7410TIP3   OH246424   1.330   6.586  11.252  0.4747  0.5927 -0.1343
 7410TIP3    H146425   1.277   6.662  11.226 -2.4576 -0.8447  1.1543
 7410TIP3    H246426   1.389   6.619  11.319 -1.9623  1.5193  1.7203
 7411TIP3   OH246427   2.491   4.394  12.082  0.0104 -0.6302  0.5805
 7411TIP3    H146428   2.454   4.360  12.000  1.9375 -1.4487 -0.0015
 7411TIP3    H246429   2.480   4.488  12.076  1.4827 -0.5165 -1.3740
 7412TIP3   OH246430   5.028   6.070   9.953  0.0525 -0.2181 -0.0305
 7412TIP3    H146431   4.949   6.026   9.986  0.0905 -0.8529 -0.7541
 7412TIP3    H246432   5.092   6.061  10.024 -0.8321  1.2303  0.9972
 7413TIP3   OH246433   6.670   3.446   9.122  0.0458  0.2950  0.4279
 7413TIP3    H146434   6.597   3.494   9.161  1.2561  0.0079  3.2862
 7413TIP3    H246435   6.745   3.469   9.176  1.7071 -0.8637 -1.2757
 7414TIP3   OH246436   2.529   4.766  10.220  0.0194 -0.0522  0.2004
 7414TIP3    H146437   2.492   4.834  10.164  0.3604  0.8936  1.0838
 7414TIP3    H246438   2.532   4.806  10.307  1.3779 -0.7458  0.5065
 7415TIP3   OH246439   4.237   1.120  11.484  0.1644 -0.5043  0.0806
 7415TIP3    H146440   4.228   1.128  11.389 -0.6217 -1.3306  0.0774
 7415TIP3    H246441   4.262   1.208  11.513 -3.7243  0.9745 -0.4402
 7416TIP3   OH246442   4.543   5.282   9.443 -0.8535 -0.0889  0.2226
 7416TIP3    H146443   4.464   5.319   9.405 -0.5522  0.1007 -0.2306
 7416TIP3    H246444   4.615   5.320   9.391 -0.5406 -1.5249 -0.4515
 7417TIP3   OH246445   4.760   4.791  10.369  0.0081 -0.5773  0.4479
 7417TIP3    H146446   4.677   4.795  10.416 -1.2330  0.3748 -1.6690
 7417TIP3    H246447   4.749   4.720  10.306 -0.3397  1.2138 -1.6648
 7418TIP3   OH246448   2.608   3.111  11.199 -0.8009  0.3716  0.1615
 7418TIP3    H146449   2.594   3.205  11.185  0.0159  0.6289  0.9666
 7418TIP3    H246450   2.676   3.087  11.136 -0.8459  0.3734  0.1126
 7419TIP3   OH246451   1.477   2.225   9.278  0.4287 -0.0721 -0.0101
 7419TIP3    H146452   1.541   2.275   9.329  0.4348  0.4895 -0.5608
 7419TIP3    H246453   1.530   2.174   9.216  0.4025 -0.4988  0.3125
 7420TIP3   OH246454   0.804   4.368   8.295 -0.1283  0.0378  0.2837
 7420TIP3    H146455   0.734   4.431   8.280 -0.0862  0.8143  2.8587
 7420TIP3    H246456   0.765   4.303   8.353  0.0491 -1.9949 -1.7400
 7421TIP3   OH246457   0.156   4.867   9.141 -0.3394 -0.4605 -0.3923
 7421TIP3    H146458   0.117   4.912   9.216 -0.3161 -0.5107 -0.3496
 7421TIP3    H246459   0.082   4.845   9.085 -0.4673 -1.2277  0.0493
 7422TIP3   OH246460   1.986   4.945  10.569 -0.2347 -1.1726 -0.0179
 7422TIP3    H146461   1.907   4.908  10.609 -0.0875 -0.0800  1.3621
 7422TIP3    H246462   1.955   5.020  10.519  0.0153  0.2203  1.7846
 7423TIP3   OH246463   6.296   3.032   9.563  0.2337  0.4272  0.0681
 7423TIP3    H146464   6.216   2.985   9.537  0.6620 -1.3171  1.6575
 7423TIP3    H246465   6.270   3.124   9.564 -1.9842 -0.1422  1.1900
 7424TIP3   OH246466   4.591   0.428   9.690 -0.3526  0.1530 -0.3089
 7424TIP3    H146467   4.497   0.410   9.686  0.0129 -2.0399 -0.3721
 7424TIP3    H246468   4.614   0.456   9.602 -0.5027 -2.1385 -1.1558
 7425TIP3   OH246469   6.634   3.664   9.383  0.0518  0.4241  0.2837
 7425TIP3    H146470   6.569   3.609   9.339 -0.2943  0.9764  0.0895
 7425TIP3    H246471   6.719   3.628   9.356 -0.1503  0.7985 -0.9088
 7426TIP3   OH246472   4.410   1.577   9.039 -0.1708  0.2068  0.1870
 7426TIP3    H146473   4.320   1.577   9.007 -0.2162  0.2545  0.3161
 7426TIP3    H246474   4.444   1.664   9.016 -0.2275  0.2685  0.3370
 7427TIP3   OH246475   3.636   6.031  10.173 -0.9216 -0.4073 -0.6881
 7427TIP3    H146476   3.724   6.055  10.144 -0.8605 -0.3592 -0.4657
 7427TIP3    H246477   3.605   6.107  10.224 -0.0484 -1.4336  1.5110
 7428TIP3   OH246478   6.491   1.005  10.718 -0.1743 -0.1540  0.5966
 7428TIP3    H146479   6.430   1.015  10.645  0.5517 -1.4925 -0.2258
 7428TIP3    H246480   6.441   0.959  10.785 -0.2808 -0.6412  0.1866
 7429TIP3   OH246481   3.724   2.486  11.349 -0.0801  0.0650  0.0917
 7429TIP3    H146482   3.674   2.438  11.415  0.3513  1.4861  1.5198
 7429TIP3    H246483   3.664   2.554  11.319  0.5104  0.9134  0.7965
 7430TIP3   OH246484   6.571   6.056  10.399  0.1448  0.1080  0.1826
 7430TIP3    H146485   6.532   5.970  10.414  0.1357  0.3589  1.8029
 7430TIP3    H246486   6.580   6.063  10.304 -2.0391 -0.7061 -0.1337
 7431TIP3   OH246487   2.092   3.949  10.831  0.3265  0.0199  0.0116
 7431TIP3    H146488   2.147   3.974  10.905  0.5328  1.9042 -0.7415
 7431TIP3    H246489   2.008   3.924  10.872  0.2535  1.5430  0.8709
 7432TIP3   OH246490   1.960   5.642   9.108  0.0948  0.2403  1.2563
 7432TIP3    H146491   1.979   5.554   9.076 -2.2043  0.6891 -1.7963
 7432TIP3    H246492   1.910   5.628   9.188 -3.2793 -1.5641 -0.8949
 7433TIP3   OH246493   3.389   5.882  11.328  0.9530  0.2457 -0.5050
 7433TIP3    H146494   3.383   5.976  11.349  1.4755 -0.2541  2.2512
 7433TIP3    H246495   3.482   5.865  11.319  0.8410  0.0306 -1.3117
 7434TIP3   OH246496   0.399   4.647   9.369 -0.5044  0.3646  0.5426
 7434TIP3    H146497   0.326   4.591   9.396 -0.0894 -0.5920 -0.2409
 7434TIP3    H246498   0.462   4.586   9.330 -0.0319  1.3877 -0.3404
 7435TIP3   OH246499   3.764   4.357  12.824 -0.2987  0.1480 -0.3878
 7435TIP3    H146500   3.678   4.400  12.818  0.0452  1.0069  0.6130
 7435TIP3    H246501   3.798   4.382  12.910 -0.1351 -2.2897  0.3314
 7436TIP3   OH246502   5.350   1.355  10.203  0.1176 -0.2343 -0.4506
 7436TIP3    H146503   5.328   1.263  10.221  0.3870 -0.2747 -0.3311
 7436TIP3    H246504   5.435   1.368  10.244 -0.4233  0.3878  0.4864
 7437TIP3   OH246505   1.016   1.333   9.535  0.1513 -0.2831 -0.2105
 7437TIP3    H146506   0.960   1.411   9.525  0.8013  0.0928 -0.9956
 7437TIP3    H246507   0.976   1.268   9.477 -0.2064 -0.4417  0.2044
 7438TIP3   OH246508   2.455   2.740   9.660 -0.2841  0.1998 -0.1222
 7438TIP3    H146509   2.369   2.707   9.638  0.4739 -1.8200 -0.2679
 7438TIP3    H246510   2.438   2.820   9.710 -2.1686  0.5697 -1.2660
 7439TIP3   OH246511   2.121   5.523  12.135  0.3042  0.7596  0.2075
 7439TIP3    H146512   2.092   5.432  12.132 -2.3388  1.5435 -1.6064
 7439TIP3    H246513   2.113   5.548  12.227 -2.2085  0.0196  0.2736
 7440TIP3   OH246514   2.072   3.026   9.441 -0.0409  0.6599 -0.2066
 7440TIP3    H146515   2.136   2.991   9.379 -0.6506  0.7994 -0.9212
 7440TIP3    H246516   2.120   3.030   9.524  0.9132  0.8791 -0.7535
 7441TIP3   OH246517   0.560   3.695  10.232 -0.1517 -0.5408  0.0755
 7441TIP3    H146518   0.566   3.600  10.241 -1.3396 -0.4664  2.5894
 7441TIP3    H246519   0.515   3.724  10.312 -0.8866  2.0265 -1.1461
 7442TIP3   OH246520   0.998   2.595   9.680 -0.3188 -0.0586 -0.0737
 7442TIP3    H146521   1.005   2.531   9.750 -0.9947 -0.6303 -0.5133
 7442TIP3    H246522   1.086   2.632   9.671 -0.5052  0.9967  1.9637
 7443TIP3   OH246523   5.192   1.819   8.819  0.2246  0.4343  0.8314
 7443TIP3    H146524   5.190   1.732   8.779  0.3618  0.9601 -0.3828
 7443TIP3    H246525   5.269   1.819   8.875  2.2309  0.8239 -1.7484
 7444TIP3   OH246526   1.020   3.756  12.047 -0.6059 -0.1892 -0.0028
 7444TIP3    H146527   1.084   3.826  12.061  0.0187 -0.6475 -0.5349
 7444TIP3    H246528   1.058   3.680  12.091 -1.7895  0.0405  1.5405
 7445TIP3   OH246529   6.027   0.140  11.269 -0.0472  0.0174  0.0184
 7445TIP3    H146530   5.934   0.116  11.278 -0.1730 -0.6474 -2.3193
 7445TIP3    H246531   6.035   0.222  11.317 -1.3607 -0.8890  1.9238
 7446TIP3   OH246532   1.920   2.284   9.523 -0.7702 -0.0993 -0.2924
 7446TIP3    H146533   2.000   2.251   9.481 -0.1006 -0.9611  1.5313
 7446TIP3    H246534   1.940   2.374   9.546 -0.5925 -0.0765 -0.5370
 7447TIP3   OH246535   3.128   4.308  11.035 -0.8946  0.1217 -0.0439
 7447TIP3    H146536   3.091   4.244  11.096 -0.0076  1.4028  1.9660
 7447TIP3    H246537   3.210   4.335  11.076 -1.2054  2.4726 -0.8197
 7448TIP3   OH246538   4.663   0.761   9.716 -0.5088  0.2177 -0.1331
 7448TIP3    H146539   4.671   0.696   9.647 -1.9369  0.6243 -0.7018
 7448TIP3    H246540   4.571   0.761   9.740 -0.0319 -0.0364  1.9136
 7449TIP3   OH246541   4.227   1.000   9.744 -0.2635  0.1745  0.3913
 7449TIP3    H146542   4.308   1.051   9.732  0.1546 -0.4633  0.4758
 7449TIP3    H246543   4.180   1.011   9.661  1.7022 -2.6013 -1.2710
 7450TIP3   OH246544   6.655   0.407   8.623 -0.1762  0.1439 -0.4223
 7450TIP3    H146545   6.611   0.492   8.622 -1.7032 -0.6187 -0.0596
 7450TIP3    H246546   6.745   0.428   8.650 -0.6990  1.5583  0.3549
 7451TIP3   OH246547   2.879   6.106   8.903 -0.5525  0.2280  0.4128
 7451TIP3    H146548   2.788   6.135   8.917 -0.7450 -0.4160  0.5418
 7451TIP3    H246549   2.922   6.181   8.862 -1.5187  0.0284 -1.0358
 7452TIP3   OH246550   3.845   4.586  12.439  0.4998  0.2645 -0.1187
 7452TIP3    H146551   3.898   4.542  12.505  2.5116  0.7437 -1.3350
 7452TIP3    H246552   3.770   4.621  12.488  0.2002 -2.1781  1.3103
 7453TIP3   OH246553   0.767   2.617  11.294  0.2520  0.0777  0.2504
 7453TIP3    H146554   0.728   2.608  11.207  0.7115 -0.1267  0.0645
 7453TIP3    H246555   0.702   2.580  11.353  1.0224 -2.2509 -0.2574
 7454TIP3   OH246556   0.521   6.174  11.161  1.1547 -0.7780  0.1642
 7454TIP3    H146557   0.461   6.137  11.096  0.2810  0.9747 -0.0866
 7454TIP3    H246558   0.491   6.264  11.173  2.3717 -0.5373  1.7283
 7455TIP3   OH246559   5.960   1.872   8.814  0.1223  0.1735  0.5257
 7455TIP3    H146560   5.991   1.961   8.828 -0.8355  0.2484  2.5802
 7455TIP3    H246561   5.887   1.862   8.875  0.0926 -1.9587  0.2310
 7456TIP3   OH246562   5.957   4.067  10.189 -0.6227 -0.8147 -0.1066
 7456TIP3    H146563   5.955   4.120  10.110 -0.1022 -1.1044 -0.3191
 7456TIP3    H246564   5.925   3.981  10.161  0.1499 -1.0942 -0.1443
 7457TIP3   OH246565   2.673   4.397   8.813  0.0564  0.1816  0.0754
 7457TIP3    H146566   2.755   4.380   8.767 -1.1967 -1.4899 -1.7655
 7457TIP3    H246567   2.607   4.394   8.744 -1.4184  3.6417  1.1200
 7458TIP3   OH246568   6.388   1.610   9.348 -0.4031 -0.0806 -0.2214
 7458TIP3    H146569   6.308   1.564   9.325 -0.8692  0.4840  0.2318
 7458TIP3    H246570   6.430   1.630   9.264 -0.2426 -1.2163 -0.4266
 7459TIP3   OH246571   3.591   3.334   9.580 -0.0947 -0.0577 -0.5589
 7459TIP3    H146572   3.622   3.243   9.577 -2.2665 -0.8674  0.1696
 7459TIP3    H246573   3.647   3.376   9.645 -0.1429 -1.3358  0.3535
 7460TIP3   OH246574   2.894   2.618   9.006 -0.5802 -0.4556 -0.1531
 7460TIP3    H146575   2.901   2.659   9.093 -0.8575 -0.0323 -0.3233
 7460TIP3    H246576   2.978   2.575   8.993 -0.4447 -0.3147  0.2254
 7461TIP3   OH246577   4.494   4.221  12.206  0.0016 -0.3927 -0.2623
 7461TIP3    H146578   4.573   4.167  12.206 -0.5988 -1.3724  1.8935
 7461TIP3    H246579   4.476   4.237  12.114  2.2916 -0.7371 -0.8378
 7462TIP3   OH246580   0.511   0.264   8.912 -0.6306 -0.1156  0.6141
 7462TIP3    H146581   0.525   0.174   8.884 -0.7149  0.2394 -0.6554
 7462TIP3    H246582   0.449   0.299   8.848  0.0777  1.0980  0.5686
 7463TIP3   OH246583   2.056   5.539  11.146 -0.1026  0.6866 -0.0496
 7463TIP3    H146584   2.038   5.481  11.072 -2.1309  1.7031 -0.4020
 7463TIP3    H246585   2.050   5.483  11.223  0.7549 -0.1122 -0.5431
 7464TIP3   OH246586   1.916   0.559  11.013  0.0100 -0.1311  0.1402
 7464TIP3    H146587   2.002   0.587  10.982 -1.0049  0.6022 -2.2652
 7464TIP3    H246588   1.884   0.500  10.945 -1.2251 -0.7629  1.2179
 7465TIP3   OH246589   4.487   1.845   9.050 -0.1322 -0.0441  0.0639
 7465TIP3    H146590   4.453   1.885   8.970 -0.1562 -2.0441 -1.0010
 7465TIP3    H246591   4.581   1.842   9.037 -0.2045 -1.2405 -0.3810
 7466TIP3   OH246592   4.277   0.535  11.343 -0.2391  0.2644  0.3457
 7466TIP3    H146593   4.282   0.589  11.422 -1.6559  1.0819 -0.0890
 7466TIP3    H246594   4.185   0.512  11.335  0.1455 -1.1766 -0.1947
 7467TIP3   OH246595   2.360   4.322   9.979  0.2366 -0.2395 -0.0844
 7467TIP3    H146596   2.283   4.273   9.951  0.3368  0.7118 -2.2233
 7467TIP3    H246597   2.350   4.408   9.936  1.9146  0.2915  0.5155
 7468TIP3   OH246598   3.953   5.506   9.312  0.3937 -0.1681  0.3021
 7468TIP3    H146599   4.039   5.541   9.288  0.4617 -1.2961 -1.2919
 7468TIP3    H246600   3.897   5.528   9.238 -0.0703 -1.5072  0.2221
 7469TIP3   OH246601   5.355   4.696  10.170 -0.3008  0.1102 -0.7879
 7469TIP3    H146602   5.326   4.612  10.204  2.1229 -0.6067 -0.3026
 7469TIP3    H246603   5.411   4.732  10.239  1.8316  0.2777 -2.4937
 7470TIP3   OH246604   1.512   5.301  10.594  0.2371 -0.2796  0.1034
 7470TIP3    H146605   1.436   5.306  10.652  0.8391  1.6449  0.7991
 7470TIP3    H246606   1.569   5.236  10.635 -0.0698 -0.1367  0.7709
 7471TIP3   OH246607   4.859   0.063   9.983  0.4719  0.1925  0.0263
 7471TIP3    H146608   4.915   0.124   9.934  2.0767 -1.8286 -0.8110
 7471TIP3    H246609   4.770   0.084   9.955  1.2627 -0.5725 -3.6003
 7472TIP3   OH246610   0.744   6.567  10.573  0.1083  0.3598  0.1188
 7472TIP3    H146611   0.679   6.508  10.611 -2.0012  1.3119 -1.7724
 7472TIP3    H246612   0.789   6.605  10.648 -1.8100 -0.0243  1.5452
 7473TIP3   OH246613   1.366   0.727  10.834 -0.3153 -0.2541  0.1997
 7473TIP3    H146614   1.437   0.755  10.891 -1.9481 -0.8456  2.6647
 7473TIP3    H246615   1.360   0.796  10.767  1.1371  0.9010  1.2081
 7474TIP3   OH246616   2.635   6.035  11.931 -0.2817 -0.3611  0.5227
 7474TIP3    H146617   2.550   6.014  11.893 -0.8094  0.2763  1.3141
 7474TIP3    H246618   2.614   6.078  12.014  0.8324 -1.3150  1.3323
 7475TIP3   OH246619   6.020   5.778   8.968  0.0394  0.2665  0.2075
 7475TIP3    H146620   5.968   5.699   8.981 -0.9084  1.0017  0.9952
 7475TIP3    H246621   5.999   5.807   8.879  0.5180 -0.4451 -0.1448
 7476TIP3   OH246622   6.233   0.297  11.648  0.3492  0.5935 -0.3981
 7476TIP3    H146623   6.303   0.238  11.621  0.1383  1.0567 -2.0511
 7476TIP3    H246624   6.173   0.300  11.573 -1.0300  0.8351  0.6670
 7477TIP3   OH246625   0.778   5.936  10.207 -0.1343 -0.3232  0.2667
 7477TIP3    H146626   0.750   5.972  10.291 -0.2399  0.2919 -0.0260
 7477TIP3    H246627   0.777   6.011  10.147  1.1805 -0.4915  0.0102
 7478TIP3   OH246628   5.387   2.561  10.217 -0.2908  0.3427  0.2326
 7478TIP3    H146629   5.428   2.647  10.206  1.7452 -0.6848 -0.9161
 7478TIP3    H246630   5.447   2.513  10.274 -0.8632 -0.6296  0.0540
 7479TIP3   OH246631   1.514   4.380  18.506 -0.0993 -0.1098  0.6459
 7479TIP3    H146632   1.533   4.472  18.527 -0.5929  0.4676 -1.2568
 7479TIP3    H246633   1.445   4.356  18.567 -0.1520  0.8664  1.0018
 7480TIP3   OH246634   0.441   4.450   9.677  0.1237  0.1100 -0.1589
 7480TIP3    H146635   0.525   4.476   9.640  0.5422 -0.7809  0.1139
 7480TIP3    H246636   0.377   4.507   9.635  0.4901 -1.2389 -2.7431
 7481TIP3   OH246637   5.901   4.179  10.444 -0.1567  0.2389  0.5637
 7481TIP3    H146638   5.883   4.270  10.421 -2.0323  0.1875  1.6722
 7481TIP3    H246639   5.870   4.129  10.368  1.4156  0.5164 -0.3004
 7482TIP3   OH246640   6.475   1.184   8.947  0.3909  0.2367 -0.4739
 7482TIP3    H146641   6.416   1.249   8.909 -1.0303  0.0005  1.1919
 7482TIP3    H246642   6.463   1.194   9.041  2.3795 -0.4497 -0.1135
 7483TIP3   OH246643   1.644   6.411  11.735 -0.5080  0.2822  0.4478
 7483TIP3    H146644   1.714   6.424  11.799 -1.7645  0.9795  1.7243
 7483TIP3    H246645   1.672   6.335  11.685  0.6704 -0.1040  1.6298
 7484TIP3   OH246646   5.724   2.928  11.963  0.3257  0.0300  0.0743
 7484TIP3    H146647   5.640   2.890  11.990  0.2676  0.0943 -0.0128
 7484TIP3    H246648   5.789   2.864  11.988  0.4471  0.7988  1.9331
 7485TIP3   OH246649   0.051   2.502  10.146 -0.0757  0.1643 -0.0287
 7485TIP3    H146650   0.058   2.430  10.208  0.2359  0.6013  0.4560
 7485TIP3    H246651   0.095   2.470  10.067 -1.0755 -0.6455 -0.2693
 7486TIP3   OH246652   5.976   4.243   9.151 -0.5576 -0.0987 -0.0295
 7486TIP3    H146653   6.072   4.243   9.141 -0.6498  0.7308 -1.1037
 7486TIP3    H246654   5.943   4.272   9.066 -1.7472  0.3016  0.5468
 7487TIP3   OH246655   5.434   1.823   9.892 -0.2786 -0.3134 -0.2269
 7487TIP3    H146656   5.475   1.763   9.831  0.6384 -0.8216  0.8522
 7487TIP3    H246657   5.461   1.910   9.863  1.2566 -0.6130  0.2149
 7488TIP3   OH246658   1.892   2.656  10.384  0.4368  0.2787 -0.3425
 7488TIP3    H146659   1.867   2.748  10.376  0.6102  0.3426 -0.1441
 7488TIP3    H246660   1.870   2.633  10.475  0.4137  0.1303 -0.3856
 7489TIP3   OH246661   5.126   4.055  11.878 -0.2089 -0.2404 -0.0971
 7489TIP3    H146662   5.039   4.026  11.906  0.6336 -1.6656  1.1651
 7489TIP3    H246663   5.187   4.001  11.928  1.4534  2.4083  0.9317
 7490TIP3   OH246664   4.491   1.052   8.509  0.3963  0.8707  0.2562
 7490TIP3    H146665   4.530   0.967   8.490 -0.7835  0.5881 -1.0560
 7490TIP3    H246666   4.404   1.048   8.470 -0.6727  1.7733  2.3868
 7491TIP3   OH246667   3.136   0.616   9.300  0.3482  0.7737 -0.3354
 7491TIP3    H146668   3.197   0.660   9.359  1.1516  0.4791 -0.9372
 7491TIP3    H246669   3.191   0.574   9.234 -0.4799  0.0979 -0.6186
 7492TIP3   OH246670   0.561   1.630   8.901  0.0520  0.3557  0.4353
 7492TIP3    H146671   0.619   1.561   8.867  0.0626  0.5214  0.1072
 7492TIP3    H246672   0.607   1.712   8.880  0.0492  0.4643  0.8410
 7493TIP3   OH246673   1.584   0.628   9.873  0.0721  0.2460  0.1391
 7493TIP3    H146674   1.648   0.616   9.943 -1.3868  1.7742  1.8550
 7493TIP3    H246675   1.501   0.597   9.910 -0.8226  1.4529 -0.7456
 7494TIP3   OH246676   4.370   4.292  11.953  0.1940  0.0067  0.1883
 7494TIP3    H146677   4.375   4.245  11.870  0.2295 -0.5028  0.4744
 7494TIP3    H246678   4.288   4.341  11.948  0.2269  0.0236 -0.1738
 7495TIP3   OH246679   2.929   2.259  11.038  0.0265 -0.0676  0.8423
 7495TIP3    H146680   3.017   2.233  11.065  1.1488  3.4146  1.1233
 7495TIP3    H246681   2.887   2.178  11.010  3.0951 -1.9734  1.2840
 7496TIP3   OH246682   0.762   4.279  11.432  0.4031  0.0012  0.3454
 7496TIP3    H146683   0.683   4.304  11.480 -0.0761 -0.0940 -0.3794
 7496TIP3    H246684   0.763   4.338  11.356  1.5490  0.6497  0.8474
 7497TIP3   OH246685   6.062   3.385  11.120  0.2070  0.2137 -0.2470
 7497TIP3    H146686   6.156   3.402  11.108  0.7064 -1.6382  0.6296
 7497TIP3    H246687   6.045   3.308  11.065 -0.9254  0.8390 -0.7863
 7498TIP3   OH246688   2.378   4.817   9.272  0.0727  0.1734 -0.2404
 7498TIP3    H146689   2.412   4.757   9.338 -0.0099  0.0682 -0.2923
 7498TIP3    H246690   2.447   4.883   9.261  0.4147 -0.2386 -0.6048
 7499TIP3   OH246691   1.367   4.902   8.643  0.3871  0.2878  0.2389
 7499TIP3    H146692   1.320   4.861   8.716  0.1080 -0.9150 -0.5755
 7499TIP3    H246693   1.302   4.956   8.599 -0.2473 -1.1822 -0.7389
 7500TIP3   OH246694   2.665   1.350  11.159  0.3473 -0.5775 -0.1226
 7500TIP3    H146695   2.743   1.400  11.134  0.5437 -0.5824  0.4667
 7500TIP3    H246696   2.688   1.259  11.139  0.0760 -0.4694 -0.9773
 7501TIP3   OH246697   5.398   5.699  10.240  0.5114  0.0089 -0.2770
 7501TIP3    H146698   5.422   5.708  10.148  0.6932  0.4130 -0.1914
 7501TIP3    H246699   5.481   5.691  10.286  0.3824 -1.7581 -0.3030
 7502TIP3   OH246700   1.951   0.666   8.918  0.3511  0.3429  0.5812
 7502TIP3    H146701   1.869   0.666   8.869  1.1810 -0.9052 -0.8684
 7502TIP3    H246702   1.924   0.682   9.009 -1.3755  1.0484 -0.0153
 7503TIP3   OH246703   2.574   3.383  11.141 -0.8601  0.5418 -0.1183
 7503TIP3    H146704   2.655   3.433  11.136  1.1870 -2.3685  1.4224
 7503TIP3    H246705   2.535   3.392  11.053  1.8714  0.8614 -1.3993
 7504TIP3   OH246706   0.262   4.721  11.134  0.0041 -0.5861  0.0452
 7504TIP3    H146707   0.268   4.722  11.039 -0.7397  2.2128 -0.0508
 7504TIP3    H246708   0.171   4.745  11.153  0.0533 -1.3898  1.4683
 7505TIP3   OH246709   2.821   5.712  11.633  0.1258  0.4038  0.1267
 7505TIP3    H146710   2.898   5.759  11.600 -0.0169  0.6359  0.1220
 7505TIP3    H246711   2.845   5.688  11.723  0.3402  0.1633  0.0090
 7506TIP3   OH246712   1.765   0.050  10.024  0.1080  0.2029 -0.2797
 7506TIP3    H146713   1.765   0.124   9.963  0.9887  0.5457  0.1129
 7506TIP3    H246714   1.691  -0.004   9.996 -0.6006  1.2671 -0.5146
 7507TIP3   OH246715   0.590   1.756  10.037  0.7994  0.8670 -0.5607
 7507TIP3    H146716   0.523   1.762   9.969  0.4062 -0.1396 -0.2892
 7507TIP3    H246717   0.583   1.838  10.086 -0.6087  0.5570 -0.2043
 7508TIP3   OH246718   1.568   6.560  10.906  0.0050 -0.2604 -0.4192
 7508TIP3    H146719   1.495   6.528  10.959  0.6572 -0.8552  0.1428
 7508TIP3    H246720   1.527   6.592  10.825 -0.8082 -1.2130 -0.4029
 7509TIP3   OH246721   0.199   6.332   9.602 -0.4837  0.2727 -0.1924
 7509TIP3    H146722   0.198   6.334   9.698 -1.4413 -3.0472 -0.0301
 7509TIP3    H246723   0.286   6.365   9.579  0.8378 -1.4076  1.9801
 7510TIP3   OH246724   2.433   1.927  10.094  0.0829  0.6223  0.5123
 7510TIP3    H146725   2.490   1.857  10.127 -0.9322 -0.4447  0.0446
 7510TIP3    H246726   2.377   1.950  10.168 -1.4474 -1.0049 -0.0938
 7511TIP3   OH246727   1.724   5.403   8.664 -0.2737 -0.0260  0.2137
 7511TIP3    H146728   1.661   5.335   8.639 -0.9375  0.9976 -1.0173
 7511TIP3    H246729   1.810   5.364   8.646 -0.6012 -0.8838  0.4596
 7512TIP3   OH246730   3.292   2.620  10.567  0.4074 -0.2137  0.0044
 7512TIP3    H146731   3.294   2.564  10.645 -0.1623  0.3695  0.4419
 7512TIP3    H246732   3.199   2.635  10.551  0.4036 -1.7869 -1.8563
 7513TIP3   OH246733   5.298   4.501  11.098  0.4052 -0.1097 -0.5792
 7513TIP3    H146734   5.319   4.569  11.035  0.5556 -0.6085 -1.0782
 7513TIP3    H246735   5.257   4.432  11.046  0.1652 -0.3587 -0.0674
 7514TIP3   OH246736   0.403   2.741  12.190  0.2239 -0.2882  0.8343
 7514TIP3    H146737   0.333   2.800  12.163  0.6111 -0.2439 -0.0905
 7514TIP3    H246738   0.414   2.681  12.117  3.5087  1.8276 -0.6456
 7515TIP3   OH246739   0.402   0.494   9.923  0.2866  0.0405 -0.0114
 7515TIP3    H146740   0.478   0.498   9.864 -0.1903  0.1684 -0.6272
 7515TIP3    H246741   0.433   0.445   9.999  1.0583  0.3004 -0.1526
 7516TIP3   OH246742   4.314   6.374   9.688 -0.1913  0.1291  0.4779
 7516TIP3    H146743   4.393   6.417   9.657  0.3929 -1.3832 -0.2296
 7516TIP3    H246744   4.332   6.281   9.679 -0.8410 -0.3759  3.2936
 7517TIP3   OH246745   3.719   5.758  10.822 -0.0322  0.1862  0.1554
 7517TIP3    H146746   3.814   5.749  10.818 -0.1102 -0.5129 -0.2615
 7517TIP3    H246747   3.686   5.697  10.756 -0.7839  0.1519  0.5482
 7518TIP3   OH246748   1.133   0.568  10.342 -0.8106  0.6478 -0.3279
 7518TIP3    H146749   1.089   0.536  10.421  0.7567  0.9391  0.7013
 7518TIP3    H246750   1.206   0.619  10.374  1.1053 -0.9039 -1.9529
 7519TIP3   OH246751   0.333   6.064  10.275  0.1770  0.0400 -0.3527
 7519TIP3    H146752   0.405   6.020  10.229 -0.1719 -0.2558 -0.6174
 7519TIP3    H246753   0.263   5.998  10.279 -0.1957  0.4334 -0.3785
 7520TIP3   OH246754   3.582   5.756  10.007 -0.5175 -0.1287 -0.6882
 7520TIP3    H146755   3.666   5.799  10.023 -0.1985  0.8389 -4.1232
 7520TIP3    H246756   3.516   5.815  10.043  0.1637  0.4482 -0.3814
 7521TIP3   OH246757   0.008   6.557  10.202 -0.4453  0.0709 -0.0551
 7521TIP3    H146758  -0.022   6.502  10.130 -0.5839  1.2841 -0.9703
 7521TIP3    H246759  -0.066   6.562  10.262 -0.5478 -0.4469 -0.1399
 7522TIP3   OH246760   6.233   3.507  10.320 -0.1353  0.3592 -0.0092
 7522TIP3    H146761   6.299   3.515  10.388  1.1333 -1.0189 -1.0168
 7522TIP3    H246762   6.282   3.483  10.241 -1.8806 -1.3846 -0.6418
 7523TIP3   OH246763   5.057   3.237  10.140  0.3435 -1.0663  0.8274
 7523TIP3    H146764   5.065   3.211  10.048 -0.3476 -0.0921  0.4775
 7523TIP3    H246765   5.014   3.322  10.137  0.6409 -0.8563  2.0456
 7524TIP3   OH246766   1.493   5.881   8.792  0.0560  0.1006 -0.7842
 7524TIP3    H146767   1.468   5.794   8.824  1.6016 -0.1799 -0.2695
 7524TIP3    H246768   1.573   5.902   8.840  0.3483  1.3140 -1.7631
 7525TIP3   OH246769   1.357   3.025   9.611 -0.1878 -0.6489  0.0932
 7525TIP3    H146770   1.421   3.090   9.641  1.5433 -1.6591 -1.2299
 7525TIP3    H246771   1.279   3.077   9.592  0.8794  0.9643 -0.1787
 7526TIP3   OH246772   0.783   3.120   9.339 -0.2956  0.3936  0.3351
 7526TIP3    H146773   0.773   3.215   9.348 -0.5020  0.2616  1.5452
 7526TIP3    H246774   0.738   3.100   9.257 -1.2471  1.1896  0.6401
 7527TIP3   OH246775   5.879   1.359   9.167 -0.2723 -0.2643 -0.0544
 7527TIP3    H146776   5.794   1.316   9.163 -0.8424  0.9004 -0.7552
 7527TIP3    H246777   5.874   1.416   9.244 -1.5860  2.7065 -2.1817
 7528TIP3   OH246778   1.288   0.867  10.243 -0.0294 -0.2696 -0.3362
 7528TIP3    H146779   1.205   0.908  10.217  0.4970  1.6274  0.7763
 7528TIP3    H246780   1.274   0.840  10.333  0.7643  0.6875  0.0858
 7529TIP3   OH246781   1.968   4.462   9.986 -0.2734 -0.6489  0.6911
 7529TIP3    H146782   2.024   4.500  10.054  0.3948 -0.1813 -0.1082
 7529TIP3    H246783   1.987   4.513   9.908 -0.5905 -1.5765 -0.0048
 7530TIP3   OH246784   2.041   6.201  10.405  0.3356 -0.0020 -0.0244
 7530TIP3    H146785   2.008   6.278  10.452 -1.0333 -0.3463 -0.3799
 7530TIP3    H246786   2.092   6.154  10.470  1.7067  1.4928  0.0495
 7531TIP3   OH246787   3.297   3.272  10.044 -0.1814 -0.6520 -0.2031
 7531TIP3    H146788   3.274   3.364  10.030 -3.1751 -1.3506 -0.3307
 7531TIP3    H246789   3.285   3.231   9.959  0.8191 -1.2825 -0.0611
 7532TIP3   OH246790   2.581   3.977  12.737 -0.2711  0.0625  0.2572
 7532TIP3    H146791   2.614   3.919  12.806 -1.1180  0.9888  1.4810
 7532TIP3    H246792   2.532   4.045  12.784 -2.8630 -0.5384 -1.3373
 7533TIP3   OH246793   1.503   3.221  12.311 -0.7182 -0.4747 -0.2480
 7533TIP3    H146794   1.412   3.201  12.292 -0.8138  0.5259 -0.8936
 7533TIP3    H246795   1.553   3.150  12.270 -1.1240 -0.2074 -1.2127
 7534TIP3   OH246796   4.794   0.869  10.470  0.1848 -0.1114  0.5254
 7534TIP3    H146797   4.814   0.846  10.379  0.6077 -0.5912  0.7364
 7534TIP3    H246798   4.844   0.949  10.486  1.9250 -1.2405  1.0153
 7535TIP3   OH246799   4.959   1.519  11.953 -0.3025  0.5817 -0.1973
 7535TIP3    H146800   5.049   1.486  11.947  0.2105  2.0310 -0.7593
 7535TIP3    H246801   4.905   1.440  11.952  0.9651 -0.3391  0.5075
 7536TIP3   OH246802   4.072   2.898  10.948  0.3915  0.0690  0.2296
 7536TIP3    H146803   4.031   2.816  10.973 -0.2466  0.4394  0.4147
 7536TIP3    H246804   4.123   2.876  10.869  0.0904 -0.4584  0.1787
 7537TIP3   OH246805   1.752   4.561   8.883 -0.4717 -0.0279  0.0269
 7537TIP3    H146806   1.824   4.540   8.943 -1.1960 -1.3183  0.4782
 7537TIP3    H246807   1.674   4.558   8.937 -0.9386  0.8481 -0.5732
 7538TIP3   OH246808   2.150   3.411   9.627  1.0761 -0.2413 -0.1937
 7538TIP3    H146809   2.218   3.460   9.673 -0.4103  0.6726  1.1269
 7538TIP3    H246810   2.068   3.438   9.668 -0.1317 -1.1850 -1.8236
 7539TIP3   OH246811   6.474   3.334  11.748  0.1941  0.5591  0.1097
 7539TIP3    H146812   6.487   3.408  11.689  1.8127 -0.7044 -1.2000
 7539TIP3    H246813   6.561   3.296  11.759 -1.0208 -3.7890 -2.9013
 7540TIP3   OH246814   6.346   6.430  12.185 -0.0442 -0.2414  0.6250
 7540TIP3    H146815   6.427   6.479  12.198 -0.3715  0.2816  0.7158
 7540TIP3    H246816   6.314   6.411  12.273 -0.2054 -0.1405  0.5884
 7541TIP3   OH246817   0.666   0.510  11.015 -0.2100 -0.3134  0.3093
 7541TIP3    H146818   0.659   0.468  11.101 -1.0050 -0.3265  0.2497
 7541TIP3    H246819   0.626   0.596  11.027 -0.9389 -0.5733 -0.2075
 7542TIP3   OH246820   4.513   4.133   9.714  0.2860 -0.5362  0.8347
 7542TIP3    H146821   4.546   4.062   9.659 -0.3443 -0.8690  0.8759
 7542TIP3    H246822   4.438   4.095   9.759 -0.1928  0.2219  0.6914
 7543TIP3   OH246823   2.711   2.013  12.206 -0.6078 -0.3801 -0.3943
 7543TIP3    H146824   2.631   2.053  12.239 -0.0341 -0.2052  0.8336
 7543TIP3    H246825   2.688   1.921  12.192 -0.9882 -0.3581  0.0625
 7544TIP3   OH246826   5.255   0.899  10.820 -1.0670  0.3914  0.3436
 7544TIP3    H146827   5.280   0.809  10.801 -1.1262  0.0899  1.6477
 7544TIP3    H246828   5.159   0.897  10.823 -1.1069  0.6717 -0.3813
 7545TIP3   OH246829   0.456   3.505  10.824 -0.3758  0.1304  0.3276
 7545TIP3    H146830   0.422   3.418  10.804 -0.6604  0.2108  0.4617
 7545TIP3    H246831   0.499   3.495  10.909  1.3475 -0.3509 -0.5658
 7546TIP3   OH246832   4.363   0.597   9.307  0.0065  0.4525 -0.2396
 7546TIP3    H146833   4.419   0.673   9.320  0.2782  1.1594 -4.2579
 7546TIP3    H246834   4.418   0.533   9.262 -1.0519 -0.8812  0.2917
 7547TIP3   OH246835   2.474   5.229   8.981 -0.2715  0.2825 -0.2268
 7547TIP3    H146836   2.391   5.248   9.026 -0.6492  0.6420 -1.0349
 7547TIP3    H246837   2.483   5.301   8.918  0.1157 -0.3268 -0.8760
 7548TIP3   OH246838   2.889   0.178  11.305 -0.1381 -0.1832 -0.1545
 7548TIP3    H146839   2.796   0.156  11.302 -0.0421 -0.4875 -2.2456
 7548TIP3    H246840   2.904   0.231  11.227  1.4449 -0.0615  0.1872
 7549TIP3   OH246841   2.971   2.218  10.125  0.1445 -0.4807 -0.0452
 7549TIP3    H146842   2.895   2.163  10.142 -0.8212  0.4115 -1.2613
 7549TIP3    H246843   2.965   2.288  10.191  0.3957 -0.8813  0.4027
 7550TIP3   OH246844   1.642   4.021  10.902  0.6135  0.3069 -0.5847
 7550TIP3    H146845   1.571   4.024  10.837  0.4847  0.4011 -0.4411
 7550TIP3    H246846   1.657   4.113  10.924  0.3179  0.2453 -0.1147
 7551TIP3   OH246847   5.592   5.970  11.169 -0.2553  0.3457 -0.2148
 7551TIP3    H146848   5.528   6.037  11.192  1.7059  2.4218 -0.4071
 7551TIP3    H246849   5.672   5.998  11.214  1.4065 -0.2580 -2.6185
 7552TIP3   OH246850   4.725   2.107   8.562  0.3008  0.6747  0.2630
 7552TIP3    H146851   4.728   2.132   8.654  0.8009 -0.6232  0.6259
 7552TIP3    H246852   4.700   2.014   8.563  0.4092  0.6149 -0.9052
 7553TIP3   OH246853   2.332   5.175   9.970  0.4569  0.4743 -0.8495
 7553TIP3    H146854   2.342   5.081   9.987 -1.0550  0.1216 -1.7383
 7553TIP3    H246855   2.282   5.179   9.889 -3.5860  1.9482  1.4270
 7554TIP3   OH246856   4.995   2.784  10.090 -0.1086  0.0161  0.3688
 7554TIP3    H146857   5.083   2.818  10.073 -0.6527  1.4142  0.2033
 7554TIP3    H246858   5.006   2.689  10.091  1.3634  0.1551  0.1458
 7555TIP3   OH246859   1.152   3.914   9.854 -0.3487  0.5327 -0.2957
 7555TIP3    H146860   1.199   3.887   9.932  0.7217  1.6877 -0.5114
 7555TIP3    H246861   1.063   3.931   9.884 -0.5523 -1.2264  0.2128
 7556TIP3   OH246862   1.022   5.715   9.225  0.2784 -0.1860 -0.2658
 7556TIP3    H146863   1.059   5.802   9.213  1.1648 -0.6461 -1.0063
 7556TIP3    H246864   1.091   5.655   9.196  0.8756 -1.2981  3.0552
 7557TIP3   OH246865   1.859   4.596   9.429 -0.4993 -0.5582  0.5555
 7557TIP3    H146866   1.951   4.625   9.434 -0.3211 -0.7596 -1.0162
 7557TIP3    H246867   1.858   4.512   9.473 -0.4337  0.4640  2.6436
 7558TIP3   OH246868   1.625   1.260   9.314  0.3189 -0.1534  0.0780
 7558TIP3    H146869   1.602   1.185   9.259  0.3457 -0.5526  0.6034
 7558TIP3    H246870   1.720   1.264   9.310  0.3919 -0.8528  0.9610
 7559TIP3   OH246871   6.042   0.925   9.845 -0.3572 -0.0163 -0.2259
 7559TIP3    H146872   6.134   0.949   9.837 -0.5088  0.8713  0.5467
 7559TIP3    H246873   6.029   0.860   9.776  0.4007  1.1640 -1.5521
 7560TIP3   OH246874   4.993   1.788  11.990  0.1780  0.4700  0.0988
 7560TIP3    H146875   4.973   1.695  11.997  0.3764  0.4735  0.7216
 7560TIP3    H246876   5.086   1.791  11.967  0.5797  0.5361  1.6572
 7561TIP3   OH246877   1.836   1.228  10.349 -0.7530 -0.0991 -0.2623
 7561TIP3    H146878   1.854   1.153  10.406  0.3604 -1.5613 -2.4066
 7561TIP3    H246879   1.895   1.297  10.380 -0.0530 -0.9177  0.2630
 7562TIP3   OH246880   1.899   3.899   9.045 -0.1646 -0.0697 -0.0422
 7562TIP3    H146881   1.948   3.860   8.973  0.8041  1.4926 -0.2812
 7562TIP3    H246882   1.870   3.825   9.097  3.0114 -1.1093  0.4744
 7563TIP3   OH246883   1.064   2.821   9.064 -0.1741  0.1296  0.1622
 7563TIP3    H146884   1.143   2.770   9.083 -0.8085 -1.6072 -1.5311
 7563TIP3    H246885   1.020   2.828   9.149  1.2432  0.2071  0.9288
 7564TIP3   OH246886   4.707   3.083   8.503  0.0685 -0.3358  0.4288
 7564TIP3    H146887   4.794   3.044   8.502 -0.3667 -1.3192  0.5359
 7564TIP3    H246888   4.717   3.163   8.451  0.9813 -0.5470  0.2585
 7565TIP3   OH246889   0.400   2.541  10.931  0.4012  0.0457 -0.0066
 7565TIP3    H146890   0.328   2.478  10.929  1.6132 -1.3910 -1.1724
 7565TIP3    H246891   0.440   2.533  10.844  0.7193  2.3273 -0.1280
 7566TIP3   OH246892   6.198   6.318  10.192  0.9666  0.1198  0.0735
 7566TIP3    H146893   6.163   6.408  10.192  2.1952  0.6231  0.3223
 7566TIP3    H246894   6.270   6.321  10.256 -0.1324 -1.5225  1.4465
 7567TIP3   OH246895   1.607   2.284   9.683 -0.0043  0.0701  0.4913
 7567TIP3    H146896   1.567   2.270   9.769 -1.1535  0.9205  0.1073
 7567TIP3    H246897   1.677   2.348   9.699 -0.5623  0.6329  0.7090
 7568TIP3   OH246898   3.502   1.978  11.745  0.6210  0.1231  0.3263
 7568TIP3    H146899   3.560   1.932  11.684  0.8292 -1.3889  1.5916
 7568TIP3    H246900   3.537   1.956  11.831 -2.1681 -1.4134  1.1964
 7569TIP3   OH246901   4.104   6.589  11.979  0.2899  0.2705 -0.7259
 7569TIP3    H146902   4.168   6.643  11.933  0.3718 -0.2221 -1.1993
 7569TIP3    H246903   4.136   6.499  11.968 -0.0905  0.0822 -0.3406
 7570TIP3   OH246904   0.688   6.463   9.045 -0.2790  0.0078  0.0761
 7570TIP3    H146905   0.714   6.372   9.064 -0.6409 -0.5374 -1.7849
 7570TIP3    H246906   0.747   6.516   9.098  1.1472 -1.2980 -0.1100
 7571TIP3   OH246907   6.113   4.399   9.663 -0.1970  0.5845 -0.2019
 7571TIP3    H146908   6.171   4.466   9.628  0.1650  0.3650 -0.0257
 7571TIP3    H246909   6.026   4.438   9.658  0.0599  1.2491  0.3314
 7572TIP3   OH246910   2.440   4.650   9.482 -0.0082 -0.5079 -0.1278
 7572TIP3    H146911   2.457   4.713   9.552  2.2809 -0.0778 -0.9676
 7572TIP3    H246912   2.453   4.565   9.523  0.1019 -0.3136  0.2510
 7573TIP3   OH246913   1.548   2.716  10.222 -0.0937 -0.2231 -0.2969
 7573TIP3    H146914   1.474   2.757  10.267  0.2727 -0.8714  0.9722
 7573TIP3    H246915   1.550   2.627  10.257  1.6669 -0.0297  0.2077
 7574TIP3   OH246916   6.474   1.099   9.482 -0.7886 -0.2453 -0.1979
 7574TIP3    H146917   6.497   1.187   9.453  0.7246 -0.8766 -0.9788
 7574TIP3    H246918   6.435   1.112   9.569 -0.9719  1.2202 -0.4815
 7575TIP3   OH246919   1.239   3.116  12.377 -0.2166  0.0669  0.3949
 7575TIP3    H146920   1.200   3.169  12.446  1.0934 -0.8159  1.8817
 7575TIP3    H246921   1.186   3.037  12.375 -0.2417  0.0836  0.3969
 7576TIP3   OH246922   3.962   4.372  11.370  0.2996  0.5039  0.0630
 7576TIP3    H146923   3.942   4.465  11.382  0.0147  0.6031 -1.0113
 7576TIP3    H246924   4.048   4.372  11.327  0.0414  0.3002 -0.4602
 7577TIP3   OH246925   4.327   5.625  10.012 -0.3492  0.1083 -0.2772
 7577TIP3    H146926   4.403   5.664   9.968 -0.8439  0.0566 -1.1912
 7577TIP3    H246927   4.358   5.609  10.101  0.6027  0.4271 -0.5300
 7578TIP3   OH246928   6.210   2.628  10.698  0.1369 -0.0213  0.5810
 7578TIP3    H146929   6.171   2.550  10.657 -0.5113 -0.0721  1.2633
 7578TIP3    H246930   6.304   2.621  10.679 -0.1955  0.2129 -1.2780
 7579TIP3   OH246931   1.058   4.304   9.267  0.3969  0.3413  0.1424
 7579TIP3    H146932   1.130   4.264   9.217  0.4457 -0.0421  0.5171
 7579TIP3    H246933   0.979   4.266   9.229  0.3631  1.0843 -0.5569
 7580TIP3   OH246934   5.072   2.222  10.781  0.3748 -0.7411 -0.2453
 7580TIP3    H146935   5.164   2.243  10.801  0.3008 -1.2720  0.7180
 7580TIP3    H246936   5.065   2.232  10.686  1.5927 -1.3351 -0.4100
 7581TIP3   OH246937   3.287   5.688  11.779  0.7263 -0.3896  0.2194
 7581TIP3    H146938   3.200   5.679  11.738  1.3954 -1.6308 -1.0049
 7581TIP3    H246939   3.330   5.756  11.728  0.6198 -0.0241  0.6066
 7582TIP3   OH246940   1.301   3.610  10.405 -0.0308  0.4769 -0.5169
 7582TIP3    H146941   1.394   3.605  10.382 -0.2642  0.0168 -1.3902
 7582TIP3    H246942   1.269   3.688  10.359 -0.2731  0.1179 -0.9704
 7583TIP3   OH246943   0.082   1.047  10.386  0.0068  0.0952  0.2709
 7583TIP3    H146944   0.012   0.987  10.360 -0.3860  0.2821  0.8625
 7583TIP3    H246945   0.159   1.016  10.339 -0.4353 -0.2187 -0.2575
 7584TIP3   OH246946   1.544   6.322  11.416  0.5836  1.2949  0.3390
 7584TIP3    H146947   1.589   6.281  11.490  1.1428  1.2294 -0.0373
 7584TIP3    H246948   1.533   6.413  11.443  0.8754  1.2945  0.4576
 7585TIP3   OH246949   5.641   2.212   9.347 -0.0482  0.1565 -0.5659
 7585TIP3    H146950   5.559   2.261   9.346  0.2719  0.6910 -1.3844
 7585TIP3    H246951   5.708   2.277   9.332  0.5606 -0.2528  0.2689
 7586TIP3   OH246952   5.912   1.841  10.182  0.2134 -0.0912 -0.1392
 7586TIP3    H146953   5.964   1.912  10.220  1.1896 -0.0956 -1.3986
 7586TIP3    H246954   5.823   1.875  10.181  0.3928  0.4628  0.7800
 7587TIP3   OH246955   0.418   3.976  11.130  0.4780  0.3024 -0.3467
 7587TIP3    H146956   0.333   3.945  11.161 -0.1861  1.1900 -1.1995
 7587TIP3    H246957   0.474   3.899  11.131 -0.9132 -0.7829 -1.7090
 7588TIP3   OH246958   4.224   1.719   9.664  0.6973  0.1034 -0.6508
 7588TIP3    H146959   4.131   1.698   9.655 -0.0023  1.6904  1.9880
 7588TIP3    H246960   4.240   1.783   9.595 -0.2224 -0.0007 -0.9772
 7589TIP3   OH246961   0.435   0.310   8.558 -0.0134 -0.0549  0.1044
 7589TIP3    H146962   0.480   0.228   8.540 -0.2998 -0.1202 -0.3181
 7589TIP3    H246963   0.451   0.364   8.481 -0.9791 -0.2214 -0.2250
 7590TIP3   OH246964   5.296   1.968   8.625  0.2725 -0.3587 -0.1630
 7590TIP3    H146965   5.330   1.903   8.563  0.7329 -1.3402  1.0604
 7590TIP3    H246966   5.232   1.919   8.677  1.5867 -0.2218  1.6557
 7591TIP3   OH246967   0.414   6.475  11.129 -0.0271 -0.2640  0.0909
 7591TIP3    H146968   0.400   6.520  11.212  1.3167  2.1175 -0.8916
 7591TIP3    H246969   0.401   6.542  11.062 -1.1416 -2.1310 -1.6722
 7592TIP3   OH246970   2.221   6.349  11.690 -0.6328  0.0861  0.2537
 7592TIP3    H146971   2.139   6.299  11.695 -0.5837  0.1347  3.1634
 7592TIP3    H246972   2.289   6.283  11.704  0.0528 -0.1290 -3.0839
 7593TIP3   OH246973   1.372   5.190  11.566 -0.1265  0.1931  0.3037
 7593TIP3    H146974   1.288   5.186  11.519  1.8414  1.0968 -3.6880
 7593TIP3    H246975   1.404   5.100  11.566 -1.7512 -0.5612  3.6176
 7594TIP3   OH246976   3.701   6.519   9.544 -0.2255 -0.2181 -0.2877
 7594TIP3    H146977   3.624   6.462   9.545 -0.2478 -0.2298 -1.3380
 7594TIP3    H246978   3.775   6.460   9.559 -0.1390 -0.7515 -2.5134
 7595TIP3   OH246979   0.050   5.800   9.291  0.1411  0.2148 -0.1542
 7595TIP3    H146980  -0.005   5.751   9.352 -0.2953  0.5831 -0.2482
 7595TIP3    H246981   0.131   5.815   9.339 -0.3971  0.9816  0.5481
 7596TIP3   OH246982   4.368   5.449  11.067  0.9904 -0.0471 -0.6151
 7596TIP3    H146983   4.322   5.372  11.100  1.7328  0.5114  1.9487
 7596TIP3    H246984   4.334   5.461  10.978 -1.5728 -1.4088  0.0793
 7597TIP3   OH246985   4.579   4.456  10.413  0.3237 -0.4423 -0.0393
 7597TIP3    H146986   4.645   4.453  10.344 -0.5598 -0.3724 -0.8964
 7597TIP3    H246987   4.608   4.529  10.469  1.1566 -0.6321 -0.2033
 7598TIP3   OH246988   2.301   1.685  10.722 -0.1234 -0.0191  0.1515
 7598TIP3    H146989   2.217   1.639  10.724  0.3344 -0.9976 -1.4463
 7598TIP3    H246990   2.321   1.695  10.629  1.5859  0.0904  0.4967
 7599TIP3   OH246991   3.183   0.240  12.429  0.0535  0.1373 -0.2032
 7599TIP3    H146992   3.260   0.272  12.475 -0.5084  0.2656  0.6846
 7599TIP3    H246993   3.200   0.147  12.416  0.4473  0.2062 -0.1929
 7600TIP3   OH246994   0.017   0.518  10.718  0.4083 -0.0989  0.3799
 7600TIP3    H146995  -0.053   0.497  10.780 -0.6936  0.7556 -0.5045
 7600TIP3    H246996   0.023   0.613  10.720  0.9804 -0.1165 -0.1498
 7601TIP3   OH246997   2.550   3.089   9.391  0.5917 -0.3224  0.4880
 7601TIP3    H146998   2.541   2.998   9.420 -2.7539 -0.0180  0.7509
 7601TIP3    H246999   2.526   3.088   9.299  0.2800  0.3459  0.5561
 7602TIP3   OH247000   4.377   5.490   9.688 -0.3245 -0.6626 -0.1143
 7602TIP3    H147001   4.430   5.423   9.731 -0.0164  0.7772  1.9187
 7602TIP3    H247002   4.397   5.570   9.737 -3.1834  0.2494 -0.2715
 7603TIP3   OH247003   0.100   5.872  11.055  0.6710  0.0942  0.7479
 7603TIP3    H147004   0.022   5.920  11.030  1.7997  0.5979 -2.2480
 7603TIP3    H247005   0.165   5.939  11.073  0.6252 -0.3263  2.6661
 7604TIP3   OH247006   4.986   1.129   9.592 -0.2467  0.1746  0.0723
 7604TIP3    H147007   4.965   1.222   9.585  0.1154  0.2789  0.4013
 7604TIP3    H247008   5.046   1.123   9.666  2.3128  0.1080 -1.8761
 7605TIP3   OH247009   1.949   4.976  12.503  0.1357 -0.1806 -0.1100
 7605TIP3    H147010   1.932   4.882  12.509  0.6773 -0.2933 -0.2728
 7605TIP3    H247011   1.910   5.013  12.582  0.4355 -0.6181  0.2446
 7606TIP3   OH247012   1.487   2.513  10.437 -0.0332 -0.7805 -0.2404
 7606TIP3    H147013   1.430   2.475  10.503  0.1974 -1.5465 -0.4712
 7606TIP3    H247014   1.562   2.546  10.487 -0.4640 -0.1532  0.0142
 7607TIP3   OH247015   2.844   6.623   9.313 -0.3615 -0.4389 -0.6438
 7607TIP3    H147016   2.936   6.611   9.287 -0.6918  0.0468 -2.0894
 7607TIP3    H247017   2.816   6.702   9.266 -0.6697  1.2384  2.1143
 7608TIP3   OH247018   0.593   6.211  10.069 -0.1537  0.2058 -0.4478
 7608TIP3    H147019   0.563   6.302  10.064  0.4314  0.3687 -0.9637
 7608TIP3    H247020   0.611   6.198  10.162 -1.3041  0.2687 -0.1989
 7609TIP3   OH247021   0.014   4.033  11.451  0.0043  0.2999 -0.0675
 7609TIP3    H147022  -0.051   3.971  11.483  1.0983 -1.1063 -0.4775
 7609TIP3    H247023   0.012   4.105  11.514 -1.3940 -0.0646  0.3358
 7610TIP3   OH247024   2.383   5.191   9.387 -0.3454 -0.3894 -0.9494
 7610TIP3    H147025   2.444   5.124   9.358  1.2683  1.2478 -1.5277
 7610TIP3    H247026   2.365   5.243   9.309 -0.3572  0.7488 -0.2247
 7611TIP3   OH247027   2.004   6.559  10.827  0.8016 -0.4731 -0.1020
 7611TIP3    H147028   1.933   6.505  10.863  0.1911 -0.4479 -1.2096
 7611TIP3    H247029   2.084   6.515  10.856  0.3605 -2.9587 -2.2432
 7612TIP3   OH247030   2.061   4.768  10.826  0.4709  0.2514 -0.3928
 7612TIP3    H147031   2.061   4.683  10.870  0.4119  0.3849 -0.1347
 7612TIP3    H247032   2.141   4.767  10.773  0.3186 -0.0809 -0.6203
 7613TIP3   OH247033   5.429   3.002  11.856 -0.3498  0.4767  0.0603
 7613TIP3    H147034   5.349   3.012  11.908  1.3120 -0.3792  3.0015
 7613TIP3    H247035   5.428   2.911  11.828  0.0265  0.2019  0.9163
 7614TIP3   OH247036   6.091   2.355  10.644 -0.2269 -0.0867 -0.2383
 7614TIP3    H147037   6.077   2.283  10.583  1.2508 -0.5908 -0.0363
 7614TIP3    H247038   6.052   2.326  10.726  1.1570 -1.1111  0.1066
 7615TIP3   OH247039   0.616   4.181   8.793  0.2977  0.4411  0.5861
 7615TIP3    H147040   0.608   4.140   8.707 -0.3626 -1.2389  1.4135
 7615TIP3    H247041   0.610   4.275   8.775 -2.0294  0.0665 -0.9980
 7616TIP3   OH247042   3.660   1.091   9.068  0.3161  0.4989  0.6212
 7616TIP3    H147043   3.643   1.040   9.147  0.5746  0.8202  0.8889
 7616TIP3    H247044   3.609   1.047   9.000  0.3162  0.0497  0.9034
 7617TIP3   OH247045   0.385   1.983  10.677  0.1348 -0.0096  0.8492
 7617TIP3    H147046   0.316   1.993  10.742 -1.6164 -1.4513 -0.6884
 7617TIP3    H247047   0.380   1.891  10.651  2.0318  0.0815  0.0165
 7618TIP3   OH247048   4.260   5.497   9.357  0.1179  0.2829 -0.0438
 7618TIP3    H147049   4.317   5.568   9.386  0.7053  0.0938 -0.7220
 7618TIP3    H247050   4.255   5.506   9.262  0.1446 -0.5313 -0.1339
 7619TIP3   OH247051   5.937   6.110   9.457 -0.6352 -0.1069  0.5251
 7619TIP3    H147052   6.017   6.079   9.415 -0.5501 -1.5933  1.6948
 7619TIP3    H247053   5.964   6.189   9.504 -0.0715 -0.0854  0.1791
 7620TIP3   OH247054   2.926   5.845  10.606 -0.0689  0.3099  0.4055
 7620TIP3    H147055   2.908   5.788  10.682  0.4606 -1.3527 -0.6503
 7620TIP3    H247056   3.020   5.861  10.611 -0.2315  1.1878  0.7416
 7621TIP3   OH247057   0.965   3.455  10.342  0.4627 -0.7345 -0.1879
 7621TIP3    H147058   0.954   3.361  10.355 -0.3596 -0.6004  0.1027
 7621TIP3    H247059   0.960   3.493  10.429 -0.8454 -0.2648 -0.4448
 7622TIP3   OH247060   0.775   6.378   8.766 -0.2061 -0.0209  0.1080
 7622TIP3    H147061   0.694   6.403   8.812 -0.4823 -1.6329  0.5673
 7622TIP3    H247062   0.751   6.377   8.674 -0.1331  1.5035  0.0476
 7623TIP3   OH247063   3.644   1.582  10.039 -0.2396 -0.4406 -0.2958
 7623TIP3    H147064   3.720   1.557  10.091  0.4010  0.4361 -0.7839
 7623TIP3    H247065   3.569   1.546  10.087  0.4630 -1.1662  0.2793
 7624TIP3   OH247066   3.278   1.561   9.947  0.5599  0.5222 -0.2062
 7624TIP3    H147067   3.316   1.480   9.914  1.5541  0.7353  0.3520
 7624TIP3    H247068   3.289   1.556  10.042 -2.0503  0.0136  0.1395
 7625TIP3   OH247069   4.159   6.352  10.258  0.7960 -0.5488 -0.4581
 7625TIP3    H147070   4.108   6.318  10.332  2.1483  0.5926  1.0690
 7625TIP3    H247071   4.139   6.292  10.186 -0.5361 -1.7359  0.8197
 7626TIP3   OH247072   2.583   5.232  10.939  0.4055  0.2471 -0.4838
 7626TIP3    H147073   2.529   5.207  10.863  0.4584  0.5395 -0.6182
 7626TIP3    H247074   2.667   5.257  10.901  1.1739 -1.6688 -0.1650
 7627TIP3   OH247075   3.653   4.630   9.781  0.5854  0.5727  0.6222
 7627TIP3    H147076   3.623   4.609   9.693 -0.3733  1.0596  0.8161
 7627TIP3    H247077   3.578   4.612   9.837  0.3474  2.5519  1.0344
 7628TIP3   OH247078   1.016   2.241   8.886 -0.1770 -0.6111 -0.0199
 7628TIP3    H147079   0.938   2.195   8.856 -0.8811  0.6348 -0.1949
 7628TIP3    H247080   0.984   2.298   8.956  0.4222  0.4426 -0.5813
 7629TIP3   OH247081   3.064   4.829  11.679  0.2625 -0.2049 -0.5776
 7629TIP3    H147082   3.154   4.848  11.706 -0.0679  1.1351 -0.3409
 7629TIP3    H247083   3.038   4.905  11.627 -0.7131 -0.6014 -0.6946
 7630TIP3   OH247084   1.943   3.070  12.856  0.0161  0.2692 -0.0220
 7630TIP3    H147085   2.025   3.092  12.900 -0.3964  2.3945 -0.2262
 7630TIP3    H247086   1.934   2.975  12.869  1.3924  0.3352  1.8560
 7631TIP3   OH247087   2.174   5.414  11.803  0.0739  0.3257 -0.1201
 7631TIP3    H147088   2.239   5.361  11.757  0.8599  0.0598  1.2372
 7631TIP3    H247089   2.223   5.489  11.836 -0.4823  0.5500  0.2211
 7632TIP3   OH247090   5.145   5.777  10.220  0.5297  0.6739 -0.3821
 7632TIP3    H147091   5.237   5.754  10.209  1.0960  2.5345  0.1243
 7632TIP3    H247092   5.146   5.854  10.277 -1.3390  0.7508 -0.3997
 7633TIP3   OH247093   2.161   0.635  10.877 -0.6839 -0.0048  0.2084
 7633TIP3    H147094   2.147   0.552  10.832  0.0969 -0.0527  0.0359
 7633TIP3    H247095   2.203   0.691  10.811  1.6559 -0.4805  1.1773
 7634TIP3   OH247096   3.181   6.033  10.856 -0.3252 -0.2069 -0.0052
 7634TIP3    H147097   3.152   5.978  10.929 -0.3172  0.1670  0.2813
 7634TIP3    H247098   3.170   5.978  10.778 -0.5310 -0.5335  0.2540
 7635TIP3   OH247099   2.180   0.992   9.435 -0.6251  0.4830  0.3288
 7635TIP3    H147100   2.097   1.014   9.479 -0.2904  1.0908  0.6687
 7635TIP3    H247101   2.216   1.077   9.409 -0.1452  0.2162  0.1142
 7636TIP3   OH247102   0.141   6.231  11.316  0.0250 -0.1576 -0.0362
 7636TIP3    H147103   0.172   6.247  11.405  2.2818  2.5830 -1.1619
 7636TIP3    H247104   0.062   6.284  11.309  0.6936  0.8811 -0.0537
 7637TIP3   OH247105   4.344   4.406  12.323 -0.5739 -0.3065 -0.1514
 7637TIP3    H147106   4.414   4.453  12.369  0.4391  0.8376 -2.6618
 7637TIP3    H247107   4.390   4.351  12.260 -1.8870 -2.1711  0.4556
 7638TIP3   OH247108   5.060   6.443   8.983 -0.1215  0.4400  0.2819
 7638TIP3    H147109   5.019   6.518   9.026 -0.6905  1.2328 -1.5506
 7638TIP3    H247110   5.086   6.385   9.055  0.3948  2.4042  1.7473
 7639TIP3   OH247111   6.172   4.185   9.871 -0.3712 -0.9513  0.2359
 7639TIP3    H147112   6.094   4.132   9.887 -0.0293 -2.6744 -3.0131
 7639TIP3    H247113   6.147   4.247   9.803  0.5932 -0.2134  0.5219
 7640TIP3   OH247114   4.001   5.766  11.474  0.0784  0.8537 -0.1457
 7640TIP3    H147115   4.049   5.806  11.401  1.1086  0.6649  0.4126
 7640TIP3    H247116   4.069   5.743  11.538 -0.5060 -1.2618 -0.2017
 7641TIP3   OH247117   0.258   4.264   8.995 -0.0067  0.2620 -0.0953
 7641TIP3    H147118   0.244   4.333   9.060 -0.8218 -0.2249  0.2687
 7641TIP3    H247119   0.262   4.183   9.047 -2.7436 -0.3987 -0.7646
 7642TIP3   OH247120   5.359   0.625  10.743  0.2355  0.6289 -0.5951
 7642TIP3    H147121   5.454   0.615  10.747  0.0961 -0.9892 -0.7029
 7642TIP3    H247122   5.336   0.598  10.654 -0.1082  3.4684 -1.4528
 7643TIP3   OH247123   0.614   3.772  11.143 -0.6569  0.2016 -0.2089
 7643TIP3    H147124   0.695   3.808  11.108 -0.7282  0.0454 -0.5357
 7643TIP3    H247125   0.634   3.754  11.235  0.0566 -0.9709 -0.5783
 7644TIP3   OH247126   0.928   5.037   9.528 -0.2790  0.7919  0.0702
 7644TIP3    H147127   0.896   5.127   9.519 -3.9030 -0.3365  0.2579
 7644TIP3    H247128   0.885   4.989   9.458  2.8685 -0.6029 -1.0726
 7645TIP3   OH247129   6.641   0.172   8.925  0.3736 -0.0759  0.2234
 7645TIP3    H147130   6.593   0.254   8.935 -0.0963 -0.2736 -0.3116
 7645TIP3    H247131   6.603   0.114   8.992  1.2728  0.3828  1.1538
 7646TIP3   OH247132   6.510   2.174   9.635 -0.2764  0.1536 -0.2913
 7646TIP3    H147133   6.583   2.233   9.621 -0.4768  0.7792  1.0892
 7646TIP3    H247134   6.548   2.086   9.631  0.8110  0.4868  1.5111
 7647TIP3   OH247135   1.280   0.703   8.948 -0.4273 -0.2020  0.0774
 7647TIP3    H147136   1.302   0.796   8.950 -0.9414 -0.0878  0.7125
 7647TIP3    H247137   1.363   0.659   8.931 -0.0785  0.3357  0.3682
 7648TIP3   OH247138   6.219   6.609   9.601 -0.0206  0.5212  0.8545
 7648TIP3    H147139   6.125   6.596   9.606 -0.2324  1.7161  0.3307
 7648TIP3    H247140   6.257   6.523   9.618 -1.2331 -0.2087 -0.0092
 7649TIP3   OH247141   2.914   4.397   8.744 -0.8000 -0.5253  0.8139
 7649TIP3    H147142   2.896   4.342   8.667 -2.2271  1.3148 -0.2503
 7649TIP3    H247143   2.972   4.465   8.712 -1.1209  0.0657  1.4668
 7650TIP3   OH247144   2.795   5.185   9.751  1.2510  0.2214 -0.3237
 7650TIP3    H147145   2.788   5.278   9.774  0.7542  0.1745 -0.2653
 7650TIP3    H247146   2.718   5.168   9.697  0.7751 -0.3995  0.5321
 7651TIP3   OH247147   4.254   2.934  10.403  0.0481  0.4094  0.3569
 7651TIP3    H147148   4.189   2.927  10.333  0.4032  0.8572 -0.0165
 7651TIP3    H247149   4.336   2.906  10.363  0.0036 -0.6581  0.9689
 7652TIP3   OH247150   2.715   4.748   9.273  0.1450 -0.5964 -0.3092
 7652TIP3    H147151   2.695   4.692   9.198 -1.9198 -0.9987  0.4843
 7652TIP3    H247152   2.722   4.836   9.235 -0.2670 -0.8750 -1.0627
 7653TIP3   OH247153   0.645   4.149  10.846 -0.7193  0.6363 -0.3593
 7653TIP3    H147154   0.614   4.236  10.873  0.2469  0.9022 -0.0870
 7653TIP3    H247155   0.677   4.110  10.927  3.3449  1.8912 -1.1317
 7654TIP3   OH247156   4.537   5.144  11.171  0.0664  0.3685  0.0878
 7654TIP3    H147157   4.604   5.186  11.225 -1.6782  0.9081  1.9342
 7654TIP3    H247158   4.587   5.099  11.102  2.2465  1.5287  0.8118
 7655TIP3   OH247159   6.592   4.076  10.671 -0.0203  0.2205 -0.7864
 7655TIP3    H147160   6.676   4.035  10.652 -0.3539 -0.8119 -0.0808
 7655TIP3    H247161   6.581   4.141  10.602  0.9169 -0.2793 -1.4235
 7656TIP3   OH247162   2.038   2.060   9.719 -0.3335  0.1848  0.0838
 7656TIP3    H147163   2.031   2.106   9.635 -0.3794  1.9784  1.0242
 7656TIP3    H247164   2.116   2.097   9.760 -1.6825  1.1691  1.8793
 7657TIP3   OH247165   0.908   6.655  10.779 -1.1008  0.5641 -0.2083
 7657TIP3    H147166   0.908   6.579  10.836  0.2658 -1.1336 -2.3281
 7657TIP3    H247167   1.000   6.677  10.767 -1.4481  2.3255  0.0098
 7658TIP3   OH247168   2.779   3.131  10.683  0.1194  0.1780  0.0617
 7658TIP3    H147169   2.725   3.075  10.628 -1.1146  1.4836 -0.1057
 7658TIP3    H247170   2.819   3.193  10.622 -1.1023  1.5148  0.5777
 7659TIP3   OH247171   5.289   4.812  11.636  0.0565 -0.0450 -0.3344
 7659TIP3    H147172   5.299   4.724  11.674  2.8387  1.4015  2.8012
 7659TIP3    H247173   5.195   4.828  11.640 -0.3596 -2.2234  0.6686
 7660TIP3   OH247174   4.601   3.117  10.145 -0.1340  0.2811  0.3194
 7660TIP3    H147175   4.673   3.054  10.143 -0.3491  0.0435 -1.3515
 7660TIP3    H247176   4.527   3.069  10.181 -0.7698 -1.0200 -2.4861
 7661TIP3   OH247177   2.987   4.683  12.379 -0.1688 -0.5937  0.0057
 7661TIP3    H147178   2.896   4.713  12.388 -0.2024 -0.9774  0.9781
 7661TIP3    H247179   3.039   4.763  12.387 -0.3911 -0.4483  0.0155
 7662TIP3   OH247180   1.221   5.662   9.997 -0.5165 -0.4294 -0.2603
 7662TIP3    H147181   1.308   5.688   9.967 -0.4507 -0.8253 -0.4220
 7662TIP3    H247182   1.218   5.568   9.982 -0.1890 -0.7884  1.6812
 7663TIP3   OH247183   0.156   5.281  10.091  0.1923 -0.2143  0.1353
 7663TIP3    H147184   0.164   5.251  10.001  0.1959  0.3196 -0.0487
 7663TIP3    H247185   0.111   5.210  10.137 -0.7104 -0.0731 -0.5141
 7664TIP3   OH247186   5.482   4.601  11.639  0.4467 -0.3575 -0.6023
 7664TIP3    H147187   5.562   4.620  11.590  1.2587 -0.5336  0.6099
 7664TIP3    H247188   5.440   4.530  11.590  1.4613 -0.8439 -0.7980
 7665TIP3   OH247189   5.582   1.956   9.382 -0.9592 -0.6114 -0.0289
 7665TIP3    H147190   5.506   1.962   9.441 -0.6848 -1.4311  0.4228
 7665TIP3    H247191   5.615   2.046   9.378 -1.5740 -0.3605  0.2747
 7666TIP3   OH247192   3.371   4.311  11.177  0.2201 -0.0309  0.2344
 7666TIP3    H147193   3.348   4.394  11.217 -2.8183 -1.0793  0.8891
 7666TIP3    H247194   3.400   4.256  11.250 -2.1041 -0.8854  0.5889
 7667TIP3   OH247195   4.383   3.548  12.044  0.4027 -0.2585  0.5084
 7667TIP3    H147196   4.443   3.578  11.975 -0.2486  0.2316  0.1436
 7667TIP3    H247197   4.424   3.468  12.078 -0.4072 -1.8821 -2.0709
 7668TIP3   OH247198   4.239   0.190   9.965  0.0945  0.0807 -0.2589
 7668TIP3    H147199   4.241   0.097   9.987 -2.4185 -0.0617 -0.4195
 7668TIP3    H247200   4.293   0.231  10.032 -1.2190 -1.1875  1.6750
 7669TIP3   OH247201   4.611   4.426   9.753  0.1789  0.3241 -0.1016
 7669TIP3    H147202   4.559   4.500   9.720  2.2522  1.1781 -1.6390
 7669TIP3    H247203   4.606   4.361   9.683 -0.3604 -0.4098  0.5906
 7670TIP3   OH247204   1.165   1.949   9.862  0.0297  0.1413  0.6647
 7670TIP3    H147205   1.185   2.042   9.852 -0.3287  0.2977  1.3952
 7670TIP3    H247206   1.080   1.946   9.905 -0.0991 -0.5290  0.3847
 7671TIP3   OH247207   5.047   6.325   9.888 -0.4955 -0.1381  0.7378
 7671TIP3    H147208   4.985   6.380   9.937 -0.0069  0.1268  1.0796
 7671TIP3    H247209   5.024   6.236   9.912 -1.3146 -0.0841  0.1616
 7672TIP3   OH247210   0.728   6.477  10.306  0.0836 -0.3895  0.4587
 7672TIP3    H147211   0.765   6.541  10.367 -0.3273 -1.1014  1.4826
 7672TIP3    H247212   0.740   6.392  10.350  0.9011 -1.0762 -0.9995
 7673TIP3   OH247213   3.371   0.843   9.755  0.2283  0.2607  0.0922
 7673TIP3    H147214   3.375   0.805   9.843 -0.1926 -0.5556 -0.2272
 7673TIP3    H247215   3.395   0.935   9.767 -0.0371  0.2102  1.0922
 7674TIP3   OH247216   2.418   1.233  11.473 -0.5001 -0.1307 -0.5153
 7674TIP3    H147217   2.424   1.277  11.388  0.3761  1.8900  0.5290
 7674TIP3    H247218   2.345   1.276  11.517 -0.1701 -0.3178  0.2205
 7675TIP3   OH247219   0.818   3.556   9.969  0.1697 -0.0545  0.4476
 7675TIP3    H147220   0.843   3.631  10.023  0.5470 -0.6027  1.0572
 7675TIP3    H247221   0.761   3.592   9.902 -0.4697  0.6249  1.3349
 7676TIP3   OH247222   0.185   2.640  11.190  0.1192 -0.3392  0.2074
 7676TIP3    H147223   0.235   2.637  11.272  0.7867  0.3330 -0.1686
 7676TIP3    H247224   0.151   2.551  11.180 -0.6609 -0.2444  1.6286
 7677TIP3   OH247225   4.370   1.727  10.408 -0.2929  0.0158 -0.2430
 7677TIP3    H147226   4.335   1.639  10.419  0.4750 -0.3132 -0.3955
 7677TIP3    H247227   4.320   1.780  10.471  0.0543 -0.7422  0.6956
 7678TIP3   OH247228   1.660   0.918  10.767  0.1482 -0.6933  1.0018
 7678TIP3    H147229   1.643   0.828  10.737  0.1667 -0.4144  0.1417
 7678TIP3    H247230   1.755   0.920  10.780  0.6369  0.0322 -1.9016
 7679TIP3   OH247231   2.995   5.929  11.838 -0.1301  0.1053  0.1747
 7679TIP3    H147232   2.931   5.993  11.806 -2.2401 -2.1195 -0.4297
 7679TIP3    H247233   2.955   5.893  11.917  1.1881 -0.2208  0.7158
 7680TIP3   OH247234   2.673   6.573  10.446 -0.2967 -0.2675  0.0163
 7680TIP3    H147235   2.690   6.479  10.455  3.3297 -0.0069 -1.9059
 7680TIP3    H247236   2.648   6.601  10.534  1.0043 -2.6803  1.2793
 7681TIP3   OH247237   1.021   5.990  11.676  0.6751  0.3896  0.3853
 7681TIP3    H147238   1.056   5.924  11.736  0.6628 -1.0648 -1.1226
 7681TIP3    H247239   0.970   6.049  11.732  1.5152 -0.2935  1.9259
 7682TIP3   OH247240   3.770   2.417  10.314  0.1173  0.2586 -0.4063
 7682TIP3    H147241   3.850   2.393  10.361 -0.8900 -0.5144  0.9515
 7682TIP3    H247242   3.792   2.402  10.222  1.0297 -1.4714  0.0427
 7683TIP3   OH247243   2.617   6.295   9.548  0.2764 -0.1763 -0.0889
 7683TIP3    H147244   2.653   6.210   9.524  1.3727  0.5303 -1.0653
 7683TIP3    H247245   2.694   6.352   9.556 -0.5348  1.1486 -1.2319
 7684TIP3   OH247246   4.065   0.963   9.168 -0.2830  0.1683 -0.1876
 7684TIP3    H147247   4.130   0.945   9.236  0.0327  1.6268 -0.0819
 7684TIP3    H247248   4.012   1.034   9.203 -2.4132 -1.4281  0.0182
 7685TIP3   OH247249   1.744   0.093  10.982  0.3170  0.1507  0.0231
 7685TIP3    H147250   1.693   0.162  10.940  0.5566 -0.6320 -1.6514
 7685TIP3    H247251   1.687   0.016  10.981  0.2868  0.1391  1.2763
 7686TIP3   OH247252   4.765   2.967  12.109 -0.0387  0.5699 -0.5338
 7686TIP3    H147253   4.722   3.050  12.131 -0.2057  0.2961  0.1841
 7686TIP3    H247254   4.858   2.983  12.127 -0.0298  0.6866 -0.6753
 7687TIP3   OH247255   4.447   2.718   9.556 -0.0194  0.1448 -0.3836
 7687TIP3    H147256   4.540   2.697   9.545  0.0705  0.8714 -1.1038
 7687TIP3    H247257   4.443   2.768   9.638  0.3426  0.7192 -0.7038
 7688TIP3   OH247258   5.888   6.039  11.167 -0.0079 -0.0831  0.3863
 7688TIP3    H147259   5.849   6.109  11.219  2.0491  1.5792 -0.1500
 7688TIP3    H247260   5.979   6.035  11.197 -0.0009 -2.4522  0.2651
 7689TIP3   OH247261   4.817   5.914  11.641  0.0995 -0.1326  0.6676
 7689TIP3    H147262   4.830   6.009  11.645  0.2581 -0.0947 -0.4482
 7689TIP3    H247263   4.762   5.895  11.717 -2.3411  1.2898 -0.5857
 7690TIP3   OH247264   4.573   6.049   9.443 -0.2546  0.2221 -0.2386
 7690TIP3    H147265   4.541   6.137   9.424 -2.9385 -0.8895 -1.2960
 7690TIP3    H247266   4.517   6.018   9.514 -0.0770 -1.0100 -0.6107
 7691TIP3   OH247267   1.965   5.286  10.137  0.0541 -0.3585  0.2155
 7691TIP3    H147268   1.950   5.193  10.154  1.6979 -0.4000  1.6626
 7691TIP3    H247269   1.883   5.329  10.163 -0.8434 -1.3964 -0.7956
 7692TIP3   OH247270   0.190   0.999  10.758 -0.1638  0.6427 -0.4106
 7692TIP3    H147271   0.158   1.078  10.714  1.5420  0.7110 -1.6256
 7692TIP3    H247272   0.242   1.032  10.832  2.2439  0.8312 -2.0716
 7693TIP3   OH247273   1.166   0.011  19.229  0.0957 -0.4755  0.4960
 7693TIP3    H147274   1.250   0.043  19.196  1.7078 -3.4241  1.3373
 7693TIP3    H247275   1.175   0.013  19.324 -0.0469 -2.3776  0.5860
 7694TIP3   OH247276   4.770   3.286  10.741  0.1671  0.0441  0.0412
 7694TIP3    H147277   4.813   3.201  10.749  1.6678  0.7773  0.1665
 7694TIP3    H247278   4.727   3.284  10.656  2.0172 -0.0704 -0.9231
 7695TIP3   OH247279   0.517   5.285  11.646  0.5354  0.1887  0.4679
 7695TIP3    H147280   0.606   5.266  11.674  0.0505  0.5557  2.4405
 7695TIP3    H247281   0.463   5.259  11.721 -0.9326  0.8746 -0.3121
 7696TIP3   OH247282   5.192   1.793   9.788  0.3573 -0.6915  0.9734
 7696TIP3    H147283   5.245   1.821   9.714  0.1150 -3.0554 -0.1699
 7696TIP3    H247284   5.255   1.773   9.857  0.9759 -2.5047 -0.0464
 7697TIP3   OH247285   2.315   5.369   9.183 -0.0061 -0.3167  0.7559
 7697TIP3    H147286   2.303   5.448   9.235 -0.2455 -0.0909  0.3702
 7697TIP3    H247287   2.369   5.397   9.109 -1.9357  0.0539 -0.6003
 7698TIP3   OH247288   5.731   4.542  10.040 -0.2750  0.5380  0.0272
 7698TIP3    H147289   5.653   4.491  10.018 -1.2863  1.8777  0.3496
 7698TIP3    H247290   5.735   4.609   9.971  1.0033  0.0891 -0.3710
 7699TIP3   OH247291   0.457   6.435  10.307 -0.5206  0.5435  0.8504
 7699TIP3    H147292   0.542   6.474  10.285  0.0976 -0.0908  2.0242
 7699TIP3    H247293   0.478   6.364  10.367 -1.6249 -1.5260 -1.0447
 7700TIP3   OH247294   6.247   4.124  11.197  0.5053 -0.2489  0.4998
 7700TIP3    H147295   6.181   4.103  11.131  0.4291 -0.8779  0.7648
 7700TIP3    H247296   6.311   4.052  11.190  1.2303  0.4064  0.1639
 7701TIP3   OH247297   1.551   5.201   8.561 -0.2756  0.0240  0.6468
 7701TIP3    H147298   1.472   5.229   8.608 -0.4752  1.8973 -0.7093
 7701TIP3    H247299   1.519   5.174   8.474  0.5392  0.4958  0.1916
 7702TIP3   OH247300   3.360   2.571  10.284  0.3747  0.4390 -0.6663
 7702TIP3    H147301   3.386   2.486  10.320  2.4070  0.5622 -1.7363
 7702TIP3    H247302   3.361   2.630  10.359 -1.3960 -0.4770  0.1625
 7703TIP3   OH247303   0.320   4.992  10.314  0.0766  0.3331 -0.1078
 7703TIP3    H147304   0.348   4.925  10.251  0.8907 -0.0355  0.6322
 7703TIP3    H247305   0.227   5.006  10.293 -0.2209 -1.2960 -0.0433
 7704TIP3   OH247306   2.032   6.454  10.542  0.0313  0.1130  0.0084
 7704TIP3    H147307   2.124   6.427  10.547  0.3772  0.9141 -1.5161
 7704TIP3    H247308   2.012   6.486  10.630  1.5651  1.0197  0.0613
 7705TIP3   OH247309   0.418   4.491  10.988 -0.0301  0.6481  0.3267
 7705TIP3    H147310   0.364   4.505  10.911  0.0502 -1.3502 -0.1572
 7705TIP3    H247311   0.404   4.399  11.011  2.4830  0.2845  0.6908
 7706TIP3   OH247312   0.937   5.496   8.983 -0.3025  0.3729  0.4625
 7706TIP3    H147313   0.889   5.432   9.035  1.2063 -0.7057  0.6046
 7706TIP3    H247314   0.896   5.493   8.896 -1.0527  0.1481  0.8216
 7707TIP3   OH247315   0.177   3.513   9.309 -0.1963  0.0016  0.2652
 7707TIP3    H147316   0.262   3.549   9.284 -0.8490 -0.3231 -2.9026
 7707TIP3    H247317   0.193   3.467   9.392  2.1568  1.7837  0.8840
 7708TIP3   OH247318   5.702   0.738   9.064 -0.6561 -0.4796 -0.0009
 7708TIP3    H147319   5.713   0.821   9.110 -0.4632 -0.1074 -0.7046
 7708TIP3    H247320   5.761   0.678   9.109 -1.8279 -0.6233  1.4098
 7709TIP3   OH247321   2.489   5.771  11.423  0.4856 -0.4848  0.4117
 7709TIP3    H147322   2.393   5.763  11.429  0.2213  1.8421  0.1386
 7709TIP3    H247323   2.508   5.751  11.332  0.3593 -1.4987  0.5890
 7710TIP3   OH247324   1.006   5.740   9.587  0.0762  0.3274 -0.1057
 7710TIP3    H147325   0.986   5.819   9.638 -0.7533  0.1748 -0.1720
 7710TIP3    H247326   1.101   5.732   9.592  0.1058  0.9111  0.5276
 7711TIP3   OH247327   6.009   0.271  11.811 -0.0141  0.0701  0.2482
 7711TIP3    H147328   6.094   0.267  11.766 -1.0157 -2.6215 -1.6635
 7711TIP3    H247329   5.962   0.341  11.766  0.3536 -0.0621 -0.3674
 7712TIP3   OH247330   3.251   1.542  10.707 -0.3900  0.1453 -0.2898
 7712TIP3    H147331   3.213   1.613  10.759  0.9400  0.8321 -0.2251
 7712TIP3    H247332   3.188   1.528  10.636 -0.5598  1.5848 -0.4543
 7713TIP3   OH247333   6.509   6.257  11.936 -0.2896 -0.0554 -0.2042
 7713TIP3    H147334   6.583   6.275  11.879 -1.2878 -0.5504 -1.7215
 7713TIP3    H247335   6.464   6.183  11.895 -1.1687 -0.3048  1.1265
 7714TIP3   OH247336   0.068   5.374   9.062  0.2221  0.3065 -0.0122
 7714TIP3    H147337   0.044   5.362   8.970 -0.0422  0.5177  0.0272
 7714TIP3    H247338   0.103   5.464   9.066  2.1949 -0.3912 -0.3115
 7715TIP3   OH247339   5.133   3.869   9.044  0.6312  0.3548 -0.3299
 7715TIP3    H147340   5.144   3.928   8.969  0.4243  0.4332 -0.2985
 7715TIP3    H247341   5.044   3.836   9.036  1.0258 -0.6469 -0.8412
 7716TIP3   OH247342   3.166   0.082  10.825  0.1802  0.4899  0.3009
 7716TIP3    H147343   3.224   0.121  10.759  0.4341  0.2431  0.3750
 7716TIP3    H247344   3.159   0.149  10.893  1.1895  0.1474  0.7708
 7717TIP3   OH247345   1.110   5.772  10.867 -0.1115 -0.2901  0.3095
 7717TIP3    H147346   1.036   5.832  10.857 -0.7891 -0.8181  1.8146
 7717TIP3    H247347   1.069   5.685  10.872  0.7206 -0.7152 -0.1742
 7718TIP3   OH247348   0.854   0.423  10.852  0.6446  0.7006  1.1204
 7718TIP3    H147349   0.784   0.454  10.908 -1.8660  0.1364 -1.4712
 7718TIP3    H247350   0.873   0.497  10.794 -1.2379 -0.4802 -1.2186
 7719TIP3   OH247351   2.835   6.078  10.450 -0.1166  0.1258 -0.3283
 7719TIP3    H147352   2.888   6.004  10.421 -0.7239 -0.4560  0.0151
 7719TIP3    H247353   2.864   6.094  10.540  0.0331  0.3247 -0.4110
 7720TIP3   OH247354   5.655   4.435   8.831 -0.1242 -0.5626  0.1234
 7720TIP3    H147355   5.688   4.385   8.756 -2.2217 -0.7231 -0.7687
 7720TIP3    H247356   5.631   4.369   8.896  1.2502 -0.4457  0.7840
 7721TIP3   OH247357   5.952   5.466  10.372  0.3266 -0.0814 -0.6955
 7721TIP3    H147358   6.045   5.480  10.353  0.2062 -0.9089 -2.0454
 7721TIP3    H247359   5.941   5.371  10.369 -0.7258  0.0505 -1.4039
 7722TIP3   OH247360   3.368   3.720   9.733 -0.0905  0.0349 -0.4500
 7722TIP3    H147361   3.353   3.798   9.680  1.2818  1.7046  1.4345
 7722TIP3    H247362   3.451   3.685   9.700  0.4362  0.7029  0.1298
 7723TIP3   OH247363   2.932   4.361  11.479  0.1370 -0.1150  0.3079
 7723TIP3    H147364   2.851   4.346  11.430  0.4980  0.6905 -0.5641
 7723TIP3    H247365   2.977   4.277  11.476 -0.6656 -0.5744  0.8094
 7724TIP3   OH247366   2.766   3.189  10.968  0.1727 -0.2227 -0.2715
 7724TIP3    H147367   2.749   3.148  10.883 -0.3871 -0.7953  0.1033
 7724TIP3    H247368   2.756   3.283  10.953 -2.7424 -0.4390 -0.2728
 7725TIP3   OH247369   2.637   5.842  12.138  0.2628 -0.0286  0.5724
 7725TIP3    H147370   2.605   5.884  12.058  0.3008 -0.6352  0.2323
 7725TIP3    H247371   2.578   5.768  12.151  1.4299 -1.0921  0.0106
 7726TIP3   OH247372   1.659   4.876  11.366  0.3292 -0.0207  0.1481
 7726TIP3    H147373   1.664   4.811  11.436 -1.6008  2.1820  2.5203
 7726TIP3    H247374   1.640   4.824  11.287 -0.7609 -2.3752  1.8322
 7727TIP3   OH247375   5.556   0.353  10.777 -0.4969  0.2890  0.0727
 7727TIP3    H147376   5.631   0.297  10.759  1.1423  2.4811 -0.4425
 7727TIP3    H247377   5.505   0.353  10.696  0.9261  1.5524 -0.8604
 7728TIP3   OH247378   6.648   4.578   9.002  0.2737 -0.5976  0.1842
 7728TIP3    H147379   6.597   4.588   9.082 -1.4447  1.2625 -1.0538
 7728TIP3    H247380   6.734   4.547   9.032 -1.2379 -3.0543  2.4151
 7729TIP3   OH247381   2.363   4.314  10.427 -0.0492  0.6257 -0.1491
 7729TIP3    H147382   2.351   4.398  10.471 -1.0185 -0.6078  2.0946
 7729TIP3    H247383   2.299   4.315  10.355 -0.4158  1.6008  0.1774
 7730TIP3   OH247384   1.975   1.918   8.839 -0.0369 -0.5019 -0.0893
 7730TIP3    H147385   2.022   1.915   8.755 -0.4730  1.5295 -0.4454
 7730TIP3    H247386   1.985   2.008   8.869 -2.3643 -0.4137  0.5910
 7731TIP3   OH247387   2.918   4.340   9.013 -0.0578 -0.0137  0.7439
 7731TIP3    H147388   2.873   4.332   8.928 -2.6434 -0.9118  2.0897
 7731TIP3    H247389   2.950   4.251   9.031  0.3259  0.1353  0.8104
 7732TIP3   OH247390   5.857   0.154   9.520 -0.3359  0.0001 -0.5639
 7732TIP3    H147391   5.823   0.183   9.435 -2.3956  1.4411  0.6529
 7732TIP3    H247392   5.870   0.235   9.570  0.9351 -0.8054  0.4813
 7733TIP3   OH247393   1.721   4.283   9.390 -0.0077  0.6951 -0.0328
 7733TIP3    H147394   1.763   4.334   9.459  2.7735 -0.8229 -0.4500
 7733TIP3    H247395   1.720   4.193   9.424 -2.9547  0.6012 -0.1138
 7734TIP3   OH247396   4.628   5.509  11.187  0.2000  0.1142 -0.1208
 7734TIP3    H147397   4.646   5.567  11.261  1.5807 -0.4055 -0.0209
 7734TIP3    H247398   4.534   5.517  11.172  0.3060  2.2708 -0.0118
 7735TIP3   OH247399   3.390   1.575  10.282  0.6698 -0.0917  1.2678
 7735TIP3    H147400   3.373   1.659  10.240  2.0264  0.0145  0.8830
 7735TIP3    H247401   3.424   1.599  10.369  0.4221 -0.2567  1.4101
 7736TIP3   OH247402   1.283   3.056  11.021 -0.5410  0.0556 -0.0656
 7736TIP3    H147403   1.365   3.098  11.044 -0.2681 -0.3299 -0.3291
 7736TIP3    H247404   1.236   3.047  11.104  0.1209 -0.6622  0.2395
 7737TIP3   OH247405   4.647   6.288   9.177  0.0972 -0.5342  0.0174
 7737TIP3    H147406   4.720   6.323   9.228 -0.7828  0.3225  0.7494
 7737TIP3    H247407   4.574   6.285   9.239 -0.9924  0.4452 -1.1521
 7738TIP3   OH247408   4.042   4.959  10.253  0.3026  0.4419 -0.7915
 7738TIP3    H147409   4.098   4.977  10.177  3.5439 -1.4905  0.9157
 7738TIP3    H247410   4.095   4.986  10.328 -1.5017 -0.6203  0.9255
 7739TIP3   OH247411   5.314   6.017  11.308 -0.2412  0.3362 -0.0739
 7739TIP3    H147412   5.322   5.923  11.325 -1.0146  0.3122  0.1618
 7739TIP3    H247413   5.254   6.023  11.234  0.7336  0.5972 -0.8736
 7740TIP3   OH247414   5.864   2.089   9.217  0.2454  0.1096  0.6195
 7740TIP3    H147415   5.777   2.081   9.255 -0.1777 -0.3910 -0.4154
 7740TIP3    H247416   5.912   2.013   9.250  0.4009  0.5418  1.4246
 7741TIP3   OH247417   2.437   0.362  11.538  0.0646 -0.2872 -0.6272
 7741TIP3    H147418   2.451   0.452  11.508  1.0742 -0.3305 -0.3295
 7741TIP3    H247419   2.354   0.336  11.499  0.7973  0.0329 -2.5037
 7742TIP3   OH247420   0.182   6.166  11.045 -0.2681 -0.3634 -0.1991
 7742TIP3    H147421   0.153   6.253  11.019  2.9264  0.5504 -1.2099
 7742TIP3    H247422   0.183   6.168  11.141 -0.1339  0.7626 -0.2191
 7743TIP3   OH247423   6.308   2.646   9.133  0.2486  0.3463 -0.0962
 7743TIP3    H147424   6.394   2.637   9.173  0.1744  2.6343  0.6978
 7743TIP3    H247425   6.312   2.729   9.085 -1.4661  0.4033 -0.1927
 7744TIP3   OH247426   6.357   0.098  10.465  0.1616 -0.0298  0.0243
 7744TIP3    H147427   6.353   0.162  10.536  2.9497  0.0567  0.2160
 7744TIP3    H247428   6.355   0.151  10.385  0.5096  0.1603  0.1392
 7745TIP3   OH247429   4.532   3.655  10.178 -0.2790  0.4188 -0.0922
 7745TIP3    H147430   4.616   3.693  10.207 -0.0725  1.6095 -2.0858
 7745TIP3    H247431   4.531   3.567  10.217  1.1783  0.9477  1.2374
 7746TIP3   OH247432   6.124   6.538  10.930 -0.2729  0.4204  0.0310
 7746TIP3    H147433   6.218   6.547  10.943 -0.2568 -0.3460  0.5244
 7746TIP3    H247434   6.114   6.457  10.880 -0.6639  0.5571 -0.1191
 7747TIP3   OH247435   0.562   4.315  11.663  0.3274  0.0342 -0.1859
 7747TIP3    H147436   0.622   4.248  11.694  0.6372 -0.0679 -0.9942
 7747TIP3    H247437   0.487   4.309  11.722  1.3255  0.5317  1.1805
 7748TIP3   OH247438   4.270   5.151   8.440  0.0089 -0.2749 -0.0484
 7748TIP3    H147439   4.241   5.207   8.512 -0.2924  0.3559 -0.6438
 7748TIP3    H247440   4.313   5.211   8.379  0.4046 -0.8251 -0.3186
 7749TIP3   OH247441   4.183   1.855   9.435  0.2054 -0.0979 -0.1664
 7749TIP3    H147442   4.270   1.869   9.396  0.9392 -4.3274 -0.6359
 7749TIP3    H247443   4.123   1.860   9.361  0.6645 -1.0692 -0.6356
 7750TIP3   OH247444   5.576   5.442  10.118  0.1574  0.2439  0.0119
 7750TIP3    H147445   5.621   5.446  10.203  1.3590  2.9980 -0.6358
 7750TIP3    H247446   5.629   5.381  10.067  1.0793  0.6737  0.4115
 7751TIP3   OH247447   5.666   3.155  11.851  0.0793 -0.1903 -0.2538
 7751TIP3    H147448   5.584   3.105  11.842  1.2063 -2.0670 -0.5184
 7751TIP3    H247449   5.729   3.092  11.884  1.4638  1.2260 -0.0821
 7752TIP3   OH247450   6.142   2.412   9.872  0.0109  0.3453  0.3343
 7752TIP3    H147451   6.145   2.476   9.801  0.0171  1.4446  1.2850
 7752TIP3    H247452   6.220   2.358   9.859  1.1772  1.8450  0.6455
 7753TIP3   OH247453   0.280   6.570  10.128  0.5218  0.1579 -0.0582
 7753TIP3    H147454   0.325   6.510  10.187 -0.1390  0.2684  0.5739
 7753TIP3    H247455   0.187   6.549  10.140  0.3739  0.2792 -0.9533
 7754TIP3   OH247456   6.078   5.626   9.306  0.3016 -0.5692 -0.3318
 7754TIP3    H147457   6.147   5.561   9.288  0.6205 -0.2174 -0.3929
 7754TIP3    H247458   6.024   5.626   9.226  0.9702  0.0615 -0.8032
 7755TIP3   OH247459   4.203   5.264   8.692  0.4421 -0.3410 -0.1181
 7755TIP3    H147460   4.292   5.290   8.715  0.5407 -0.2410 -0.5865
 7755TIP3    H247461   4.149   5.338   8.718  0.3547 -0.8301  1.1321
 7756TIP3   OH247462   0.080   1.749  10.018  0.2954  0.3607 -0.0550
 7756TIP3    H147463   0.005   1.795   9.978  0.8635  0.8447 -0.5897
 7756TIP3    H247464   0.116   1.696   9.947  1.0508  0.8895 -0.0764
 7757TIP3   OH247465   6.181   3.958   8.546 -0.0804 -0.2515 -0.2733
 7757TIP3    H147466   6.195   4.051   8.527 -1.4878 -0.2744 -1.5629
 7757TIP3    H247467   6.265   3.917   8.525  1.1754  0.9130  2.0630
 7758TIP3   OH247468   3.393   3.773  11.629 -0.1447 -0.1191 -0.1576
 7758TIP3    H147469   3.321   3.740  11.575 -0.5012 -0.2245  0.3732
 7758TIP3    H247470   3.454   3.811  11.566 -1.2719  1.1453 -0.5256
 7759TIP3   OH247471   4.052   0.530   9.274 -0.2402  0.0851  0.7710
 7759TIP3    H147472   4.143   0.535   9.305 -0.3516 -0.4073  1.1994
 7759TIP3    H247473   4.036   0.436   9.263 -1.1730  0.0402  2.2057
 7760TIP3   OH247474   1.304   4.387  11.433  0.0428 -0.3134 -0.6017
 7760TIP3    H147475   1.275   4.333  11.507 -0.0446  2.7760  1.8165
 7760TIP3    H247476   1.396   4.363  11.420  0.2314 -0.4910  0.9402
 7761TIP3   OH247477   2.352   1.853  11.056 -0.3774 -0.9909  0.1820
 7761TIP3    H147478   2.423   1.858  10.991 -1.1614 -0.4471 -0.6597
 7761TIP3    H247479   2.397   1.848  11.140  0.6666 -1.4392 -0.3808
 7762TIP3   OH247480   6.356   6.057   9.504 -0.2141 -0.0144 -0.6239
 7762TIP3    H147481   6.402   5.997   9.561 -1.4944 -1.0950 -0.6814
 7762TIP3    H247482   6.277   6.010   9.477 -0.7537  1.3034 -1.4911
 7763TIP3   OH247483   5.950   3.632  11.217  0.3781  0.2721  0.5053
 7763TIP3    H147484   5.987   3.546  11.195  0.7619  0.5583  0.0182
 7763TIP3    H247485   6.027   3.688  11.232  0.1501  0.1370  2.4647
 7764TIP3   OH247486   4.220   3.553   9.145  0.8114  0.0784  0.1900
 7764TIP3    H147487   4.144   3.541   9.201  0.4624 -0.4826 -0.3915
 7764TIP3    H247488   4.282   3.486   9.174  0.8602  0.1604  0.2784
 7765TIP3   OH247489   6.323   1.695  11.421  0.2184 -0.1392  0.1424
 7765TIP3    H147490   6.417   1.701  11.404  0.3920 -0.3295  0.9803
 7765TIP3    H247491   6.291   1.784  11.410  0.3606 -0.1955 -0.8480
 7766TIP3   OH247492   4.123   4.693   9.781 -0.4815  0.4629 -0.0357
 7766TIP3    H147493   4.188   4.639   9.826  0.3255  1.0852 -0.4060
 7766TIP3    H247494   4.039   4.669   9.820 -0.0310 -0.3893  0.4303
 7767TIP3   OH247495   2.280   1.356   9.498 -0.2363  0.3752  0.1046
 7767TIP3    H147496   2.261   1.302   9.421 -0.4793  2.3185 -1.2738
 7767TIP3    H247497   2.250   1.443   9.474 -2.8205  0.6084  3.4193
 7768TIP3   OH247498   0.994   1.314   9.820 -0.1761  0.2007 -0.2055
 7768TIP3    H147499   1.018   1.301   9.729  2.0312 -0.9361  0.4796
 7768TIP3    H247500   1.069   1.359   9.859 -1.1492  0.8411  1.0232
 7769TIP3   OH247501   1.879   3.187   9.510  0.1361  0.0275 -0.9145
 7769TIP3    H147502   1.808   3.129   9.538  0.1116 -0.6460 -2.2778
 7769TIP3    H247503   1.950   3.128   9.488  1.3907  0.7242  1.0251
 7770TIP3   OH247504   2.243   6.033  11.235 -0.3114 -0.4506  0.3102
 7770TIP3    H147505   2.180   6.100  11.264 -0.0117 -0.7441  1.7167
 7770TIP3    H247506   2.189   5.959  11.209 -0.6267  0.1519 -0.8029
 7771TIP3   OH247507   4.776   6.291   8.805  0.0223  0.7606 -0.4522
 7771TIP3    H147508   4.868   6.268   8.793  0.2843  1.4629  0.1375
 7771TIP3    H247509   4.727   6.220   8.762  0.7639 -1.2722  1.8456
 7772TIP3   OH247510   3.401   1.113   9.526 -0.4059  0.5649 -0.0669
 7772TIP3    H147511   3.378   1.200   9.495 -0.1106 -0.0714 -2.2121
 7772TIP3    H247512   3.317   1.072   9.546 -0.6359  0.8749 -0.3891
 7773TIP3   OH247513   0.098   4.230   9.847  0.6998  0.1581  0.1633
 7773TIP3    H147514   0.049   4.311   9.860 -1.7748 -1.4259  1.6148
 7773TIP3    H247515   0.093   4.213   9.753 -0.4823  0.7148  0.1053
 7774TIP3   OH247516   1.187   2.882  11.449  0.3384 -0.4263  0.2583
 7774TIP3    H147517   1.169   2.796  11.487  0.7294 -0.6423 -0.0355
 7774TIP3    H247518   1.225   2.933  11.522  2.0110 -1.1497 -0.0579
 7775TIP3   OH247519   0.268   2.846  11.471 -0.0847  0.3901  0.6601
 7775TIP3    H147520   0.345   2.871  11.420  0.7794  0.4199  1.9452
 7775TIP3    H247521   0.279   2.752  11.486  0.2791  0.5972  1.7696
 7776TIP3   OH247522   2.901   0.027  10.751 -0.2772 -0.0001  0.1025
 7776TIP3    H147523   2.901  -0.068  10.739 -1.9539 -0.7193  4.2993
 7776TIP3    H247524   2.993   0.051  10.749  0.1981 -1.6909 -0.8934
 7777TIP3   OH247525   1.452   0.501  11.844 -0.1818  0.2887  0.2372
 7777TIP3    H147526   1.537   0.498  11.801  0.1578  1.1141  0.8319
 7777TIP3    H247527   1.439   0.413  11.878  0.6304  0.2672  0.5128
 7778TIP3   OH247528   2.197   4.511   9.371  0.5399 -0.0890  0.2701
 7778TIP3    H147529   2.179   4.515   9.277  1.7877 -1.1262 -0.0330
 7778TIP3    H247530   2.281   4.556   9.381  0.3147  0.1980  0.9355
 7779TIP3   OH247531   2.454   5.591  11.649 -0.6726  0.0381 -0.0423
 7779TIP3    H147532   2.405   5.509  11.644  0.6515 -0.7752 -0.2400
 7779TIP3    H247533   2.412   5.648  11.584 -1.3521 -0.6197 -0.2024
 7780TIP3   OH247534   3.689   3.747  10.943 -0.5668 -0.3177  0.6564
 7780TIP3    H147535   3.702   3.682  10.874 -1.1752 -0.2096  0.4311
 7780TIP3    H247536   3.603   3.785  10.924 -0.7278 -0.2578  1.4525
 7781TIP3   OH247537   2.399   3.578   9.489 -0.1056  0.4418  1.0287
 7781TIP3    H147538   2.380   3.576   9.583 -0.9753 -0.3088  0.8438
 7781TIP3    H247539   2.399   3.487   9.462 -0.1150  0.6655  0.2444
 7782TIP3   OH247540   4.418   0.126   9.110  1.0353  0.3158 -0.3981
 7782TIP3    H147541   4.466   0.147   9.190  1.4039 -0.2132 -0.4748
 7782TIP3    H247542   4.432   0.201   9.053  1.5227  0.2954 -0.3040
 7783TIP3   OH247543   6.230   5.443  11.731 -0.0197  0.2432  0.0603
 7783TIP3    H147544   6.322   5.461  11.750 -0.5242  2.4032  0.7220
 7783TIP3    H247545   6.196   5.403  11.811  0.5867 -1.8033 -0.6355
 7784TIP3   OH247546   5.257   3.129  10.288 -0.3099  0.6720 -0.3900
 7784TIP3    H147547   5.240   3.151  10.379  1.3901  2.1159 -0.3726
 7784TIP3    H247548   5.196   3.185  10.239 -0.3038  0.8707 -0.1710
 7785TIP3   OH247549   5.427   3.404   9.740  0.5528  0.2710 -0.2433
 7785TIP3    H147550   5.424   3.494   9.708 -1.5249 -0.3517 -2.0503
 7785TIP3    H247551   5.432   3.351   9.661  1.9195 -1.2528  0.7948
 7786TIP3   OH247552   5.858   4.817   9.001  0.1863  0.0360 -0.1874
 7786TIP3    H147553   5.850   4.722   9.008  1.0040 -0.0125  0.1907
 7786TIP3    H247554   5.895   4.845   9.085 -1.0100  0.8181  0.1142
 7787TIP3   OH247555   0.832   4.511   9.407  1.0324 -0.3056  0.0930
 7787TIP3    H147556   0.882   4.429   9.407 -0.5951 -1.3314 -1.2970
 7787TIP3    H247557   0.859   4.556   9.327  1.6182  0.3655  0.6491
 7788TIP3   OH247558   5.933   4.375   8.889 -0.1110 -0.0057 -0.3432
 7788TIP3    H147559   6.019   4.410   8.914  0.2572 -1.3190  0.3547
 7788TIP3    H247560   5.870   4.437   8.924  0.5456  0.8235 -0.6028
 7789TIP3   OH247561   2.727   0.746   9.072 -0.1042  0.0973 -0.4474
 7789TIP3    H147562   2.806   0.745   9.126 -0.9850 -1.7419  0.9106
 7789TIP3    H247563   2.713   0.838   9.053  1.6734  0.5806  0.3134
 7790TIP3   OH247564   1.565   3.272   9.614  0.6788 -0.0322 -0.2567
 7790TIP3    H147565   1.569   3.291   9.520  1.4918  3.0274  0.3108
 7790TIP3    H247566   1.492   3.325   9.646  1.1328 -0.1688  1.0353
 7791TIP3   OH247567   5.795   1.800   9.028  0.4507 -0.2307 -0.1004
 7791TIP3    H147568   5.850   1.803   9.106  1.7982 -1.7121 -0.9188
 7791TIP3    H247569   5.762   1.710   9.025 -2.4988  0.7237  0.6151
 7792TIP3   OH247570   6.153   0.427  10.458  0.5626 -0.2665 -0.1109
 7792TIP3    H147571   6.090   0.423  10.530  0.5159 -1.6091 -0.1871
 7792TIP3    H247572   6.099   0.428  10.379  0.6219  0.3844 -0.1443
 7793TIP3   OH247573   4.625   3.024  11.013 -0.3118 -0.2683 -0.2531
 7793TIP3    H147574   4.712   2.999  11.044 -1.1520 -0.5788  2.0737
 7793TIP3    H247575   4.635   3.114  10.984  0.7708 -0.2582  0.1029
 7794TIP3   OH247576   1.197   1.415   9.991 -0.3626 -0.3464 -0.2868
 7794TIP3    H147577   1.285   1.385  10.013 -0.8348 -0.2154  2.1387
 7794TIP3    H247578   1.205   1.510   9.983 -0.0716 -0.4494 -1.4424
 7795TIP3   OH247579   0.851   5.392   8.710 -0.3855 -0.0858  0.4715
 7795TIP3    H147580   0.792   5.365   8.639 -1.1712  0.6401  0.8332
 7795TIP3    H247581   0.911   5.318   8.720 -0.8562 -0.5928 -0.3107
 7796TIP3   OH247582   1.300   4.636  10.906  0.2529 -0.1563 -0.0479
 7796TIP3    H147583   1.348   4.576  10.849 -1.3829 -0.7252 -0.9108
 7796TIP3    H247584   1.276   4.709  10.849 -0.6714 -0.3212  0.1065
 7797TIP3   OH247585   2.360   5.091   8.586 -0.3235  1.0185  0.2847
 7797TIP3    H147586   2.449   5.123   8.599 -0.2222 -0.0506  3.1825
 7797TIP3    H247587   2.348   5.026   8.656 -3.2819  0.9122 -0.1750
 7798TIP3   OH247588   5.450   5.507   9.141 -0.1602  0.8719 -0.4293
 7798TIP3    H147589   5.422   5.461   9.221  0.0033  0.0498 -0.8300
 7798TIP3    H247590   5.370   5.518   9.090 -0.0261 -0.0277 -0.8518
 7799TIP3   OH247591   1.676   3.649  11.156  0.7986 -0.0747 -0.0763
 7799TIP3    H147592   1.606   3.713  11.144  0.8971 -0.0891 -0.7837
 7799TIP3    H247593   1.749   3.683  11.103  1.2471 -0.1791  0.4687
 7800TIP3   OH247594   1.070   5.380  10.723 -0.7312  0.2044  0.7685
 7800TIP3    H147595   0.976   5.397  10.731 -0.5386  1.0358  1.3360
 7800TIP3    H247596   1.106   5.459  10.683 -0.3662 -0.3888 -0.1097
 7801TIP3   OH247597   5.128   2.710   9.769 -0.0367  0.0216  0.3072
 7801TIP3    H147598   5.181   2.630   9.773  0.1794 -0.0061 -1.9212
 7801TIP3    H247599   5.172   2.771   9.828  0.5713 -1.0560  1.0006
 7802TIP3   OH247600   2.980   2.246  10.528  0.6751  0.2971 -0.9514
 7802TIP3    H147601   3.004   2.194  10.605 -0.8715 -0.3428 -0.8734
 7802TIP3    H247602   2.990   2.186  10.455 -0.6070  0.0302 -0.9200
 7803TIP3   OH247603   4.832   1.292  11.891 -0.2574 -0.0348 -0.5610
 7803TIP3    H147604   4.857   1.232  11.820  0.0263 -0.5225 -0.0572
 7803TIP3    H247605   4.737   1.298  11.885 -0.2011  0.3218 -1.2889
 7804TIP3   OH247606   1.950   3.893   9.435 -0.0998  0.2728  0.3308
 7804TIP3    H147607   1.982   3.847   9.358 -1.4575  0.9507 -0.6818
 7804TIP3    H247608   2.022   3.952   9.459  1.8090 -2.4437  1.8495
 7805TIP3   OH247609   3.449   4.570   8.736  0.0768 -0.4564 -0.2828
 7805TIP3    H147610   3.439   4.647   8.679  2.3693 -0.2488 -0.5331
 7805TIP3    H247611   3.374   4.515   8.716 -1.4534  1.5542 -0.3395
 7806TIP3   OH247612   3.036   3.189   9.757 -0.4001 -0.6416  0.1189
 7806TIP3    H147613   2.989   3.265   9.790  0.2182  0.3202 -1.1607
 7806TIP3    H247614   3.005   3.116   9.812 -1.9732  0.2786  0.5022
 7807TIP3   OH247615   6.044   3.241  10.618 -0.0647  0.2433 -0.7104
 7807TIP3    H147616   5.993   3.298  10.675  1.8810 -0.5785  2.0493
 7807TIP3    H247617   6.007   3.154  10.631  0.9005 -0.0780 -0.0280
 7808TIP3   OH247618   0.243   1.500   9.544 -0.0261 -0.0090 -0.9497
 7808TIP3    H147619   0.227   1.528   9.454  1.4699 -1.0825 -1.5837
 7808TIP3    H247620   0.225   1.406   9.544 -1.3709  0.2130  0.2405
 7809TIP3   OH247621   3.042   4.499  11.660  0.3846 -0.0029 -0.2855
 7809TIP3    H147622   2.992   4.441  11.601  1.4270 -1.2206 -0.0191
 7809TIP3    H247623   3.007   4.586  11.643  0.4605 -0.3452 -2.5272
 7810TIP3   OH247624   0.154   0.061   9.551  0.0196 -0.6724 -0.0792
 7810TIP3    H147625   0.100  -0.008   9.512 -0.2030  0.2482 -1.4451
 7810TIP3    H247626   0.127   0.141   9.507  1.5209  0.0245  0.1914
 7811TIP3   OH247627   0.565   3.113   8.737  0.0879  0.4158  0.0963
 7811TIP3    H147628   0.622   3.134   8.810  0.6099 -0.4185 -0.0566
 7811TIP3    H247629   0.619   3.126   8.659 -0.6606  1.9501 -0.2052
 7812TIP3   OH247630   3.064   3.951   8.785 -0.0295  0.3757  0.2827
 7812TIP3    H147631   2.993   3.894   8.753 -0.9500  1.5611  0.1565
 7812TIP3    H247632   3.022   4.007   8.850  1.2672 -0.2662  1.7379
 7813TIP3   OH247633   5.244   3.636   8.908 -0.0712 -0.1977  0.6236
 7813TIP3    H147634   5.151   3.653   8.895  0.4092  1.1001 -1.6440
 7813TIP3    H247635   5.272   3.702   8.971 -0.8145 -1.2312  2.1139
 7814TIP3   OH247636   3.641   4.288   9.794 -0.2595 -0.2399  0.1040
 7814TIP3    H147637   3.718   4.231   9.781  0.1193  0.3520 -0.2963
 7814TIP3    H247638   3.678   4.374   9.814 -0.7955  0.3380 -1.2944
 7815TIP3   OH247639   1.829   3.302  10.838 -0.4735  0.1085 -0.6476
 7815TIP3    H147640   1.769   3.362  10.793 -2.0081 -0.6514  0.2893
 7815TIP3    H247641   1.849   3.347  10.920 -0.9680 -0.2708 -0.3094
 7816TIP3   OH247642   5.248   0.469  10.376 -0.1748 -0.1897 -0.0904
 7816TIP3    H147643   5.316   0.531  10.402 -0.9559  0.3226  0.8103
 7816TIP3    H247644   5.219   0.499  10.290 -0.1814  0.3903  0.1091
 7817TIP3   OH247645   4.183   6.511  11.403  0.4088  0.0195 -0.0500
 7817TIP3    H147646   4.202   6.446  11.471 -2.0022 -1.4429 -0.6422
 7817TIP3    H247647   4.139   6.582  11.449  0.5975 -0.0217  0.1976
 7818TIP3   OH247648   3.697   1.239   9.508  0.2828 -0.4421 -0.4296
 7818TIP3    H147649   3.677   1.208   9.597 -0.7723 -1.9117 -1.1320
 7818TIP3    H247650   3.617   1.283   9.480  0.4802 -0.3085 -0.7848
 7819TIP3   OH247651   0.677   2.799   8.822  0.2882  0.0949 -0.2103
 7819TIP3    H147652   0.744   2.865   8.839  0.1650  0.1641  0.0063
 7819TIP3    H247653   0.703   2.759   8.739  0.9606 -0.3318  0.1918
 7820TIP3   OH247654   0.670   3.317  10.558 -0.2669 -0.0699  0.3449
 7820TIP3    H147655   0.616   3.248  10.596  0.1167  0.5994  2.2490
 7820TIP3    H247656   0.760   3.285  10.568 -0.1959 -0.3446 -1.0323
 7821TIP3   OH247657   3.050   4.719   9.250 -0.1522 -0.5307  0.1973
 7821TIP3    H147658   3.119   4.785   9.253 -2.1071  1.6463 -0.1121
 7821TIP3    H247659   3.076   4.662   9.177  2.2121 -0.9413  1.2576
 7822TIP3   OH247660   3.981   3.818  12.180 -0.1811 -0.6728  0.1799
 7822TIP3    H147661   3.930   3.796  12.258 -0.7295  1.3077  0.4260
 7822TIP3    H247662   3.941   3.898  12.146  0.5368 -1.0620 -1.7128
 7823TIP3   OH247663   3.664   0.230  10.636  0.1624  0.7082 -0.2755
 7823TIP3    H147664   3.715   0.187  10.567  0.1104 -1.2672  0.8433
 7823TIP3    H247665   3.686   0.181  10.715 -0.5972  2.2392  0.9235
 7824TIP3   OH247666   4.563   0.261  10.986 -0.3902  0.2679 -0.0722
 7824TIP3    H147667   4.619   0.238  10.912 -0.9303  0.6546 -0.6153
 7824TIP3    H247668   4.621   0.306  11.047 -0.2131  1.1800 -0.8784
 7825TIP3   OH247669   4.673   4.127   9.338 -0.2982  0.5204 -0.6741
 7825TIP3    H147670   4.633   4.108   9.252  2.1012 -0.7037 -1.5996
 7825TIP3    H247671   4.640   4.057   9.395 -0.0225 -0.0850 -1.2419
 7826TIP3   OH247672   5.688   4.644  12.265 -0.6152 -0.5056  0.3887
 7826TIP3    H147673   5.732   4.561  12.285  0.7774  0.0407 -0.2952
 7826TIP3    H247674   5.655   4.633  12.175  1.2073  0.3172 -0.4156
 7827TIP3   OH247675   6.319   5.921  10.057  0.6943  0.2880 -0.3220
 7827TIP3    H147676   6.233   5.886  10.079  0.5800  0.1996 -0.8930
 7827TIP3    H247677   6.305   5.970   9.976  1.0850  0.6835 -0.1554
 7828TIP3   OH247678   5.533   1.755   9.646 -0.3112 -0.0945 -0.7290
 7828TIP3    H147679   5.510   1.662   9.637 -2.2905  0.4603 -2.2774
 7828TIP3    H247680   5.619   1.763   9.605  0.3566 -1.3846  0.3445
 7829TIP3   OH247681   1.061   2.296  10.131 -0.3705 -0.2785  0.0364
 7829TIP3    H147682   1.150   2.329  10.125 -0.1170 -0.3961  2.3768
 7829TIP3    H247683   1.062   2.234  10.203 -2.7442  1.2904  1.5939
 7830TIP3   OH247684   0.344   5.069  11.172 -0.0645 -0.4271  0.1089
 7830TIP3    H147685   0.381   5.004  11.232  0.1027  0.0959  0.5755
 7830TIP3    H247686   0.420   5.113  11.134 -0.0901  2.2533  2.7935
 7831TIP3   OH247687   2.004   0.209   9.649 -0.0805 -0.4042 -0.4670
 7831TIP3    H147688   2.049   0.174   9.573  0.5147 -0.2650 -0.1866
 7831TIP3    H247689   2.055   0.179   9.724  1.9567  2.9814 -0.2665
 7832TIP3   OH247690   2.401   2.861  11.036  0.4408  0.4181 -0.0178
 7832TIP3    H147691   2.312   2.842  11.007  0.9132  0.6618 -1.7735
 7832TIP3    H247692   2.452   2.866  10.955  2.2843 -0.8041  0.9914
 7833TIP3   OH247693   3.341   4.614  11.100  0.2506  0.3989 -0.3362
 7833TIP3    H147694   3.269   4.662  11.141  0.1374 -0.9346  1.1282
 7833TIP3    H247695   3.414   4.626  11.160  1.0349  1.0404 -1.3857
 7834TIP3   OH247696   5.722   6.068  11.610 -0.7586  0.1000  0.2750
 7834TIP3    H147697   5.737   6.098  11.700  0.1728  1.8583 -0.4198
 7834TIP3    H247698   5.630   6.042  11.609 -0.3292 -1.8121  2.2095
 7835TIP3   OH247699   3.892   3.098   9.094  0.4947  0.3681  0.9583
 7835TIP3    H147700   3.871   3.147   9.173 -2.0475  1.3219 -0.2004
 7835TIP3    H247701   3.898   3.164   9.025 -0.5226 -0.6914 -0.1992
 7836TIP3   OH247702   0.866   6.266  10.446  0.2586 -0.1593 -0.5289
 7836TIP3    H147703   0.823   6.184  10.470  1.3268 -1.1400 -1.7643
 7836TIP3    H247704   0.884   6.309  10.529 -2.3445 -0.0506  0.0642
 7837TIP3   OH247705   4.908   0.585  10.551 -0.2511 -0.6675  0.4798
 7837TIP3    H147706   4.825   0.549  10.520 -0.4423 -0.3008  0.5670
 7837TIP3    H247707   4.893   0.679  10.558  0.7222 -0.3431 -1.2505
 7838TIP3   OH247708   2.172   4.607  12.161  0.1530  0.2484 -0.1274
 7838TIP3    H147709   2.167   4.681  12.100 -0.3316  0.7095  0.4584
 7838TIP3    H247710   2.142   4.642  12.244 -1.9395 -1.0573 -0.2552
 7839TIP3   OH247711   2.409   3.027  11.527 -0.7169 -0.1836  0.2105
 7839TIP3    H147712   2.460   2.953  11.493 -1.3474 -0.4750 -0.1168
 7839TIP3    H247713   2.364   3.062  11.451 -0.3965  0.5682  0.3619
 7840TIP3   OH247714   5.074   6.009  11.201  0.0969 -0.6430  0.0412
 7840TIP3    H147715   5.021   6.053  11.134 -0.0581  0.5932  0.9405
 7840TIP3    H247716   5.042   5.919  11.202 -0.9019 -0.3073 -0.5389
 7841TIP3   OH247717   4.937   2.743  10.386  0.3800 -0.3805  0.2510
 7841TIP3    H147718   4.912   2.779  10.301  0.0578  0.4873  0.7011
 7841TIP3    H247719   4.956   2.820  10.440 -0.5370 -0.8630  1.3118
 7842TIP3   OH247720   2.505   0.983  11.229  0.1443 -0.6903 -0.3002
 7842TIP3    H147721   2.504   1.032  11.147  1.3907 -0.0885  0.0275
 7842TIP3    H247722   2.417   0.946  11.236  0.4285 -1.9481 -2.6023
 7843TIP3   OH247723   5.485   1.930  10.419 -0.0423  0.1618  0.2732
 7843TIP3    H147724   5.536   1.935  10.338 -1.1803 -0.3751 -0.5162
 7843TIP3    H247725   5.434   2.012  10.420 -0.8954 -0.3468 -0.1839
 7844TIP3   OH247726   1.003   5.341  10.327 -0.1150 -0.1792  0.1117
 7844TIP3    H147727   0.956   5.422  10.348 -0.6041 -0.0664 -1.3074
 7844TIP3    H247728   1.088   5.371  10.294 -0.8506 -0.1202 -1.8666
 7845TIP3   OH247729   3.396   0.774  10.001 -0.1982 -0.4033  0.3558
 7845TIP3    H147730   3.468   0.720  10.035 -0.3982 -0.8334  0.0963
 7845TIP3    H247731   3.346   0.799  10.079  0.4516  0.2209  0.5815
 7846TIP3   OH247732   4.294   4.923   8.618  0.5118 -0.3819 -0.5016
 7846TIP3    H147733   4.303   4.864   8.544 -1.5888 -0.0525 -1.0862
 7846TIP3    H247734   4.263   5.005   8.580  0.9445  0.3025  0.5725
 7847TIP3   OH247735   0.364   2.673   9.125  0.0306 -0.0272  0.1951
 7847TIP3    H147736   0.385   2.757   9.165 -1.2495  0.3839  0.0365
 7847TIP3    H247737   0.329   2.696   9.039 -0.1070 -0.7448  0.0545
 7848TIP3   OH247738   5.859   3.966   9.579  0.0046 -0.3931  0.2010
 7848TIP3    H147739   5.782   3.989   9.631  0.1626  0.7078 -0.0344
 7848TIP3    H247740   5.857   3.870   9.575 -1.0365 -0.4064  0.6687
 7849TIP3   OH247741   1.033   0.337  11.305  0.3984  0.5496 -0.1043
 7849TIP3    H147742   1.036   0.398  11.232  2.0191 -0.0955 -0.6189
 7849TIP3    H247743   1.002   0.390  11.379 -0.5513  1.3787 -1.0691
 7850TIP3   OH247744   4.682   0.617  11.481  0.1881 -0.2840  0.2261
 7850TIP3    H147745   4.626   0.675  11.533 -2.6906 -3.4273  1.0138
 7850TIP3    H247746   4.737   0.573  11.546  1.0289  0.2040 -0.1474
 7851TIP3   OH247747   6.164   3.987   9.325 -0.0760  0.1709  0.1028
 7851TIP3    H147748   6.165   4.050   9.398 -0.5116  0.7890 -0.4119
 7851TIP3    H247749   6.141   3.903   9.366  0.3211  0.3816  0.7717
 7852TIP3   OH247750   5.818   4.556   9.101  0.1434  0.0923 -0.3981
 7852TIP3    H147751   5.826   4.544   9.196  1.4205 -1.1799 -0.6313
 7852TIP3    H247752   5.728   4.532   9.081 -0.3837  1.1837  0.5970
 7853TIP3   OH247753   2.236   1.301   9.911 -0.0986 -0.9513  0.1260
 7853TIP3    H147754   2.183   1.310   9.990 -2.1218 -0.1193 -1.2398
 7853TIP3    H247755   2.223   1.210   9.883 -2.2660 -0.3415 -1.0871
 7854TIP3   OH247756   1.433   6.568   9.455  0.1742  0.1243 -0.6010
 7854TIP3    H147757   1.403   6.507   9.522  2.7803 -2.6070 -1.6938
 7854TIP3    H247758   1.527   6.551   9.448  0.6022  2.7390 -2.5879
 7855TIP3   OH247759   0.091   5.074  11.056 -0.0680  0.9399 -0.0150
 7855TIP3    H147760   0.114   5.162  11.025 -1.8496  1.3201 -0.3665
 7855TIP3    H247761   0.174   5.037  11.086  0.9202  2.2932 -0.9593
 7856TIP3   OH247762   1.828   5.417  10.595 -0.2454  0.3873 -0.1152
 7856TIP3    H147763   1.784   5.452  10.673 -0.3039  0.8979 -0.3698
 7856TIP3    H247764   1.890   5.353  10.630 -0.7547  0.1021  0.2959
 7857TIP3   OH247765   1.307   2.413   9.123 -0.0302 -0.3512 -0.0311
 7857TIP3    H147766   1.212   2.413   9.125 -0.0818  0.5296 -1.3545
 7857TIP3    H247767   1.332   2.329   9.163 -1.3438 -0.5919  0.3201
 7858TIP3   OH247768   3.402   1.717   9.226  0.2190 -0.1492  0.3979
 7858TIP3    H147769   3.413   1.666   9.146  0.2526  0.3996  0.0492
 7858TIP3    H247770   3.465   1.680   9.288 -0.0611 -0.8151  0.2917
 7859TIP3   OH247771   3.857   1.223   9.175  0.2853  0.1724 -0.0468
 7859TIP3    H147772   3.792   1.167   9.133 -0.0982 -0.4317  1.2890
 7859TIP3    H247773   3.817   1.309   9.179 -0.3799 -0.1582  0.6124
 7860TIP3   OH247774   3.111   3.036   9.498 -0.2209  0.3425 -0.1929
 7860TIP3    H147775   3.019   3.013   9.511 -0.3127  0.6600 -0.2802
 7860TIP3    H247776   3.115   3.130   9.515  0.0683  0.3485 -0.2930
 7861TIP3   OH247777   4.163   1.356  12.004  0.0146  0.7311  0.3419
 7861TIP3    H147778   4.113   1.397  11.934 -1.5872 -3.7829 -1.5561
 7861TIP3    H247779   4.098   1.334  12.070  0.4660 -0.1416  0.5098
 7862TIP3   OH247780   5.363   4.155  10.077  0.5010  0.6181 -0.2286
 7862TIP3    H147781   5.370   4.124  10.167 -0.1561  2.1637  0.3920
 7862TIP3    H247782   5.295   4.101  10.037  0.8334 -0.1071  0.1760
 7863TIP3   OH247783   4.736   5.300  11.706 -0.3372  0.5342 -0.4648
 7863TIP3    H147784   4.774   5.265  11.786 -1.1283 -1.8959 -1.0703
 7863TIP3    H247785   4.717   5.392  11.726 -0.8959 -0.0981  2.2480
 7864TIP3   OH247786   1.507   0.766  10.137  0.3131 -0.4883 -0.8376
 7864TIP3    H147787   1.570   0.714  10.185  0.3107 -0.2243 -0.5432
 7864TIP3    H247788   1.447   0.799  10.204  1.1754  1.1141 -0.7888
 7865TIP3   OH247789   5.254   5.575   9.772  0.7768 -0.4031 -0.0717
 7865TIP3    H147790   5.302   5.603   9.849 -0.0964 -0.0878  0.3730
 7865TIP3    H247791   5.170   5.543   9.807  0.7869 -1.2653 -0.7902
 7866TIP3   OH247792   4.670   3.616   8.492 -0.1848  0.1136  0.6124
 7866TIP3    H147793   4.578   3.604   8.468 -0.0446 -0.3596  0.3135
 7866TIP3    H247794   4.677   3.710   8.509 -0.8163  0.0929  1.0260
 7867TIP3   OH247795   3.200   6.006   9.340  0.3286 -0.2180  0.1739
 7867TIP3    H147796   3.118   6.032   9.382 -0.1956 -2.3747  0.6205
 7867TIP3    H247797   3.208   6.064   9.264 -1.2026  0.5457  0.5627
 7868TIP3   OH247798   6.254   2.013  10.926 -0.5530  0.0943  0.0908
 7868TIP3    H147799   6.262   2.001  11.020 -1.8562 -1.3218  0.0545
 7868TIP3    H247800   6.170   2.058  10.914  1.2511  3.7429 -0.2297
 7869TIP3   OH247801   2.461   5.640  10.636 -0.0508  0.1688 -0.6902
 7869TIP3    H147802   2.455   5.557  10.682  1.8145 -0.7678 -1.9792
 7869TIP3    H247803   2.398   5.633  10.564 -1.7226  0.9473  0.6306
 7870TIP3   OH247804   2.541   1.642  10.487 -0.1736  0.6226  0.2683
 7870TIP3    H147805   2.563   1.702  10.416 -1.8348 -1.6430 -2.4123
 7870TIP3    H247806   2.626   1.607  10.516  0.8155  3.9691  1.8378
 7871TIP3   OH247807   4.528   4.042  10.109  0.1043 -0.0803  0.1768
 7871TIP3    H147808   4.586   4.111  10.076 -0.2786  0.6931  1.0677
 7871TIP3    H247809   4.552   3.964  10.059  1.4301  0.3914  0.0473
 7872TIP3   OH247810   0.455   1.198  10.201 -0.3215  0.0977 -0.2888
 7872TIP3    H147811   0.365   1.228  10.212 -0.7503 -1.1817 -0.1212
 7872TIP3    H247812   0.455   1.152  10.117 -0.1492 -0.9798  0.2793
 7873TIP3   OH247813   6.215   3.583  11.408 -0.1060 -0.4023  0.6678
 7873TIP3    H147814   6.265   3.664  11.415 -2.4610  1.1271  0.7448
 7873TIP3    H247815   6.260   3.533  11.340  1.3286  1.0101  0.5342
 7874TIP3   OH247816   6.662   2.711  11.028 -0.3467  0.0100  0.7192
 7874TIP3    H147817   6.636   2.624  10.997 -0.3686 -0.1188  1.0930
 7874TIP3    H247818   6.723   2.693  11.099  0.0457  0.3059  0.4597
 7875TIP3   OH247819   3.040   4.067  12.099 -0.5685 -0.6021 -0.2857
 7875TIP3    H147820   2.981   4.138  12.074 -1.8918 -1.0426  1.3911
 7875TIP3    H247821   3.046   4.012  12.021  2.0343  2.2300 -2.3192
 7876TIP3   OH247822   0.248   2.055   9.863  0.3734 -0.4949  0.0278
 7876TIP3    H147823   0.259   1.972   9.909 -0.5493 -0.6654 -0.0393
 7876TIP3    H247824   0.160   2.084   9.887  1.1833  1.1748  1.1901
 7877TIP3   OH247825   4.086   2.377   8.919  0.5525 -0.0207  0.6488
 7877TIP3    H147826   4.176   2.408   8.926  0.9801 -1.4642  1.7774
 7877TIP3    H247827   4.045   2.438   8.856  1.8803  1.5678  1.2481
 7878TIP3   OH247828   6.193   2.931  11.912  0.7372 -0.1047  0.2955
 7878TIP3    H147829   6.276   2.887  11.891  0.1877 -0.2172 -1.9141
 7878TIP3    H247830   6.209   3.023  11.891  0.6065  0.0443  0.8469
 7879TIP3   OH247831   1.808   2.781   9.721  0.1028  0.0247  0.1857
 7879TIP3    H147832   1.868   2.743   9.657 -1.1208 -0.6543 -0.6087
 7879TIP3    H247833   1.725   2.787   9.675 -0.4008  1.1254  1.1975
 7880TIP3   OH247834   3.499   1.865   8.714 -0.1639 -0.2655 -0.2230
 7880TIP3    H147835   3.550   1.945   8.698  0.7451 -0.1761  2.5508
 7880TIP3    H247836   3.408   1.895   8.712  0.1274  0.7034  0.0298
 7881TIP3   OH247837   3.997   0.276  11.083  0.9738  0.3595 -0.0580
 7881TIP3    H147838   4.092   0.267  11.089  0.9679  0.6705  0.7648
 7881TIP3    H247839   3.984   0.351  11.025  1.2567  0.7081  0.3175
 7882TIP3   OH247840   2.284   5.041  10.648 -0.5930  0.4066 -0.3600
 7882TIP3    H147841   2.190   5.042  10.667 -1.0711 -0.2475 -2.3831
 7882TIP3    H247842   2.289   5.056  10.554  1.3257  0.0369 -0.3560
 7883TIP3   OH247843   3.566   1.590  12.239 -0.4071 -0.7172  0.0491
 7883TIP3    H147844   3.547   1.531  12.312 -0.2400  0.1188  0.7876
 7883TIP3    H247845   3.485   1.639  12.226 -0.1823 -0.2857  0.2359
 7884TIP3   OH247846   2.151   2.533   8.705  0.1773 -0.5873 -0.3102
 7884TIP3    H147847   2.237   2.491   8.695  0.5074  0.0054 -0.0098
 7884TIP3    H247848   2.102   2.473   8.762  1.5158  0.5957  2.2871
 7885TIP3   OH247849   5.097   4.571   9.710 -0.3139 -0.2150  0.2772
 7885TIP3    H147850   5.158   4.553   9.781  1.3275  0.3127 -0.9121
 7885TIP3    H247851   5.078   4.665   9.718  0.1951 -0.0620 -0.1706
 7886TIP3   OH247852   1.806   3.850  10.719  0.2670  0.1788  0.9769
 7886TIP3    H147853   1.717   3.860  10.753 -0.4673 -0.0008 -0.7759
 7886TIP3    H247854   1.835   3.940  10.701  0.7270  0.2879  2.1756
 7887TIP3   OH247855   0.498   4.870  11.365  0.2983  0.1060  0.5446
 7887TIP3    H147856   0.539   4.828  11.289  1.2697 -0.4906  1.3747
 7887TIP3    H247857   0.423   4.815  11.386  0.9472 -0.6218  0.9753
 7888TIP3   OH247858   3.288   4.295   9.960  0.1715 -0.5308 -0.0600
 7888TIP3    H147859   3.217   4.335   9.911  0.0967 -2.4241 -1.6302
 7888TIP3    H247860   3.350   4.366   9.976 -2.0787  1.2412  1.5555
 7889TIP3   OH247861   0.066   1.400   9.932 -0.1814 -0.1522 -0.2300
 7889TIP3    H147862   0.090   1.451   9.854  0.9745 -0.0410  0.1843
 7889TIP3    H247863  -0.026   1.422   9.947 -0.0670  0.8130 -0.8213
 7890TIP3   OH247864   4.044   4.482  12.827  0.0817  0.0116  0.0848
 7890TIP3    H147865   3.957   4.500  12.864 -0.9295 -1.3971 -1.5169
 7890TIP3    H247866   4.079   4.569  12.806 -0.6273  0.6388  1.3794
 7891TIP3   OH247867   0.554   3.395  10.258  0.3718  0.8709  0.2283
 7891TIP3    H147868   0.500   3.340  10.315 -0.0607  0.3100 -0.7125
 7891TIP3    H247869   0.633   3.412  10.310  0.2688 -0.1709  0.7471
 7892TIP3   OH247870   0.557   1.800  11.247 -0.3009 -0.3083  0.0028
 7892TIP3    H147871   0.632   1.859  11.249 -0.6271  0.1538 -0.9022
 7892TIP3    H247872   0.590   1.718  11.285 -0.1096  0.7244  2.2509
 7893TIP3   OH247873   3.191   3.816  10.674 -0.3503  0.0245 -0.7914
 7893TIP3    H147874   3.199   3.843  10.583  0.0303  1.8374 -0.2574
 7893TIP3    H247875   3.180   3.897  10.723  2.7567 -0.5289  1.1574
 7894TIP3   OH247876   1.006   4.526   9.624 -0.2097 -0.1302  0.1132
 7894TIP3    H147877   0.988   4.581   9.700 -2.2038 -1.8141  0.9553
 7894TIP3    H247878   0.932   4.542   9.565  0.8064  0.4024 -1.0482
 7895TIP3   OH247879   5.137   2.706  10.605 -0.2910 -0.3732 -0.6551
 7895TIP3    H147880   5.080   2.781  10.589  0.1565  0.1017 -0.1014
 7895TIP3    H247881   5.109   2.640  10.543 -2.6462 -0.8053  0.7649
 7896TIP3   OH247882   2.526   4.566  11.729 -0.1081  0.2439  0.1004
 7896TIP3    H147883   2.473   4.488  11.745 -0.1549 -0.0450 -1.3032
 7896TIP3    H247884   2.498   4.628  11.795 -0.0201 -0.9422  1.2952
 7897TIP3   OH247885   3.127   4.244  10.252 -0.4230 -0.2879 -0.5856
 7897TIP3    H147886   3.135   4.149  10.250 -0.4877 -0.3644  1.2906
 7897TIP3    H247887   3.117   4.269  10.160  0.0349 -2.0403 -1.1495
 7898TIP3   OH247888   3.160   3.665  11.488 -0.6955 -0.1517  0.5412
 7898TIP3    H147889   3.164   3.575  11.519  0.3663 -0.4905 -0.5418
 7898TIP3    H247890   3.148   3.658  11.394  1.4197  0.7886  0.1529
 7899TIP3   OH247891   5.143   2.268  10.512  0.0417 -0.0751 -0.0214
 7899TIP3    H147892   5.147   2.363  10.497 -1.1217 -0.1705 -0.9940
 7899TIP3    H247893   5.133   2.230  10.425 -2.7139 -0.8952  0.5792
 7900TIP3   OH247894   1.585   4.571   9.295 -0.5056 -0.0493  0.4655
 7900TIP3    H147895   1.661   4.569   9.353 -1.2637 -1.4161  1.4705
 7900TIP3    H247896   1.619   4.544   9.209  0.1665 -0.5419  0.8829
 7901TIP3   OH247897   4.406   1.599  11.443  0.0049  0.3536  0.0110
 7901TIP3    H147898   4.427   1.580  11.534  0.7472  2.6304  0.3571
 7901TIP3    H247899   4.316   1.568  11.432  0.2639 -0.9205  1.1690
 7902TIP3   OH247900   2.952   3.312  11.720 -0.5086 -0.3281 -0.1025
 7902TIP3    H147901   2.863   3.344  11.730 -1.0626 -1.3478 -1.4300
 7902TIP3    H247902   2.946   3.246  11.651  1.4777  0.3910 -1.0335
 7903TIP3   OH247903   2.532   4.080  13.193 -0.4924 -0.2017 -0.2931
 7903TIP3    H147904   2.523   4.171  13.221 -0.2307 -0.3565  0.3221
 7903TIP3    H247905   2.626   4.061  13.204 -0.9134 -1.3182  2.1503
 7904TIP3   OH247906   0.350   3.347   9.510 -0.8912  0.0045 -0.5487
 7904TIP3    H147907   0.404   3.351   9.589 -1.5542 -0.4886 -0.0577
 7904TIP3    H247908   0.408   3.312   9.442 -0.1298  1.0258 -0.4556
 7905TIP3   OH247909   3.213   2.346  12.448 -0.5712 -0.1657  0.2562
 7905TIP3    H147910   3.118   2.352  12.442 -0.5305 -0.7083 -1.6594
 7905TIP3    H247911   3.230   2.322  12.539 -2.2159  0.5470  0.7902
 7906TIP3   OH247912   2.370   4.793  10.733 -0.4655  0.2249  0.0235
 7906TIP3    H147913   2.315   4.861  10.694  0.4547  0.3554 -1.1267
 7906TIP3    H247914   2.459   4.822  10.716 -0.0585 -1.0442 -0.0894
 7907TIP3   OH247915   0.409   2.256  18.864 -0.2716  0.2569  0.1523
 7907TIP3    H147916   0.418   2.244  18.769 -0.6341  0.3659  0.1048
 7907TIP3    H247917   0.499   2.258  18.896 -0.1261  0.8132 -0.2649
 7908TIP3   OH247918   2.895   5.197  12.024 -0.1077 -0.5251  0.1801
 7908TIP3    H147919   2.884   5.189  12.118  0.7260 -3.3229  0.1090
 7908TIP3    H247920   2.898   5.292  12.008 -1.0946  0.0241  2.8186
 7909TIP3   OH247921   4.498   4.794  10.530 -0.7349  0.4018 -0.0668
 7909TIP3    H147922   4.509   4.783  10.625  0.7629  0.2508 -0.2390
 7909TIP3    H247923   4.421   4.741  10.509 -2.1574  1.8067  1.3159
 7910TIP3   OH247924   5.654   4.054   9.749 -0.0385 -0.0193 -0.0440
 7910TIP3    H147925   5.657   4.094   9.836 -1.8871 -2.6926  1.3816
 7910TIP3    H247926   5.564   4.022   9.740  0.1742 -0.0913 -2.8459
 7911TIP3   OH247927   6.461   6.415   8.954  0.1202 -0.5699  0.8733
 7911TIP3    H147928   6.394   6.482   8.943  0.2028 -0.5943  0.1599
 7911TIP3    H247929   6.425   6.354   9.018 -0.7501 -0.8477  0.1324
 7912TIP3   OH247930   2.966   3.723  11.662 -0.7008 -0.2246 -0.0694
 7912TIP3    H147931   3.029   3.694  11.596  0.1874 -0.0500  0.6782
 7912TIP3    H247932   3.015   3.785  11.716 -2.3843  2.3429 -1.3082
 7913TIP3   OH247933   0.902   6.607   9.181 -0.6889  0.1409  0.4382
 7913TIP3    H147934   0.926   6.551   9.254  0.7097  2.9397  2.3078
 7913TIP3    H247935   0.971   6.593   9.116 -0.7389 -0.7703  0.5764
 7914TIP3   OH247936   2.604   3.504  12.760  0.2674 -0.5651  0.8826
 7914TIP3    H147937   2.670   3.541  12.819  1.2850 -0.2249 -0.4220
 7914TIP3    H247938   2.611   3.409  12.774  2.6808 -0.7289 -0.8148
 7915TIP3   OH247939   4.483   6.306  10.315 -0.7151  0.5478  0.3042
 7915TIP3    H147940   4.496   6.327  10.222 -0.2094  0.8972  0.4471
 7915TIP3    H247941   4.414   6.367  10.343  0.2236  1.5386  0.5313
 7916TIP3   OH247942   4.121   3.456  11.829 -0.0666 -0.1480 -0.6097
 7916TIP3    H147943   4.071   3.515  11.772 -2.0573  0.1021  1.2914
 7916TIP3    H247944   4.117   3.497  11.916  1.3774 -1.4189  0.0984
 7917TIP3   OH247945   0.437   5.836   9.005 -0.6518 -0.5503 -0.3225
 7917TIP3    H147946   0.482   5.917   8.980 -0.7596  0.4132  2.3567
 7917TIP3    H247947   0.344   5.857   8.998 -0.6846 -0.6232 -0.0943
 7918TIP3   OH247948   0.447   0.081   9.597 -0.2091  0.1544  0.7948
 7918TIP3    H147949   0.370   0.033   9.568 -1.2089  0.2924  2.9865
 7918TIP3    H247950   0.519   0.019   9.586 -0.5004  0.1909 -1.7422
 7919TIP3   OH247951   5.997   1.913   9.926  0.1383 -0.1020  0.1991
 7919TIP3    H147952   6.090   1.919   9.906  0.2891 -1.8946  0.2203
 7919TIP3    H247953   5.993   1.883  10.017 -0.4637  0.2158  0.2868
 7920TIP3   OH247954   0.445   1.131   9.491  0.2491 -0.6468  0.3954
 7920TIP3    H147955   0.431   1.179   9.410 -0.2468  0.1382  0.9384
 7920TIP3    H247956   0.427   1.040   9.468 -0.5351 -0.3453 -0.2214
 7921TIP3   OH247957   1.273   2.204   9.836 -0.3288 -0.1870 -0.2084
 7921TIP3    H147958   1.230   2.289   9.834  1.4180  0.8345 -4.1819
 7921TIP3    H247959   1.350   2.217   9.892 -0.5104  0.5961 -0.1335
 7922TIP3   OH247960   1.032   2.807  10.175  0.0823  0.2357 -0.2613
 7922TIP3    H147961   0.943   2.809  10.210 -0.5295 -1.5305 -1.5617
 7922TIP3    H247962   1.032   2.873  10.105 -0.2355  0.1772 -0.3152
 7923TIP3   OH247963   2.684   3.634   9.843  0.2417 -0.0199 -0.1509
 7923TIP3    H147964   2.672   3.653   9.936 -1.0640 -1.1241 -0.0576
 7923TIP3    H247965   2.659   3.542   9.834 -1.7174  0.6055 -1.9196
 7924TIP3   OH247966   0.340   1.504   9.801  0.1540  0.2871 -0.0458
 7924TIP3    H147967   0.431   1.525   9.780  0.8619 -1.9972  0.4558
 7924TIP3    H247968   0.300   1.489   9.715  0.5857  0.0424 -0.2104
 7925TIP3   OH247969   3.208   5.086  11.264 -0.0071 -0.4886  0.1248
 7925TIP3    H147970   3.125   5.090  11.217 -0.6721 -0.2455  1.2705
 7925TIP3    H247971   3.263   5.150  11.221 -0.8020  0.1665  0.0461
 7926TIP3   OH247972   3.408   6.598  10.085 -0.4032  0.0678 -0.1945
 7926TIP3    H147973   3.391   6.672  10.027 -0.0407  0.5386  0.3054
 7926TIP3    H247974   3.367   6.523  10.040 -0.3139  0.4671 -0.9527
 7927TIP3   OH247975   3.281   5.739   9.259 -0.0867  0.6295 -0.2162
 7927TIP3    H147976   3.354   5.678   9.274 -1.7961 -1.0969  1.5947
 7927TIP3    H247977   3.307   5.819   9.305  1.0568  0.4095 -0.4413
 7928TIP3   OH247978   4.463   4.350   9.516 -0.3139  0.1151  0.0681
 7928TIP3    H147979   4.471   4.275   9.575 -0.0761  0.1977  0.1432
 7928TIP3    H247980   4.444   4.424   9.573  2.1119  0.6322  0.3447
 7929TIP3   OH247981   1.807   3.621  10.444  0.3527  0.1371  0.1775
 7929TIP3    H147982   1.736   3.682  10.424 -0.4597 -1.3167 -1.6679
 7929TIP3    H247983   1.871   3.674  10.493 -2.3852  1.2559  2.8991
 7930TIP3   OH247984   0.430   3.243  11.215  0.1419  0.2831 -0.1832
 7930TIP3    H147985   0.521   3.266  11.198  1.0189 -2.7339 -0.1404
 7930TIP3    H247986   0.401   3.198  11.136 -0.7481 -0.2950  0.4424
 7931TIP3   OH247987   4.021   0.694  10.234 -0.4735  1.1337  0.2729
 7931TIP3    H147988   4.003   0.771  10.287 -1.0623  0.3873  1.1989
 7931TIP3    H247989   3.990   0.716  10.146  0.6847  2.4532  0.1593
 7932TIP3   OH247990   4.301   1.228  10.924  0.5026  0.3591 -0.2833
 7932TIP3    H147991   4.377   1.178  10.893  0.8959  0.9862 -0.3560
 7932TIP3    H247992   4.335   1.278  10.999 -0.5509 -1.5446  1.5875
 7933TIP3   OH247993   0.811   3.684  10.807  0.2825 -0.0506  0.1344
 7933TIP3    H147994   0.718   3.667  10.790  0.2932  0.4501 -0.4798
 7933TIP3    H247995   0.812   3.773  10.844  0.4223 -0.4781  1.1897
 7934TIP3   OH247996   4.218   0.568   9.558  0.0134  0.4257 -0.2841
 7934TIP3    H147997   4.265   0.620   9.624 -1.6819  0.1918  1.1618
 7934TIP3    H247998   4.267   0.584   9.477  2.6878  0.0478  1.1250
 7935TIP3   OH247999   3.333   2.258  11.912  0.5286  0.3990 -0.1663
 7935TIP3    H148000   3.354   2.176  11.957  2.4630  1.2782  0.6649
 7935TIP3    H248001   3.253   2.289  11.955  0.8536 -0.1120  0.8384
 7936TIP3   OH248002   6.453   5.646  11.579  0.3826  0.8391 -0.1408
 7936TIP3    H148003   6.456   5.576  11.644  2.9032  0.1556 -0.8830
 7936TIP3    H248004   6.368   5.635  11.536  0.6668 -1.7547 -0.1955
 7937TIP3   OH248005   0.628   6.109   9.598 -0.2031 -0.5089  0.1090
 7937TIP3    H148006   0.639   6.174   9.529  1.7316 -0.0839  0.7462
 7937TIP3    H248007   0.575   6.154   9.664 -2.4250 -1.0588 -1.1898
 7938TIP3   OH248008   5.391   2.075  10.127  0.3724 -0.1216  0.7325
 7938TIP3    H148009   5.319   2.137  10.139 -0.5642 -1.0632  0.2033
 7938TIP3    H248010   5.392   2.058  10.033  0.4104 -1.1128  0.9044
 7939TIP3   OH248011   5.797   4.143   8.786 -0.3731 -0.4585  0.4676
 7939TIP3    H148012   5.839   4.214   8.834 -0.6771  0.3443 -0.4320
 7939TIP3    H248013   5.768   4.182   8.704  0.3876 -1.8518 -0.5230
 7940TIP3   OH248014   4.688   4.674  11.554  0.0308 -0.1963  0.0122
 7940TIP3    H148015   4.674   4.769  11.559  0.0109 -0.2254  0.5507
 7940TIP3    H248016   4.620   4.636  11.609  0.2400 -0.5074  0.0600
 7941TIP3   OH248017   2.170   0.977  10.735 -0.4327 -0.3285  0.0979
 7941TIP3    H148018   2.235   1.047  10.727 -1.5442  0.6221 -1.0095
 7941TIP3    H248019   2.162   0.940  10.647 -0.1496 -1.6059  0.5887
 7942TIP3   OH248020   3.673   2.350   9.906 -0.0129  0.2472 -0.0164
 7942TIP3    H148021   3.744   2.359   9.969  0.0743  0.2571 -0.1161
 7942TIP3    H248022   3.607   2.413   9.936 -0.9804 -1.3744  1.4281
 7943TIP3   OH248023   1.488   1.928   9.824  0.4164 -0.2558  0.3567
 7943TIP3    H148024   1.527   1.960   9.906 -1.8414 -0.6926  1.6953
 7943TIP3    H248025   1.517   1.837   9.817  2.9473  0.5490 -0.9311
 7944TIP3   OH248026   3.489   1.170  10.651  0.1779 -0.5024  0.1129
 7944TIP3    H148027   3.547   1.130  10.717  1.0998 -1.2296 -1.0994
 7944TIP3    H248028   3.539   1.244  10.617  1.4886 -2.4647 -2.5782
 7945TIP3   OH248029   4.149   5.029   9.748  0.1263 -0.1144  0.2827
 7945TIP3    H148030   4.180   5.036   9.658 -0.5186  0.0292  0.0655
 7945TIP3    H248031   4.083   4.960   9.746  1.6042 -1.6319  1.0790
 7946TIP3   OH248032   0.495   2.152   9.914  0.2763  0.9545 -0.5146
 7946TIP3    H148033   0.415   2.116   9.878  0.5643 -0.7915  0.4771
 7946TIP3    H248034   0.475   2.170  10.006  1.1723 -0.1723 -0.0651
 7947TIP3   OH248035   1.513   6.642  10.574  0.1532 -0.1503  0.1564
 7947TIP3    H148036   1.453   6.714  10.556 -1.9993 -2.0041 -0.4778
 7947TIP3    H248037   1.598   6.673  10.542 -1.3145  0.8865 -3.1671
 7948TIP3   OH248038   6.597   6.676  10.624  0.5411  0.0200  0.0071
 7948TIP3    H148039   6.556   6.616  10.686  0.5914  1.7478  1.7997
 7948TIP3    H248040   6.523   6.725  10.586  0.5379 -0.8093 -1.1074
 7949TIP3   OH248041   6.336   5.251  12.078 -1.0895  0.0946 -0.0946
 7949TIP3    H148042   6.381   5.244  12.162 -0.1015  0.8109 -0.5441
 7949TIP3    H248043   6.405   5.243  12.012 -1.9843 -1.5697 -0.8947
 7950TIP3   OH248044   5.161   6.276  10.429 -1.0336  0.2184 -0.1207
 7950TIP3    H148045   5.194   6.349  10.481 -0.3512  0.4600 -0.8745
 7950TIP3    H248046   5.089   6.241  10.480 -1.3274  1.3764  0.2813
 7951TIP3   OH248047   5.945   5.808   8.651 -0.5933  0.1896  0.1169
 7951TIP3    H148048   5.971   5.777   8.564 -0.5105 -2.5418  1.0028
 7951TIP3    H248049   5.850   5.814   8.648 -0.5485  0.7108 -0.3292
 7952TIP3   OH248050   4.783   1.911  10.013 -0.3152  0.4175  0.2755
 7952TIP3    H148051   4.778   1.905  10.109 -1.0717 -0.0413  0.2099
 7952TIP3    H248052   4.718   1.978   9.990  1.0537  1.7987  0.1968
 7953TIP3   OH248053   3.276   2.624  11.840 -0.5740  0.1736  0.0768
 7953TIP3    H148054   3.204   2.577  11.881 -0.7748  0.1350 -0.3198
 7953TIP3    H248055   3.355   2.589  11.883 -0.8941  2.0086  2.3469
 7954TIP3   OH248056   4.994   6.131  10.615 -0.5686  0.4132 -0.2012
 7954TIP3    H148057   4.969   6.100  10.527  1.5514  0.8630 -1.0213
 7954TIP3    H248058   5.064   6.072  10.642  0.0217  1.3704  0.4127
 7955TIP3   OH248059   3.432   5.242   8.948 -0.2753 -0.0928  0.7486
 7955TIP3    H148060   3.497   5.242   9.018  0.6542 -1.5751 -0.0613
 7955TIP3    H248061   3.476   5.284   8.874  0.1532 -1.9284 -0.0935
 7956TIP3   OH248062   4.458   1.782  10.161  0.1025  0.0644  0.2992
 7956TIP3    H148063   4.421   1.754  10.245 -0.6961 -0.8648 -0.3581
 7956TIP3    H248064   4.553   1.777  10.175 -0.0129  0.0246  1.1738
 7957TIP3   OH248065   0.669   2.615  11.025  0.1966 -0.0448  0.4470
 7957TIP3    H148066   0.725   2.600  10.949  0.2436 -1.3544  0.7108
 7957TIP3    H248067   0.583   2.582  10.999  0.4059 -1.2587  1.2127
 7958TIP3   OH248068   1.202   2.169  11.075 -0.0934 -0.3749  0.0257
 7958TIP3    H148069   1.186   2.076  11.088 -0.0525 -0.0779  2.7863
 7958TIP3    H248070   1.290   2.184  11.110 -0.2596  0.7560 -0.0054
 7959TIP3   OH248071   4.890   3.866   8.390  0.1089 -0.4208  0.0203
 7959TIP3    H148072   4.950   3.824   8.451 -0.4703  1.2119  1.8146
 7959TIP3    H248073   4.928   3.953   8.374 -1.3710  0.3773  0.6507
 7960TIP3   OH248074   2.227   2.810  11.752  0.0770  0.1775 -0.4660
 7960TIP3    H148075   2.203   2.739  11.813  0.4721 -0.7294 -1.3405
 7960TIP3    H248076   2.158   2.809  11.686 -0.3755  1.1942 -0.0265
 7961TIP3   OH248077   5.344   0.641   8.708  0.0408 -0.0117 -0.2819
 7961TIP3    H148078   5.259   0.669   8.740 -1.4131 -2.7307 -1.4382
 7961TIP3    H248079   5.351   0.681   8.621  0.1750  0.5560 -0.0181
 7962TIP3   OH248080   0.799   4.066  10.444 -0.0721  0.1239 -0.1569
 7962TIP3    H148081   0.860   4.081  10.516  0.3077  0.6619 -0.5859
 7962TIP3    H248082   0.745   3.992  10.473  0.1449  0.2703  0.6299
 7963TIP3   OH248083   1.156   0.317   9.114  0.2940  0.1146 -0.0553
 7963TIP3    H148084   1.186   0.285   9.029  0.1644  1.7532 -0.7541
 7963TIP3    H248085   1.169   0.243   9.173  0.7089 -0.9521 -1.4188
 7964TIP3   OH248086   2.871   5.779   9.338  0.0870  0.0605 -0.3892
 7964TIP3    H148087   2.915   5.696   9.357 -1.1707 -1.0257 -1.8828
 7964TIP3    H248088   2.800   5.783   9.402 -0.3586 -0.4570 -0.8407
 7965TIP3   OH248089   4.370   6.498  11.816  0.0552  0.1323 -0.2201
 7965TIP3    H148090   4.309   6.431  11.848  2.0907 -1.4433  0.6420
 7965TIP3    H248091   4.341   6.579  11.856 -0.9246 -0.7448  0.9012
 7966TIP3   OH248092   2.568   5.492   9.451 -0.5561  0.2348  0.4281
 7966TIP3    H148093   2.602   5.582   9.452  1.1849 -0.3665 -0.0509
 7966TIP3    H248094   2.474   5.502   9.435 -0.3767  1.9592  0.2210
 7967TIP3   OH248095   3.301   2.508  10.853 -0.0616 -0.0733 -0.3882
 7967TIP3    H148096   3.207   2.523  10.865  0.0147  0.2351 -0.1391
 7967TIP3    H248097   3.339   2.596  10.859  0.0667  0.0321 -2.2539
 7968TIP3   OH248098   2.582   5.904   9.148 -0.9103  0.4082 -0.3771
 7968TIP3    H148099   2.666   5.951   9.149  0.6802 -2.2192  0.1792
 7968TIP3    H248100   2.579   5.864   9.061  0.1613 -2.2106  0.6716
 7969TIP3   OH248101   3.793   2.526   9.598 -0.2591  0.4870  0.0297
 7969TIP3    H148102   3.795   2.442   9.643 -0.9878  0.7733  0.6120
 7969TIP3    H248103   3.733   2.513   9.525 -1.3348  0.8249  0.8222
 7970TIP3   OH248104   0.632   4.192   9.165  0.6694 -0.7542 -0.1246
 7970TIP3    H148105   0.723   4.208   9.141  1.1687 -1.4772  1.2387
 7970TIP3    H248106   0.606   4.117   9.112  0.2434  0.5951 -1.9235
 7971TIP3   OH248107   2.973   0.198   9.596  0.1443  0.1900 -0.3664
 7971TIP3    H148108   2.895   0.181   9.543 -0.2194  0.9103 -0.0911
 7971TIP3    H248109   3.045   0.203   9.533 -0.0387 -0.4548 -0.6267
 7972TIP3   OH248110   1.347   0.162  10.109 -0.1384  0.0476 -0.2858
 7972TIP3    H148111   1.365   0.081  10.156 -2.8529  0.8860  2.5532
 7972TIP3    H248112   1.252   0.173  10.116 -0.0845  2.6096 -2.1120
 7973TIP3   OH248113   4.850   2.918  11.860  0.0913  0.1136  0.5034
 7973TIP3    H148114   4.807   2.933  11.944 -2.6709 -0.0466 -0.7820
 7973TIP3    H248115   4.851   2.823  11.849  0.9940  0.1033  0.5924
 7974TIP3   OH248116   0.944   4.701   9.873  0.2959 -0.1038  0.3482
 7974TIP3    H148117   1.033   4.732   9.860 -0.1077  0.9536 -0.0704
 7974TIP3    H248118   0.890   4.763   9.823 -0.5090 -1.9728 -1.2284
 7975TIP3   OH248119   4.284   0.544  10.969 -0.1600 -0.0347 -0.3824
 7975TIP3    H148120   4.323   0.617  10.920 -2.4374  1.5135 -0.0373
 7975TIP3    H248121   4.203   0.525  10.923 -1.6451  0.4834  1.8462
 7976TIP3   OH248122   5.009   2.189   8.843 -0.1323 -0.1549 -0.7825
 7976TIP3    H148123   5.016   2.229   8.756  2.5376  0.2057 -0.4672
 7976TIP3    H248124   4.933   2.233   8.882 -0.7017  0.4972 -2.4836
 7977TIP3   OH248125   3.622   5.980  12.300 -0.2674  0.0991 -0.5090
 7977TIP3    H148126   3.549   6.034  12.331 -0.7258 -1.0304  0.4309
 7977TIP3    H248127   3.621   5.991  12.205  0.0655  2.2420 -0.3214
 7978TIP3   OH248128   2.716   1.029   9.104 -0.0924 -0.1679 -0.4176
 7978TIP3    H148129   2.735   1.074   9.021 -1.3578  0.7605 -0.2324
 7978TIP3    H248130   2.689   1.099   9.163 -1.7478 -1.1126  0.0023
 7979TIP3   OH248131   3.597   3.778   8.593 -0.6819 -0.0885  0.3876
 7979TIP3    H148132   3.550   3.861   8.605  0.3192  0.5494  0.0407
 7979TIP3    H248133   3.638   3.786   8.507 -0.2892 -0.8048  0.5014
 7980TIP3   OH248134   1.244   4.105  10.430  0.1596  0.7280 -0.0724
 7980TIP3    H148135   1.212   4.159  10.358  0.5528  1.0794  0.0142
 7980TIP3    H248136   1.288   4.031  10.387 -0.4581  0.4200 -0.1912
 7981TIP3   OH248137   5.927   2.632  11.106 -0.4254  0.5765  0.2037
 7981TIP3    H148138   5.926   2.689  11.183  1.2195 -0.9937  1.4854
 7981TIP3    H248139   5.882   2.552  11.134 -0.4012  0.2376 -0.6762
 7982TIP3   OH248140   3.628   0.676  10.121 -0.0016  0.2042 -0.8116
 7982TIP3    H148141   3.674   0.739  10.066  1.0828  1.2635  1.2174
 7982TIP3    H248142   3.690   0.604  10.133 -0.0947  0.1519 -0.6426
 7983TIP3   OH248143   2.349   4.554   9.837  0.5999  0.0929 -0.5414
 7983TIP3    H148144   2.397   4.507   9.769 -2.0826 -1.0456 -1.8092
 7983TIP3    H248145   2.334   4.641   9.800  2.5277  0.8579  0.3364
 7984TIP3   OH248146   5.727   4.549  11.987 -0.0518 -0.0322 -0.1886
 7984TIP3    H148147   5.753   4.475  12.042 -0.4708  0.9857  1.4518
 7984TIP3    H248148   5.806   4.573  11.939  1.3436  1.1092  2.4608
 7985TIP3   OH248149   4.981   0.499   9.848 -0.7252  0.1458  0.5024
 7985TIP3    H148150   4.966   0.511   9.942 -0.9370 -0.1645  0.5102
 7985TIP3    H248151   4.956   0.408   9.831  0.9388 -0.3210  0.4539
 7986TIP3   OH248152   4.563   0.490   9.143  0.0818 -0.3054  0.3772
 7986TIP3    H148153   4.621   0.531   9.078  1.3871 -1.7376  0.5903
 7986TIP3    H248154   4.529   0.413   9.099 -1.2405  0.2130  0.4624
 7987TIP3   OH248155   4.000   4.581   8.372 -0.0672  0.1502  0.1033
 7987TIP3    H148156   3.999   4.492   8.405  1.3162  0.4558  1.0856
 7987TIP3    H248157   4.077   4.585   8.315  0.3867  0.9397  0.7571
 7988TIP3   OH248158   6.142   2.039  10.230 -0.0728 -0.0993 -0.2336
 7988TIP3    H148159   6.154   2.040  10.325 -4.5028  0.2622  0.5306
 7988TIP3    H248160   6.140   2.131  10.205 -0.0067 -0.1739 -0.5145
 7989TIP3   OH248161   1.735   5.123   8.740  0.3506  0.1401  0.1896
 7989TIP3    H148162   1.692   5.137   8.656 -0.4440  0.9796  0.7229
 7989TIP3    H248163   1.668   5.141   8.805  1.3857  1.1084  1.0359
 7990TIP3   OH248164   3.191   3.575  10.787  0.1142 -0.6274 -0.5477
 7990TIP3    H148165   3.281   3.566  10.820  0.1646 -0.5244 -0.6566
 7990TIP3    H248166   3.185   3.666  10.757 -1.0378  0.3895  2.4226
 7991TIP3   OH248167   6.276   3.203  11.866 -0.0487  0.7283 -0.4319
 7991TIP3    H148168   6.343   3.248  11.814  0.2849  0.8555  0.0993
 7991TIP3    H248169   6.270   3.255  11.947 -1.1315  0.9927 -0.6679
 7992TIP3   OH248170   5.791   6.237  11.357  0.3852  0.1228 -0.0583
 7992TIP3    H148171   5.717   6.293  11.334  0.3297 -0.3968 -1.2153
 7992TIP3    H248172   5.770   6.206  11.446 -0.3396  0.6822 -0.0191
 7993TIP3   OH248173   4.669   4.690   9.090 -0.6308  0.5147 -0.1809
 7993TIP3    H148174   4.586   4.686   9.043 -0.3562  0.2726 -0.6553
 7993TIP3    H248175   4.735   4.670   9.024 -0.1321  1.4604  0.0227
 7994TIP3   OH248176   6.351   2.231   9.859  0.3835  0.2518 -0.6164
 7994TIP3    H148177   6.314   2.157   9.906  0.9698  0.3097 -0.0510
 7994TIP3    H248178   6.394   2.193   9.783 -0.4435  0.1440 -1.0395
 7995TIP3   OH248179   4.074   0.947  11.055 -0.4987  0.3564 -0.3854
 7995TIP3    H148180   4.154   0.909  11.018 -0.6398  0.0253 -0.3498
 7995TIP3    H248181   4.050   0.889  11.127 -0.3727  0.8565  0.0688
 7996TIP3   OH248182   5.339   3.015  11.224 -0.0826  0.3969 -0.6312
 7996TIP3    H148183   5.361   3.041  11.314  0.1804  0.6121 -0.7595
 7996TIP3    H248184   5.394   2.939  11.207  0.4878  0.8649 -0.9094
 7997TIP3   OH248185   2.001   4.048  10.018  0.0481 -0.0290 -0.3339
 7997TIP3    H148186   1.924   4.005   9.982 -1.3241  0.6824  1.6035
 7997TIP3    H248187   1.967   4.119  10.072  2.0597  0.4573  0.4157
 7998TIP3   OH248188   1.813   5.053  10.981 -0.0177  0.1339  0.3714
 7998TIP3    H148189   1.798   5.102  11.062 -1.3080 -0.0216  0.2538
 7998TIP3    H248190   1.785   4.964  11.001  1.0320 -0.2533  0.1754
 7999TIP3   OH248191   3.558   6.359  11.704  0.4800 -0.0142  0.1736
 7999TIP3    H148192   3.477   6.315  11.679  0.3836 -0.0812  0.5963
 7999TIP3    H248193   3.560   6.354  11.800  1.2987 -0.5888  0.1387
 8000TIP3   OH248194   0.921   1.013   9.671  0.1216 -0.3275  0.0759
 8000TIP3    H148195   0.886   0.935   9.629  1.7958 -1.0552 -0.0574
 8000TIP3    H248196   0.876   1.086   9.629 -1.2936 -1.2010  0.0283
 8001TIP3   OH248197   1.322   3.667  11.267  0.1972 -0.3006  0.5320
 8001TIP3    H148198   1.311   3.574  11.246  0.9590 -0.5113  1.0648
 8001TIP3    H248199   1.239   3.707  11.240 -0.4028 -1.2462  0.9339
 8002TIP3   OH248200   6.186   0.279   8.942  0.4056  0.1996 -0.0505
 8002TIP3    H148201   6.177   0.188   8.913  0.9083  0.2785 -0.4503
 8002TIP3    H248202   6.127   0.328   8.885 -0.3131  0.0571  0.5461
 8003TIP3   OH248203   3.583   6.286  10.703  0.4884  0.1630 -0.2907
 8003TIP3    H148204   3.599   6.296  10.797  0.1917  0.4192 -0.2678
 8003TIP3    H248205   3.586   6.192  10.688 -0.7810  0.0267  0.2056
 8004TIP3   OH248206   2.182   2.564  11.847 -0.2249  0.1220  0.0386
 8004TIP3    H148207   2.176   2.494  11.911 -1.3945 -0.7597 -0.9808
 8004TIP3    H248208   2.157   2.523  11.764 -0.3301  1.5939 -0.6926
 8005TIP3   OH248209   1.885   5.115  12.743  0.2759 -0.2706 -0.0720
 8005TIP3    H148210   1.933   5.074  12.815  0.5815  0.6394  0.2627
 8005TIP3    H248211   1.859   5.201  12.778 -0.1932 -0.1074 -0.8043
 8006TIP3   OH248212   2.947   5.431   9.579 -0.0294 -0.3178 -0.5560
 8006TIP3    H148213   2.993   5.471   9.505 -1.2955 -0.0792 -1.2528
 8006TIP3    H248214   2.876   5.381   9.538 -0.7906 -0.1443  0.5000
 8007TIP3   OH248215   5.862   3.722  10.868 -0.0741  0.3844 -1.1576
 8007TIP3    H148216   5.848   3.798  10.924  1.5076 -0.1188  0.0177
 8007TIP3    H248217   5.939   3.678  10.907 -0.5095 -1.4090 -2.2093
 8008TIP3   OH248218   0.779   4.896  10.172  0.1205 -0.3873 -0.2147
 8008TIP3    H148219   0.789   4.803  10.189  0.3262 -0.0057  2.1402
 8008TIP3    H248220   0.844   4.938  10.228  0.5123  1.1545 -1.7469
 8009TIP3   OH248221   5.667   0.891  11.300 -0.2306  0.2655  0.5346
 8009TIP3    H148222   5.679   0.879  11.394 -0.3134  0.8291  0.6221
 8009TIP3    H248223   5.749   0.928  11.269 -0.1598 -0.0316  0.3619
 8010TIP3   OH248224   5.154   1.637  10.645  0.1487  0.5902  0.3657
 8010TIP3    H148225   5.093   1.564  10.653  1.5376 -0.5420  1.0635
 8010TIP3    H248226   5.102   1.714  10.667 -0.3204 -0.6697  4.4814
 8011TIP3   OH248227   2.744   4.324   9.701  0.2070  0.4115  0.1410
 8011TIP3    H148228   2.780   4.244   9.662 -1.0670  0.1847 -0.5926
 8011TIP3    H248229   2.760   4.313   9.795 -0.7706 -1.1347  0.1568
 8012TIP3   OH248230   4.313   1.889  11.658  0.5790 -0.1845 -0.3828
 8012TIP3    H148231   4.295   1.796  11.668 -1.6794  0.0279 -1.8451
 8012TIP3    H248232   4.312   1.924  11.747  3.7839 -1.8451  0.4421
 8013TIP3   OH248233   6.647   4.749   9.689 -0.1616  0.4407 -0.1531
 8013TIP3    H148234   6.603   4.700   9.619  0.2681  0.6757 -0.5942
 8013TIP3    H248235   6.611   4.713   9.770 -0.6583  0.1562 -0.4956
 8014TIP3   OH248236   5.846   5.633  10.099  0.1097 -0.4051  0.2023
 8014TIP3    H148237   5.828   5.717  10.141  0.8854 -0.1187 -0.0089
 8014TIP3    H248238   5.792   5.633  10.020  0.7058  0.2563 -0.2210
 8015TIP3   OH248239   0.861   2.674  10.574 -0.5873 -0.0949 -0.3384
 8015TIP3    H148240   0.766   2.674  10.588 -0.8085  0.6444 -1.6615
 8015TIP3    H248241   0.877   2.752  10.520  0.6163 -0.8605 -1.1211
 8016TIP3   OH248242   1.752   0.263  10.552  0.2245  0.0116 -0.3754
 8016TIP3    H148243   1.694   0.218  10.491 -0.3281 -0.5245  0.5129
 8016TIP3    H248244   1.816   0.197  10.578 -0.5714 -0.3010  0.9124
 8017TIP3   OH248245   0.345   5.425  11.486 -0.4466  0.3270 -0.4571
 8017TIP3    H148246   0.416   5.380  11.531 -2.5891 -2.4445  0.4680
 8017TIP3    H248247   0.338   5.510  11.531  1.7860  0.4116 -0.1625
 8018TIP3   OH248248   5.104   3.287   9.826  0.4150 -0.2999 -0.1025
 8018TIP3    H148249   5.031   3.347   9.838  0.1827 -0.6902  0.4702
 8018TIP3    H248250   5.181   3.344   9.826  0.1357  0.0829 -0.4257
 8019TIP3   OH248251   5.886   5.533   9.623  0.5248  0.6346  0.3833
 8019TIP3    H148252   5.863   5.448   9.585 -0.3898  0.8360  0.4715
 8019TIP3    H248253   5.838   5.597   9.571  2.4337  1.2559 -0.7066
 8020TIP3   OH248254   4.313   1.894  11.930 -0.1002 -0.6509 -0.7208
 8020TIP3    H148255   4.384   1.931  11.982 -1.2266 -1.4521  1.4907
 8020TIP3    H248256   4.306   1.803  11.959 -1.0013 -1.0360 -2.0455
 8021TIP3   OH248257   3.925   3.090  11.237  0.0694 -0.2559  0.1232
 8021TIP3    H148258   4.015   3.067  11.217  0.6946  0.4566  1.9896
 8021TIP3    H248259   3.917   3.080  11.331 -1.6974  0.0573  0.0404
 8022TIP3   OH248260   1.684   5.440  11.613 -0.6805  0.1781  0.3917
 8022TIP3    H148261   1.672   5.515  11.672 -2.1919 -1.4099  2.2216
 8022TIP3    H248262   1.747   5.384  11.659  0.0801  0.0821 -0.7388
 8023TIP3   OH248263   1.177   3.441  10.961  0.3297 -0.2910 -0.5160
 8023TIP3    H148264   1.261   3.452  10.916  0.8827 -0.0382  0.5341
 8023TIP3    H248265   1.201   3.426  11.053 -0.7113 -1.8388 -0.4522
 8024TIP3   OH248266   4.482   2.866   8.879 -0.0480 -0.3392 -0.1345
 8024TIP3    H148267   4.534   2.917   8.940 -1.4270  0.7449  0.1952
 8024TIP3    H248268   4.440   2.799   8.934 -1.1723  0.5432  0.1038
 8025TIP3   OH248269   5.953   2.701   8.852  0.1343 -0.4884  0.4341
 8025TIP3    H148270   5.994   2.784   8.875 -0.7363  0.2480 -0.5909
 8025TIP3    H248271   6.026   2.642   8.834  0.8145  0.8658 -1.6307
 8026TIP3   OH248272   3.487   6.355   9.533 -0.1022  0.2586  0.2493
 8026TIP3    H148273   3.460   6.370   9.442  1.6621 -1.8734 -0.7074
 8026TIP3    H248274   3.417   6.300   9.569 -0.2001  0.0600 -0.2277
 8027TIP3   OH248275   0.055   3.468  11.481 -0.1156  0.7320 -0.0955
 8027TIP3    H148276   0.071   3.548  11.530 -0.0523  1.0248 -0.5897
 8027TIP3    H248277   0.123   3.466  11.414 -0.1684  0.3107 -0.1398
 8028TIP3   OH248278   4.936   6.492   9.524 -0.1304 -0.3741  0.1269
 8028TIP3    H148279   4.948   6.538   9.607  2.3803 -0.1244 -0.3234
 8028TIP3    H248280   4.888   6.554   9.469 -0.7999 -0.0992  0.9983
 8029TIP3   OH248281   6.326   0.002   9.105 -0.1769 -0.1439 -0.5990
 8029TIP3    H148282   6.259   0.043   9.051 -0.5767  0.5704  0.4042
 8029TIP3    H248283   6.287  -0.003   9.192  0.3971 -1.4121 -0.3968
 8030TIP3   OH248284   0.613   3.346   9.658  0.2434  0.0182  0.5772
 8030TIP3    H148285   0.564   3.370   9.736 -2.3698 -0.8630 -0.6809
 8030TIP3    H248286   0.700   3.320   9.690  0.3276  2.6559  2.8057
 8031TIP3   OH248287   3.182   2.004  10.145  0.2457  0.1036  0.1701
 8031TIP3    H148288   3.172   1.982  10.053  1.3597  2.4054 -0.5859
 8031TIP3    H248289   3.146   2.092  10.152  3.5599  1.5620  1.0178
 8032TIP3   OH248290   4.412   3.195  10.370 -0.3156  0.9358  0.0043
 8032TIP3    H148291   4.363   3.115  10.392  1.4844 -0.2040  0.1085
 8032TIP3    H248292   4.346   3.256  10.338 -1.5097 -1.3926 -2.2905
 8033TIP3   OH248293   2.591   4.666  11.478  0.0769 -0.5065  0.3503
 8033TIP3    H148294   2.684   4.676  11.500  0.1208 -2.5280  1.3832
 8033TIP3    H248295   2.552   4.632  11.559 -1.3080 -0.8940 -0.4632
 8034TIP3   OH248296   0.779   1.866  10.364 -0.4353  0.4469  0.5894
 8034TIP3    H148297   0.709   1.931  10.371  0.7782  1.6687  2.2833
 8034TIP3    H248298   0.733   1.782  10.364 -2.0167  1.2409 -1.0001
 8035TIP3   OH248299   0.681   2.402  10.826  0.0105 -0.0367 -0.4066
 8035TIP3    H148300   0.618   2.331  10.813 -0.5010 -0.0555  1.8399
 8035TIP3    H248301   0.640   2.478  10.783 -0.7392 -0.4524 -0.4448
 8036TIP3   OH248302   1.570   0.944  10.440 -0.0213  0.2534  0.1303
 8036TIP3    H148303   1.512   0.868  10.440  0.6429 -0.3046  1.9523
 8036TIP3    H248304   1.657   0.906  10.429  0.1259  1.0135 -1.6759
 8037TIP3   OH248305   3.815   6.452  10.260  0.0026 -0.7017  0.1355
 8037TIP3    H148306   3.865   6.371  10.261  0.3476 -0.4949  1.6344
 8037TIP3    H248307   3.747   6.440  10.326 -0.1509  0.0966  0.1357
 8038TIP3   OH248308   2.666   3.984   9.135 -0.0320 -0.4524  0.0373
 8038TIP3    H148309   2.677   3.982   9.230 -0.3295 -0.9162  0.0712
 8038TIP3    H248310   2.625   4.069   9.117 -1.3924 -0.9710  0.5083
 8039TIP3   OH248311   0.794   2.776   9.721 -0.3385 -1.1466 -0.1384
 8039TIP3    H148312   0.731   2.761   9.650 -0.0371  2.0746 -1.2478
 8039TIP3    H248313   0.863   2.712   9.706 -0.6473 -1.0463 -2.3548
 8040TIP3   OH248314   5.315   3.501   8.673 -0.1686  0.5030  0.5717
 8040TIP3    H148315   5.404   3.537   8.667 -0.2640  0.5374 -1.2484
 8040TIP3    H248316   5.283   3.529   8.759  1.2510  1.2472  0.8903
 8041TIP3   OH248317   1.118   2.177  10.655 -0.0180  0.1375  0.3963
 8041TIP3    H148318   1.038   2.216  10.688 -0.5440  0.0137 -0.6861
 8041TIP3    H248319   1.097   2.084  10.644  0.3160  0.0790  0.2231
 8042TIP3   OH248320   3.501   4.070  10.330 -0.2047  0.5794 -0.0783
 8042TIP3    H148321   3.421   4.088  10.280 -0.3275 -0.5495 -0.3354
 8042TIP3    H248322   3.572   4.090  10.269 -0.3375 -3.1579 -1.8047
 8043TIP3   OH248323   3.395   6.002  10.284 -0.6975 -0.4696 -0.5537
 8043TIP3    H148324   3.408   5.988  10.190  1.7068 -2.6409  0.0044
 8043TIP3    H248325   3.466   6.061  10.309 -0.7415 -0.6805  0.0769
 8044TIP3   OH248326   1.690   5.393   9.069 -0.7925 -0.0153  0.3415
 8044TIP3    H148327   1.623   5.326   9.087  1.1976 -1.6146  2.4895
 8044TIP3    H248328   1.728   5.367   8.985 -1.2641 -0.5152  0.2737
 8045TIP3   OH248329   0.044   2.697  10.349  0.1157  0.5659 -0.4045
 8045TIP3    H148330   0.129   2.693  10.392 -0.0633 -1.8409 -0.1381
 8045TIP3    H248331   0.044   2.624  10.288 -2.1359 -0.2336  0.4153
 8046TIP3   OH248332   5.845   0.068   9.927  0.2597  0.1024  0.0773
 8046TIP3    H148333   5.920   0.121   9.899  0.8750 -0.7483  0.0612
 8046TIP3    H248334   5.873  -0.022   9.913 -0.7294 -0.2368  0.1970
 8047TIP3   OH248335   5.598   5.626  11.384 -0.1183 -0.0499  0.5383
 8047TIP3    H148336   5.653   5.618  11.306 -1.9544  0.7352 -0.9371
 8047TIP3    H248337   5.593   5.538  11.420 -0.1840 -0.6839 -0.9631
 8048TIP3   OH248338   1.940   2.551   9.585  0.0816 -0.5568  0.3296
 8048TIP3    H148339   1.919   2.607   9.510  0.1244 -1.5847 -0.4668
 8048TIP3    H248340   2.030   2.574   9.608 -0.3560  0.6837  0.9176
 8049TIP3   OH248341   2.929   4.178   9.864 -0.1899  0.0526  0.5583
 8049TIP3    H148342   2.907   4.086   9.851  1.7740 -0.4967  0.7362
 8049TIP3    H248343   2.990   4.198   9.793 -2.5059  2.0044 -1.0299
 8050TIP3   OH248344   6.489   1.562  10.262  0.4312 -0.4381 -0.2795
 8050TIP3    H148345   6.562   1.624  10.262 -0.3156  0.4630 -0.3753
 8050TIP3    H248346   6.527   1.480  10.231  1.2107  0.2508 -1.2115
 8051TIP3   OH248347   0.395   5.471  10.776 -0.1499 -0.3827  0.0725
 8051TIP3    H148348   0.308   5.472  10.737 -0.7154  0.0196  1.3071
 8051TIP3    H248349   0.430   5.385  10.754 -1.9084 -1.6167  1.7866
 8052TIP3   OH248350   1.748   6.097  11.566 -0.2528  0.5082  0.1476
 8052TIP3    H148351   1.780   6.102  11.475 -1.6366 -0.1993 -0.4067
 8052TIP3    H248352   1.711   6.009  11.573 -1.1574  0.9462  1.0659
 8053TIP3   OH248353   2.851   2.075   9.788  0.1636  0.2313 -0.1918
 8053TIP3    H148354   2.756   2.081   9.797  0.2249 -0.6666  1.5775
 8053TIP3    H248355   2.871   1.983   9.807  1.4677  0.6505  0.5722
 8054TIP3   OH248356   4.963   4.117   8.770  0.2272 -0.4601 -0.1585
 8054TIP3    H148357   5.046   4.071   8.776  0.0254 -0.7886  0.1488
 8054TIP3    H248358   4.986   4.204   8.737  0.3120 -1.6100 -3.4688
 8055TIP3   OH248359   3.806   6.605  11.949 -0.1703 -0.1715  0.4930
 8055TIP3    H148360   3.799   6.570  11.861 -1.0129  2.4654 -0.6032
 8055TIP3    H248361   3.900   6.615  11.964 -0.0348  0.1665 -0.4956
 8056TIP3   OH248362   1.542   5.875  10.756 -0.1018  0.3618  0.4273
 8056TIP3    H148363   1.535   5.802  10.695 -1.0792 -0.5678  1.6180
 8056TIP3    H248364   1.460   5.873  10.806  0.6998  1.0467  1.8273
 8057TIP3   OH248365   5.525   4.977  10.651  0.3500 -0.5915  0.1785
 8057TIP3    H148366   5.533   5.005  10.560  1.8722 -2.0047 -0.1766
 8057TIP3    H248367   5.433   4.992  10.673  0.1535  0.6215 -1.2873
 8058TIP3   OH248368   4.275   0.872  10.874 -0.3278 -0.3929  0.3081
 8058TIP3    H148369   4.257   0.797  10.817  0.9664 -0.8288  0.4478
 8058TIP3    H248370   4.215   0.940  10.842  1.5770  0.0189 -2.8529
 8059TIP3   OH248371   2.269   5.047  10.362 -0.1658 -0.0083  0.1475
 8059TIP3    H148372   2.363   5.038  10.375 -0.1837  0.7653  0.9302
 8059TIP3    H248373   2.260   5.081  10.272  0.2770 -0.3714 -0.0366
 8060TIP3   OH248374   6.223   5.034  10.561 -0.8960  0.1003  0.1766
 8060TIP3    H148375   6.152   5.092  10.588 -1.6429 -0.7168  0.0242
 8060TIP3    H248376   6.224   5.040  10.465 -0.4304  0.4930  0.2068
 8061TIP3   OH248377   2.268   4.484  10.183  0.2666  0.0221 -0.6209
 8061TIP3    H148378   2.273   4.400  10.137  0.6218  0.0086 -0.5610
 8061TIP3    H248379   2.349   4.529  10.159  0.1610  0.2753 -0.5075
 8062TIP3   OH248380   3.403   1.047  11.548 -0.2726  0.5036  0.3439
 8062TIP3    H148381   3.398   1.036  11.643 -2.0208  0.5529  0.2862
 8062TIP3    H248382   3.392   1.141  11.534  0.0845  0.5089  0.0959
 8063TIP3   OH248383   1.544   3.133   9.336  0.3201 -0.0709 -0.9576
 8063TIP3    H148384   1.485   3.090   9.398  0.5665  1.3944  0.3707
 8063TIP3    H248385   1.594   3.062   9.297 -1.6858 -1.2691 -1.4722
 8064TIP3   OH248386   4.217   5.064  10.883 -0.6686  0.1840 -0.1285
 8064TIP3    H148387   4.179   5.118  10.813 -1.2616  0.3434  0.3094
 8064TIP3    H248388   4.253   4.987  10.838 -0.6974  0.4713 -0.6459
 8065TIP3   OH248389   4.140   4.093  12.661  0.3814  0.2779 -0.0788
 8065TIP3    H148390   4.162   4.106  12.568 -1.3942  0.9811 -0.4419
 8065TIP3    H248391   4.113   4.001  12.666  1.0983  0.0634 -0.1220
 8066TIP3   OH248392   3.822   3.376  11.503 -0.2632  0.2366  0.4910
 8066TIP3    H148393   3.813   3.282  11.516 -0.0897  0.4207  2.1861
 8066TIP3    H248394   3.784   3.416  11.581  2.1662  1.4545  1.1693
 8067TIP3   OH248395   4.877   5.954   9.221 -0.0661  0.0216 -0.1221
 8067TIP3    H148396   4.834   6.010   9.156 -0.2570 -0.3848 -0.3505
 8067TIP3    H248397   4.875   6.006   9.302  0.9703  0.8901 -0.6322
 8068TIP3   OH248398   0.971   1.930  10.125  0.2916  0.6471 -0.6105
 8068TIP3    H148399   1.022   2.002  10.162 -0.3888  0.6974  0.2656
 8068TIP3    H248400   0.897   1.921  10.185  0.2977 -0.6943 -0.7865
 8069TIP3   OH248401   0.692   1.590  11.384 -0.4507 -0.0985 -0.0107
 8069TIP3    H148402   0.632   1.528  11.342 -3.1577  0.2862  2.9448
 8069TIP3    H248403   0.779   1.552  11.369 -1.5761 -2.0704 -2.3043
 8070TIP3   OH248404   1.831   4.405   9.603  0.0720 -0.0321  0.6183
 8070TIP3    H148405   1.879   4.473   9.648 -0.2461  0.8148 -0.2918
 8070TIP3    H248406   1.746   4.401   9.648 -0.4137  1.1223 -0.1550
 8071TIP3   OH248407   5.030   4.419   9.220  0.1548 -0.0950 -0.1585
 8071TIP3    H148408   4.963   4.380   9.276 -1.4152  3.4151  0.6854
 8071TIP3    H248409   4.992   4.418   9.132  0.0752 -0.2798 -0.1231
 8072TIP3   OH248410   2.825   4.027   9.378  0.3275 -0.2816  0.4316
 8072TIP3    H148411   2.913   4.000   9.406  0.7448  0.1882 -0.3932
 8072TIP3    H248412   2.782   4.055   9.459  1.2611  0.3585  0.7354
 8073TIP3   OH248413   1.435   5.115   8.827  0.1864  0.6192  0.2648
 8073TIP3    H148414   1.340   5.098   8.823  0.4517 -1.0276  0.4862
 8073TIP3    H248415   1.474   5.045   8.774  1.3989  0.1670  1.7075
 8074TIP3   OH248416   5.101   6.046   8.599  0.0351 -0.0129 -0.2328
 8074TIP3    H148417   5.108   6.008   8.511  2.2542 -2.0212  0.6886
 8074TIP3    H248418   5.070   5.973   8.653  0.2931  0.7167  0.9210
 8075TIP3   OH248419   2.752   0.869   9.361  0.1038  0.2294  0.7634
 8075TIP3    H148420   2.702   0.949   9.378  0.7024  0.7854  0.0162
 8075TIP3    H248421   2.779   0.878   9.269  1.1938 -0.2584  1.0256
 8076TIP3   OH248422   3.248   0.627  10.595  0.4528 -0.2036  0.0254
 8076TIP3    H148423   3.339   0.655  10.599  0.3227  0.2672 -0.2740
 8076TIP3    H248424   3.221   0.620  10.687 -0.2801  3.1925  0.1791
 8077TIP3   OH248425   5.249   2.848   9.966  0.3561 -0.1386  0.1724
 8077TIP3    H148426   5.314   2.806  10.022  0.6120  1.8953  1.5129
 8077TIP3    H248427   5.283   2.936   9.952 -1.1956  0.3601 -0.6994
 8078TIP3   OH248428   2.904   5.582  11.902 -0.5752 -0.0231  0.1951
 8078TIP3    H148429   2.899   5.669  11.941 -0.7490 -0.4019  1.0491
 8078TIP3    H248430   2.816   5.546  11.912 -0.1561 -0.8364  1.1629
 8079TIP3   OH248431   3.016   1.515   9.943  0.5192 -0.2439  0.1727
 8079TIP3    H148432   3.108   1.540   9.950  0.5089  0.1697 -0.9711
 8079TIP3    H248433   3.010   1.430   9.986  1.6544 -0.7834 -0.6981
 8080TIP3   OH248434   6.171   1.434   9.295 -0.0843 -0.3676  0.0062
 8080TIP3    H148435   6.114   1.480   9.233 -0.7024 -1.0914  0.0388
 8080TIP3    H248436   6.114   1.410   9.368  0.1178 -1.6315 -0.2385
 8081TIP3   OH248437   3.011   6.051  11.437  0.4381  0.0586  0.2653
 8081TIP3    H148438   2.949   5.984  11.407 -2.9647  2.9206  0.2776
 8081TIP3    H248439   2.994   6.126  11.380  1.9641  1.9066  2.0976
 8082TIP3   OH248440   6.391   4.372   9.734  0.1902  0.0143 -0.3576
 8082TIP3    H148441   6.313   4.393   9.784  0.1067  0.2287 -0.5769
 8082TIP3    H248442   6.380   4.280   9.708 -1.3423  0.7900 -2.7876
 8083TIP3   OH248443   5.983   5.450   8.599  0.3735 -0.0056  0.3134
 8083TIP3    H148444   5.945   5.374   8.644 -0.2474  1.0459  1.6558
 8083TIP3    H248445   6.032   5.496   8.668 -1.8478  2.4888  0.3778
 8084TIP3   OH248446   6.295   6.118   9.875  0.3335  0.1744 -0.0464
 8084TIP3    H148447   6.214   6.086   9.837  1.2042  1.3008 -3.1900
 8084TIP3    H248448   6.277   6.210   9.896  1.3587  1.2879 -3.3270
 8085TIP3   OH248449   0.024   3.098  10.788 -0.2529  0.1164  0.0373
 8085TIP3    H148450   0.030   3.012  10.746  0.5746  0.4388 -0.5311
 8085TIP3    H248451   0.068   3.158  10.727  2.1399  0.4069  1.8741
 8086TIP3   OH248452   6.299   2.250   9.457  0.0674  0.3778  0.1227
 8086TIP3    H148453   6.373   2.262   9.515  1.1425  0.0014 -1.1313
 8086TIP3    H248454   6.317   2.307   9.383 -0.7847  0.1171 -0.2998
 8087TIP3   OH248455   5.240   1.159  10.705 -0.4297  0.3650 -0.3788
 8087TIP3    H148456   5.245   1.102  10.782  0.5584  0.1079 -0.6154
 8087TIP3    H248457   5.330   1.163  10.673 -0.9089  0.0652 -1.8235
 8088TIP3   OH248458   3.796   6.036  10.894  0.1176 -0.0730 -0.1115
 8088TIP3    H148459   3.764   5.954  10.855  1.4993 -0.1760 -1.1130
 8088TIP3    H248460   3.718   6.089  10.905 -0.4620 -0.3680 -2.3373
 8089TIP3   OH248461   0.118   2.479  10.642 -0.2842 -0.2141 -0.3517
 8089TIP3    H148462   0.104   2.458  10.550 -1.6110 -2.0840  0.2172
 8089TIP3    H248463   0.175   2.556  10.641 -0.6382  0.0881 -2.7243
 8090TIP3   OH248464   5.522   2.290   9.030  0.2522 -0.6151  0.2675
 8090TIP3    H148465   5.439   2.263   8.990  1.2063  0.2162 -2.5131
 8090TIP3    H248466   5.500   2.370   9.078 -0.4292  0.1295 -1.2167
 8091TIP3   OH248467   6.354   6.334  11.699  0.0365 -0.2546 -0.4223
 8091TIP3    H148468   6.395   6.263  11.651 -2.2041 -0.7044 -1.8489
 8091TIP3    H248469   6.348   6.406  11.636  0.6526  0.5920  0.4504
 8092TIP3   OH248470   5.514   1.478   9.927 -0.7199 -0.2239 -0.1790
 8092TIP3    H148471   5.540   1.550   9.985 -0.9105  0.6058 -1.0930
 8092TIP3    H248472   5.425   1.456   9.954 -0.4599 -0.5024  0.4696
 8093TIP3   OH248473   2.506   6.065   9.887  1.2034 -0.1801 -0.4447
 8093TIP3    H148474   2.536   6.156   9.876  1.5724 -0.1587  0.6518
 8093TIP3    H248475   2.423   6.062   9.840 -0.1176  1.4443  1.6536
 8094TIP3   OH248476   6.384   4.692   9.816 -0.3450  0.2106  0.0444
 8094TIP3    H148477   6.341   4.668   9.734 -1.2889  1.8090  0.0300
 8094TIP3    H248478   6.352   4.628   9.879 -1.2192  0.1798 -0.4064
 8095TIP3   OH248479   6.433   3.842  10.011  0.1202 -0.1616 -0.0324
 8095TIP3    H148480   6.398   3.879  10.092 -0.1584 -0.9639  0.2128
 8095TIP3    H248481   6.384   3.761   9.997  0.6031 -0.3556 -0.6661
 8096TIP3   OH248482   6.094   6.012   8.743 -0.3203 -0.3933  0.3707
 8096TIP3    H148483   6.039   5.950   8.695 -0.7089  0.1852  0.0567
 8096TIP3    H248484   6.163   6.035   8.681 -0.7210  0.2175  0.1448
 8097TIP3   OH248485   0.781   5.589   9.710  0.2507  0.4079  0.6877
 8097TIP3    H148486   0.859   5.633   9.676 -0.4344  1.5487  0.5073
 8097TIP3    H248487   0.743   5.653   9.771 -0.3252 -0.2959  1.0873
 8098TIP3   OH248488   6.406   2.769  11.593 -0.7185 -0.0600 -0.5997
 8098TIP3    H148489   6.427   2.819  11.515 -1.3566  1.6501  0.2728
 8098TIP3    H248490   6.323   2.725  11.572  0.5086 -1.9108 -1.8480
 8099TIP3   OH248491   6.266   2.661  10.079 -0.0347  0.0023  0.2300
 8099TIP3    H148492   6.261   2.675  10.173 -0.7404 -0.1692  0.2215
 8099TIP3    H248493   6.194   2.601  10.059 -0.8429  1.2039 -0.6223
 8100TIP3   OH248494   5.721   5.173  11.514 -0.1882  0.1162 -0.6092
 8100TIP3    H148495   5.717   5.241  11.445  0.9851 -0.1942 -1.0011
 8100TIP3    H248496   5.681   5.096  11.473  0.2974  0.0001 -0.8807
 8101TIP3   OH248497   0.345   3.345  12.212 -0.1767  0.3990  0.3374
 8101TIP3    H148498   0.412   3.404  12.178  0.5515 -0.6895 -0.1402
 8101TIP3    H248499   0.304   3.307  12.134  1.5028 -2.1150  0.5856
 8102TIP3   OH248500   1.339   2.728  12.114  0.0092  0.0667  0.8932
 8102TIP3    H148501   1.340   2.753  12.207 -0.5308  0.8457  0.6912
 8102TIP3    H248502   1.256   2.761  12.081 -0.1373 -0.8482  0.2961
 8103TIP3   OH248503   6.492   2.754  10.705  0.0023  0.6697 -0.2522
 8103TIP3    H148504   6.443   2.808  10.642 -0.9174 -1.4377 -1.4439
 8103TIP3    H248505   6.583   2.777  10.689 -0.3157  1.3858 -1.1994
 8104TIP3   OH248506   1.684   0.860  11.425  0.1329 -0.3955 -0.4611
 8104TIP3    H148507   1.764   0.819  11.457 -0.0914 -0.8985 -0.5399
 8104TIP3    H248508   1.616   0.831  11.486  0.2505  1.1923  0.4674
 8105TIP3   OH248509   2.986   4.112  11.176  0.1164 -0.0171  0.0503
 8105TIP3    H148510   2.996   4.084  11.267  2.1225  2.3704  0.6605
 8105TIP3    H248511   2.910   4.062  11.144 -1.8781  0.4109  3.5653
 8106TIP3   OH248512   4.064   5.383  10.297 -0.2136 -0.2672  0.3200
 8106TIP3    H148513   4.012   5.307  10.270 -1.8803  0.9091  0.0608
 8106TIP3    H248514   4.121   5.401  10.223  1.2272 -2.0883  0.9282
 8107TIP3   OH248515   1.628   2.698  12.009 -0.3562 -0.1981  0.2080
 8107TIP3    H148516   1.562   2.706  12.078 -0.6179 -0.0962 -0.0530
 8107TIP3    H248517   1.605   2.617  11.963 -0.1274 -0.3150  0.2978
 8108TIP3   OH248518   5.031   3.902  11.368 -0.1082 -0.4035  0.1073
 8108TIP3    H148519   4.991   3.955  11.300 -0.1186  0.9209  1.1165
 8108TIP3    H248520   4.965   3.897  11.438 -0.2474 -2.0593 -0.1066
 8109TIP3   OH248521   3.254   0.026   9.672 -0.1619 -0.1175 -0.2244
 8109TIP3    H148522   3.170  -0.017   9.688  0.3750 -0.9959  0.3094
 8109TIP3    H248523   3.256   0.039   9.577 -0.2182 -1.5731 -0.4510
 8110TIP3   OH248524   3.376   0.814   9.016 -1.0249 -0.0153 -0.0197
 8110TIP3    H148525   3.328   0.871   9.076  0.1295  0.4478  0.4914
 8110TIP3    H248526   3.425   0.874   8.960 -0.9449 -0.4820 -0.4570
 8111TIP3   OH248527   5.586   3.672   9.086  0.4254 -0.2539  0.5023
 8111TIP3    H148528   5.512   3.697   9.140 -1.5515  0.2596 -2.2168
 8111TIP3    H248529   5.650   3.743   9.096  0.3009 -0.3707  2.3630
 8112TIP3   OH248530   2.305   5.590  10.076  0.0009  0.4380 -0.2450
 8112TIP3    H148531   2.296   5.601  10.170 -0.5653  0.4727 -0.2952
 8112TIP3    H248532   2.275   5.674  10.039 -0.0153  0.3385 -0.4597
 8113TIP3   OH248533   1.907   5.423  11.363 -0.1615  0.1969  0.0544
 8113TIP3    H148534   1.831   5.463  11.320 -1.3747 -1.1362  0.8414
 8113TIP3    H248535   1.936   5.488  11.427  0.0747  1.1684 -1.0176
 8114TIP3   OH248536   2.385   1.028  10.040 -0.1373 -0.6742  0.5938
 8114TIP3    H148537   2.428   0.978  10.109  0.4975  1.3633  1.7752
 8114TIP3    H248538   2.426   1.115  10.045 -2.0273  0.3416 -0.4955
 8115TIP3   OH248539   2.407   1.959  11.834 -0.1458 -0.4932 -0.3983
 8115TIP3    H148540   2.455   1.884  11.798 -0.5860 -1.5326  1.0979
 8115TIP3    H248541   2.389   1.935  11.924  0.0301  1.6062  0.2502
 8116TIP3   OH248542   4.522   3.076  10.747 -0.3938  0.1601 -0.0027
 8116TIP3    H148543   4.538   3.045  10.836  1.0098  2.2481  0.5622
 8116TIP3    H248544   4.477   3.160  10.759 -2.7472 -0.7804 -1.4003
 8117TIP3   OH248545   6.480   0.720  10.489 -0.1802 -0.4533  0.2881
 8117TIP3    H148546   6.406   0.732  10.548 -0.3375 -0.3911  0.0754
 8117TIP3    H248547   6.556   0.749  10.540 -0.5073  1.1803 -0.0960
 8118TIP3   OH248548   3.998   2.675   9.739 -0.2205  0.4329 -0.2879
 8118TIP3    H148549   3.935   2.713   9.678  0.8909  2.1007 -0.4589
 8118TIP3    H248550   3.967   2.585   9.753 -1.7472  0.7255 -1.5488
 8119TIP3   OH248551   4.358   4.134   8.757  0.2731 -0.2953  0.1500
 8119TIP3    H148552   4.399   4.160   8.674 -0.5639  0.5045 -0.0311
 8119TIP3    H248553   4.281   4.190   8.764  0.6778  0.0900  1.7910
 8120TIP3   OH248554   2.690   5.884   9.802 -0.8263 -0.3996  0.8185
 8120TIP3    H148555   2.778   5.919   9.819 -0.4455 -0.9577  0.0756
 8120TIP3    H248556   2.631   5.953   9.833 -0.0959  1.3668 -1.3867
 8121TIP3   OH248557   5.361   4.391  10.592  0.2120  0.3101  0.6739
 8121TIP3    H148558   5.276   4.398  10.636 -0.1602  0.6206 -0.0631
 8121TIP3    H248559   5.384   4.299  10.598 -0.5860  0.0642  0.1548
 8122TIP3   OH248560   1.095   5.026  17.087  0.2434 -0.1133 -0.0619
 8122TIP3    H148561   1.084   4.931  17.079  1.0875 -0.3045  0.8738
 8122TIP3    H248562   1.171   5.046  17.032  0.4428 -0.0774  0.2235
 8123TIP3   OH248563   6.475   4.716  10.192  0.2034 -0.4726 -0.0287
 8123TIP3    H148564   6.396   4.672  10.224  0.6216 -0.4608  1.0382
 8123TIP3    H248565   6.541   4.647  10.186 -0.2486 -0.8070 -2.3915
 8124TIP3   OH248566   0.747   4.218  10.211  0.1905  0.5058  0.1610
 8124TIP3    H148567   0.825   4.270  10.196  1.6343 -2.0074 -1.9508
 8124TIP3    H248568   0.762   4.174  10.295  1.3204 -0.3123 -0.4481
 8125TIP3   OH248569   1.607   2.173  11.224 -0.4450 -0.2679 -0.5565
 8125TIP3    H148570   1.628   2.213  11.308  2.8520 -0.7891 -0.9718
 8125TIP3    H248571   1.537   2.227  11.188 -0.0514  1.6304  1.3343
 8126TIP3   OH248572   5.692   5.758  10.443  0.5384  0.3328 -0.0974
 8126TIP3    H148573   5.787   5.744  10.447  0.4636 -0.0284  3.3909
 8126TIP3    H248574   5.675   5.825  10.509 -1.6186  0.8532 -1.0893
 8127TIP3   OH248575   1.116   6.550   9.012 -0.2343  0.2520 -0.5678
 8127TIP3    H148576   1.068   6.469   8.996 -0.2716  0.2427 -0.4121
 8127TIP3    H248577   1.199   6.522   9.052 -1.9343  0.4400  3.6324
 8128TIP3   OH248578   1.883   1.799   9.107  0.2644  0.0357 -0.1620
 8128TIP3    H148579   1.901   1.851   9.028 -0.0093 -0.5368 -0.6079
 8128TIP3    H248580   1.934   1.842   9.176 -0.7305  1.5081 -0.2853
 8129TIP3   OH248581   2.891   0.642  11.122 -0.0643  0.3295  0.1513
 8129TIP3    H148582   2.954   0.582  11.161  2.2697  3.5048  1.6944
 8129TIP3    H248583   2.939   0.685  11.051 -1.2792  1.2268 -0.1601
 8130TIP3   OH248584   2.310   6.438   9.006 -0.0404  0.3890 -0.3644
 8130TIP3    H148585   2.326   6.345   8.992 -0.2596  0.5997 -2.1750
 8130TIP3    H248586   2.357   6.482   8.936  0.6096  1.7076  0.8561
 8131TIP3   OH248587   6.026   3.582  10.584  0.3650 -0.4078  0.1845
 8131TIP3    H148588   6.039   3.532  10.664  1.2028 -0.5857 -0.0551
 8131TIP3    H248589   6.047   3.672  10.609 -1.2538 -0.1203  0.6448
 8132TIP3   OH248590   4.535   3.697   9.330  0.3021 -0.2521 -0.5478
 8132TIP3    H148591   4.562   3.663   9.245  1.5234 -1.5175  0.2875
 8132TIP3    H248592   4.441   3.683   9.333  0.4298 -1.3868 -1.1940
 8133TIP3   OH248593   1.819   3.885   8.668 -0.5472 -0.2018  0.2246
 8133TIP3    H148594   1.880   3.820   8.703 -1.6450 -1.1468  0.4496
 8133TIP3    H248595   1.835   3.884   8.573 -0.8001 -1.0897  0.1771
 8134TIP3   OH248596   3.609   5.041  19.433  0.0061 -0.2057  0.3771
 8134TIP3    H148597   3.695   5.021  19.397 -0.7806 -0.4933 -1.4430
 8134TIP3    H248598   3.626   5.106  19.501  1.8252 -1.5429  1.2853
 8135TIP3   OH248599   5.814   2.241  10.216 -0.1882  0.0362  0.5418
 8135TIP3    H148600   5.902   2.263  10.245  0.3174  1.4059 -1.7121
 8135TIP3    H248601   5.802   2.294  10.137 -2.3709 -1.4438 -0.2005
 8136TIP3   OH248602   0.020   0.643   9.075  0.3263  0.5963 -0.0083
 8136TIP3    H148603   0.074   0.565   9.088  1.2270  1.5032  2.1728
 8136TIP3    H248604   0.078   0.707   9.035  0.0925  0.7563 -0.0986
 8137TIP3   OH248605   4.190   5.393  10.058  0.1293 -0.0349  0.1665
 8137TIP3    H148606   4.248   5.459  10.019 -3.1975  2.4716 -0.9660
 8137TIP3    H248607   4.214   5.311  10.014  0.1356  1.6642 -3.3600
 8138TIP3   OH248608   5.390   5.207  10.232  0.4294 -0.4918  0.0399
 8138TIP3    H148609   5.445   5.265  10.180  0.1638 -0.0526  0.2516
 8138TIP3    H248610   5.343   5.264  10.292 -2.2000 -0.5397 -1.8233
 8139TIP3   OH248611   0.301   1.449   8.830 -0.0142  0.1726 -0.4772
 8139TIP3    H148612   0.266   1.469   8.917  0.2114 -2.5742  0.3114
 8139TIP3    H248613   0.380   1.502   8.824  0.0805  0.2681  1.0733
 8140TIP3   OH248614   1.862   2.639   9.133  0.2020  1.1179 -0.2335
 8140TIP3    H148615   1.772   2.610   9.120  0.4813  0.2590 -0.3401
 8140TIP3    H248616   1.868   2.656   9.227  0.3910 -0.5495  0.0987
 8141TIP3   OH248617   4.554   3.446   8.748  0.3738 -0.4444 -0.4345
 8141TIP3    H148618   4.650   3.440   8.748  0.5058  0.9488  0.8329
 8141TIP3    H248619   4.530   3.450   8.656  1.4990 -1.1631 -0.7785
 8142TIP3   OH248620   1.415   3.400   9.416  0.2509 -0.7429  0.8144
 8142TIP3    H148621   1.338   3.395   9.359  0.6616  1.0575  0.0226
 8142TIP3    H248622   1.379   3.411   9.503 -0.3860 -0.8800  0.5774
 8143TIP3   OH248623   1.473   2.986  11.976 -0.3886 -0.7281 -0.2454
 8143TIP3    H148624   1.549   2.989  11.918 -0.0173  1.2472  0.2956
 8143TIP3    H248625   1.510   2.989  12.065 -1.0785  0.6567  0.0173
 8144TIP3   OH248626   4.886   2.921  11.086  0.6441 -0.1669 -0.2845
 8144TIP3    H148627   4.961   2.912  11.028  0.5926 -2.4789 -0.0904
 8144TIP3    H248628   4.898   2.853  11.152 -1.2762 -0.1703  0.1289
 8145TIP3   OH248629   1.019   0.051   9.952 -0.1729 -0.6003  0.1577
 8145TIP3    H148630   1.046   0.084  10.037 -1.4309  2.6212 -0.5397
 8145TIP3    H248631   1.091   0.074   9.893 -1.1063  1.2729 -0.3524
 8146TIP3   OH248632   4.600   4.631  12.249  0.3705 -0.3605 -0.2847
 8146TIP3    H148633   4.606   4.607  12.341 -0.9956 -1.6369 -0.4962
 8146TIP3    H248634   4.641   4.558  12.202 -1.1072 -0.8932 -0.7942
 8147TIP3   OH248635   5.692   1.701   9.365  0.5477 -0.4209  0.2667
 8147TIP3    H148636   5.639   1.780   9.358  1.3920  0.1561  0.2894
 8147TIP3    H248637   5.629   1.632   9.388 -0.4876 -0.1326 -1.5098
 8148TIP3   OH248638   4.716   4.865  11.881 -0.4147  0.5891 -0.1006
 8148TIP3    H148639   4.668   4.845  11.962  0.6704 -0.1110  0.4138
 8148TIP3    H248640   4.808   4.854  11.906 -0.0764 -0.0666 -1.5455
 8149TIP3   OH248641   4.576   2.196  10.554  0.2423 -0.1600  0.1495
 8149TIP3    H148642   4.574   2.165  10.464  0.9291 -0.5728  0.2654
 8149TIP3    H248643   4.490   2.172  10.590 -0.7711  1.6787 -0.9050
 8150TIP3   OH248644   1.595   3.355  11.537  0.2387 -0.0829  0.6834
 8150TIP3    H148645   1.568   3.306  11.459 -1.8191  2.1415 -0.0948
 8150TIP3    H248646   1.585   3.447  11.513  0.6666  0.6968  3.2156
 8151TIP3   OH248647   3.855   5.004   8.420  0.0356 -0.2632 -0.2046
 8151TIP3    H148648   3.887   4.915   8.401 -1.0456 -0.9343  0.9261
 8151TIP3    H248649   3.928   5.047   8.463  0.5248 -0.6448 -0.6395
 8152TIP3   OH248650   4.023   3.739   9.278  0.4800 -0.1551  0.1477
 8152TIP3    H148651   4.019   3.730   9.374  2.0230 -1.0334  0.1514
 8152TIP3    H248652   4.019   3.834   9.263  0.9662  0.0335  1.1303
 8153TIP3   OH248653   5.933   5.554   9.095 -0.3414 -0.7082  0.5888
 8153TIP3    H148654   5.888   5.513   9.169 -1.4434 -0.6503 -0.0315
 8153TIP3    H248655   5.965   5.481   9.043  0.6660 -0.7499  1.2431
 8154TIP3   OH248656   6.093   1.215   9.541 -0.3135  0.3659  0.1442
 8154TIP3    H148657   6.053   1.128   9.539 -1.1399  0.7300  0.4034
 8154TIP3    H248658   6.031   1.269   9.591 -1.2266  1.8075 -2.3632
 8155TIP3   OH248659   0.121   3.866  10.067  0.3532  0.6383  0.3537
 8155TIP3    H148660   0.202   3.837  10.027  0.2676  2.2808 -1.1379
 8155TIP3    H248661   0.053   3.847  10.002 -0.5226 -0.8448  1.6359
 8156TIP3   OH248662   5.945   2.351  10.868  0.1266  0.1410 -0.2260
 8156TIP3    H148663   5.857   2.370  10.899  0.4758  0.4902  0.5580
 8156TIP3    H248664   5.964   2.264  10.903  0.5632  0.5812  0.6650
 8157TIP3   OH248665   1.656   2.311  10.854 -0.1027  0.2668  0.4754
 8157TIP3    H148666   1.600   2.382  10.823 -0.5620 -0.2990 -0.0453
 8157TIP3    H248667   1.610   2.231  10.826  0.6861 -0.2226  0.5406
 8158TIP3   OH248668   1.548   5.126  11.291 -0.0402  0.1470 -0.0829
 8158TIP3    H148669   1.459   5.090  11.296  0.3123 -0.6597  0.6302
 8158TIP3    H248670   1.604   5.050  11.278  0.8349  0.2139  2.6234
 8159TIP3   OH248671   3.446   6.326   9.253 -0.3271  0.1312 -0.0287
 8159TIP3    H148672   3.388   6.276   9.197 -1.0570 -0.1340  0.9418
 8159TIP3    H248673   3.529   6.330   9.205 -0.3293 -1.7715 -0.2627
 8160TIP3   OH248674   4.445   6.143  11.322  0.0618  0.0289  0.1506
 8160TIP3    H148675   4.501   6.187  11.386  1.3626  3.9553 -3.2082
 8160TIP3    H248676   4.498   6.070  11.289  0.8539  0.2119  0.9906
 8161TIP3   OH248677   3.862   4.098   8.935  0.0770 -0.0850 -0.2054
 8161TIP3    H148678   3.862   4.005   8.915 -1.5821 -0.4709  1.3245
 8161TIP3    H248679   3.819   4.104   9.021 -1.1568  2.2053 -0.9045
 8162TIP3   OH248680   3.473   3.237  11.399  0.5080  0.1216 -0.2976
 8162TIP3    H148681   3.501   3.261  11.311 -0.2333 -1.5498 -1.0296
 8162TIP3    H248682   3.547   3.185  11.434  0.2778 -0.2991 -0.4303
 8163TIP3   OH248683   2.523   4.669  11.995  0.5794  0.6110 -0.5848
 8163TIP3    H148684   2.479   4.733  12.051  0.3463 -1.0620  1.2641
 8163TIP3    H248685   2.613   4.668  12.026  0.4315 -0.3887 -0.1739
 8164TIP3   OH248686   3.851   1.363   9.907 -0.2905 -0.2223 -0.2818
 8164TIP3    H148687   3.833   1.275   9.941  0.7562 -0.3361  0.0128
 8164TIP3    H248688   3.799   1.421   9.963  0.7930 -0.4750  1.0419
 8165TIP3   OH248689   2.827   2.802  11.408  0.0539  0.1287 -0.0468
 8165TIP3    H148690   2.901   2.770  11.458 -1.3453 -2.4164  0.5346
 8165TIP3    H248691   2.852   2.788  11.316  1.6953  2.7060 -0.0762
 8166TIP3   OH248692   6.034   3.406   9.742 -0.0411 -0.0997  0.2869
 8166TIP3    H148693   5.971   3.334   9.739  0.1337 -0.2258 -0.9106
 8166TIP3    H248694   6.093   3.384   9.814 -2.1909  0.7636  2.4457
 8167TIP3   OH248695   1.603   5.618   8.842 -0.6703  0.1276  0.0129
 8167TIP3    H148696   1.670   5.683   8.864 -1.1582  0.7551 -0.3344
 8167TIP3    H248697   1.640   5.568   8.770  0.5505 -1.3199  1.5522
 8168TIP3   OH248698   5.490   1.642  10.166 -0.6869 -0.2992 -0.5168
 8168TIP3    H148699   5.414   1.640  10.224  0.4817  0.7936  1.1778
 8168TIP3    H248700   5.473   1.715  10.106 -0.2265  1.2109  1.0842
 8169TIP3   OH248701   5.217   5.458  10.298 -0.2738  1.0461  0.2290
 8169TIP3    H148702   5.141   5.492  10.345 -0.3424  0.9146  0.2138
 8169TIP3    H248703   5.279   5.531  10.296 -0.0386  0.8824  1.0382
 8170TIP3   OH248704   0.670   2.455   8.462  0.5051  0.3476  0.6304
 8170TIP3    H148705   0.755   2.411   8.470 -0.4784 -1.5772  1.1004
 8170TIP3    H248706   0.606   2.384   8.463 -1.2294  1.8280  1.9938
 8171TIP3   OH248707   1.988   5.879   9.400 -0.8722  0.2231 -0.1992
 8171TIP3    H148708   2.075   5.879   9.360  0.1788  0.6596  1.9372
 8171TIP3    H248709   1.981   5.794   9.443 -1.5265  0.1778 -0.3833
 8172TIP3   OH248710   4.122   1.565  11.393 -0.3461 -0.5492  0.9585
 8172TIP3    H148711   4.043   1.540  11.442 -2.0813 -1.2411 -1.9387
 8172TIP3    H248712   4.107   1.656  11.368 -1.5987 -1.4027 -1.7822
 8173TIP3   OH248713   3.685   0.838  11.644 -0.2425  0.7512 -0.2272
 8173TIP3    H148714   3.664   0.763  11.700 -0.0803  1.4496  0.7934
 8173TIP3    H248715   3.747   0.803  11.579 -0.2002 -0.0054  0.2152
 8174TIP3   OH248716   4.404   3.620  11.131 -0.2109 -0.6470 -0.4317
 8174TIP3    H148717   4.499   3.624  11.122 -0.2015 -0.0736 -0.0969
 8174TIP3    H248718   4.370   3.673  11.058 -0.2871 -1.2212 -0.8168
 8175TIP3   OH248719   3.016   3.001   9.954  0.3920 -0.1539  0.2721
 8175TIP3    H148720   3.091   3.037  10.001 -0.9307  0.0126  2.3628
 8175TIP3    H248721   2.998   2.918   9.997 -1.9624  0.8308  1.3317
 8176TIP3   OH248722   0.291   2.128   8.890 -0.0537  0.7974  0.0968
 8176TIP3    H148723   0.309   2.222   8.882 -0.8081  1.0140  0.7332
 8176TIP3    H248724   0.232   2.109   8.817  0.8668  0.5977 -0.6070
 8177TIP3   OH248725   4.985   5.914   8.827  0.1039 -0.2989  0.2483
 8177TIP3    H148726   5.006   6.007   8.838 -0.7699  0.2538 -2.1067
 8177TIP3    H248727   4.925   5.894   8.899 -2.5916  2.0174 -1.1461
 8178TIP3   OH248728   0.017   0.784  10.640  0.2831 -0.5445 -0.1707
 8178TIP3    H148729   0.085   0.828  10.589 -1.8391  0.9634 -1.9434
 8178TIP3    H248730  -0.016   0.851  10.699  0.7126 -1.4372  1.1193
 8179TIP3   OH248731   5.996   6.420  10.525 -0.1093  0.0562  0.5875
 8179TIP3    H148732   5.955   6.445  10.442 -0.7757  0.2306  0.9575
 8179TIP3    H248733   6.009   6.325  10.518  0.6090  0.2030 -0.0449
 8180TIP3   OH248734   2.452   0.823  10.216 -0.4208 -0.2562 -0.4815
 8180TIP3    H148735   2.366   0.783  10.228 -0.4238 -0.0097  0.3812
 8180TIP3    H248736   2.499   0.761  10.160 -1.0217 -0.5977 -0.6146
 8181TIP3   OH248737   4.505   3.648   9.899  0.5441 -0.3876 -0.1005
 8181TIP3    H148738   4.493   3.557   9.871 -0.5121 -0.0893 -0.6722
 8181TIP3    H248739   4.517   3.642   9.994  0.0432 -1.1012 -0.0714
 8182TIP3   OH248740   3.625   2.630   8.930  0.5864 -0.4190 -0.3329
 8182TIP3    H148741   3.621   2.670   8.843 -0.5456 -0.3220 -0.2521
 8182TIP3    H248742   3.691   2.681   8.977 -1.0663  1.6539 -0.1086
 8183TIP3   OH248743   4.023   3.492  12.466  0.1671 -0.3926  0.2148
 8183TIP3    H148744   4.107   3.455  12.438  0.4928 -0.6864  1.5207
 8183TIP3    H248745   3.961   3.420  12.454 -0.0321 -0.0306 -1.2106
 8184TIP3   OH248746   2.707   6.365  10.192  0.0297 -0.3198 -0.1737
 8184TIP3    H148747   2.699   6.455  10.222  0.2777  0.0815 -1.2774
 8184TIP3    H248748   2.617   6.331  10.196 -0.4047  0.5636 -1.4707
 8185TIP3   OH248749   3.368   0.272   9.250 -0.4152  0.3709  0.3306
 8185TIP3    H148750   3.452   0.268   9.205  0.5958  1.5971  1.9789
 8185TIP3    H248751   3.376   0.347   9.310 -4.4625  3.9931 -2.9870
 8186TIP3   OH248752   6.538   1.845   9.921 -0.1489  0.0583 -0.3533
 8186TIP3    H148753   6.487   1.829   9.841  1.2310  2.0624 -1.7484
 8186TIP3    H248754   6.473   1.865   9.988 -1.3075 -0.7303 -1.1965
 8187TIP3   OH248755   6.576   6.026  10.128 -0.4212  0.1620  0.6350
 8187TIP3    H148756   6.499   5.994  10.082  0.6618 -0.2041 -0.9939
 8187TIP3    H248757   6.586   6.117  10.097  0.2627 -0.0586  0.1817
 8188TIP3   OH248758   1.347   3.638   9.208  0.1229 -0.4150  0.0200
 8188TIP3    H148759   1.357   3.700   9.281 -0.6569  0.5565 -0.6768
 8188TIP3    H248760   1.330   3.554   9.251 -0.5015  0.1679  0.9758
 8189TIP3   OH248761   0.591   1.120   9.727 -0.5100  0.3408  0.1359
 8189TIP3    H148762   0.564   1.149   9.640 -1.0500  0.2409  0.2704
 8189TIP3    H248763   0.648   1.190   9.758 -0.8998  0.7247 -0.0016
 8190TIP3   OH248764   4.077   0.174  10.467  0.3910 -0.3452 -0.3790
 8190TIP3    H148765   4.070   0.102  10.405  1.1993 -2.4193  1.8139
 8190TIP3    H248766   4.040   0.140  10.549  0.5374  1.8221  0.6812
 8191TIP3   OH248767   3.649   4.713  10.593 -0.5387 -0.4877  0.7133
 8191TIP3    H148768   3.688   4.629  10.617 -0.2597 -0.8780 -0.9464
 8191TIP3    H248769   3.724   4.772  10.585 -0.4662 -0.7084 -0.4350
 8192TIP3   OH248770   5.722   2.443  11.449 -0.1154 -0.1380 -0.3186
 8192TIP3    H148771   5.813   2.423  11.428 -0.2567 -0.6523 -0.4565
 8192TIP3    H248772   5.688   2.363  11.488 -0.9362 -0.4873 -1.6729
 8193TIP3   OH248773   4.993   4.313  11.498  0.0808 -0.6310  0.0451
 8193TIP3    H148774   5.060   4.344  11.437  0.9850 -2.1911  0.1634
 8193TIP3    H248775   5.012   4.357  11.580  0.5668 -0.5641 -0.1015
 8194TIP3   OH248776   3.247   1.189  10.947 -0.4499  0.1135 -0.5080
 8194TIP3    H148777   3.238   1.283  10.966  1.1821  0.4124 -1.0352
 8194TIP3    H248778   3.308   1.185  10.874 -1.6259 -1.3181 -1.4744
 8195TIP3   OH248779   3.726   0.443  10.438 -0.2415 -0.3469  0.5709
 8195TIP3    H148780   3.767   0.390  10.370 -1.8246  0.8127 -1.3851
 8195TIP3    H248781   3.699   0.380  10.505  0.8572 -1.5802 -0.1070
 8196TIP3   OH248782   3.356   2.234  10.166  0.5821 -0.1509 -0.2735
 8196TIP3    H148783   3.371   2.140  10.176  1.1424 -0.1946 -1.4440
 8196TIP3    H248784   3.414   2.275  10.231 -0.3805 -0.6255  0.9244
 8197TIP3   OH248785   2.468   0.203  10.450 -0.5185  0.0609  0.0265
 8197TIP3    H148786   2.501   0.202  10.360 -1.7077 -0.8742 -0.4228
 8197TIP3    H248787   2.449   0.112  10.470  0.5625  0.1314  1.5832
 8198TIP3   OH248788   5.494   4.542   9.099  0.7761 -0.0691 -0.1206
 8198TIP3    H148789   5.427   4.525   9.033 -0.2925  0.0466  0.9239
 8198TIP3    H248790   5.470   4.627   9.136  1.6133  0.0649  0.1419
 8199TIP3   OH248791   3.775   3.402  10.132 -0.4610 -0.4952 -0.3612
 8199TIP3    H148792   3.719   3.333  10.168  0.5145 -1.2455 -0.2418
 8199TIP3    H248793   3.860   3.388  10.173  0.4881 -0.9189 -2.3592
 8200TIP3   OH248794   4.375   5.834  10.549  0.7508  0.5268  0.0100
 8200TIP3    H148795   4.436   5.868  10.483  0.4966 -1.3383 -1.2567
 8200TIP3    H248796   4.291   5.828  10.503 -0.1481  1.8871  1.3809
 8201TIP3   OH248797   2.205   5.694   8.946 -0.0055  0.0490  0.0455
 8201TIP3    H148798   2.179   5.627   8.883  0.4321 -1.4812  1.4195
 8201TIP3    H248799   2.132   5.700   9.008  1.2985 -1.7521  1.9124
 8202TIP3   OH248800   3.602   4.575   9.195 -0.0746  0.1242  0.1379
 8202TIP3    H148801   3.615   4.513   9.123  0.9699 -0.0929  0.4985
 8202TIP3    H248802   3.688   4.613   9.209 -0.0634 -0.4518  1.8300
 8203TIP3   OH248803   4.260   4.793  10.799 -0.2486  0.6980  0.1100
 8203TIP3    H148804   4.185   4.762  10.748 -1.0078 -1.3753  2.2864
 8203TIP3    H248805   4.334   4.740  10.769 -0.2343  0.9005 -0.2172
 8204TIP3   OH248806   0.801   0.757  11.609  0.1782 -0.3015 -0.2473
 8204TIP3    H148807   0.857   0.693  11.653  0.9000  0.1218 -0.5494
 8204TIP3    H248808   0.721   0.708  11.589  0.9146 -1.2614 -0.9432
 8205TIP3   OH248809   3.098   5.922  11.088 -0.3686 -0.0488 -0.2575
 8205TIP3    H148810   3.120   5.977  11.163  0.6597  0.6331 -1.0461
 8205TIP3    H248811   3.154   5.845  11.098 -0.7444 -0.2852  0.0496
 8206TIP3   OH248812   1.100   3.329   8.505  0.4368  0.0299 -0.6024
 8206TIP3    H148813   1.091   3.352   8.413 -0.0073  2.1688 -0.0723
 8206TIP3    H248814   1.015   3.350   8.544 -0.0486 -2.6571  0.0050
 8207TIP3   OH248815   3.557   3.189   9.877 -0.3444  0.6220 -0.1488
 8207TIP3    H148816   3.495   3.121   9.902 -0.4261  1.7329  3.2057
 8207TIP3    H248817   3.510   3.243   9.814 -1.8356 -0.0189  0.3766
 8208TIP3   OH248818   2.542   3.230  10.255 -0.4747  0.1927  0.4361
 8208TIP3    H148819   2.489   3.304  10.286  0.5081  0.6973  0.9623
 8208TIP3    H248820   2.632   3.254  10.277 -0.0196 -0.6600 -0.4148
 8209TIP3   OH248821   3.542   3.863  11.415  0.6918  0.1534 -0.7069
 8209TIP3    H148822   3.624   3.901  11.382  0.9382  0.5048  0.2853
 8209TIP3    H248823   3.504   3.821  11.338  0.4172  2.3597 -1.8787
 8210TIP3   OH248824   0.549   5.026   9.785  0.0720  0.2876  0.3368
 8210TIP3    H148825   0.493   4.961   9.829 -0.4460 -0.0161 -0.7421
 8210TIP3    H248826   0.584   4.979   9.709 -0.0621  1.1724 -0.2782
 8211TIP3   OH248827   2.176   2.821   9.810  0.4897  0.0475 -0.2543
 8211TIP3    H148828   2.115   2.890   9.786 -1.5313 -1.1414  1.1285
 8211TIP3    H248829   2.262   2.860   9.800 -0.3503  1.4108 -3.6139
 8212TIP3   OH248830   4.271   3.964   9.385 -0.4918 -0.7682 -0.2536
 8212TIP3    H148831   4.241   3.894   9.443  1.6566 -1.0168  0.6594
 8212TIP3    H248832   4.289   3.920   9.302 -1.7095 -0.7616 -0.5475
 8213TIP3   OH248833   3.303   5.315   8.456  0.1746 -0.3807 -0.0006
 8213TIP3    H148834   3.308   5.225   8.489  1.4357  0.5696  2.6479
 8213TIP3    H248835   3.238   5.357   8.512  0.3702  0.6491 -0.5236
 8214TIP3   OH248836   4.870   4.961   8.822 -0.1041  0.1507 -0.2655
 8214TIP3    H148837   4.785   5.005   8.826 -0.2742 -0.0303 -1.4482
 8214TIP3    H248838   4.917   4.991   8.900 -1.1852  0.3854  0.3103
 8215TIP3   OH248839   5.242   5.776  11.907  0.1842  0.2179  0.3318
 8215TIP3    H148840   5.272   5.687  11.928  0.7430  0.5693  1.0706
 8215TIP3    H248841   5.173   5.763  11.842  1.2869 -0.6799 -0.7116
 8216TIP3   OH248842   4.793   4.114  11.390 -0.2596 -0.2077 -0.1660
 8216TIP3    H148843   4.861   4.171  11.426 -1.5897  0.5390  1.2946
 8216TIP3    H248844   4.770   4.155  11.306 -1.9687  2.1875  1.3354
 8217TIP3   OH248845   4.783   3.856   9.959 -0.3949  0.0910 -0.0861
 8217TIP3    H148846   4.848   3.924   9.941 -1.1564  1.1721  1.0993
 8217TIP3    H248847   4.795   3.835  10.051 -3.2800  2.1208  0.9038
 8218TIP3   OH248848   0.931   5.517   9.403  0.2199  0.0566  0.2252
 8218TIP3    H148849   0.934   5.593   9.460 -1.0450  0.5738 -0.3601
 8218TIP3    H248850   0.944   5.552   9.315 -0.7365 -0.3242 -0.0876
 8219TIP3   OH248851   3.909   4.062   9.632 -0.1207  0.3327 -0.3370
 8219TIP3    H148852   3.992   4.051   9.679  0.0700 -0.7128 -0.8888
 8219TIP3    H248853   3.935   4.090   9.544 -0.3610  0.1199 -0.4761
 8220TIP3   OH248854   3.386   2.925   8.689 -0.1619 -0.6256 -0.1999
 8220TIP3    H148855   3.351   3.010   8.660 -0.6048 -0.7580 -0.0662
 8220TIP3    H248856   3.318   2.890   8.747  0.1240 -0.9671 -0.0683
 8221TIP3   OH248857   2.387   1.604   9.402 -0.6238 -0.2649 -0.0490
 8221TIP3    H148858   2.380   1.586   9.308  0.5367  2.6479 -0.8028
 8221TIP3    H248859   2.452   1.541   9.433  0.2775 -0.1581 -1.5896
 8222TIP3   OH248860   6.592   2.557  11.764 -0.6063  0.0694  0.2173
 8222TIP3    H148861   6.579   2.516  11.849 -1.6915 -0.1316 -0.0306
 8222TIP3    H248862   6.565   2.491  11.700 -0.3684  0.4278 -0.2627
 8223TIP3   OH248863   1.972   3.075  11.542 -0.8154  0.4102 -0.0449
 8223TIP3    H148864   2.018   2.991  11.536 -0.8942  0.4592 -2.5589
 8223TIP3    H248865   2.042   3.140  11.548 -0.6353  0.3139 -0.9862
 8224TIP3   OH248866   2.780   5.147  11.159 -0.1889 -0.3239 -0.3515
 8224TIP3    H148867   2.729   5.083  11.209 -0.5779  0.6582  0.5291
 8224TIP3    H248868   2.721   5.174  11.088 -0.4324 -0.1088 -0.0664
 8225TIP3   OH248869   1.565   3.995   9.964  0.7329 -0.7864  0.0565
 8225TIP3    H148870   1.558   4.042   9.881  2.1182 -0.8446 -0.1275
 8225TIP3    H248871   1.658   3.974   9.971  0.8225  0.1001  2.1141
 8226TIP3   OH248872   0.196   6.254  10.518  0.0749  0.0571 -0.1567
 8226TIP3    H148873   0.214   6.213  10.434 -0.4826  0.3256 -0.4055
 8226TIP3    H248874   0.157   6.185  10.571  1.3003 -0.3883  0.2164
 8227TIP3   OH248875   2.805   3.806  11.981 -0.1613  0.4206 -0.0587
 8227TIP3    H148876   2.727   3.756  11.957  1.1971 -2.9264  1.8797
 8227TIP3    H248877   2.771   3.883  12.026 -2.4513 -1.7656  2.3027
 8228TIP3   OH248878   4.330   6.557   9.154 -0.4401 -0.5682 -0.1793
 8228TIP3    H148879   4.334   6.652   9.142 -0.2255 -0.3227  1.5165
 8228TIP3    H248880   4.394   6.522   9.092  0.0833  0.4654 -0.2424
 8229TIP3   OH248881   4.747   4.722   9.586  0.1705  0.0660 -0.6911
 8229TIP3    H148882   4.803   4.697   9.512  1.6797 -0.3578  0.5343
 8229TIP3    H248883   4.663   4.681   9.567  0.8612 -1.0014 -1.6272
 8230TIP3   OH248884   4.193   3.909  11.844  0.1040 -0.7822 -0.6219
 8230TIP3    H148885   4.163   3.994  11.876  0.3693 -1.1085  0.5528
 8230TIP3    H248886   4.121   3.876  11.790 -1.1255 -0.9626  1.0676
 8231TIP3   OH248887   0.040   3.308   8.622 -0.4220 -0.0879  0.2528
 8231TIP3    H148888   0.114   3.250   8.639 -0.2492  0.0875  0.1123
 8231TIP3    H248889   0.076   3.396   8.634 -1.0257 -0.0283  1.8540
 8232TIP3   OH248890   6.431   3.807   8.494  0.4195  0.0327 -0.1251
 8232TIP3    H148891   6.415   3.727   8.443  0.7016 -0.5983  0.7660
 8232TIP3    H248892   6.435   3.778   8.585  1.2965  0.9501  0.1474
 8233TIP3   OH248893   1.588   4.771  10.869 -0.1548  0.0773  0.1280
 8233TIP3    H148894   1.611   4.725  10.950  0.5492  1.0227  0.4826
 8233TIP3    H248895   1.512   4.823  10.892 -0.3205 -0.1121  0.0114
 8234TIP3   OH248896   3.633   5.177  11.120 -0.1048 -0.3517  0.2741
 8234TIP3    H148897   3.673   5.263  11.108  0.5060 -0.3724  1.9632
 8234TIP3    H248898   3.706   5.116  11.110 -0.0044 -0.4924  1.6480
 8235TIP3   OH248899   4.176   2.750   9.443 -0.0321  0.3546 -0.3807
 8235TIP3    H148900   4.139   2.814   9.504 -0.0902  0.3455 -0.4065
 8235TIP3    H248901   4.266   2.737   9.473 -0.2160 -0.0394  0.0175
 8236TIP3   OH248902   3.017   5.121  10.260  0.3142 -0.1467 -0.1404
 8236TIP3    H148903   3.025   5.204  10.308  1.6677 -0.2722 -0.1135
 8236TIP3    H248904   3.105   5.105  10.225 -0.0029 -1.4265 -0.3944
 8237TIP3   OH248905   2.003   0.649  10.646 -0.0832 -0.1544 -0.2082
 8237TIP3    H148906   2.094   0.678  10.640  0.0960 -0.6012  0.2627
 8237TIP3    H248907   2.004   0.560  10.610 -0.4076 -0.0277 -0.5418
 8238TIP3   OH248908   5.419   1.549   9.402  0.0368  0.2397 -0.2867
 8238TIP3    H148909   5.375   1.464   9.396  0.1198  0.2038 -0.3827
 8238TIP3    H248910   5.465   1.546   9.486 -1.6786  1.0094  0.7321
 8239TIP3   OH248911   2.534   5.793  10.238 -0.5893 -0.1508 -0.3973
 8239TIP3    H148912   2.598   5.864  10.241  0.8059 -1.3836  0.7309
 8239TIP3    H248913   2.449   5.837  10.239  0.2075  1.4922  1.0518
 8240TIP3   OH248914   4.535   2.265  11.322 -0.5420  0.4886 -0.5136
 8240TIP3    H148915   4.541   2.361  11.321  1.9135  0.4017  0.3183
 8240TIP3    H248916   4.604   2.236  11.263 -0.3315 -0.7932  0.3263
 8241TIP3   OH248917   5.228   0.475   8.894 -0.1702  0.1436 -0.5698
 8241TIP3    H148918   5.254   0.418   8.966 -0.7884  1.6151  0.8561
 8241TIP3    H248919   5.303   0.474   8.834  1.5003  1.0226  1.4151
 8242TIP3   OH248920   6.226   0.606   9.498 -0.5228  0.0468  0.7140
 8242TIP3    H148921   6.168   0.641   9.431 -1.0234 -0.5195  0.8455
 8242TIP3    H248922   6.278   0.540   9.453  0.2168  0.7319  0.5348
 8243TIP3   OH248923   2.977   1.280   9.114 -0.0536 -0.4498  0.1351
 8243TIP3    H148924   2.895   1.234   9.100 -1.3896  0.9857  2.4912
 8243TIP3    H248925   2.965   1.365   9.073 -0.1114  0.0696  1.1864
 8244TIP3   OH248926   5.860   1.569  10.391  0.4726 -0.0193 -0.1098
 8244TIP3    H148927   5.843   1.651  10.344  0.3291  0.4160  0.6756
 8244TIP3    H248928   5.831   1.500  10.331 -0.7263  0.5638 -0.2330
 8245TIP3   OH248929   1.652   0.211  11.897  0.3663 -0.5273  0.4130
 8245TIP3    H148930   1.558   0.228  11.903  0.7722  2.1593  0.5658
 8245TIP3    H248931   1.685   0.282  11.841  2.3339 -1.2573  0.5802
 8246TIP3   OH248932   1.441   4.660  12.404  0.8800  0.3525 -0.5827
 8246TIP3    H148933   1.518   4.650  12.461 -0.8218  1.4637  2.0863
 8246TIP3    H248934   1.381   4.714  12.454 -1.7580 -0.5913 -2.5119
 8247TIP3   OH248935   2.280   6.443   9.898  0.7270 -0.1620 -0.2424
 8247TIP3    H148936   2.359   6.495   9.884  0.2899  0.1288 -1.9168
 8247TIP3    H248937   2.241   6.479   9.978  1.9747  0.0544  0.2925
 8248TIP3   OH248938   3.940   2.620  11.419 -0.2799  0.2531 -0.7954
 8248TIP3    H148939   4.017   2.569  11.396 -0.6777  0.1533 -2.0041
 8248TIP3    H248940   3.866   2.561  11.404 -0.5604 -0.6835  3.1752
 8249TIP3   OH248941   2.601   1.796  10.255 -0.2393 -0.0535  0.4394
 8249TIP3    H148942   2.652   1.802  10.174  0.7221 -0.6897  0.9847
 8249TIP3    H248943   2.655   1.842  10.320 -0.2710 -0.8897  1.0622
 8250TIP3   OH248944   0.783   5.260   9.492 -0.4844 -0.7123  0.8338
 8250TIP3    H148945   0.807   5.342   9.449 -1.7048 -0.9090 -0.2839
 8250TIP3    H248946   0.689   5.252   9.479 -0.1954 -3.0306 -0.4785
 8251TIP3   OH248947   5.166   5.339  10.067 -0.6937 -0.2883  0.0664
 8251TIP3    H148948   5.192   5.392  10.142  0.8384 -1.7161  0.6065
 8251TIP3    H248949   5.071   5.334  10.073 -0.6706  0.4460  1.3340
 8252TIP3   OH248950   6.150   3.646  10.908  0.2655 -0.5698  0.2229
 8252TIP3    H148951   6.212   3.716  10.887  0.2584 -0.2716  1.1824
 8252TIP3    H248952   6.186   3.568  10.865 -0.3628  0.2503 -1.9131
 8253TIP3   OH248953   0.276   1.156  11.007 -0.4457 -0.5638 -0.5083
 8253TIP3    H148954   0.214   1.104  11.058  1.2577 -0.9583  1.2726
 8253TIP3    H248955   0.362   1.119  11.027  0.5742  1.1053 -1.4637
 8254TIP3   OH248956   3.171   1.973   9.648  0.7241  0.4760 -0.6167
 8254TIP3    H148957   3.232   1.904   9.672  2.1072  1.6489 -0.6123
 8254TIP3    H248958   3.224   2.037   9.600 -0.8609  0.7516 -2.1157
 8255TIP3   OH248959   4.545   0.911  10.399 -0.5268 -0.3867 -0.0011
 8255TIP3    H148960   4.548   0.884  10.307  2.5196 -2.9483  0.6774
 8255TIP3    H248961   4.637   0.923  10.423 -1.3218  2.2940  2.2612
 8256TIP3   OH248962   2.409   0.265  12.236  0.0251 -0.7764 -0.1068
 8256TIP3    H148963   2.425   0.297  12.325 -1.5570 -1.3099  0.4190
 8256TIP3    H248964   2.331   0.209  12.245 -0.7029 -0.1452 -1.9813
 8257TIP3   OH248965   4.985   6.009  10.280  0.5057 -0.0316  0.5934
 8257TIP3    H148966   5.016   5.941  10.340 -1.2084  0.3467  1.9830
 8257TIP3    H248967   4.924   5.964  10.222  0.3304  0.0816  0.6913
 8258TIP3   OH248968   5.433   2.695   9.264  0.4945  0.1379  0.2493
 8258TIP3    H148969   5.354   2.731   9.305  0.4847 -0.4066  0.7223
 8258TIP3    H248970   5.487   2.772   9.245 -0.1389  0.5136 -0.0629
 8259TIP3   OH248971   4.915   3.040  10.800  0.5061 -0.1933  0.2654
 8259TIP3    H148972   5.000   3.041  10.844  0.3211  0.2627  0.6251
 8259TIP3    H248973   4.886   2.949  10.806  1.3074 -0.5116 -0.5410
 8260TIP3   OH248974   5.327   4.431  10.246 -0.5034  0.1618 -0.1661
 8260TIP3    H148975   5.380   4.363  10.287 -0.4857 -0.8789 -1.7896
 8260TIP3    H248976   5.345   4.422  10.152 -1.5733  1.5017 -0.5441
 8261TIP3   OH248977   3.716   1.510  10.443 -0.5925 -0.0731  0.0678
 8261TIP3    H148978   3.787   1.563  10.406  1.2258 -1.3902  1.4720
 8261TIP3    H248979   3.636   1.556  10.417  0.7415  1.4210 -1.6835
 8262TIP3   OH248980   3.155   2.109  11.100  0.3568 -1.0606 -0.0854
 8262TIP3    H148981   3.190   2.125  11.188 -2.1623 -0.9764  0.9862
 8262TIP3    H248982   3.197   2.027  11.073  1.7700 -0.6930  0.8331
 8263TIP3   OH248983   4.547   6.477   8.982  0.2751  0.0649 -0.1991
 8263TIP3    H148984   4.629   6.521   8.961  0.7856 -0.5404  0.4601
 8263TIP3    H248985   4.573   6.404   9.039 -0.5594 -0.9713 -1.0891
 8264TIP3   OH248986   0.933   5.708  10.566  0.2013 -0.0825 -0.1882
 8264TIP3    H148987   0.943   5.727  10.473  0.4091  0.5428 -0.0458
 8264TIP3    H248988   0.904   5.791  10.605  0.4887 -0.2300  0.3604
 8265TIP3   OH248989   2.085   6.442   9.692 -0.0960  0.2425  0.3350
 8265TIP3    H148990   2.142   6.456   9.767 -0.7595 -0.0862  0.9091
 8265TIP3    H248991   2.117   6.361   9.652 -1.6888 -1.4043  2.1537
 8266TIP3   OH248992   4.961   5.577  10.705 -0.2044  0.3123 -0.0248
 8266TIP3    H148993   4.878   5.541  10.737 -0.2865  1.8785  1.7207
 8266TIP3    H248994   5.027   5.543  10.766  0.1461  0.6836 -0.1891
 8267TIP3   OH248995   6.091   4.843  11.014  0.1314  0.0259 -0.0216
 8267TIP3    H148996   6.147   4.869  10.942  0.5292 -0.3048  0.1703
 8267TIP3    H248997   6.114   4.752  11.033 -0.5212 -0.1441  0.0076
 8268TIP3   OH248998   3.152   4.618  10.394  0.1694  0.4651 -0.0020
 8268TIP3    H148999   3.207   4.566  10.452  2.0830  0.6118 -1.5848
 8268TIP3    H249000   3.081   4.559  10.369  0.2065 -0.1059  1.1874
 8269TIP3   OH249001   6.560   2.477  10.921 -0.0726  0.2445 -0.6104
 8269TIP3    H149002   6.617   2.434  10.858 -0.9137  0.0961 -1.2830
 8269TIP3    H249003   6.473   2.474  10.881 -0.6913 -0.1848  0.7303
 8270TIP3   OH249004   4.415   5.323   9.185  0.4522 -0.5350  0.0280
 8270TIP3    H149005   4.438   5.396   9.129 -0.9828  1.1911  1.5705
 8270TIP3    H249006   4.487   5.260   9.174  2.8876  2.0319  0.3045
 8271TIP3   OH249007   2.009   2.597  11.430  0.3011  0.4755 -0.2245
 8271TIP3    H149008   2.019   2.558  11.517 -0.0423  0.3910 -0.2198
 8271TIP3    H249009   1.982   2.524  11.374  1.2792  0.3634 -0.5688
 8272TIP3   OH249010   5.243   0.013  11.852 -0.1479  0.0727  0.2484
 8272TIP3    H149011   5.232  -0.020  11.941  3.3964 -0.0262  0.7640
 8272TIP3    H249012   5.328   0.057  11.853 -0.3264  0.6985 -2.9356
 8273TIP3   OH249013   4.895   6.297  10.821 -0.0779  0.6150 -0.0869
 8273TIP3    H149014   4.902   6.230  10.753 -2.2528  1.2762 -1.0552
 8273TIP3    H249015   4.906   6.380  10.775 -0.0144  1.0200  0.6487
 8274TIP3   OH249016   4.196   3.161   8.539  0.0604  0.4444 -0.1257
 8274TIP3    H149017   4.286   3.153   8.506  0.6775 -0.0286  1.5605
 8274TIP3    H249018   4.200   3.124   8.627 -1.4436  1.7987  0.5554
 8275TIP3   OH249019   5.986   6.596   9.342 -0.2555 -0.2264 -0.5035
 8275TIP3    H149020   5.968   6.569   9.432 -0.6824 -1.6801 -0.9958
 8275TIP3    H249021   6.056   6.661   9.350 -0.5899  0.0030  0.8981
 8276TIP3   OH249022   4.374   0.345  10.135 -0.2548  0.0392  0.2021
 8276TIP3    H149023   4.296   0.392  10.166 -0.2170  0.5540 -0.4729
 8276TIP3    H249024   4.435   0.413  10.109  0.0027 -0.3779 -0.3030
 8277TIP3   OH249025   1.415   6.249   9.039  0.4961 -0.2923  0.0597
 8277TIP3    H149026   1.379   6.169   9.000 -0.6792  0.0985  0.3082
 8277TIP3    H249027   1.392   6.244   9.131 -0.5640  0.8160 -0.1069
 8278TIP3   OH249028   4.851   0.531  10.117  0.3479 -0.4208 -0.5731
 8278TIP3    H149029   4.891   0.448  10.142  1.0780 -0.1239 -0.7311
 8278TIP3    H249030   4.762   0.508  10.089 -0.6954 -0.7551  2.5567
 8279TIP3   OH249031   0.626   0.842  10.222 -0.2312 -0.2442 -0.2227
 8279TIP3    H149032   0.630   0.777  10.152  0.5405  1.0562 -1.4437
 8279TIP3    H249033   0.580   0.916  10.183  0.6909  0.7117  0.4481
 8280TIP3   OH249034   1.972   4.770  11.370 -0.0853 -0.4739  0.8530
 8280TIP3    H149035   2.054   4.726  11.345 -0.1922  0.1534 -0.7367
 8280TIP3    H249036   1.971   4.850  11.317 -2.2462 -1.0146 -0.0539
 8281TIP3   OH249037   6.149   6.018  11.274  0.4231 -0.2468 -0.4135
 8281TIP3    H149038   6.244   6.009  11.284  0.1389 -2.1233  1.2596
 8281TIP3    H249039   6.113   5.941  11.318 -1.9861  1.6845  1.2831
 8282TIP3   OH249040   2.144   0.112   9.852  0.3494  0.2637 -0.0355
 8282TIP3    H149041   2.238   0.093   9.846  0.2659 -0.1778 -0.0047
 8282TIP3    H249042   2.107   0.033   9.891 -0.0592  0.3767 -0.1962
 8283TIP3   OH249043   1.479   0.756   9.632  0.0368  0.5851 -0.8673
 8283TIP3    H149044   1.543   0.826   9.618  0.7600 -0.1188 -1.1564
 8283TIP3    H249045   1.509   0.711   9.711 -0.0736  0.2182 -1.0338
 8284TIP3   OH249046   3.078   0.987  11.486 -0.2028  0.0289  0.0441
 8284TIP3    H149047   3.174   0.991  11.487 -0.2300  0.8344 -0.0211
 8284TIP3    H249048   3.059   0.894  11.475  0.5823 -0.0676 -0.6570
 8285TIP3   OH249049   5.031   6.182   8.810  0.2744  0.1562 -0.2228
 8285TIP3    H149050   5.111   6.220   8.846  0.9264 -1.7883  0.5040
 8285TIP3    H249051   5.058   6.143   8.727  0.5952 -2.0704  0.8277
 8286TIP3   OH249052   6.482   3.461  11.422  0.0026 -0.3389  0.2274
 8286TIP3    H149053   6.577   3.452  11.420  0.3682  2.0973  2.0120
 8286TIP3    H249054   6.466   3.549  11.389 -1.8320 -1.2776 -1.6106
 8287TIP3   OH249055   2.976   0.808   9.153 -0.3706  0.2540  0.0571
 8287TIP3    H149056   3.056   0.846   9.116  0.1882  0.0139  0.9789
 8287TIP3    H249057   3.007   0.749   9.221 -1.3216 -0.2918  0.0375
 8288TIP3   OH249058   1.706   6.493   8.739 -1.0014  0.6735  0.4581
 8288TIP3    H149059   1.770   6.563   8.724  0.8175 -1.0432 -0.3424
 8288TIP3    H249060   1.759   6.413   8.742 -3.0047 -0.6958  1.2137
 8289TIP3   OH249061   4.839   3.722  12.463  0.2373 -0.4229  0.4913
 8289TIP3    H149062   4.895   3.752  12.533 -0.3815 -0.2837  0.9381
 8289TIP3    H249063   4.761   3.689  12.508 -0.4283  0.2356 -0.1560
 8290TIP3   OH249064   4.922   1.408  10.957  0.6745  0.2038  0.1826
 8290TIP3    H149065   4.981   1.436  11.027 -0.6218 -0.5510  1.6276
 8290TIP3    H249066   4.871   1.337  10.996 -0.2951 -0.0374 -1.4435
 8291TIP3   OH249067   4.003   0.472  11.357  0.2670 -0.4075  0.3907
 8291TIP3    H149068   3.923   0.498  11.311  0.5357  1.6835  0.9656
 8291TIP3    H249069   3.988   0.382  11.384 -1.6386 -0.2524 -0.0516
 8292TIP3   OH249070   0.923   2.742  11.691  0.5584  0.0579 -0.1398
 8292TIP3    H149071   1.001   2.688  11.687  0.8689  0.5630 -1.4652
 8292TIP3    H249072   0.850   2.681  11.683  0.7266 -0.5421  2.2381
 8293TIP3   OH249073   2.247   5.831   9.941  0.2487  0.0962 -0.1170
 8293TIP3    H149074   2.255   5.790   9.855  0.6552  1.5256 -0.7914
 8293TIP3    H249075   2.271   5.922   9.927 -0.0847  0.4630  1.4387
 8294TIP3   OH249076   2.691   6.018  10.211 -0.1862  0.5355 -0.4187
 8294TIP3    H149077   2.738   6.029  10.293 -0.8457 -1.1861  0.2256
 8294TIP3    H249078   2.626   6.088  10.211  0.4389  1.1261  0.0587
 8295TIP3   OH249079   6.647   4.161   8.837  0.1856 -0.3307  0.4256
 8295TIP3    H149080   6.724   4.104   8.850  0.0983 -0.4987  0.2183
 8295TIP3    H249081   6.639   4.167   8.742  0.0641 -0.1447  0.4496
 8296TIP3   OH249082   5.654   3.429   8.697 -0.5094 -0.3870 -0.2895
 8296TIP3    H149083   5.738   3.445   8.740 -0.6941  0.2613 -0.1537
 8296TIP3    H249084   5.649   3.334   8.687  1.6134 -0.3570 -3.0455
 8297TIP3   OH249085   4.668   5.318   8.732 -0.2666 -0.0003  0.4717
 8297TIP3    H149086   4.623   5.384   8.785 -0.2136 -0.2889  0.8759
 8297TIP3    H249087   4.663   5.238   8.783  0.0913 -0.2021  0.1967
 8298TIP3   OH249088   3.212   0.260  11.055 -0.3474 -0.0124  0.2994
 8298TIP3    H149089   3.267   0.205  11.113 -0.2306  1.9189  2.1489
 8298TIP3    H249090   3.275   0.305  10.999 -0.2677  0.0294  0.4217
 8299TIP3   OH249091   0.276   4.748  10.869 -0.0985 -0.7531  0.2641
 8299TIP3    H149092   0.235   4.800  10.801 -2.9081  0.1966  2.5002
 8299TIP3    H249093   0.258   4.657  10.844 -0.8908 -0.4268 -0.3973
 8300TIP3   OH249094   5.734   2.665  10.909  0.3168  0.1695 -0.2653
 8300TIP3    H149095   5.765   2.634  10.824 -1.7754 -0.2697 -0.9171
 8300TIP3    H249096   5.803   2.640  10.971  1.7541  0.2689 -1.7648
 8301TIP3   OH249097   2.958   6.263  11.293 -0.3534  0.0983 -0.1184
 8301TIP3    H149098   2.957   6.351  11.331 -1.5999 -0.0229  0.1465
 8301TIP3    H249099   2.925   6.275  11.204 -0.7352 -0.1418 -0.0065
 8302TIP3   OH249100   5.266   5.772   9.324 -0.0716  0.1368  0.1929
 8302TIP3    H149101   5.183   5.755   9.280  0.2990 -1.1943 -0.0332
 8302TIP3    H249102   5.314   5.829   9.264  0.2887 -1.3803 -1.0413
 8303TIP3   OH249103   4.238   2.662   8.837 -0.6077  0.0186  0.4329
 8303TIP3    H149104   4.145   2.642   8.837 -0.6433 -0.2518 -2.4818
 8303TIP3    H249105   4.257   2.691   8.926 -3.4743  0.2016  1.0570
 8304TIP3   OH249106   2.598   5.686  10.926  0.0898 -0.2615  0.3084
 8304TIP3    H149107   2.595   5.696  10.831 -0.4231 -0.6560  0.2774
 8304TIP3    H249108   2.545   5.608  10.943  1.0016 -0.7725  0.8348
 8305TIP3   OH249109   3.837   5.294  10.686 -0.3597 -0.4599 -0.0296
 8305TIP3    H149110   3.796   5.248  10.613  1.0497  1.1577 -1.9344
 8305TIP3    H249111   3.880   5.225  10.737 -1.3923 -1.6262 -0.6912
 8306TIP3   OH249112   0.217   4.404   9.415  0.5246  0.6723 -0.0531
 8306TIP3    H149113   0.267   4.331   9.452 -0.0345 -0.8650 -2.1451
 8306TIP3    H249114   0.131   4.398   9.458  0.7168  0.5632  0.3205
 8307TIP3   OH249115   3.960   5.280   9.472 -0.1024 -0.2370 -0.8270
 8307TIP3    H149116   3.977   5.343   9.402  2.0646  2.8010  2.1040
 8307TIP3    H249117   4.042   5.232   9.482 -0.3395 -0.5352 -0.2614
 8308TIP3   OH249118   3.579   4.895   8.463 -0.4202  0.0125 -0.3401
 8308TIP3    H149119   3.652   4.954   8.480 -1.8365  1.3528  1.5787
 8308TIP3    H249120   3.618   4.819   8.420  1.5356  2.1474 -2.5927
 8309TIP3   OH249121   4.210   4.722  12.810 -0.2442  0.0355  0.3264
 8309TIP3    H149122   4.188   4.815  12.804 -0.8137 -0.1744 -1.4227
 8309TIP3    H249123   4.281   4.710  12.747 -1.9448 -1.1684 -1.4722
 8310TIP3   OH249124   4.883   1.150   9.953 -0.4798 -0.0359 -0.4052
 8310TIP3    H149125   4.833   1.217   9.905 -1.8503 -1.0148 -0.3909
 8310TIP3    H249126   4.973   1.163   9.924 -0.9340  0.8668 -1.5202
 8311TIP3   OH249127   5.216   1.434   9.983 -0.2771 -0.7893 -0.1761
 8311TIP3    H149128   5.247   1.390  10.062 -0.9915 -1.5247 -0.2891
 8311TIP3    H249129   5.127   1.462  10.006 -0.1292 -0.1231 -0.3911
 8312TIP3   OH249130   1.611   1.318   9.845  0.4543  0.0875 -0.1112
 8312TIP3    H149131   1.541   1.336   9.908 -0.6464 -1.9134 -0.6578
 8312TIP3    H249132   1.689   1.304   9.899 -0.0257  0.3381  0.6617
 8313TIP3   OH249133   1.659   3.527   9.112  0.0336  0.4216  0.0180
 8313TIP3    H149134   1.747   3.499   9.135  0.0084 -0.1397 -0.5392
 8313TIP3    H249135   1.603   3.454   9.136 -0.1812  0.4575 -0.3535
 8314TIP3   OH249136   2.662   4.624  10.791 -0.3561 -0.4803 -0.8032
 8314TIP3    H149137   2.719   4.554  10.758  2.6348  0.6986  1.4362
 8314TIP3    H249138   2.624   4.588  10.871 -0.8209 -0.3546 -0.9594
 8315TIP3   OH249139   3.965   4.672  11.022 -0.3655 -0.4657  0.0952
 8315TIP3    H149140   3.947   4.583  10.992 -0.8755  0.0326 -1.1397
 8315TIP3    H249141   3.906   4.728  10.971 -0.6170  0.5276  1.4071
 8316TIP3   OH249142   0.036   1.738  10.569  0.5451 -0.1923  0.1708
 8316TIP3    H149143   0.072   1.686  10.496  0.4062  1.2045 -0.9359
 8316TIP3    H249144   0.113   1.768  10.617  0.6402 -1.1007  0.6127
 8317TIP3   OH249145   6.281   0.327   8.616 -0.0947  0.6713 -0.1939
 8317TIP3    H149146   6.293   0.255   8.677  1.1543 -0.6399 -1.8809
 8317TIP3    H249147   6.326   0.401   8.656  0.7366 -0.1640  0.4468
 8318TIP3   OH249148   3.243   3.718  11.940 -0.1426 -0.4767 -0.0295
 8318TIP3    H149149   3.324   3.752  11.901 -1.2872  1.2335 -1.0733
 8318TIP3    H249150   3.251   3.623  11.934  1.6197 -0.3362 -0.4381
 8319TIP3   OH249151   0.295   5.453   8.712 -0.5409 -0.0028 -0.1382
 8319TIP3    H149152   0.232   5.520   8.737 -0.9455 -0.1291 -0.8098
 8319TIP3    H249153   0.379   5.487   8.743 -0.9378  0.1531  0.7766
 8320TIP3   OH249154   6.180   4.655   9.146  0.1814 -0.6653 -0.3733
 8320TIP3    H149155   6.231   4.686   9.222 -0.6921 -0.3905  0.1168
 8320TIP3    H249156   6.090   4.680   9.166 -0.6162 -3.5407  0.0850
 8321TIP3   OH249157   2.690   5.691  10.031 -0.0733  0.0819  0.4164
 8321TIP3    H149158   2.675   5.752   9.959  1.1343  1.4135  1.2278
 8321TIP3    H249159   2.626   5.716  10.097 -0.0254  0.0160  0.4869
 8322TIP3   OH249160   2.324   6.641   9.436 -0.1588  0.1370  0.0241
 8322TIP3    H149161   2.343   6.547   9.433 -0.3605  0.1079 -0.5721
 8322TIP3    H249162   2.355   6.675   9.352 -2.0542  0.1969 -0.7168
 8323TIP3   OH249163   6.167   0.036   8.849 -0.2869 -0.0928  0.5676
 8323TIP3    H149164   6.078   0.027   8.883 -0.2536  0.1656  0.7238
 8323TIP3    H249165   6.191  -0.052   8.821  0.0203 -0.5056  2.0634
 8324TIP3   OH249166   5.519   4.194   8.943 -0.2968 -0.5802  0.0484
 8324TIP3    H149167   5.553   4.104   8.942  0.4811 -0.2971  0.1098
 8324TIP3    H249168   5.516   4.218   9.035  1.5637  0.1964 -0.0559
 8325TIP3   OH249169   0.984   3.378   9.613 -0.1659  0.0380 -0.4148
 8325TIP3    H149170   1.009   3.468   9.630  0.1031 -0.2127  0.5837
 8325TIP3    H249171   0.954   3.345   9.697 -0.6668 -0.6800 -0.8630
 8326TIP3   OH249172   2.592   1.401   9.625 -0.3494 -0.3192 -0.1528
 8326TIP3    H149173   2.570   1.350   9.703  0.2381  1.2894  1.1043
 8326TIP3    H249174   2.627   1.337   9.564 -0.2920 -1.5291  1.1083
 8327TIP3   OH249175   3.537   2.098   9.556 -0.0984 -0.2167 -0.1469
 8327TIP3    H149176   3.485   2.021   9.535 -0.5253 -0.5915  2.1358
 8327TIP3    H249177   3.598   2.105   9.482 -0.2201 -2.5650 -0.5605
 8328TIP3   OH249178   3.736   3.888  10.428  0.2442 -0.6184 -0.0071
 8328TIP3    H149179   3.817   3.924  10.391  0.0401 -0.0197  0.1165
 8328TIP3    H249180   3.673   3.959  10.422  0.0726 -0.6647  1.0546
 8329TIP3   OH249181   4.454   5.816  11.188 -0.1094 -0.1735  0.7121
 8329TIP3    H149182   4.488   5.875  11.121  0.0993 -0.4629  0.5606
 8329TIP3    H249183   4.382   5.770  11.145 -1.1147  0.8766  1.2172
 8330TIP3   OH249184   5.378   6.480   9.458 -0.3015  0.1710 -0.3632
 8330TIP3    H149185   5.302   6.441   9.501 -0.6016  1.1435  0.0245
 8330TIP3    H249186   5.453   6.441   9.503 -0.5448 -1.1603 -1.0788
 8331TIP3   OH249187   3.389   0.562  12.396 -0.2725  0.0352  0.0814
 8331TIP3    H149188   3.407   0.479  12.441  2.4896  1.0441  1.0481
 8331TIP3    H249189   3.384   0.538  12.303 -2.9296 -1.6267  0.5569
 8332TIP3   OH249190   3.465   2.453  10.041 -0.0334  0.2345  0.1250
 8332TIP3    H149191   3.446   2.369  10.082  2.8286 -0.2819  0.5526
 8332TIP3    H249192   3.415   2.516  10.094  0.2622 -0.8698  1.7922
 8333TIP3   OH249193   4.773   4.730   9.901  0.2005  0.3687 -0.2360
 8333TIP3    H149194   4.730   4.766   9.824 -1.0875 -0.8684 -0.1305
 8333TIP3    H249195   4.702   4.711   9.962  0.9220 -1.2115  0.1672
 8334TIP3   OH249196   3.839   2.887   9.679  0.2654  0.0267 -0.6206
 8334TIP3    H149197   3.832   2.937   9.760  2.1515  0.1260 -0.4918
 8334TIP3    H249198   3.759   2.833   9.677 -0.3705  0.8838  0.6847
 8335TIP3   OH249199   6.012   3.649   9.865  0.1037  0.6005  0.1439
 8335TIP3    H149200   6.055   3.716   9.811  0.9972 -0.7330 -0.8494
 8335TIP3    H249201   6.026   3.567   9.819 -1.5992 -0.2184  0.9677
 8336TIP3   OH249202   3.552   1.715  16.855 -0.5336  0.0351 -0.3650
 8336TIP3    H149203   3.619   1.678  16.799 -0.1882 -2.0554  1.3087
 8336TIP3    H249204   3.480   1.736  16.796  0.0274 -1.5305 -1.6693
 8337TIP3   OH249205   5.104   5.473   9.548  0.1339  0.3023 -0.5614
 8337TIP3    H149206   5.063   5.554   9.516  2.2376  1.2140 -1.1733
 8337TIP3    H249207   5.179   5.503   9.599  1.2854 -1.2654 -1.2568
 8338TIP3   OH249208   1.199   5.166  11.069  0.3808 -0.3910  0.3946
 8338TIP3    H149209   1.226   5.212  11.148  0.4097 -0.5676  0.4889
 8338TIP3    H249210   1.158   5.086  11.101  1.1863 -0.8863  0.2118
 8339TIP3   OH249211   6.132   5.432  10.864  0.0316  0.4607 -0.7641
 8339TIP3    H149212   6.187   5.353  10.862  2.8098  2.2457 -1.2301
 8339TIP3    H249213   6.079   5.426  10.785  0.5529 -0.7052 -1.0563
 8340TIP3   OH249214   6.580   0.027   9.187 -0.0103 -0.0686  0.0146
 8340TIP3    H149215   6.586   0.109   9.235 -0.0322 -0.1953  0.2365
 8340TIP3    H249216   6.489   0.023   9.157 -0.0690 -0.1144  0.1928
 8341TIP3   OH249217   4.161   5.901  10.370  0.0698 -0.5029  0.2825
 8341TIP3    H149218   4.109   5.947  10.436 -0.1270  0.7609 -0.7116
 8341TIP3    H249219   4.240   5.954  10.361  0.2722 -0.8809 -0.2173
 8342TIP3   OH249220   3.418   2.038  11.333 -0.2381 -0.1648 -0.2058
 8342TIP3    H149221   3.370   2.112  11.371  0.5009 -0.3107  1.0964
 8342TIP3    H249222   3.510   2.058  11.352  0.0598 -0.8792 -0.8458
 8343TIP3   OH249223   5.606   1.787  10.613 -0.5675 -0.8818  0.0018
 8343TIP3    H149224   5.573   1.821  10.529  0.6126 -2.3729 -1.1125
 8343TIP3    H249225   5.528   1.781  10.668 -1.0482  2.3245 -0.1380
 8344TIP3   OH249226   2.123   5.264  12.866 -0.1919  0.0980  0.5675
 8344TIP3    H149227   2.127   5.189  12.806 -0.9571  1.4385 -1.2242
 8344TIP3    H249228   2.184   5.240  12.937  2.4329 -0.6616 -1.7520
 8345TIP3   OH249229   3.895   0.350  10.221  0.4656  0.2305 -0.0164
 8345TIP3    H149230   3.979   0.396  10.232  0.8761  0.1313 -2.3232
 8345TIP3    H249231   3.919   0.266  10.182 -0.7120  0.2176 -0.7477
 8346TIP3   OH249232   1.269   4.709   9.865 -0.1170 -0.0038  0.1530
 8346TIP3    H149233   1.325   4.647   9.819  0.4636  0.5115  0.1524
 8346TIP3    H249234   1.255   4.780   9.801 -0.1776  0.2119  0.4051
 8347TIP3   OH249235   3.554   2.833   9.157  0.3417 -0.2336  0.4335
 8347TIP3    H149236   3.566   2.865   9.068  3.2927 -0.0487  0.7896
 8347TIP3    H249237   3.510   2.905   9.202 -1.6215 -0.5231 -0.9374
 8348TIP3   OH249238   1.551   4.718  18.807  0.1940  0.6875 -0.2373
 8348TIP3    H149239   1.628   4.724  18.750 -1.8284 -0.0795 -3.2885
 8348TIP3    H249240   1.544   4.805  18.847  3.3908  0.3535  1.3397
 8349TIP3   OH249241   4.700   1.834  10.268 -0.1159 -0.4242  0.4842
 8349TIP3    H149242   4.673   1.845  10.359 -1.1869 -0.8067  0.2165
 8349TIP3    H249243   4.785   1.791  10.274  0.3337  0.5214  1.3189
 8350TIP3   OH249244   5.130   0.062   8.927 -0.1713 -0.1563  0.2077
 8350TIP3    H149245   5.176   0.133   8.972 -1.0399  0.6641 -0.1601
 8350TIP3    H249246   5.104   0.003   8.998  0.9613 -0.3684  0.4721
 8351TIP3   OH249247   0.852   0.072  10.325  0.1667 -0.3634 -0.3536
 8351TIP3    H149248   0.802   0.140  10.279  0.4981 -0.0425 -0.2453
 8351TIP3    H249249   0.801   0.055  10.405 -0.1089 -0.5104 -0.5599
 8352TIP3   OH249250   4.998   3.075   9.652  0.0120 -0.2703  0.0888
 8352TIP3    H149251   5.025   3.110   9.567 -0.0847  0.7553  0.4616
 8352TIP3    H249252   5.017   3.145   9.714 -1.1215 -0.4897  0.7244
 8353TIP3   OH249253   3.741   3.702  11.617 -0.0399 -0.8579  0.7782
 8353TIP3    H149254   3.652   3.673  11.637  0.6074 -1.1169  3.8656
 8353TIP3    H249255   3.732   3.793  11.591 -1.2030 -0.7291  1.5612
 8354TIP3   OH249256   6.185   3.370  10.047  0.1728  0.1922  0.2210
 8354TIP3    H149257   6.189   3.282  10.009  0.4301 -0.1695  1.0586
 8354TIP3    H249258   6.096   3.377  10.082  0.2106  0.1866  0.3195
 8355TIP3   OH249259   1.990   4.533  11.042 -0.1098  0.0737 -0.4985
 8355TIP3    H149260   1.921   4.516  10.978 -0.5441 -0.8567  0.1769
 8355TIP3    H249261   2.025   4.446  11.062  0.0524  0.3448  0.4649
 8356TIP3   OH249262   4.537   1.151  11.307  0.5315  0.1201  0.5815
 8356TIP3    H149263   4.543   1.199  11.390 -0.2908 -1.0228  1.3453
 8356TIP3    H249264   4.451   1.108  11.311  0.7244 -0.4162 -0.6111
 8357TIP3   OH249265   2.724   2.563  10.016  0.5291  0.0212 -0.2790
 8357TIP3    H149266   2.680   2.538  10.097 -0.2923  0.3246 -0.6203
 8357TIP3    H249267   2.713   2.488   9.957  1.4089 -0.3314 -0.0131
 8358TIP3   OH249268   1.445   6.113  10.588  0.1395 -0.4743 -0.0010
 8358TIP3    H149269   1.508   6.174  10.550 -0.6270 -0.4168 -1.2476
 8358TIP3    H249270   1.496   6.060  10.648  0.9509  0.9516  0.6105
 8359TIP3   OH249271   0.468   4.576   8.746 -0.7665 -0.0026 -0.0126
 8359TIP3    H149272   0.392   4.519   8.732 -1.5082  1.0780 -0.5128
 8359TIP3    H249273   0.480   4.576   8.841 -1.5581  0.0170  0.0995
 8360TIP3   OH249274   4.471   5.779   9.813  0.4146  0.4492  0.0585
 8360TIP3    H149275   4.396   5.821   9.772  0.4787 -1.3963 -2.2072
 8360TIP3    H249276   4.547   5.825   9.779  0.4139 -0.2670 -0.9671
 8361TIP3   OH249277   6.500   4.542  11.282 -0.1885 -0.0480  0.1201
 8361TIP3    H149278   6.447   4.496  11.347  1.3996 -0.3763  1.2420
 8361TIP3    H249279   6.501   4.484  11.206 -0.3224 -0.6620  0.5855
 8362TIP3   OH249280   0.709   4.425  10.519  0.2082 -0.3473 -0.0105
 8362TIP3    H149281   0.774   4.390  10.579  3.3429  2.9345 -1.1133
 8362TIP3    H249282   0.741   4.401  10.432 -0.5045  0.6145 -0.5601
 8363TIP3   OH249283   2.715   1.015   9.999  0.2577 -0.2487 -0.7736
 8363TIP3    H149284   2.755   1.065  10.070 -1.9096 -0.2951  0.6051
 8363TIP3    H249285   2.719   0.924  10.029 -1.6103 -0.1694 -0.1168
 8364TIP3   OH249286   3.927   0.265   8.887  0.5646  0.1360  0.0205
 8364TIP3    H149287   3.832   0.258   8.874  0.6588  1.8070 -2.2123
 8364TIP3    H249288   3.941   0.238   8.978 -1.4271 -4.8227 -0.8528
 8365TIP3   OH249289   5.808   3.976  11.059 -0.5098  0.2808  0.8812
 8365TIP3    H149290   5.746   3.963  10.987 -1.5990 -3.8485  2.2835
 8365TIP3    H249291   5.754   4.010  11.130 -0.9310 -1.6059  1.5408
 8366TIP3   OH249292   2.727   1.910  10.467  0.5566 -0.0146 -0.5361
 8366TIP3    H149293   2.709   1.879  10.555  0.2322 -0.8987 -0.8980
 8366TIP3    H249294   2.813   1.952  10.473  0.6902 -0.3735  0.1273
 8367TIP3   OH249295   1.101   0.804  10.953 -0.1761 -0.5329  0.9930
 8367TIP3    H149296   1.161   0.819  10.880 -0.0699 -1.4867  0.8727
 8367TIP3    H249297   1.017   0.783  10.912 -0.1348 -0.9986  1.1446
 8368TIP3   OH249298   0.606   4.373  10.041  0.1402 -0.0028  0.6190
 8368TIP3    H149299   0.659   4.356   9.963 -0.1468  1.6707  0.0182
 8368TIP3    H249300   0.649   4.322  10.110  0.4407 -1.4531 -0.6002
 8369TIP3   OH249301   2.840   4.458   9.257  0.2507  0.1848  0.0599
 8369TIP3    H149302   2.746   4.446   9.239  0.4098 -1.6319  0.3372
 8369TIP3    H249303   2.883   4.437   9.175  0.4252  1.7416 -0.2950
 8370TIP3   OH249304   3.190   3.960   9.868 -0.1612 -0.9619  0.0958
 8370TIP3    H149305   3.281   3.956   9.837  0.2206 -0.9707  1.1662
 8370TIP3    H249306   3.167   3.869   9.887 -0.5945 -1.0254 -0.6998
 8371TIP3   OH249307   5.011   3.622  10.462 -0.2506  0.5672 -0.3869
 8371TIP3    H149308   5.084   3.563  10.447 -0.3897  0.2944 -0.0318
 8371TIP3    H249309   4.960   3.579  10.531  1.1321  2.3969  1.9437
 8372TIP3   OH249310   3.658   2.145  11.373  0.8603  0.3166  1.0152
 8372TIP3    H149311   3.664   2.201  11.296 -1.2291  0.2401  0.7379
 8372TIP3    H249312   3.715   2.186  11.437  2.0162  0.8328 -0.2874
 8373TIP3   OH249313   4.954   1.337   9.228 -0.3068 -0.2807  0.6051
 8373TIP3    H149314   5.022   1.318   9.164  0.5616 -0.4259  1.5341
 8373TIP3    H249315   4.893   1.264   9.222 -0.0303 -0.4789  0.2140
 8374TIP3   OH249316   5.783   3.585  11.584  0.0548 -0.5882  0.5947
 8374TIP3    H149317   5.818   3.663  11.627  0.9587 -0.1323 -0.9112
 8374TIP3    H249318   5.781   3.519  11.654 -1.2354  0.8953  2.0262
 8375TIP3   OH249319   1.677   4.561  10.000 -0.1650 -0.2478  0.1207
 8375TIP3    H149320   1.767   4.552  10.031 -0.2910  0.0532  0.5872
 8375TIP3    H249321   1.683   4.555   9.905  0.3918  0.0978  0.1319
 8376TIP3   OH249322   0.795   2.143   8.748  0.4699  0.0891 -0.3659
 8376TIP3    H149323   0.719   2.106   8.703  1.2873  0.7732 -2.4172
 8376TIP3    H249324   0.757   2.208   8.807 -0.6748 -1.1583  0.3443
 8377TIP3   OH249325   5.160   3.671  10.938  0.6786 -0.1762 -0.2377
 8377TIP3    H149326   5.124   3.585  10.962  1.0346  0.0298  1.0866
 8377TIP3    H249327   5.084   3.722  10.911  0.0111  0.0429  1.8969
 8378TIP3   OH249328   6.403   4.227  10.040 -0.3587 -0.1060  0.0390
 8378TIP3    H149329   6.463   4.155  10.056  1.7206  1.0960 -1.8257
 8378TIP3    H249330   6.339   4.192   9.978 -1.1232 -1.1209  1.3421
 8379TIP3   OH249331   1.177   3.704   9.012  0.6545  0.0513  0.5734
 8379TIP3    H149332   1.252   3.710   8.952  1.2386 -0.4293  1.2531
 8379TIP3    H249333   1.210   3.658   9.089 -0.5964 -1.0680  0.4838
 8380TIP3   OH249334   0.046   0.673  10.227  0.1199  0.1376  0.1983
 8380TIP3    H149335  -0.047   0.654  10.222 -0.2489  1.1409  2.2793
 8380TIP3    H249336   0.087   0.587  10.239 -0.6533 -0.2029  0.4712
 8381TIP3   OH249337   5.428   5.911   8.822  0.1255 -0.3533  0.0970
 8381TIP3    H149338   5.450   5.823   8.792  0.2778 -0.4495  0.4770
 8381TIP3    H249339   5.510   5.960   8.815 -0.4677  0.4282 -2.3389
 8382TIP3   OH249340   2.837   3.881   9.988 -0.2375  0.5970  0.1685
 8382TIP3    H149341   2.783   3.839  10.055 -0.4045 -1.4793 -1.1581
 8382TIP3    H249342   2.925   3.847  10.003 -0.2005  0.4322 -0.3927
 8383TIP3   OH249343   2.674   3.635  11.224  0.0553 -0.1026 -0.2430
 8383TIP3    H149344   2.598   3.685  11.193 -1.2759 -1.2429  1.0762
 8383TIP3    H249345   2.737   3.702  11.251 -0.4789  0.8646 -1.3105
 8384TIP3   OH249346   2.415   6.112  11.704 -0.1005 -0.0219  0.2134
 8384TIP3    H149347   2.381   6.037  11.753  0.3802 -0.3149  0.1017
 8384TIP3    H249348   2.481   6.074  11.646 -0.6132  0.3288 -0.6113
 8385TIP3   OH249349   4.338   1.336   9.297  0.3949 -0.0899  0.1678
 8385TIP3    H149350   4.305   1.402   9.357 -0.1554  0.9223 -1.1838
 8385TIP3    H249351   4.260   1.302   9.253  0.8843  0.3063 -1.0515
 8386TIP3   OH249352   4.589   4.501  11.769  0.3348 -0.3765  0.5164
 8386TIP3    H149353   4.555   4.471  11.854 -1.2497 -1.0981 -0.3308
 8386TIP3    H249354   4.651   4.433  11.743  0.5907 -0.3102  0.9301
 8387TIP3   OH249355   3.445   5.110   9.596  0.0552 -0.8206  0.3706
 8387TIP3    H149356   3.485   5.028   9.567  0.0697 -0.8067  0.3504
 8387TIP3    H249357   3.444   5.165   9.518  2.1096  0.0190  0.8710
 8388TIP3   OH249358   0.246   2.049  10.960 -0.1145 -0.6712  0.2442
 8388TIP3    H149359   0.240   2.062  11.054 -0.6533 -1.4573  0.3333
 8388TIP3    H249360   0.167   2.090  10.924  1.5386  2.3833 -0.2382
 8389TIP3   OH249361   0.808   1.576  10.040  0.2639 -0.1386  0.1157
 8389TIP3    H149362   0.764   1.497  10.070  0.0261 -1.3569 -3.0803
 8389TIP3    H249363   0.737   1.640  10.028  0.0340 -0.4503 -0.1969
 8390TIP3   OH249364   6.496   0.447   9.220 -0.6523  0.1466  0.3719
 8390TIP3    H149365   6.466   0.416   9.135 -0.5653  0.4464  0.2313
 8390TIP3    H249366   6.569   0.506   9.200 -2.9541  3.2517  0.3310
 8391TIP3   OH249367   1.458   1.407  11.332  0.3537 -0.2615 -0.4348
 8391TIP3    H149368   1.511   1.433  11.407 -0.4152  0.7944 -0.2405
 8391TIP3    H249369   1.522   1.370  11.270  1.0651 -0.6538  0.4934
 8392TIP3   OH249370   5.497   4.894  11.489 -0.1380  0.0585 -0.2427
 8392TIP3    H149371   5.439   4.828  11.528 -0.0060 -0.6601 -1.2334
 8392TIP3    H249372   5.581   4.849  11.479  0.4111  0.8812  0.5392
 8393TIP3   OH249373   4.810   1.379  10.253  0.7182 -0.1316 -0.2704
 8393TIP3    H149374   4.838   1.466  10.279  0.6377 -0.5200  1.1801
 8393TIP3    H249375   4.715   1.381  10.260  0.8108 -0.9277  1.8484
 8394TIP3   OH249376   3.372   5.239  11.107  0.2426  0.0005  0.2423
 8394TIP3    H149377   3.370   5.309  11.173 -0.2935  0.0992  0.1233
 8394TIP3    H249378   3.464   5.214  11.103 -0.0307 -1.9547  3.0642
 8395TIP3   OH249379   5.434   4.792   9.194  0.0706  0.3773 -0.0252
 8395TIP3    H149380   5.490   4.805   9.271  2.5599 -2.9116 -1.0890
 8395TIP3    H249381   5.469   4.852   9.128 -0.0092  0.9030  0.4037
 8396TIP3   OH249382   3.705   3.314  10.492  0.2112  0.2530  0.3065
 8396TIP3    H149383   3.611   3.315  10.477  0.1902 -0.5857  0.3649
 8396TIP3    H249384   3.725   3.404  10.519 -0.6530  0.3034  0.8228
 8397TIP3   OH249385   0.219   2.572   8.901 -0.4138 -0.0890  0.2566
 8397TIP3    H149386   0.167   2.512   8.955  0.7987 -1.4852 -0.0871
 8397TIP3    H249387   0.270   2.515   8.843 -1.2589  1.3309 -2.0424
 8398TIP3   OH249388   3.247   4.923   9.179  0.1973  0.0822 -0.3153
 8398TIP3    H149389   3.230   4.997   9.238  0.3078 -0.6320  0.6500
 8398TIP3    H249390   3.340   4.928   9.160  0.3711 -0.2453  0.3963
 8399TIP3   OH249391   4.622   3.192  11.520  0.0389 -0.1751 -0.4112
 8399TIP3    H149392   4.670   3.161  11.597 -0.2951  0.0272 -0.1192
 8399TIP3    H249393   4.690   3.210  11.455  0.4845  1.2990  0.4096
 8400TIP3   OH249394   6.525   4.539   9.525 -0.3811 -0.2247  0.1126
 8400TIP3    H149395   6.484   4.472   9.579 -1.0841 -0.9902 -1.3038
 8400TIP3    H249396   6.469   4.544   9.447 -0.3320  1.9874  0.1415
 8401TIP3   OH249397   2.646   5.479  11.807 -0.0039 -1.1058 -0.2565
 8401TIP3    H149398   2.600   5.396  11.796  0.1878 -1.0620 -1.5231
 8401TIP3    H249399   2.594   5.543  11.758 -0.0243 -0.5118  0.5097
 8402TIP3   OH249400   2.783   1.161   9.552  0.0019 -0.2168  0.6790
 8402TIP3    H149401   2.773   1.089   9.614 -2.1391 -0.7994 -0.2795
 8402TIP3    H249402   2.869   1.146   9.512 -0.4520 -2.3248  0.4022
 8403TIP3   OH249403   2.248   3.623  13.104 -0.0391  0.9828 -0.5406
 8403TIP3    H149404   2.327   3.570  13.115 -0.5940  0.3327  0.5135
 8403TIP3    H249405   2.192   3.597  13.177 -0.9005  2.0219 -0.8104
 8404TIP3   OH249406   0.229   1.202   8.746  0.5160  0.4381  0.4897
 8404TIP3    H149407   0.310   1.199   8.694  0.5611  1.4909  0.4813
 8404TIP3    H249408   0.239   1.279   8.802 -1.0671  1.4333 -0.5046
 8405TIP3   OH249409   1.298   6.291   9.994 -0.4054  0.0839 -0.1367
 8405TIP3    H149410   1.213   6.247   9.990  0.2924 -1.2992 -3.0355
 8405TIP3    H249411   1.319   6.308   9.902  2.1186  1.0490  0.5552
 8406TIP3   OH249412   1.572   1.583  10.730 -0.5749 -0.4113  0.3917
 8406TIP3    H149413   1.623   1.507  10.761  0.2957  0.3531  0.8766
 8406TIP3    H249414   1.619   1.613  10.653  0.9597  1.5193  1.9584
 8407TIP3   OH249415   0.717   5.748   8.473  0.1797  0.0310  0.2187
 8407TIP3    H149416   0.640   5.775   8.424 -1.0224 -1.2775  1.2883
 8407TIP3    H249417   0.755   5.676   8.422 -1.2820 -1.5809  1.2727
 8408TIP3   OH249418   4.801   0.811  10.193 -0.7355 -0.1218 -0.1470
 8408TIP3    H149419   4.794   0.844  10.104 -1.0230 -2.5237 -1.0722
 8408TIP3    H249420   4.819   0.718  10.184  1.8780 -0.0096  2.3055
 8409TIP3   OH249421   3.396   6.107  11.051 -0.1695 -0.0325  0.4499
 8409TIP3    H149422   3.430   6.029  11.007  0.2063  0.1776  0.3602
 8409TIP3    H249423   3.326   6.138  10.994  0.6475  0.5270 -0.2761
 8410TIP3   OH249424   0.589   1.057  10.001 -0.2527  0.0409  0.0816
 8410TIP3    H149425   0.668   1.105  10.026  0.0642 -0.7444  0.6107
 8410TIP3    H249426   0.602   1.036   9.909 -0.3110  0.7970 -0.1090
 8411TIP3   OH249427   4.106   4.545   9.464 -0.5416 -0.5868  0.2038
 8411TIP3    H149428   4.119   4.551   9.369  1.3672  0.1847  0.4644
 8411TIP3    H249429   4.112   4.635   9.495  1.4023 -1.0145  1.2909
 8412TIP3   OH249430   0.880   3.553   8.895  0.4984 -0.0922  0.0763
 8412TIP3    H149431   0.855   3.496   8.822  0.3054  0.7901 -0.5717
 8412TIP3    H249432   0.889   3.639   8.855 -1.5007  0.8127  1.4378
 8413TIP3   OH249433   1.236   5.404  11.386  0.4852  0.3256 -0.6378
 8413TIP3    H149434   1.328   5.379  11.383  0.4956  0.2980 -0.1090
 8413TIP3    H249435   1.190   5.326  11.416  0.5546  0.9827  1.3472
 8414TIP3   OH249436   4.376   1.236   8.880 -0.0462  0.1150 -0.2997
 8414TIP3    H149437   4.342   1.318   8.915  0.4891  0.1889  0.0669
 8414TIP3    H249438   4.298   1.186   8.855 -0.4082  0.3705  0.2954
 8415TIP3   OH249439   0.071   4.308  10.604 -0.5013 -0.3512 -0.1505
 8415TIP3    H149440  -0.004   4.301  10.545  0.0767  0.8921 -1.0786
 8415TIP3    H249441   0.147   4.297  10.547  0.0912  1.5399  0.2150
 8416TIP3   OH249442   1.228   6.030  11.190  0.0856  0.2063 -0.4565
 8416TIP3    H149443   1.238   5.984  11.274 -0.1579  0.5566 -0.2341
 8416TIP3    H249444   1.277   6.111  11.201  0.4043  0.0664 -0.8046
 8417TIP3   OH249445   4.271   4.460   9.156 -0.0701  0.8777  0.0551
 8417TIP3    H149446   4.284   4.517   9.080 -1.7306 -0.1415 -1.0415
 8417TIP3    H249447   4.320   4.381   9.134  1.1917  1.3670  1.0169
 8418TIP3   OH249448   0.425   3.797  10.436 -0.0669 -0.3797 -0.4621
 8418TIP3    H149449   0.435   3.781  10.530  0.2283 -2.2833 -0.7722
 8418TIP3    H249450   0.410   3.891  10.429  3.6505  0.5308  1.2158
 8419TIP3   OH249451   0.170   2.612  12.026  0.0960 -0.5295  0.0691
 8419TIP3    H149452   0.251   2.606  11.975 -0.1139  0.2868 -0.3667
 8419TIP3    H249453   0.115   2.541  11.991 -0.0076 -0.0385 -0.7839
 8420TIP3   OH249454   4.557   5.967  10.974  0.0986 -0.1023 -0.0130
 8420TIP3    H149455   4.587   5.969  10.883 -0.7242 -1.5077 -0.3440
 8420TIP3    H249456   4.619   6.023  11.021  1.2098 -0.2512 -1.2492
 8421TIP3   OH249457   5.904   5.541  12.050  0.0775  0.2171  0.1414
 8421TIP3    H149458   5.997   5.563  12.041 -0.1938  1.9635  1.0832
 8421TIP3    H249459   5.887   5.543  12.144 -1.3108  1.9740 -0.0826
 8422TIP3   OH249460   0.223   5.257   9.267  0.2557 -0.2144  0.2711
 8422TIP3    H149461   0.245   5.192   9.200  1.2623  0.0216  0.3582
 8422TIP3    H249462   0.168   5.321   9.220  1.0061 -0.0141 -0.3589
 8423TIP3   OH249463   2.811   1.214  10.201 -0.8838 -0.4192 -0.0620
 8423TIP3    H149464   2.781   1.240  10.288  0.8115  0.6808  0.2426
 8423TIP3    H249465   2.761   1.269  10.141  0.4505  1.4200  0.4318
 8424TIP3   OH249466   1.016   5.684  10.284 -0.2900  0.3582 -0.2380
 8424TIP3    H149467   1.045   5.760  10.233  1.9330  0.3474  0.8867
 8424TIP3    H249468   1.086   5.620  10.272 -1.3607 -0.9191  0.1509
 8425TIP3   OH249469   0.762   6.016  11.349  1.1537  0.3176 -0.8363
 8425TIP3    H149470   0.799   6.102  11.329  1.5973  0.0411 -1.2168
 8425TIP3    H249471   0.821   5.954  11.308  1.1048 -0.1945 -0.1524
 8426TIP3   OH249472   1.618   3.611   9.380 -0.4507  0.2947 -0.2889
 8426TIP3    H149473   1.606   3.537   9.440  0.2638 -1.1170 -1.8428
 8426TIP3    H249474   1.568   3.588   9.302  2.4072 -0.1666 -2.1332
 8427TIP3   OH249475   5.479   0.164  11.838  0.0971  0.3390 -0.0404
 8427TIP3    H149476   5.490   0.259  11.838  0.4245  0.3695 -2.5772
 8427TIP3    H249477   5.550   0.132  11.892  0.3032  1.5117  0.4145
 8428TIP3   OH249478   6.112   6.469   8.781 -0.6298 -0.3100  0.3191
 8428TIP3    H149479   6.163   6.415   8.721 -0.8981 -0.4569  0.2192
 8428TIP3    H249480   6.060   6.406   8.831  1.4715 -0.4200  2.5524
 8429TIP3   OH249481   1.968   3.233  10.538 -0.2211 -0.1905  0.0128
 8429TIP3    H149482   1.984   3.323  10.509  0.8114  0.1064  1.4028
 8429TIP3    H249483   1.924   3.242  10.622 -2.0304 -1.0362 -0.7632
 8430TIP3   OH249484   4.306   3.836   9.119 -0.1578  0.1082  0.0821
 8430TIP3    H149485   4.274   3.834   9.028 -1.4889  0.0158  0.5238
 8430TIP3    H249486   4.302   3.745   9.148  0.0768  0.1649  0.2937
 8431TIP3   OH249487   4.960   6.427  11.341 -0.4467  0.0154  0.1360
 8431TIP3    H149488   5.008   6.345  11.344  0.2705  0.4181 -0.0817
 8431TIP3    H249489   4.869   6.402  11.326  0.1652 -0.6276 -3.0898
 8432TIP3   OH249490   3.887   2.439  11.624  0.0672 -0.3095  0.0493
 8432TIP3    H149491   3.819   2.468  11.686  1.1696 -0.6637  1.4828
 8432TIP3    H249492   3.916   2.519  11.581 -1.3293 -0.1687 -0.6837
 8433TIP3   OH249493   4.802   3.495   8.699 -0.4647  0.5390  0.2474
 8433TIP3    H149494   4.755   3.544   8.632 -0.3785  0.9608  0.4899
 8433TIP3    H249495   4.880   3.462   8.656 -1.3868 -0.9031 -0.3967
 8434TIP3   OH249496   0.404   3.696   9.550 -0.2151  0.9393  0.3471
 8434TIP3    H149497   0.319   3.739   9.538 -0.1735  0.2922 -3.4160
 8434TIP3    H249498   0.388   3.630   9.617 -2.8291  0.5842 -0.5010
 8435TIP3   OH249499   6.198   2.537   8.884  0.7277  0.1931  0.8133
 8435TIP3    H149500   6.278   2.553   8.934  1.6187 -0.3690 -0.3819
 8435TIP3    H249501   6.148   2.475   8.937  1.6842 -0.4436  0.9973
 8436TIP3   OH249502   1.994   2.159  10.321 -0.4059  0.2886  1.4004
 8436TIP3    H149503   1.944   2.078  10.323 -0.7973  0.4295 -0.6278
 8436TIP3    H249504   1.953   2.214  10.388 -1.5810 -0.3782  1.2616
 8437TIP3   OH249505   5.031   1.733   8.448  0.2692  0.7433 -0.3507
 8437TIP3    H149506   5.053   1.789   8.374 -0.6313 -0.4567 -1.5487
 8437TIP3    H249507   5.116   1.702   8.480  0.6029 -0.8831 -2.6030
 8438TIP3   OH249508   5.203   0.216  10.317  0.0324  0.4698 -0.0013
 8438TIP3    H149509   5.240   0.296  10.354  2.7574 -1.6202  2.3568
 8438TIP3    H249510   5.180   0.163  10.394 -0.9254 -1.3348 -1.4541
 8439TIP3   OH249511   4.859   0.265   9.780  0.5577  0.4319  0.4936
 8439TIP3    H149512   4.918   0.251   9.706 -1.3499 -1.5859 -0.7653
 8439TIP3    H249513   4.788   0.318   9.744 -0.0550  0.0055  1.0447
 8440TIP3   OH249514   0.018   6.575   9.407 -0.0169  0.5894 -0.9011
 8440TIP3    H149515  -0.046   6.620   9.352 -0.9858  0.9614  0.4716
 8440TIP3    H249516   0.014   6.483   9.379 -1.9444  0.4023 -0.1559
 8441TIP3   OH249517   4.266   4.035  11.135 -0.1898 -0.0225  0.2511
 8441TIP3    H149518   4.213   3.998  11.206 -0.1915 -0.1509  0.1837
 8441TIP3    H249519   4.204   4.081  11.079 -0.2599 -0.3343  0.0677
 8442TIP3   OH249520   1.313   3.790  10.918 -0.0065  0.0051 -0.3379
 8442TIP3    H149521   1.254   3.865  10.905  0.3632  0.4510  0.5089
 8442TIP3    H249522   1.266   3.716  10.879  0.0512  0.8420 -2.1054
 8443TIP3   OH249523   3.851   3.784  12.414 -0.0588 -0.1865  0.4153
 8443TIP3    H149524   3.824   3.842  12.486  0.2807  0.9152 -0.3129
 8443TIP3    H249525   3.891   3.709  12.458  0.4237  0.6081  1.3869
 8444TIP3   OH249526   0.480   2.938   9.625 -0.0817  0.1962 -0.0391
 8444TIP3    H149527   0.494   3.007   9.689 -2.5175  0.6407  0.1218
 8444TIP3    H249528   0.499   2.857   9.672 -0.0571  0.6046  0.6673
 8445TIP3   OH249529   1.364   3.616   8.741 -0.3244 -0.0192 -0.2139
 8445TIP3    H149530   1.403   3.548   8.797 -0.9870 -0.1479  0.1057
 8445TIP3    H249531   1.432   3.683   8.734  0.7454 -1.1673 -1.3974
 8446TIP3   OH249532   1.047   2.412  10.899  0.0692  0.1367 -0.2371
 8446TIP3    H149533   1.058   2.371  10.814 -0.0634 -1.5328  0.5003
 8446TIP3    H249534   1.089   2.352  10.960  1.1028  1.8129  0.7890
 8447TIP3   OH249535   6.336   0.037  11.146 -0.2523 -0.7221  0.3173
 8447TIP3    H149536   6.403  -0.031  11.144  0.0708 -0.4263 -1.7956
 8447TIP3    H249537   6.375   0.108  11.197  0.2942 -1.2651  0.6633
 8448TIP3   OH249538   5.976   3.815   8.412 -0.1961 -0.1514 -0.0480
 8448TIP3    H149539   6.054   3.867   8.431 -0.2612  0.5717 -1.5873
 8448TIP3    H249540   5.994   3.730   8.451  0.8109  0.3987  0.7243
 8449TIP3   OH249541   0.299   2.683  10.510  0.2406  0.2082 -0.2275
 8449TIP3    H149542   0.380   2.657  10.553  0.4097  0.5452 -0.3434
 8449TIP3    H249543   0.311   2.775  10.488  0.9532 -0.3964 -2.7396
 8450TIP3   OH249544   0.403   2.910  10.700 -0.1344 -0.5417  0.3495
 8450TIP3    H149545   0.476   2.849  10.687 -0.8113 -0.9341 -2.1035
 8450TIP3    H249546   0.338   2.859  10.748  1.0642 -0.2463  2.3925
 8451TIP3   OH249547   4.836   4.636   8.430 -0.0102 -0.5628 -0.3854
 8451TIP3    H149548   4.860   4.674   8.345 -0.0850  0.0368 -0.1417
 8451TIP3    H249549   4.865   4.700   8.494 -0.0758 -0.9533  0.0429
 8452TIP3   OH249550   5.807   2.363   9.941  0.1563 -0.5189  0.7657
 8452TIP3    H149551   5.750   2.307   9.889 -2.7436  1.3087  1.7779
 8452TIP3    H249552   5.858   2.411   9.876 -2.0829  0.3984 -0.4242
 8453TIP3   OH249553   4.657   5.552  11.775 -0.0923 -0.3624 -0.2990
 8453TIP3    H149554   4.572   5.594  11.790  0.8708  1.3890  0.7062
 8453TIP3    H249555   4.715   5.594  11.839  1.5010 -1.6215 -0.8544
 8454TIP3   OH249556   6.075   0.704  10.045 -0.7422 -0.1319 -0.1838
 8454TIP3    H149557   6.005   0.727   9.983 -2.2839 -1.4669  0.9801
 8454TIP3    H249558   6.118   0.628  10.004 -1.1222 -0.4022 -0.0882
 8455TIP3   OH249559   4.308   1.286   9.850  0.2164  0.4952  0.0502
 8455TIP3    H149560   4.365   1.308   9.776 -0.4826 -0.0845 -0.6818
 8455TIP3    H249561   4.225   1.328   9.830 -0.4920 -1.0364 -0.3410
 8456TIP3   OH249562   5.052   1.425  11.255 -0.8869  0.4175 -0.5965
 8456TIP3    H149563   5.081   1.337  11.233  0.2080  0.6045  0.0513
 8456TIP3    H249564   4.966   1.413  11.296 -0.5271 -0.3922 -0.0623
 8457TIP3   OH249565   4.946   5.759  11.153 -0.1970  0.3497 -0.3717
 8457TIP3    H149566   4.889   5.739  11.078 -0.5960  1.4008 -0.3745
 8457TIP3    H249567   4.885   5.787  11.222  0.2448  0.4236 -0.0097
 8458TIP3   OH249568   3.174   3.395  11.598  0.3457  0.2563 -0.5354
 8458TIP3    H149569   3.088   3.403  11.640  1.4786  0.9060  1.8266
 8458TIP3    H249570   3.188   3.300  11.592 -0.2878  0.1490 -0.4510
 8459TIP3   OH249571   3.183   6.564   8.964 -0.2277 -0.0843  0.4612
 8459TIP3    H149572   3.197   6.568   9.059  0.8005 -1.5724  0.4051
 8459TIP3    H249573   3.267   6.537   8.928 -1.0656 -1.2588 -0.7074
 8460TIP3   OH249574   4.379   6.389   8.722 -0.4395 -0.1415  0.3001
 8460TIP3    H149575   4.432   6.441   8.783  1.1839 -1.0046 -0.2998
 8460TIP3    H249576   4.444   6.345   8.667 -1.8469 -0.1086 -1.4393
 8461TIP3   OH249577   5.471   0.744  11.138 -0.3189 -0.9200 -0.7326
 8461TIP3    H149578   5.473   0.790  11.222 -0.7017 -0.0721 -1.1822
 8461TIP3    H249579   5.526   0.796  11.080 -0.6927 -1.0757 -1.2311
 8462TIP3   OH249580   2.513   5.656  12.817  0.0699 -0.1110  0.1665
 8462TIP3    H149581   2.470   5.578  12.851  0.6860 -0.8056 -0.6016
 8462TIP3    H249582   2.595   5.624  12.779  0.3051  0.8975 -0.2226
 8463TIP3   OH249583   4.777   1.766   8.547  0.3048 -0.0159  0.3833
 8463TIP3    H149584   4.802   1.814   8.626  0.9176 -0.0899  0.2414
 8463TIP3    H249585   4.857   1.764   8.494  0.2379 -1.0164  0.2956
 8464TIP3   OH249586   5.717   1.275   9.930 -0.2038 -0.1336  0.5353
 8464TIP3    H149587   5.637   1.328   9.928 -0.2437 -0.2079 -0.0065
 8464TIP3    H249588   5.768   1.308   9.857 -0.1180 -0.6795  0.3491
 8465TIP3   OH249589   3.383   4.348  10.291 -0.0369 -0.3472  0.0129
 8465TIP3    H149590   3.316   4.286  10.263  0.2280 -0.6343 -0.0007
 8465TIP3    H249591   3.363   4.365  10.383  0.2249 -0.9048  0.1786
 8466TIP3   OH249592   1.377   6.342  10.781  0.1261 -0.3384  0.6642
 8466TIP3    H149593   1.317   6.321  10.710  1.0243  1.8431 -0.8712
 8466TIP3    H249594   1.326   6.394  10.843 -0.0380 -0.0841  0.3144
 8467TIP3   OH249595   6.636   2.421   8.698 -0.2939  0.1200  0.8239
 8467TIP3    H149596   6.567   2.364   8.663 -2.0642  2.3441  0.3837
 8467TIP3    H249597   6.589   2.482   8.755  1.3619  1.5603  0.7270
 8468TIP3   OH249598   2.764   0.807  11.299  0.1833  0.2469 -0.0794
 8468TIP3    H149599   2.680   0.816  11.255  0.2646 -0.7167 -0.4620
 8468TIP3    H249600   2.817   0.753  11.240 -0.0568 -1.9902  1.6234
 8469TIP3   OH249601   1.267   4.459   9.688 -0.2805 -0.4025 -0.8635
 8469TIP3    H149602   1.174   4.482   9.700 -0.0863 -0.4507  1.0763
 8469TIP3    H249603   1.285   4.481   9.597 -1.9708  0.4333 -1.0462
 8470TIP3   OH249604   1.283   5.693   9.594  0.4450  0.1239 -0.3746
 8470TIP3    H149605   1.310   5.601   9.583  3.0885  0.6545  1.0226
 8470TIP3    H249606   1.339   5.742   9.534  0.7709  1.0266  0.6344
 8471TIP3   OH249607   2.430   2.445   9.239 -0.2116 -0.1857 -0.2955
 8471TIP3    H149608   2.521   2.471   9.222 -0.2008  1.4465  1.8505
 8471TIP3    H249609   2.435   2.394   9.320 -1.3069  0.7318  0.3637
 8472TIP3   OH249610   2.683   2.547   9.635 -0.3902  0.1730 -0.3980
 8472TIP3    H149611   2.620   2.607   9.674 -1.6176 -0.2405 -1.6479
 8472TIP3    H249612   2.697   2.480   9.702 -2.2249 -0.3734 -0.5003
 8473TIP3   OH249613   4.562   0.721  10.653 -0.4873  0.3099  0.1058
 8473TIP3    H149614   4.515   0.672  10.585 -0.4179 -1.5725  1.3333
 8473TIP3    H249615   4.592   0.800  10.609 -0.8401 -0.6150 -1.9260
 8474TIP3   OH249616   3.665   6.637   9.081  0.1365 -0.8804  0.2505
 8474TIP3    H149617   3.671   6.558   9.134 -0.6322 -1.1112  0.0092
 8474TIP3    H249618   3.678   6.607   8.991 -0.5122 -0.7892  0.1239
 8475TIP3   OH249619   6.511   4.754  10.798  0.1305  1.1335 -0.2943
 8475TIP3    H149620   6.477   4.735  10.885 -2.1726  1.1702 -1.1040
 8475TIP3    H249621   6.583   4.815  10.813  0.9115 -0.1640  1.6478
 8476TIP3   OH249622   5.112   2.172  10.264  0.1506  0.2350  0.2577
 8476TIP3    H149623   5.100   2.079  10.278  0.6379  0.1374  0.0453
 8476TIP3    H249624   5.060   2.191  10.186  0.3712  0.0644  0.0695
 8477TIP3   OH249625   3.553   0.684  11.291  0.3976  0.6373  0.1591
 8477TIP3    H149626   3.515   0.769  11.312  1.1933  1.1098 -0.2371
 8477TIP3    H249627   3.528   0.627  11.363  0.2129  1.3241  0.6417
 8478TIP3   OH249628   2.453   6.171  10.717  0.1481  0.4219 -0.0009
 8478TIP3    H149629   2.476   6.204  10.804  0.3815  0.7902 -0.2002
 8478TIP3    H249630   2.479   6.079  10.719  0.9312  0.6362  0.0391
 8479TIP3   OH249631   1.633   6.073   8.996 -0.1257  0.3247 -0.1553
 8479TIP3    H149632   1.601   6.160   9.020  1.7280  0.7212  1.0358
 8479TIP3    H249633   1.568   6.013   9.033 -0.2022  1.1394  1.0812
 8480TIP3   OH249634   3.237   5.159   9.367 -0.2849  0.2774  0.1981
 8480TIP3    H149635   3.271   5.248   9.372 -3.1660  1.4856  0.2353
 8480TIP3    H249636   3.165   5.157   9.431  1.5639 -3.0794  2.4925
 8481TIP3   OH249637   4.077   1.139   9.558 -0.2487  0.0961 -0.3000
 8481TIP3    H149638   4.139   1.204   9.591 -0.1384  0.3550 -1.0088
 8481TIP3    H249639   4.013   1.189   9.509 -0.5751 -0.2564 -0.2404
 8482TIP3   OH249640   2.399   2.170   9.716 -0.2833  0.3419  0.0750
 8482TIP3    H149641   2.487   2.175   9.752  0.2682 -0.3228 -1.0981
 8482TIP3    H249642   2.343   2.147   9.790  0.9183 -1.8490  0.3923
 8483TIP3   OH249643   3.375   3.356  11.791  0.2543  0.7230 -0.3089
 8483TIP3    H149644   3.325   3.363  11.873 -1.1965 -1.6624 -0.8776
 8483TIP3    H249645   3.313   3.381  11.723  0.3088 -0.6796 -0.9098
 8484TIP3   OH249646   0.732   5.972   8.638 -0.3420  0.1340  0.2973
 8484TIP3    H149647   0.764   5.889   8.602 -0.1059  0.5447 -0.4636
 8484TIP3    H249648   0.663   5.999   8.578  0.7957  1.3707 -0.5024
 8485TIP3   OH249649   5.388   3.825  10.398  0.1856 -0.3249 -0.1327
 8485TIP3    H149650   5.345   3.819  10.312 -0.3914 -1.2218  0.1958
 8485TIP3    H249651   5.375   3.738  10.436 -0.5674  0.4002  1.3289
 8486TIP3   OH249652   6.503   5.471   9.805 -0.2474  0.1197 -0.2444
 8486TIP3    H149653   6.501   5.541   9.870  0.0948 -0.8652  0.8588
 8486TIP3    H249654   6.463   5.510   9.728  0.1373  1.6020  0.2586
 8487TIP3   OH249655   6.059   5.755   9.696 -0.2656 -0.3644  0.5869
 8487TIP3    H149656   6.083   5.707   9.775  0.1547 -0.8235  0.1879
 8487TIP3    H249657   6.023   5.689   9.637 -1.5349  0.1321  0.7592
 8488TIP3   OH249658   1.853   2.424  10.236 -0.0968  0.1284  0.3528
 8488TIP3    H149659   1.891   2.377  10.310 -3.1009  0.5417  2.3421
 8488TIP3    H249660   1.844   2.514  10.267  0.9828  0.9394 -1.5388
 8489TIP3   OH249661   4.954   3.973  11.117  0.0298 -0.0461 -0.1744
 8489TIP3    H149662   5.039   3.992  11.076  0.0406 -1.2251 -0.7288
 8489TIP3    H249663   4.922   3.895  11.072 -0.4111 -0.8121  1.4014
 8490TIP3   OH249664   5.346   2.589  11.530 -0.6395 -0.3590 -0.1778
 8490TIP3    H149665   5.276   2.654  11.536 -0.4646 -0.3055  1.6231
 8490TIP3    H249666   5.394   2.614  11.451 -1.3689  0.8860 -0.2624
 8491TIP3   OH249667   2.620   4.391  10.355 -0.2471  0.2555 -0.0903
 8491TIP3    H149668   2.630   4.370  10.262 -0.3756  0.0108 -0.0508
 8491TIP3    H249669   2.550   4.333  10.385 -0.2823  0.4125  0.1338
 8492TIP3   OH249670   2.134   4.317  12.100  0.0573 -0.7608 -0.3126
 8492TIP3    H149671   2.171   4.405  12.110  1.8664 -1.2182 -2.2499
 8492TIP3    H249672   2.173   4.266  12.170 -0.5720 -0.1649  0.4866
 8493TIP3   OH249673   0.197   1.243   9.594 -0.0878 -0.3827 -0.0105
 8493TIP3    H149674   0.162   1.231   9.682 -1.5066  0.7146 -0.3812
 8493TIP3    H249675   0.234   1.158   9.571  1.0021 -0.4925  1.9069
 8494TIP3   OH249676   2.000   3.596  10.643  0.0471  0.3486 -0.3045
 8494TIP3    H149677   2.077   3.552  10.678 -0.2325  0.2866  0.2477
 8494TIP3    H249678   1.930   3.575  10.705 -0.1363  1.4094 -0.1385
 8495TIP3   OH249679   0.621   2.852  12.296  0.1880  0.2671 -0.3580
 8495TIP3    H149680   0.554   2.784  12.287  1.6702 -1.8544  3.0015
 8495TIP3    H249681   0.572   2.930  12.323 -1.2779 -0.0181 -1.9634
 8496TIP3   OH249682   6.107   0.182  10.957  0.1604  0.1345  0.6706
 8496TIP3    H149683   6.092   0.088  10.951  1.3219 -0.1267  1.5439
 8496TIP3    H249684   6.141   0.196  11.045 -1.5413  1.6238  1.1666
 8497TIP3   OH249685   0.886   2.971   8.924  0.7356  0.2808  0.2285
 8497TIP3    H149686   0.929   3.015   8.851  1.6606  0.3077  0.7669
 8497TIP3    H249687   0.956   2.921   8.967 -0.0365 -0.6970  0.3904
 8498TIP3   OH249688   3.091   5.848  11.599  0.1805  0.4513  0.1914
 8498TIP3    H149689   3.084   5.926  11.545 -1.1290  0.0040 -0.3476
 8498TIP3    H249690   3.070   5.877  11.688  0.1671  0.7941  0.0750
 8499TIP3   OH249691   4.727   0.081   9.084  0.1726  0.0300 -0.5327
 8499TIP3    H149692   4.752   0.007   9.028  2.4838 -0.6267  1.1875
 8499TIP3    H249693   4.632   0.073   9.093  0.2192 -2.0808 -1.2704
 8500TIP3   OH249694   3.027   0.123   9.854 -0.4891  0.2930 -0.0916
 8500TIP3    H149695   3.003   0.141   9.763 -1.0920  0.6566  0.1380
 8500TIP3    H249696   2.946   0.095   9.896 -0.4349  1.1447  0.5952
 8501TIP3   OH249697   4.678   4.064  11.656 -0.0656 -0.2569 -0.3573
 8501TIP3    H149698   4.597   4.080  11.609  0.0020  0.6831 -0.1783
 8501TIP3    H249699   4.747   4.077  11.591 -0.0361 -0.4008 -0.3535
 8502TIP3   OH249700   5.303   4.602  11.969 -0.2884  0.1864 -0.1290
 8502TIP3    H149701   5.213   4.635  11.966 -1.2033 -2.1149 -0.8942
 8502TIP3    H249702   5.313   4.567  12.058  0.5387  2.0224  0.5516
 8503TIP3   OH249703   3.551   5.806   8.833 -0.2164  0.0428 -0.0471
 8503TIP3    H149704   3.469   5.767   8.804  0.3018  0.6567 -2.6358
 8503TIP3    H249705   3.529   5.897   8.853  0.0295  0.6657 -2.3166
 8504TIP3   OH249706   0.254   1.442  10.985 -0.4203 -0.1510  0.3829
 8504TIP3    H149707   0.191   1.460  10.915  0.2215 -1.0126 -0.4429
 8504TIP3    H249708   0.246   1.348  11.000  0.9354 -0.3420 -0.0098
 8505TIP3   OH249709   0.729   5.891  11.589  0.2482 -0.0605 -0.3809
 8505TIP3    H149710   0.815   5.882  11.629 -0.7025  0.5956  1.9248
 8505TIP3    H249711   0.746   5.931  11.504  2.0959  1.5289  0.6791
 8506TIP3   OH249712   3.177   3.515  10.249 -0.6933  0.1667 -0.1523
 8506TIP3    H149713   3.268   3.540  10.260  0.2343 -1.5454 -2.9226
 8506TIP3    H249714   3.155   3.468  10.329  1.1980 -0.3302  0.1191
 8507TIP3   OH249715   3.154   0.542  10.318 -0.2729  0.0507 -0.1192
 8507TIP3    H149716   3.172   0.586  10.235 -0.7438 -1.0824 -0.8314
 8507TIP3    H249717   3.211   0.587  10.381  2.4398 -1.0709 -1.6029
 8508TIP3   OH249718   1.056   3.942   9.017  0.3573 -0.3304  0.0888
 8508TIP3    H149719   0.986   3.919   9.077  1.3083 -0.8525  1.0379
 8508TIP3    H249720   1.109   3.862   9.010  1.7047  0.4899  0.6045
 8509TIP3   OH249721   4.351   3.695   8.791  0.0788  0.4567 -0.7232
 8509TIP3    H149722   4.405   3.620   8.765  0.9234 -0.2275  2.5853
 8509TIP3    H249723   4.263   3.659   8.800  0.4813 -0.2424  0.8640
 8510TIP3   OH249724   3.031   6.489   9.628  0.2263 -0.1117 -0.2892
 8510TIP3    H149725   2.937   6.497   9.615  0.3595  1.9969 -0.2805
 8510TIP3    H249726   3.042   6.483   9.722  0.1154 -0.1432 -0.2781
 8511TIP3   OH249727   6.180   1.999   9.594  0.1467 -0.1560  0.4897
 8511TIP3    H149728   6.130   1.946   9.533  0.6601 -0.6142  0.4633
 8511TIP3    H249729   6.189   2.084   9.549 -0.4658 -0.1126  0.4340
 8512TIP3   OH249730   3.142   6.682  11.323  0.7062  0.3812  0.0442
 8512TIP3    H149731   3.069   6.741  11.344  1.3886  1.5480 -0.7730
 8512TIP3    H249732   3.217   6.720  11.367  1.2735  0.4798 -0.9678
 8513TIP3   OH249733   1.772   0.792   9.714  0.9581 -0.0184  0.4968
 8513TIP3    H149734   1.716   0.738   9.770 -0.8287 -1.0125 -2.0335
 8513TIP3    H249735   1.769   0.879   9.754 -1.0013 -0.4487  1.4434
 8514TIP3   OH249736   4.197   5.141  11.393 -0.5685  0.6254  0.4825
 8514TIP3    H149737   4.212   5.172  11.304  1.1705 -0.3832  0.3805
 8514TIP3    H249738   4.189   5.046  11.384 -3.6659  0.7102  1.0403
 8515TIP3   OH249739   3.695   5.366   9.465 -0.0225  0.3148  0.2529
 8515TIP3    H149740   3.684   5.272   9.449 -0.2652  0.2868  0.5614
 8515TIP3    H249741   3.790   5.379   9.470  0.0131  0.0969  0.1457
 8516TIP3   OH249742   2.573   4.243   9.115 -0.0530 -0.0242 -0.2522
 8516TIP3    H149743   2.567   4.325   9.066 -1.4437 -0.0191 -0.1127
 8516TIP3    H249744   2.568   4.270   9.207  0.7200 -0.1798 -0.1574
 8517TIP3   OH249745   3.026   1.210   9.365 -0.5243  0.3814 -1.3821
 8517TIP3    H149746   2.999   1.242   9.278  1.0545  0.7778 -1.7554
 8517TIP3    H249747   3.114   1.245   9.377 -0.5716  0.0023  0.2303
 8518TIP3   OH249748   6.421   5.677  11.953  0.4213  0.3643 -0.6612
 8518TIP3    H149749   6.504   5.716  11.982 -0.4616  1.0146  1.2212
 8518TIP3    H249750   6.446   5.612  11.888  2.4998 -0.0079  0.4035
 8519TIP3   OH249751   6.585   1.185  11.046  0.1579 -0.4755  0.2681
 8519TIP3    H149752   6.642   1.141  11.109  0.3664 -1.3106 -0.4974
 8519TIP3    H249753   6.502   1.196  11.093 -0.0939 -2.2238  0.2887
 8520TIP3   OH249754   2.762   2.224   9.002  0.3866  0.1153 -0.0040
 8520TIP3    H149755   2.760   2.239   9.096  2.2784  1.4805 -0.1126
 8520TIP3    H249756   2.708   2.294   8.965 -0.2712 -0.3587  0.0506
 8521TIP3   OH249757   2.936   3.791  11.349  0.4654  0.0384  0.0743
 8521TIP3    H149758   2.898   3.835  11.273  1.4802  1.3372  0.2731
 8521TIP3    H249759   2.905   3.842  11.424  0.4887 -0.4665  0.4355
 8522TIP3   OH249760   5.786   3.049   9.441 -0.0181 -0.6056  0.3611
 8522TIP3    H149761   5.798   3.144   9.442  1.2978 -0.7361 -0.1571
 8522TIP3    H249762   5.875   3.014   9.440 -0.4003 -1.7924 -2.1826
 8523TIP3   OH249763   3.707   1.669   8.726  0.4558  0.1197  0.2254
 8523TIP3    H149764   3.784   1.696   8.675 -0.2837 -0.1914 -1.0965
 8523TIP3    H249765   3.653   1.749   8.731  0.6459  0.2169  0.7508
 8524TIP3   OH249766   6.290   0.674  10.700  0.3957  0.1329  0.0998
 8524TIP3    H149767   6.331   0.589  10.683  2.5704  1.0723  0.3474
 8524TIP3    H249768   6.309   0.691  10.792 -1.0996  0.3672  0.3898
 8525TIP3   OH249769   2.081   4.657  10.149 -0.7883 -0.0478 -0.6712
 8525TIP3    H149770   2.149   4.597  10.180 -0.5311 -0.1257 -1.3519
 8525TIP3    H249771   2.068   4.719  10.221 -0.6622 -0.5909 -0.1776
 8526TIP3   OH249772   1.314   4.522  12.206  0.2465 -0.5603 -0.2296
 8526TIP3    H149773   1.244   4.467  12.241 -1.7703  1.5210 -0.7308
 8526TIP3    H249774   1.354   4.563  12.283  1.7282 -2.5383  0.1425
 8527TIP3   OH249775   4.617   1.873  10.517 -0.1629 -0.3375 -0.4178
 8527TIP3    H149776   4.582   1.959  10.540 -0.8923 -0.4498 -1.0575
 8527TIP3    H249777   4.541   1.815  10.517 -0.3781 -0.2218 -3.6510
 8528TIP3   OH249778   6.244   5.176  10.883 -0.1087  0.0116 -0.8423
 8528TIP3    H149779   6.235   5.089  10.844 -1.6924 -0.1255 -0.2683
 8528TIP3    H249780   6.261   5.159  10.975  0.6999  0.3260 -0.9290
 8529TIP3   OH249781   5.897   0.574   9.192 -0.1257  0.2540 -0.0738
 8529TIP3    H149782   5.856   0.520   9.260  0.6769 -2.3904 -1.5793
 8529TIP3    H249783   5.958   0.629   9.240 -0.6756 -0.4411  1.5039
 8530TIP3   OH249784   4.413   5.877   9.271 -0.3282  0.4673 -0.0541
 8530TIP3    H149785   4.372   5.839   9.349 -1.2195  1.0247 -0.2373
 8530TIP3    H249786   4.489   5.924   9.305 -0.8682  0.9443  0.5286
 8531TIP3   OH249787   3.385   0.982  10.452  0.3960 -0.4006 -0.0082
 8531TIP3    H149788   3.411   1.050  10.514  0.7304 -0.2030 -0.3662
 8531TIP3    H249789   3.289   0.980  10.459  0.4327 -0.4249  0.5588
 8532TIP3   OH249790   4.092   0.172   9.288  0.2734  0.5519 -0.4082
 8532TIP3    H149791   4.008   0.217   9.277  0.1546 -0.0116 -2.1028
 8532TIP3    H249792   4.123   0.159   9.199  0.4477 -2.4769  0.0002
 8533TIP3   OH249793   5.873   0.427  10.220  0.1521 -0.4176 -0.3081
 8533TIP3    H149794   5.832   0.345  10.192  0.4773 -0.5109 -0.5238
 8533TIP3    H249795   5.869   0.484  10.144  0.9485 -0.6371 -0.5299
 8534TIP3   OH249796   3.051   0.716  11.478 -0.1731 -0.1365  0.0502
 8534TIP3    H149797   3.063   0.664  11.398 -0.1397 -0.8497  0.5084
 8534TIP3    H249798   2.984   0.670  11.527  0.2373 -0.0475  0.7115
 8535TIP3   OH249799   4.961   0.665   9.603  0.1227 -0.6078  0.2898
 8535TIP3    H149800   4.937   0.578   9.572 -0.0327 -0.8483  1.0508
 8535TIP3    H249801   5.007   0.649   9.685 -0.2312  0.0469  0.6261
 8536TIP3   OH249802   2.159   3.274  11.512 -0.7688  0.3240 -0.1560
 8536TIP3    H149803   2.232   3.325  11.475  0.3344  0.3411  1.8788
 8536TIP3    H249804   2.151   3.306  11.602 -1.5429 -1.5380  0.4849
 8537TIP3   OH249805   3.964   1.753  10.344  0.2114  0.4225 -0.0918
 8537TIP3    H149806   4.016   1.755  10.264  1.1380  1.5223  0.4961
 8537TIP3    H249807   3.927   1.841  10.351  0.7108  0.5679  1.0250
 8538TIP3   OH249808   2.273   2.938   8.853 -0.1798 -0.5329  0.1615
 8538TIP3    H149809   2.237   2.858   8.892 -1.0016 -0.9570 -1.3720
 8538TIP3    H249810   2.207   2.964   8.788  0.9386  0.3527 -0.6493
 8539TIP3   OH249811   5.446   3.825  11.243  0.3006  0.1482  0.1924
 8539TIP3    H149812   5.504   3.784  11.307  0.3270 -1.5068 -0.8423
 8539TIP3    H249813   5.438   3.761  11.173  0.3412  1.9333 -1.5241
 8540TIP3   OH249814   3.611   4.699  10.305 -0.1025 -0.1417 -0.3820
 8540TIP3    H149815   3.702   4.728  10.308 -0.4720  1.0997 -0.7276
 8540TIP3    H249816   3.591   4.674  10.395 -0.1836  2.0537  0.2539
 8541TIP3   OH249817   6.439   0.347   9.753 -0.3304 -0.3944  0.0269
 8541TIP3    H149818   6.512   0.326   9.694  0.1160  1.1268 -0.0214
 8541TIP3    H249819   6.383   0.270   9.750  1.9730 -2.2414  1.1771
 8542TIP3   OH249820   3.915   1.887  10.701  0.0430  0.1176 -0.2106
 8542TIP3    H149821   3.882   1.798  10.712 -1.3586  0.5724 -0.5355
 8542TIP3    H249822   3.877   1.935  10.775 -3.1174  1.4633 -2.4749
 8543TIP3   OH249823   2.496   3.762  11.045 -0.0321 -0.7839  0.0005
 8543TIP3    H149824   2.420   3.718  11.083 -0.4719  0.1105  0.1922
 8543TIP3    H249825   2.459   3.829  10.988  0.6223 -0.6761 -0.3078
 8544TIP3   OH249826   4.451   2.824  10.261  0.3390  0.2849 -0.2996
 8544TIP3    H149827   4.456   2.784  10.174  0.1762  0.0043 -0.1811
 8544TIP3    H249828   4.512   2.772  10.315 -0.6053 -0.4344  0.0974
 8545TIP3   OH249829   2.586   2.884   8.806 -0.4424  0.1738 -0.3370
 8545TIP3    H149830   2.611   2.854   8.719 -0.2665 -0.0388 -0.2130
 8545TIP3    H249831   2.490   2.882   8.805 -0.4740 -2.7651  0.4521
 8546TIP3   OH249832   5.015   3.355  11.785 -0.0292 -0.1257  0.9681
 8546TIP3    H149833   5.013   3.285  11.719  3.6651  0.3505  0.1387
 8546TIP3    H249834   4.981   3.314  11.864 -0.4130 -2.0725 -0.1291
 8547TIP3   OH249835   2.004   4.215   8.383 -0.0102  0.0482  0.5399
 8547TIP3    H149836   2.034   4.282   8.445  2.4785  0.6457 -1.1374
 8547TIP3    H249837   2.001   4.260   8.299  0.6312 -1.6530 -0.4485
 8548TIP3   OH249838   6.102   4.139   9.551 -0.0458  0.0342  0.0931
 8548TIP3    H149839   6.095   4.223   9.597 -1.1867 -0.9442  1.8280
 8548TIP3    H249840   6.042   4.081   9.598 -1.2434 -1.0979 -2.6013
 8549TIP3   OH249841   0.401   2.248  10.165  0.3678  0.4152  0.3259
 8549TIP3    H149842   0.398   2.340  10.193  1.0561  0.8738 -1.0195
 8549TIP3    H249843   0.310   2.220  10.167 -0.0747  1.6305 -0.7335
 8550TIP3   OH249844   4.724   6.539  18.521 -0.4279 -0.5958  0.4146
 8550TIP3    H149845   4.712   6.620  18.570 -0.2158 -0.2683 -0.0681
 8550TIP3    H249846   4.642   6.491  18.534 -0.8380  0.0120  0.1112
 8551TIP3   OH249847   5.492   4.951   8.950  0.1275  0.2361 -0.1651
 8551TIP3    H149848   5.408   4.971   8.908 -2.0316 -2.4341  2.4608
 8551TIP3    H249849   5.540   4.900   8.884 -0.2397  1.7821 -1.7052
 8552TIP3   OH249850   3.519   5.308  11.890  0.1157 -0.3128  0.1180
 8552TIP3    H149851   3.471   5.226  11.902 -0.0966 -0.2315 -0.1653
 8552TIP3    H249852   3.458   5.376  11.919  0.6278 -0.3120  1.2414
 8553TIP3   OH249853   4.795   6.568   8.891  0.0352 -1.0001  0.6218
 8553TIP3    H149854   4.802   6.593   8.799 -0.2147 -1.4302  0.4861
 8553TIP3    H249855   4.808   6.473   8.892 -0.8089 -1.1206  0.9331
 8554TIP3   OH249856   5.145   3.189   9.441 -0.1496 -0.1037 -0.2778
 8554TIP3    H149857   5.115   3.260   9.385 -0.1504  0.2021  0.1031
 8554TIP3    H249858   5.240   3.199   9.444 -0.0928 -0.4933 -0.7175
 8555TIP3   OH249859   5.256   2.797  11.995 -0.6779  0.1583  0.0220
 8555TIP3    H149860   5.265   2.886  12.029  1.8692 -0.3989  1.0284
 8555TIP3    H249861   5.176   2.763  12.036 -0.3008  1.1561  1.6686
 8556TIP3   OH249862   3.923   2.914  12.071 -0.6080 -0.0853  0.5611
 8556TIP3    H149863   3.989   2.867  12.123 -0.0688 -0.7552 -0.6764
 8556TIP3    H249864   3.898   2.852  12.003 -0.5405  1.1126 -0.5934
 8557TIP3   OH249865   2.677   5.440  12.191 -0.1803  0.1813  0.0412
 8557TIP3    H149866   2.681   5.372  12.258 -1.1577 -0.7244 -0.7784
 8557TIP3    H249867   2.721   5.515  12.230 -1.3417 -0.0842  1.9780
 8558TIP3   OH249868   0.371   5.048   9.118 -0.3712 -0.0322  0.5617
 8558TIP3    H149869   0.449   5.004   9.085 -0.8980 -0.7921  0.2880
 8558TIP3    H249870   0.320   4.978   9.160 -0.5885  0.5785  1.3464
 8559TIP3   OH249871   5.486   1.427  10.458 -0.2036 -0.6368 -0.1499
 8559TIP3    H149872   5.440   1.501  10.417  1.2768 -1.4301 -3.5920
 8559TIP3    H249873   5.552   1.468  10.514  0.6906  0.7410 -2.0941
 8560TIP3   OH249874   5.843   2.398   9.609 -0.6320 -0.3772  0.3881
 8560TIP3    H149875   5.939   2.400   9.611 -0.6445  0.3552  0.4995
 8560TIP3    H249876   5.820   2.431   9.522 -0.7902 -0.4297  0.4089
 8561TIP3   OH249877   0.664   3.666   9.736 -0.1216 -0.1773 -0.2137
 8561TIP3    H149878   0.578   3.708   9.739 -0.5049 -0.7774 -1.6336
 8561TIP3    H249879   0.660   3.610   9.658  0.9276 -1.6150  0.7251
 8562TIP3   OH249880   5.106   1.936  18.596  0.5480 -0.2049 -0.6506
 8562TIP3    H149881   5.126   1.871  18.663 -1.1188  0.3270  0.4112
 8562TIP3    H249882   5.189   1.979  18.578  1.1238 -0.7179  0.6930
 8563TIP3   OH249883   4.289   0.913   9.334 -0.0011 -0.5010 -0.3124
 8563TIP3    H149884   4.283   0.953   9.421  1.8038 -3.0682  1.1221
 8563TIP3    H249885   4.371   0.945   9.299 -0.8649  0.7602 -1.2751
 8564TIP3   OH249886   4.985   0.881  10.821  0.4867 -0.4381  0.1790
 8564TIP3    H149887   4.996   0.786  10.827  0.2707 -0.5628 -1.1949
 8564TIP3    H249888   4.902   0.898  10.866  1.1100 -0.7319  1.4848
 8565TIP3   OH249889   0.957   6.104   8.741  0.2546 -0.5886  0.4214
 8565TIP3    H149890   0.917   6.182   8.703  1.0982  0.5594  1.7769
 8565TIP3    H249891   0.891   6.035   8.731 -1.0875  0.6483  0.4714
 8566TIP3   OH249892   1.243   3.308  10.207  0.1693 -0.0405  0.4358
 8566TIP3    H149893   1.177   3.374  10.184 -2.3690 -1.1618  3.7666
 8566TIP3    H249894   1.194   3.228  10.221  2.6271 -1.6224  0.7363
 8567TIP3   OH249895   6.276   6.383   8.559 -0.3248 -0.4374 -0.4948
 8567TIP3    H149896   6.305   6.472   8.538 -1.7871  0.4734  1.0982
 8567TIP3    H249897   6.350   6.344   8.605 -0.0558  0.3350 -0.2620
 8568TIP3   OH249898   3.498   1.802  11.288  0.7114  0.2051  0.2503
 8568TIP3    H149899   3.457   1.889  11.284  0.2493  0.0066  0.5839
 8568TIP3    H249900   3.520   1.783  11.197 -1.1953 -0.2635 -0.1560
 8569TIP3   OH249901   2.516   4.162  12.918  0.0129  0.0519  0.1505
 8569TIP3    H149902   2.534   4.138  13.009  0.1011 -1.7017 -0.2910
 8569TIP3    H249903   2.426   4.195  12.919 -0.3835 -1.0014  0.7037
 8570TIP3   OH249904   3.974   1.834  11.672 -0.0959  0.2211 -0.1009
 8570TIP3    H149905   3.913   1.819  11.745  2.3079 -1.6012  1.7074
 8570TIP3    H249906   4.050   1.780  11.694  1.5492  1.1804 -3.0239
 8571TIP3   OH249907   4.896   2.777   9.114 -0.0638 -0.0807  0.0080
 8571TIP3    H149908   4.812   2.756   9.154  0.5377 -0.2905  1.1898
 8571TIP3    H249909   4.899   2.872   9.112 -0.9658 -0.0465 -1.4587
 8572TIP3   OH249910   1.010   3.680  11.329  0.3265  0.2629 -0.3755
 8572TIP3    H149911   0.987   3.766  11.364  1.6142 -0.1973  1.8241
 8572TIP3    H249912   0.957   3.619  11.379  1.9811 -0.4075  0.6539
 8573TIP3   OH249913   2.861   5.092   8.739 -0.0048  0.4308  0.7436
 8573TIP3    H149914   2.940   5.044   8.765  0.5317  1.5464  1.2439
 8573TIP3    H249915   2.790   5.042   8.778  0.3240 -1.2289 -0.6486
 8574TIP3   OH249916   0.783   5.318   9.114 -0.6215 -0.2298 -0.4656
 8574TIP3    H149917   0.740   5.355   9.191 -0.8965 -0.4095 -0.5295
 8574TIP3    H249918   0.711   5.280   9.063 -0.2300 -2.1205  0.2888
 8575TIP3   OH249919   0.026   0.917   9.686 -0.2292  0.0879 -0.3374
 8575TIP3    H149920  -0.041   0.986   9.688 -0.5069 -0.1366 -1.3830
 8575TIP3    H249921   0.078   0.933   9.764 -0.4249  1.3605 -0.4342
 8576TIP3   OH249922   1.087   1.156  10.787 -0.3596  0.2690  0.3629
 8576TIP3    H149923   1.142   1.078  10.776  0.7111  0.7494  1.9677
 8576TIP3    H249924   1.018   1.145  10.722 -0.9344 -2.6093  1.2815
 8577TIP3   OH249925   4.460   2.167   9.850 -0.1145  0.6554 -0.0124
 8577TIP3    H149926   4.389   2.129   9.902 -0.7872  0.0969 -1.2947
 8577TIP3    H249927   4.486   2.245   9.899  0.1206 -0.4995  1.7952
 8578TIP3   OH249928   2.746   5.251   9.456  0.2388  0.4273 -0.1371
 8578TIP3    H149929   2.696   5.169   9.464  1.1472 -0.1118  0.2753
 8578TIP3    H249930   2.680   5.320   9.459 -0.4558 -0.2477  0.7761
 8579TIP3   OH249931   4.085   0.112  10.852 -0.2958 -0.7877 -0.3719
 8579TIP3    H149932   4.161   0.095  10.907  0.8716 -0.2661 -1.7670
 8579TIP3    H249933   4.011   0.078  10.902  0.6443  0.0713  1.7107
 8580TIP3   OH249934   2.390   5.709  11.177 -0.1396 -0.4884 -0.2105
 8580TIP3    H149935   2.308   5.756  11.190  0.5364  0.7449 -0.2660
 8580TIP3    H249936   2.392   5.689  11.084  0.9144  2.0838 -0.8414
 8581TIP3   OH249937   5.659   4.195  10.035 -0.0083 -0.2028  0.4565
 8581TIP3    H149938   5.566   4.191  10.054  0.0568 -0.5571  0.7002
 8581TIP3    H249939   5.692   4.264  10.093  0.0081 -0.5745  0.8928
 8582TIP3   OH249940   5.917   2.939   9.709  0.1904 -0.0751 -0.5337
 8582TIP3    H149941   5.992   2.889   9.741 -0.9355 -0.9094  0.9401
 8582TIP3    H249942   5.841   2.884   9.727 -1.1098  2.0542  1.0424
 8583TIP3   OH249943   6.677   5.011   9.752  0.1679  0.3166 -0.0572
 8583TIP3    H149944   6.603   5.060   9.717 -2.2313 -2.6508  0.3919
 8583TIP3    H249945   6.670   4.925   9.711  2.4773 -0.5381  1.1783
 8584TIP3   OH249946   1.467   1.502   9.678 -0.2388 -0.2483  0.4174
 8584TIP3    H149947   1.426   1.448   9.610  1.7962  0.8054 -1.8198
 8584TIP3    H249948   1.540   1.450   9.710  0.7939  0.4985 -0.6355
 8585TIP3   OH249949   3.349   1.908   9.429 -0.5050  0.0102 -0.2799
 8585TIP3    H149950   3.271   1.952   9.394 -0.8102 -0.1152  0.2320
 8585TIP3    H249951   3.384   1.859   9.354  1.0007  2.6636 -1.4154
 8586TIP3   OH249952   4.612   2.929   9.872 -0.3567 -0.6679 -0.1218
 8586TIP3    H149953   4.702   2.916   9.844 -1.2349 -0.8858 -3.2353
 8586TIP3    H249954   4.594   3.022   9.856 -1.0548 -0.9190 -0.8850
 8587TIP3   OH249955   5.803   0.778   8.752  0.9197  0.0671  0.2872
 8587TIP3    H149956   5.751   0.858   8.741  0.5600 -0.1409  0.4385
 8587TIP3    H249957   5.850   0.791   8.834  0.7485  0.0657  0.3876
 8588TIP3   OH249958   5.033   5.708  11.734  0.3955  0.0067  0.4454
 8588TIP3    H149959   4.997   5.645  11.797 -0.3070 -0.6060 -0.5503
 8588TIP3    H249960   4.966   5.776  11.728 -0.6279 -1.0942 -1.3466
 8589TIP3   OH249961   3.216   4.879   9.544  0.2929  0.1257 -0.0807
 8589TIP3    H149962   3.158   4.955   9.547 -0.4576 -0.4580  1.2218
 8589TIP3    H249963   3.304   4.915   9.547 -0.0437  0.9554 -0.0557
 8590TIP3   OH249964   1.936   3.644   9.823  0.1206 -0.0617  0.1202
 8590TIP3    H149965   1.922   3.631   9.917 -0.7862 -0.3701 -0.0497
 8590TIP3    H249966   1.906   3.563   9.782  2.7058 -0.9263 -0.2871
 8591TIP3   OH249967   2.537   1.901   9.629 -0.2964 -0.5959  0.4429
 8591TIP3    H149968   2.480   1.927   9.702  0.0185  0.0484  0.4690
 8591TIP3    H249969   2.476   1.879   9.558 -0.6168  1.3211  0.0422
 8592TIP3   OH249970   5.115   5.134  10.311 -0.2417  0.0035 -0.4976
 8592TIP3    H149971   5.191   5.078  10.329 -0.5817 -1.3867 -2.9060
 8592TIP3    H249972   5.145   5.193  10.242 -0.3358  1.9061  1.0295
 8593TIP3   OH249973   3.734   0.050  10.831 -0.4769  0.1657 -0.0228
 8593TIP3    H149974   3.787   0.067  10.909 -1.5910 -0.6080  0.9289
 8593TIP3    H249975   3.754  -0.040  10.807 -0.5975  0.2070 -0.2922
 8594TIP3   OH249976   4.124   3.786  11.254 -0.1738 -0.1742  0.5532
 8594TIP3    H149977   4.048   3.736  11.282  0.2406 -1.2560 -0.1786
 8594TIP3    H249978   4.111   3.799  11.160  0.2207  0.2174  0.5462
 8595TIP3   OH249979   2.782   4.950   9.943  0.2209  0.1888 -0.6014
 8595TIP3    H149980   2.807   5.031   9.900 -0.4528  1.1128  0.6859
 8595TIP3    H249981   2.861   4.922   9.988  0.8120 -0.5685 -2.0364
 8596TIP3   OH249982   1.443   5.003  10.611 -0.1506  0.1432 -0.0539
 8596TIP3    H149983   1.374   4.947  10.646 -0.1884  0.1659 -0.0928
 8596TIP3    H249984   1.429   5.088  10.653  1.7293 -0.6515  2.4029
 8597TIP3   OH249985   2.900   3.513   9.476 -0.0264  0.5492  0.3455
 8597TIP3    H149986   2.901   3.583   9.411  0.7901  0.6438  0.4502
 8597TIP3    H249987   2.842   3.446   9.439 -0.1333  0.9099 -0.1452
 8598TIP3   OH249988   0.979   1.156   9.314  0.0218  0.0022  0.0769
 8598TIP3    H149989   0.985   1.182   9.222  0.3932 -0.9278 -0.1776
 8598TIP3    H249990   0.885   1.155   9.333 -0.0594  0.1427 -0.3041
 8599TIP3   OH249991   2.906   6.202  11.003  0.5104  0.3631  0.0756
 8599TIP3    H149992   2.881   6.112  10.982 -2.5865  0.6652  1.7945
 8599TIP3    H249993   2.953   6.233  10.926  1.4345 -2.6120 -0.6675
 8600TIP3   OH249994   5.766   0.701   9.475 -0.4454  0.5139  0.1558
 8600TIP3    H149995   5.767   0.619   9.424  1.5717  0.0903  0.7725
 8600TIP3    H249996   5.792   0.768   9.412 -1.8080  0.6555 -0.2790
 8601TIP3   OH249997   3.056   4.837  10.878  0.5625 -0.4232 -0.2299
 8601TIP3    H149998   3.060   4.742  10.890  0.9719 -0.6872 -2.0993
 8601TIP3    H249999   3.147   4.866  10.883  0.6463 -0.4167 -1.4762
 8602TIP3   OH250000   0.857   0.435   9.940 -0.0742  0.3124  0.3548
 8602TIP3    H150001   0.920   0.498   9.974  0.1593  0.4548 -0.3480
 8602TIP3    H250002   0.903   0.390   9.870 -0.3024 -0.5112  0.7184
 8603TIP3   OH250003   1.817   4.071  10.553 -0.2410  0.3973  0.0038
 8603TIP3    H150004   1.723   4.065  10.573  0.0855  1.7937  2.2481
 8603TIP3    H250005   1.840   3.984  10.522 -2.0066 -0.3645  0.6960
 8604TIP3   OH250006   4.273   1.341  11.675 -0.4021 -0.1792  0.8852
 8604TIP3    H150007   4.187   1.356  11.714 -0.8353  2.3607 -0.7908
 8604TIP3    H250008   4.299   1.427  11.641  2.1647 -1.1862  0.0735
 8605TIP3   OH250009   5.681   1.388   8.590 -0.3145 -0.1661 -0.3205
 8605TIP3    H150010   5.734   1.447   8.643 -1.3646  0.3959  0.1365
 8605TIP3    H250011   5.737   1.311   8.576  0.3303  0.0720  0.8020
 8606TIP3   OH250012   3.189   0.129   9.400  0.5765 -0.3907 -0.1921
 8606TIP3    H150013   3.213   0.044   9.362  1.4852 -0.0325 -0.4414
 8606TIP3    H250014   3.243   0.192   9.354  1.1000  0.1514  1.1271
 8607TIP3   OH250015   2.059   5.032  10.860 -0.0186  0.3138  0.0553
 8607TIP3    H150016   1.969   5.052  10.887 -0.1757 -0.1027 -0.1518
 8607TIP3    H250017   2.057   4.940  10.834 -0.5333  1.2525 -3.9364
 8608TIP3   OH250018   0.795   4.405   8.877  0.2986  0.0961  0.5186
 8608TIP3    H150019   0.846   4.385   8.799 -2.2510  0.2224 -1.2849
 8608TIP3    H250020   0.742   4.327   8.893 -1.2938  1.0950  0.3476
 8609TIP3   OH250021   3.440   3.303  10.432  0.4637  0.2081  0.2912
 8609TIP3    H150022   3.388   3.230  10.465  1.3892  0.3856  2.3051
 8609TIP3    H250023   3.394   3.381  10.464  0.7950  0.4230  0.2425
 8610TIP3   OH250024   1.246   6.306  11.227 -0.0531  0.9030  0.4661
 8610TIP3    H150025   1.155   6.280  11.212 -0.5877  2.9276 -0.0284
 8610TIP3    H250026   1.240   6.395  11.260  1.8059  1.6100 -0.9768
 8611TIP3   OH250027   0.783   4.084   9.581 -0.2216 -0.2896 -0.2845
 8611TIP3    H150028   0.871   4.121   9.583 -0.5547  0.4861  0.6817
 8611TIP3    H250029   0.789   4.004   9.632 -0.4106  0.5656  1.1150
 8612TIP3   OH250030   1.628   4.338   9.114  0.0529 -0.1116  0.1593
 8612TIP3    H150031   1.651   4.328   9.206  0.7823  2.6609  0.3727
 8612TIP3    H250032   1.668   4.262   9.071 -0.2075 -1.4098  2.0627
 8613TIP3   OH250033   6.370   0.993   9.251  0.0100  0.0052  0.0462
 8613TIP3    H150034   6.453   1.004   9.204  0.3678  1.1225  0.9038
 8613TIP3    H250035   6.378   1.049   9.328 -0.7327 -1.4506  1.2453
 8614TIP3   OH250036   4.922   2.940   8.865  0.3499  0.2045 -0.2204
 8614TIP3    H150037   4.935   2.865   8.807  0.0793 -0.5348  0.6481
 8614TIP3    H250038   4.944   2.907   8.952 -1.7886  0.5032  0.4961
 8615TIP3   OH250039   5.439   0.661   9.640 -0.0972 -0.3520 -0.3819
 8615TIP3    H150040   5.373   0.592   9.648 -1.4804  0.9700  0.2527
 8615TIP3    H250041   5.400   0.725   9.580  1.5193 -0.4827 -1.6341
 8616TIP3   OH250042   4.385   3.330   9.189  0.7847  0.3323 -0.1698
 8616TIP3    H150043   4.398   3.291   9.102  2.6576  3.3087 -1.3737
 8616TIP3    H250044   4.326   3.269   9.233  0.4673 -1.7970 -3.1723
 8617TIP3   OH250045   0.031   1.631   9.724  0.4955 -0.1938  0.2925
 8617TIP3    H150046  -0.033   1.682   9.675  0.2284 -2.4699 -1.9626
 8617TIP3    H250047   0.107   1.627   9.666  1.4917 -0.2522  1.5428
 8618TIP3   OH250048   6.447   2.542  10.522  0.0531  0.2758  0.3831
 8618TIP3    H150049   6.477   2.595  10.595  0.5079 -0.4121  0.7040
 8618TIP3    H250050   6.477   2.453  10.542  0.1005  0.0558 -0.5864
 8619TIP3   OH250051   0.506   4.709  11.734 -0.4141 -0.0041  0.3008
 8619TIP3    H150052   0.415   4.680  11.725 -0.5543  0.6589 -0.6071
 8619TIP3    H250053   0.531   4.682  11.822 -1.0882 -1.3003  0.1277
 8620TIP3   OH250054   3.735   3.215   9.291  0.1115 -0.3428 -0.3719
 8620TIP3    H150055   3.647   3.207   9.255  0.0548 -0.5582 -0.1860
 8620TIP3    H250056   3.732   3.168   9.374  0.2177  0.2397 -0.0357
 8621TIP3   OH250057   5.639   5.785  10.980  0.2275 -0.1530 -0.1254
 8621TIP3    H150058   5.551   5.747  10.988  0.2740 -1.0808 -2.9082
 8621TIP3    H250059   5.632   5.870  11.023 -1.3074 -1.2134  1.8872
 8622TIP3   OH250060   2.795   4.050  12.536 -0.1194 -0.1885 -0.1874
 8622TIP3    H150061   2.806   4.114  12.606 -1.2051 -1.1692  0.9417
 8622TIP3    H250062   2.716   4.001  12.560  0.5011 -1.7623 -1.1330
 8623TIP3   OH250063   3.104   1.323   9.679 -0.3435  0.5881  0.0424
 8623TIP3    H150064   3.034   1.383   9.703 -0.2823  0.2689  1.0931
 8623TIP3    H250065   3.088   1.245   9.733  0.0170 -0.0319 -0.7290
 8624TIP3   OH250066   5.188   0.924   9.040  0.7027 -0.2159 -0.4231
 8624TIP3    H150067   5.172   0.948   9.131  1.3315  2.0868 -0.8632
 8624TIP3    H250068   5.266   0.869   9.043  1.5690  1.0224  0.3049
 8625TIP3   OH250069   2.789   0.142  10.448 -0.2224  0.4648  0.0587
 8625TIP3    H150070   2.879   0.119  10.469 -0.9551 -1.9564  0.8603
 8625TIP3    H250071   2.739   0.062  10.462 -2.1383  0.9492 -2.9604
 8626TIP3   OH250072   6.520   0.613  10.918 -0.0832  0.5941  0.1114
 8626TIP3    H150073   6.546   0.693  10.964  1.5972 -0.9988  2.1591
 8626TIP3    H250074   6.499   0.551  10.988  1.6109 -1.6495 -1.2160
 8627TIP3   OH250075   3.627   3.885  11.888 -0.1829 -0.4351 -0.3663
 8627TIP3    H150076   3.571   3.809  11.874 -1.8663  0.9695 -1.5684
 8627TIP3    H250077   3.576   3.942  11.946 -0.7694  1.5495 -2.6800
 8628TIP3   OH250078   2.410   6.398   9.351  0.0742  0.4251 -0.5985
 8628TIP3    H150079   2.477   6.412   9.284 -0.1916  2.3951 -0.5175
 8628TIP3    H250080   2.444   6.328   9.406  2.1218  1.4576 -0.4934
 8629TIP3   OH250081   2.574   3.914  11.716  0.6636  0.4450 -0.0346
 8629TIP3    H150082   2.578   3.836  11.771 -1.6510  0.6015  0.4759
 8629TIP3    H250083   2.579   3.988  11.777  0.5907  0.6585 -0.2817
 8630TIP3   OH250084   5.211   4.730   9.363  0.5312 -0.0340 -0.4717
 8630TIP3    H150085   5.292   4.753   9.317  0.9234 -0.3866  0.0304
 8630TIP3    H250086   5.237   4.662   9.425  0.1043  0.7365  0.5792
 8631TIP3   OH250087   5.007   3.406  12.616 -0.0184  0.5847 -0.3159
 8631TIP3    H150088   4.913   3.396  12.602 -0.2806  1.0866  0.9435
 8631TIP3    H250089   5.045   3.325  12.583 -0.8179  0.6548 -1.4440
 8632TIP3   OH250090   3.364   4.765  10.586 -0.6378  0.9369  0.1704
 8632TIP3    H150091   3.331   4.854  10.600 -1.3384  0.6411  0.4388
 8632TIP3    H250092   3.459   4.776  10.580 -0.7171  1.7086  0.1506
 8633TIP3   OH250093   2.112   4.348  10.789 -0.0601  0.0718  0.1019
 8633TIP3    H150094   2.158   4.431  10.792  1.3817 -0.6412 -1.0255
 8633TIP3    H250095   2.125   4.309  10.875 -0.8999  1.0648  0.6936
 8634TIP3   OH250096   0.105   3.471  10.404  0.2989 -0.6736 -0.1480
 8634TIP3    H150097   0.093   3.451  10.311  1.3083 -1.9232 -0.0419
 8634TIP3    H250098   0.131   3.563  10.405  0.5561 -0.7174 -1.1411
 8635TIP3   OH250099   5.070   0.799   9.885  0.4218 -0.0459 -0.5821
 8635TIP3    H150100   5.069   0.894   9.874 -0.1007  0.0033 -0.1465
 8635TIP3    H250101   4.978   0.775   9.899  0.5624 -0.5998 -0.5875
 8636TIP3   OH250102   1.647   4.813  10.389 -0.0605 -0.1661 -0.0520
 8636TIP3    H150103   1.648   4.847  10.479  1.5763 -0.1849 -0.0242
 8636TIP3    H250104   1.629   4.720  10.399  0.7674 -0.3007  0.3446
 8637TIP3   OH250105   6.224   3.006  10.301 -0.5272  0.3909  0.0302
 8637TIP3    H150106   6.142   3.056  10.299 -1.8816 -1.6721  0.6153
 8637TIP3    H250107   6.276   3.044  10.231 -2.1458  1.5380 -0.6293
 8638TIP3   OH250108   4.952   4.710   8.937  0.1083  0.1089  0.8868
 8638TIP3    H150109   4.924   4.789   8.892 -4.7830 -0.8034  1.7294
 8638TIP3    H250110   5.005   4.742   9.011  0.5591  2.2945 -0.3048
 8639TIP3   OH250111   2.010   5.718  11.895  0.2924  0.7834  0.2521
 8639TIP3    H150112   1.918   5.735  11.914 -0.0788  1.4296 -1.8036
 8639TIP3    H250113   2.038   5.656  11.962 -1.8278  0.0385  0.5333
 8640TIP3   OH250114   3.118   1.014  10.455  0.6532  0.5319 -0.0865
 8640TIP3    H150115   3.105   1.022  10.361 -0.5244  0.6038  0.0715
 8640TIP3    H250116   3.068   1.087  10.492  0.4195  0.0080  0.6381
 8641TIP3   OH250117   0.306   6.684  10.950  0.1318  0.1504 -0.2204
 8641TIP3    H150118   0.261   6.662  10.869 -0.1410  1.9600 -0.6057
 8641TIP3    H250119   0.374   6.746  10.925  0.2597  0.4894  0.8780
 8642TIP3   OH250120   1.508   2.940   9.979 -0.0700  0.5687 -0.5684
 8642TIP3    H150121   1.484   2.962  10.069  0.7966 -1.7304  0.3131
 8642TIP3    H250122   1.601   2.964   9.972 -0.0037  0.2877 -0.6788
 8643TIP3   OH250123   1.489   3.703   8.977  0.3678 -0.2227  0.4217
 8643TIP3    H150124   1.563   3.644   8.992 -0.4488 -2.2670 -2.7048
 8643TIP3    H250125   1.425   3.678   9.044  1.5506 -0.0742  1.6516
 8644TIP3   OH250126   6.281   3.938  10.242 -0.3639  0.4559  0.3578
 8644TIP3    H150127   6.315   3.906  10.325  0.2954 -0.1253 -0.1253
 8644TIP3    H250128   6.227   4.014  10.265  0.8288  1.0737  1.1996
 8645TIP3   OH250129   3.192   3.385  11.986  0.8152  0.2490  0.1978
 8645TIP3    H150130   3.196   3.423  12.074  1.8371  3.5051 -1.1169
 8645TIP3    H250131   3.105   3.406  11.954  1.6590  2.4068 -0.8399
 8646TIP3   OH250132   4.096   3.087  10.632 -0.1138  0.2209 -0.3346
 8646TIP3    H150133   4.017   3.033  10.634 -0.3949  0.5207 -1.8977
 8646TIP3    H250134   4.159   3.035  10.583 -0.2026  1.0406 -1.3640
 8647TIP3   OH250135   4.077   5.449  10.561  0.3722 -0.0617  0.1440
 8647TIP3    H150136   4.089   5.432  10.468 -1.4417 -0.2177 -0.1010
 8647TIP3    H250137   3.997   5.402  10.584 -0.8159  2.2471  1.1162
 8648TIP3   OH250138   3.944   1.813   8.641  0.0434  0.7459  0.1095
 8648TIP3    H150139   3.919   1.905   8.643 -2.1469  0.1945  1.1316
 8648TIP3    H250140   4.029   1.811   8.685  1.2620  2.5137 -1.9854
 8649TIP3   OH250141   2.544   2.110  11.645  0.1046 -0.4431 -0.2333
 8649TIP3    H150142   2.582   2.181  11.697  0.7298 -2.0736  1.6263
 8649TIP3    H250143   2.493   2.059  11.707 -2.3674 -0.3135 -1.9986
 8650TIP3   OH250144   4.234   2.796  11.492  0.8754  0.4722  0.2036
 8650TIP3    H150145   4.140   2.788  11.476  1.2447 -2.5194 -1.2112
 8650TIP3    H250146   4.260   2.876  11.448 -0.6276 -0.0025 -1.6670
 8651TIP3   OH250147   2.371   4.377  11.836 -0.2271  0.0178  0.5997
 8651TIP3    H150148   2.296   4.436  11.844  0.9295  1.7122 -0.4622
 8651TIP3    H250149   2.335   4.299  11.793 -1.3977  0.7516  0.1824
 8652TIP3   OH250150   2.542   4.703   8.735  0.1456 -0.3479  0.7405
 8652TIP3    H150151   2.475   4.692   8.802 -0.0660  1.1691  0.8219
 8652TIP3    H250152   2.518   4.641   8.666 -0.8213 -0.4671  1.1734
 8653TIP3   OH250153   6.373   4.902  10.002  0.1058 -0.0842  0.3055
 8653TIP3    H150154   6.407   4.846  10.072  1.4534 -0.0894 -0.3195
 8653TIP3    H250155   6.385   4.850   9.922  0.6094  0.7782 -0.1821
 8654TIP3   OH250156   4.830   2.052   9.606  0.0641  0.0317  0.1351
 8654TIP3    H150157   4.770   1.979   9.587 -1.7775  1.3307  0.6159
 8654TIP3    H250158   4.875   2.068   9.523 -2.9989  1.3505 -1.4699
 8655TIP3   OH250159   5.911   3.402  10.793  0.0040  0.3919 -0.3844
 8655TIP3    H150160   5.857   3.480  10.781 -1.8080 -0.7239  0.0932
 8655TIP3    H250161   5.882   3.366  10.877  2.4256  0.4022  0.5256
 8656TIP3   OH250162   1.490   0.271  11.240 -0.4276 -0.9023  0.4240
 8656TIP3    H150163   1.586   0.279  11.243 -0.5648  0.7602  1.5493
 8656TIP3    H250164   1.471   0.193  11.292  0.3089 -1.5646 -0.2445
 8657TIP3   OH250165   1.895   5.705  10.821  0.3515 -0.1723  0.8453
 8657TIP3    H150166   1.824   5.643  10.840  0.5379 -0.7988 -0.3580
 8657TIP3    H250167   1.869   5.744  10.737  1.4731 -0.4856  0.3425
 8658TIP3   OH250168   5.309   3.972  10.816 -0.1920 -0.6526 -0.0471
 8658TIP3    H150169   5.273   3.900  10.766 -3.0452  0.3595  0.3828
 8658TIP3    H250170   5.307   4.047  10.756  0.7906 -0.4575  0.1483
 8659TIP3   OH250171   3.119   0.588  10.038  0.2808  0.0604 -0.2095
 8659TIP3    H150172   3.062   0.516  10.063 -1.1285  0.9549 -0.6757
 8659TIP3    H250173   3.178   0.551   9.972  0.8753 -1.1115  0.9438
 8660TIP3   OH250174   4.218   1.622   8.385  0.4805 -0.6583  0.4329
 8660TIP3    H150175   4.214   1.582   8.472 -0.8763 -1.5065  0.0199
 8660TIP3    H250176   4.305   1.600   8.352  1.2455  0.2001  1.7983
 8661TIP3   OH250177   2.508   4.076  11.296 -0.1587 -0.5836  0.1875
 8661TIP3    H150178   2.509   4.122  11.380 -0.7726 -0.6689  0.2468
 8661TIP3    H250179   2.503   3.983  11.319  2.2467 -0.7915  0.0899
 8662TIP3   OH250180   4.478   1.627   8.311  0.3243  0.0464  0.6879
 8662TIP3    H150181   4.545   1.635   8.378 -0.1605  1.6850  1.0197
 8662TIP3    H250182   4.499   1.696   8.247  0.0960 -0.7113 -0.2344
 8663TIP3   OH250183   6.205   5.459  10.316 -0.4231  0.6261  0.4439
 8663TIP3    H150184   6.292   5.499  10.313 -0.1421  0.1789  1.9870
 8663TIP3    H250185   6.206   5.395  10.245  0.9867 -0.2724  1.2231
 8664TIP3   OH250186   5.436   3.240  10.710  0.0201 -0.0567  0.6158
 8664TIP3    H150187   5.516   3.191  10.688 -0.1507 -0.9635  1.9117
 8664TIP3    H250188   5.466   3.312  10.765 -0.0317 -0.3366  1.0153
 8665TIP3   OH250189   5.637   0.430  10.401  0.4844 -0.7883 -0.1244
 8665TIP3    H150190   5.651   0.348  10.449  1.0168 -0.3301  0.5152
 8665TIP3    H250191   5.722   0.450  10.362  0.1176 -1.0334 -1.0972
 8666TIP3   OH250192   5.236   2.001  10.656 -0.8679 -0.4054  0.2499
 8666TIP3    H150193   5.180   1.931  10.688 -0.1397 -0.5759  1.1833
 8666TIP3    H250194   5.182   2.047  10.591 -2.4114 -0.0541  1.6901
 8667TIP3   OH250195   4.429   0.634  10.171 -0.5209  0.3550 -0.4980
 8667TIP3    H150196   4.482   0.708  10.141  0.4297 -0.1507 -0.1396
 8667TIP3    H250197   4.440   0.634  10.266 -0.1721 -0.4785 -0.5306
 8668TIP3   OH250198   3.312   6.203  11.595  0.3921  0.2170  0.2202
 8668TIP3    H150199   3.323   6.111  11.617 -1.1316  0.1317  0.7849
 8668TIP3    H250200   3.323   6.207  11.500 -2.2418 -1.0664 -0.2242
 8669TIP3   OH250201   1.706   1.796  11.128 -0.3780 -0.1469  0.8761
 8669TIP3    H150202   1.764   1.872  11.126  0.5900 -0.8517  1.4423
 8669TIP3    H250203   1.618   1.834  11.134  0.0242  0.9360  0.2332
 8670TIP3   OH250204   3.552   1.773  11.012 -0.3150 -0.6094  0.2072
 8670TIP3    H150205   3.643   1.798  11.023 -0.6573  0.2685  1.2676
 8670TIP3    H250206   3.555   1.683  10.979  0.9266 -0.0300 -1.3278
 8671TIP3   OH250207   2.709   4.488  12.446  0.2697  0.2172 -0.0080
 8671TIP3    H150208   2.653   4.565  12.457  0.3299  0.0504  1.7067
 8671TIP3    H250209   2.767   4.489  12.522  1.8003 -0.2935 -1.1057
 8672TIP3   OH250210   2.975   2.063  10.770  0.2385 -0.1946 -0.1075
 8672TIP3    H150211   2.920   2.048  10.846  1.0096  0.1982  0.5389
 8672TIP3    H250212   2.995   1.975  10.737 -0.8075 -0.3442 -0.3976
 8673TIP3   OH250213   2.293   4.959  11.402 -0.1847 -0.8074  0.0705
 8673TIP3    H150214   2.359   4.956  11.332 -1.2759  0.2104 -1.0468
 8673TIP3    H250215   2.228   5.021  11.371  0.5876  1.8367  3.1697
 8674TIP3   OH250216   5.812   6.394   9.044  0.1007 -0.1544 -0.1542
 8674TIP3    H150217   5.802   6.378   8.950  0.7785  0.3654 -0.3196
 8674TIP3    H250218   5.742   6.342   9.085  0.8850 -1.7770 -0.8023
 8675TIP3   OH250219   1.896   5.601  10.418 -0.2842  0.3301  0.0495
 8675TIP3    H150220   1.897   5.530  10.482 -1.7264  1.2509  1.1538
 8675TIP3    H250221   1.814   5.587  10.369  0.5675 -0.0891 -1.3255
 8676TIP3   OH250222   3.835   2.864  11.461 -0.0556  0.0344  0.4105
 8676TIP3    H150223   3.879   2.786  11.427  2.0565  1.3444 -0.0188
 8676TIP3    H250224   3.882   2.886  11.541 -1.1717  0.4036  0.9869
 8677TIP3   OH250225   1.152   0.315   8.823  0.1414 -0.4382 -0.2452
 8677TIP3    H150226   1.115   0.230   8.848  0.2219 -0.4921 -0.3086
 8677TIP3    H250227   1.097   0.345   8.751  0.1524 -0.4665 -0.2654
 8678TIP3   OH250228   2.132   3.862   9.756  0.3699  0.1831 -0.2601
 8678TIP3    H150229   2.075   3.788   9.778 -1.6129  2.1492  1.8849
 8678TIP3    H250230   2.168   3.889   9.840  2.5215  0.5911 -1.2580
 8679TIP3   OH250231   3.758   2.663  10.504 -0.0830  0.3286 -0.1397
 8679TIP3    H150232   3.769   2.577  10.465  0.8556  0.0310  0.7290
 8679TIP3    H250233   3.711   2.714  10.438  0.9288 -0.3245 -1.4097
 8680TIP3   OH250234   2.569   2.798  11.442 -0.2236 -0.2426  0.4646
 8680TIP3    H150235   2.663   2.815  11.432 -0.3664  0.4934  0.2552
 8680TIP3    H250236   2.553   2.718  11.391  0.5066 -1.0951  1.5427
 8681TIP3   OH250237   2.088   2.832  11.514 -0.7038  0.5132  0.2482
 8681TIP3    H150238   2.064   2.741  11.499  2.4908 -0.9622  2.7992
 8681TIP3    H250239   2.143   2.855  11.440 -0.5107 -0.0888  0.2003
 8682TIP3   OH250240   2.796   0.374  11.779  0.1347 -0.1152 -0.7321
 8682TIP3    H150241   2.733   0.302  11.769 -1.0290  1.1658 -4.6176
 8682TIP3    H250242   2.878   0.331  11.803 -1.6668 -2.0458  2.5998
 8683TIP3   OH250243   6.088   6.371   9.138  0.4551 -0.4137 -0.4552
 8683TIP3    H150244   5.998   6.362   9.108  0.5739 -0.7992 -0.7147
 8683TIP3    H250245   6.092   6.456   9.181 -0.0270 -0.3908 -0.4571
 8684TIP3   OH250246   4.118   2.362   9.240  0.8100 -0.3181 -0.5771
 8684TIP3    H150247   4.203   2.384   9.203  0.5206 -0.2267 -1.1957
 8684TIP3    H250248   4.090   2.441   9.286  1.1539 -0.4221 -0.1789
 8685TIP3   OH250249   2.791   0.687   9.553 -0.2015 -0.7213 -0.2988
 8685TIP3    H150250   2.885   0.696   9.568 -0.2631 -0.1446 -0.2677
 8685TIP3    H250251   2.774   0.741   9.476 -0.8941  1.0241  1.0222
 8686TIP3   OH250252   4.183   1.834  10.572  0.1764 -0.1432 -0.2286
 8686TIP3    H150253   4.113   1.857  10.634 -0.4926 -0.4889 -0.8355
 8686TIP3    H250254   4.139   1.782  10.505  0.3043  2.3464 -2.4155
 8687TIP3   OH250255   2.139   0.351  11.155 -0.2409  0.2304  0.0622
 8687TIP3    H150256   2.072   0.402  11.200 -0.6072  1.5513 -1.8427
 8687TIP3    H250257   2.094   0.270  11.130 -0.7453  0.5408 -0.0541
 8688TIP3   OH250258   1.812   6.633  11.643 -0.2244  0.0526  0.2096
 8688TIP3    H150259   1.717   6.631  11.632 -0.2491  0.3053  0.3708
 8688TIP3    H250260   1.827   6.588  11.726 -0.5499  3.4919  2.3402
 8689TIP3   OH250261   4.742   5.827  12.153 -0.3679  0.2550 -0.2263
 8689TIP3    H150262   4.689   5.820  12.233  0.2351  1.1310  0.2657
 8689TIP3    H250263   4.732   5.918  12.126  0.7319  0.3813 -0.2346
 8690TIP3   OH250264   5.734   5.650   9.847 -0.0442  0.4778  0.0504
 8690TIP3    H150265   5.752   5.559   9.825 -0.0307  0.0523  1.6706
 8690TIP3    H250266   5.654   5.671   9.799 -0.3653 -0.5713  0.0989
 8691TIP3   OH250267   1.788   4.812   9.794 -0.3418 -0.2474 -0.1806
 8691TIP3    H150268   1.706   4.812   9.744 -0.1039 -0.2782 -0.5781
 8691TIP3    H250269   1.799   4.903   9.822 -1.5226 -0.5966  1.5818
 8692TIP3   OH250270   0.206   3.714  11.422  0.2395  0.1900 -0.0473
 8692TIP3    H150271   0.153   3.718  11.343  0.0605  0.4550  0.0848
 8692TIP3    H250272   0.143   3.719  11.494  0.2925 -1.2418  0.1341
 8693TIP3   OH250273   0.131   2.093  10.192 -0.1185  0.4762  0.0931
 8693TIP3    H150274   0.063   2.154  10.164 -0.6184  0.3559  1.0127
 8693TIP3    H250275   0.115   2.079  10.285  0.5077 -0.3972  0.0900
 8694TIP3   OH250276   0.999   6.418   9.344  0.3760 -0.7374  0.2024
 8694TIP3    H150277   1.021   6.335   9.388  1.0068 -0.0582  1.2144
 8694TIP3    H250278   1.083   6.450   9.311  0.8883  1.3291  3.1168
 8695TIP3   OH250279   3.600   2.795   8.611  0.6799  0.0930 -0.5279
 8695TIP3    H150280   3.515   2.831   8.638  0.0496 -0.5716 -1.5453
 8695TIP3    H250281   3.578   2.730   8.545  1.9964 -0.1374 -0.7632
 8696TIP3   OH250282   1.993   5.970   9.761  0.0430  0.3324  0.0163
 8696TIP3    H150283   2.083   5.989   9.736  0.2319 -0.4438  0.0899
 8696TIP3    H250284   1.953   6.057   9.773  0.2790  0.7348 -1.7471
 8697TIP3   OH250285   2.519   5.194  11.447  0.8053  0.3881  0.2276
 8697TIP3    H150286   2.492   5.171  11.359 -0.0076  2.7268 -0.2164
 8697TIP3    H250287   2.550   5.285  11.440  2.7926 -0.0730  1.9533
 8698TIP3   OH250288   3.875   4.095  12.121 -0.6041 -0.2303  0.2072
 8698TIP3    H150289   3.792   4.078  12.076 -1.6670  1.2263  1.5239
 8698TIP3    H250290   3.850   4.144  12.199  1.3648 -1.0294  1.4055
 8699TIP3   OH250291   5.830   5.906  10.215 -0.3960  0.4314 -0.4438
 8699TIP3    H150292   5.883   5.974  10.172  1.4420 -0.2519  0.6375
 8699TIP3    H250293   5.848   5.917  10.308 -1.2571 -0.5979 -0.1386
 8700TIP3   OH250294   6.187   3.671   8.791 -0.5425  0.2242  0.3101
 8700TIP3    H150295   6.278   3.655   8.768 -0.1679  0.6519  1.4215
 8700TIP3    H250296   6.185   3.763   8.819 -1.3535  0.2833  0.0949
 8701TIP3   OH250297   2.077   1.496   9.722  0.4191 -0.1734 -0.2949
 8701TIP3    H150298   2.123   1.566   9.676 -0.2147  1.0579  0.8850
 8701TIP3    H250299   2.145   1.451   9.773  0.5058  0.9631  0.6195
 8702TIP3   OH250300   0.947   5.423  11.613 -0.0584  0.1661 -0.5255
 8702TIP3    H150301   0.883   5.351  11.618 -2.6922  2.4370  1.3179
 8702TIP3    H250302   0.957   5.439  11.519 -1.5781 -0.8029 -0.9020
 8703TIP3   OH250303   0.264   2.422   9.676 -0.0058 -0.1642  0.0366
 8703TIP3    H150304   0.278   2.378   9.592 -0.9515 -0.5456  0.0714
 8703TIP3    H250305   0.271   2.516   9.655  1.6563 -0.2876 -0.1050
 8704TIP3   OH250306   5.563   1.757  10.985  0.2613  0.2413  0.1558
 8704TIP3    H150307   5.493   1.707  10.943  1.0809 -0.8083 -0.0209
 8704TIP3    H250308   5.562   1.842  10.942  0.7605 -0.6360 -1.6845
 8705TIP3   OH250309   1.623   0.645  10.681 -0.6597  0.5302  0.0220
 8705TIP3    H150310   1.646   0.556  10.653  0.0561  0.5398  0.5265
 8705TIP3    H250311   1.542   0.665  10.635 -1.4940 -0.8474  0.7973
 8706TIP3   OH250312   0.414   4.570   9.935 -0.4969  0.1470  0.2042
 8706TIP3    H150313   0.413   4.549   9.842  1.9735  0.8804 -0.0539
 8706TIP3    H250314   0.488   4.521   9.970 -1.8432 -0.7234  1.9831
 8707TIP3   OH250315   5.299   6.108   9.541 -0.1293 -0.5881 -0.1988
 8707TIP3    H150316   5.241   6.062   9.601  1.6891 -1.3273  1.0648
 8707TIP3    H250317   5.246   6.180   9.507 -2.0871 -1.8214  0.0882
 8708TIP3   OH250318   1.198   2.825  10.705 -0.4694 -0.3800 -0.2433
 8708TIP3    H150319   1.275   2.829  10.762 -0.3200  0.8769 -0.5216
 8708TIP3    H250320   1.132   2.781  10.758  0.3806 -1.3517  0.0545
 8709TIP3   OH250321   4.912   0.300  10.269 -0.0173 -0.0147  0.2675
 8709TIP3    H150322   4.972   0.264  10.333 -1.5919  0.3428  2.0255
 8709TIP3    H250323   4.843   0.234  10.262  0.5109 -0.4407 -1.7375
 8710TIP3   OH250324   6.489   2.732   9.933  0.7576 -0.4874 -0.7340
 8710TIP3    H150325   6.538   2.652   9.950 -0.7384 -1.9515 -2.8187
 8710TIP3    H250326   6.403   2.716   9.972 -0.2454 -0.8490 -2.9695
 8711TIP3   OH250327   5.629   6.543  10.426  0.1419  0.2431 -0.6051
 8711TIP3    H150328   5.635   6.491  10.346  1.1104 -0.7288  0.0642
 8711TIP3    H250329   5.585   6.623  10.400 -0.5878 -0.5437 -1.8668
 8712TIP3   OH250330   4.435   1.736   9.304 -0.1516  0.0421 -0.7843
 8712TIP3    H150331   4.411   1.646   9.282 -3.3254  0.8191 -0.8965
 8712TIP3    H250332   4.479   1.768   9.226  1.0394 -1.3657 -0.7427
 8713TIP3   OH250333   1.311   0.138  10.484  0.3960 -0.2501  0.3978
 8713TIP3    H150334   1.302   0.229  10.513  1.0300 -0.6339  1.9032
 8713TIP3    H250335   1.221   0.107  10.473  0.1261  0.0640  1.5829
 8714TIP3   OH250336   1.150   5.088   9.881  0.2592 -0.1326  0.3119
 8714TIP3    H150337   1.158   5.006   9.832  1.0458 -0.0812  0.3371
 8714TIP3    H250338   1.232   5.094   9.931  1.6813  2.2243 -2.0603
 8715TIP3   OH250339   4.497   6.321   9.410 -0.1648  0.3038  0.2227
 8715TIP3    H150340   4.402   6.327   9.415 -0.0980  0.4758  1.4777
 8715TIP3    H250341   4.527   6.412   9.420  0.1354  0.2708 -0.3201
 8716TIP3   OH250342   1.000   1.729   8.838  0.2202  0.4398 -0.6520
 8716TIP3    H150343   0.982   1.636   8.847 -0.5330  0.7283  1.4092
 8716TIP3    H250344   1.084   1.733   8.791  0.6482 -1.2897 -0.1075
 8717TIP3   OH250345   4.620   3.200   9.878  0.1885 -0.4955 -0.4902
 8717TIP3    H150346   4.692   3.261   9.892  2.0736 -2.2627 -1.9310
 8717TIP3    H250347   4.598   3.168   9.966  1.3228 -0.0708 -0.0385
 8718TIP3   OH250348   6.167   4.363  10.564  0.2071 -0.1648  0.1920
 8718TIP3    H150349   6.194   4.430  10.627  0.5376 -1.5134  1.5551
 8718TIP3    H250350   6.085   4.395  10.528  0.4831  1.0762  0.6336
 8719TIP3   OH250351   2.406   3.999  12.206  0.4294  0.8316 -0.4505
 8719TIP3    H150352   2.436   3.949  12.282 -1.4176  0.9477  0.4139
 8719TIP3    H250353   2.475   3.988  12.141  1.3213 -0.5988  0.6780
 8720TIP3   OH250354   0.929   5.960   9.784  0.0668 -0.4109  0.5238
 8720TIP3    H150355   0.925   5.889   9.847  0.0852 -0.8118  0.0816
 8720TIP3    H250356   0.845   6.006   9.793 -0.2309 -0.9113  0.3257
 8721TIP3   OH250357   6.018   2.104  10.554 -0.0926  0.1348  0.4677
 8721TIP3    H150358   5.972   2.021  10.562 -0.8905  0.2497 -2.0363
 8721TIP3    H250359   6.110   2.081  10.544 -0.3395 -0.4899 -0.4608
 8722TIP3   OH250360   3.183   4.513   8.472  0.0138  0.1474  0.5005
 8722TIP3    H150361   3.185   4.576   8.400 -1.1022 -0.6221 -0.2302
 8722TIP3    H250362   3.213   4.431   8.432  1.7418  0.2472  1.5071
 8723TIP3   OH250363   1.567   0.237   9.150  0.5419 -0.0691 -0.1945
 8723TIP3    H150364   1.632   0.297   9.113  0.5852 -0.0138 -0.0280
 8723TIP3    H250365   1.620   0.168   9.191  0.4931 -0.2831 -0.4835
 8724TIP3   OH250366   4.914   3.492  10.130 -0.0416  0.7746  0.1968
 8724TIP3    H150367   4.854   3.548  10.180 -0.6622  2.1391 -1.9276
 8724TIP3    H250368   4.968   3.554  10.080 -0.6439 -0.4373 -2.1324
 8725TIP3   OH250369   6.561   5.415   9.329  0.7047 -0.6894  0.5478
 8725TIP3    H150370   6.517   5.471   9.264  1.9421 -1.3619 -0.9248
 8725TIP3    H250371   6.615   5.475   9.380  0.0531 -0.2051  0.6754
 8726TIP3   OH250372   5.022   0.081   8.682  0.0763  0.3880 -0.7668
 8726TIP3    H150373   4.933   0.115   8.676 -0.5954 -1.3160 -0.9672
 8726TIP3    H250374   5.035   0.063   8.775 -0.2749 -0.5576 -0.8919
 8727TIP3   OH250375   0.870   3.962  10.807 -0.0897  0.7731  0.1550
 8727TIP3    H150376   0.838   4.049  10.782 -1.5656 -0.2198 -1.7823
 8727TIP3    H250377   0.949   3.950  10.755 -1.3457  0.0091 -1.7216
 8728TIP3   OH250378   1.926   1.399   9.116  0.2826 -0.3516  0.2854
 8728TIP3    H150379   2.000   1.456   9.093  0.6675 -0.3777  1.4093
 8728TIP3    H250380   1.888   1.440   9.193 -0.8713 -0.3625 -0.2592
 8729TIP3   OH250381   0.791   2.910  10.735 -0.2201 -0.2632  0.3687
 8729TIP3    H150382   0.741   2.829  10.733 -0.8873  0.1037  1.4343
 8729TIP3    H250383   0.854   2.898  10.807 -1.0632  0.5555  1.2816
 8730TIP3   OH250384   5.621   5.732   9.065  0.0884  0.5242 -0.2208
 8730TIP3    H150385   5.566   5.657   9.091  1.8326 -0.0917  2.1305
 8730TIP3    H250386   5.584   5.806   9.112 -0.1623  0.6169 -0.5637
 8731TIP3   OH250387   2.148   4.748   9.538  0.1270 -0.2241  0.3539
 8731TIP3    H150388   2.225   4.777   9.586  0.1404 -0.8861  0.7438
 8731TIP3    H250389   2.178   4.673   9.486 -0.4409 -1.0711  1.2047
 8732TIP3   OH250390   2.462   5.631  12.194 -0.3729 -0.0411  0.0523
 8732TIP3    H150391   2.547   5.589  12.184  0.0913  0.6641  0.9299
 8732TIP3    H250392   2.419   5.582  12.263  0.7016  1.6671  2.0444
 8733TIP3   OH250393   4.908   5.343   9.042 -0.1389 -0.0493  0.5688
 8733TIP3    H150394   4.986   5.328   9.096  1.8064  1.6015 -1.5977
 8733TIP3    H250395   4.911   5.274   8.976 -0.9694 -0.4423  0.9357
 8734TIP3   OH250396   4.003   4.443  11.741 -0.8258 -0.1219  0.1529
 8734TIP3    H150397   3.921   4.406  11.774  0.3227 -2.5147  0.5704
 8734TIP3    H250398   3.975   4.516  11.685 -3.3480 -1.7217 -0.8910
 8735TIP3   OH250399   4.143   3.809  13.268  0.6684  0.5138  0.2998
 8735TIP3    H150400   4.052   3.787  13.251  0.6839  1.7295 -1.6348
 8735TIP3    H250401   4.141   3.858  13.350 -0.2135 -0.5575  0.9523
 8736TIP3   OH250402   4.663   1.450   8.924 -0.7562 -0.3638  0.0269
 8736TIP3    H150403   4.660   1.369   8.873 -1.0063  0.2787 -0.9977
 8736TIP3    H250404   4.571   1.475   8.935 -0.7536 -0.8837  1.4572
 8737TIP3   OH250405   0.179   1.755   8.784  0.4761 -0.1249  0.4386
 8737TIP3    H150406   0.191   1.767   8.878 -0.3224 -1.5666  0.7599
 8737TIP3    H250407   0.201   1.663   8.768  0.7343  0.1243 -0.8177
 8738TIP3   OH250408   1.485   0.028   9.727 -0.3032 -0.2493 -0.5726
 8738TIP3    H150409   1.506   0.105   9.675  2.2605 -0.4961 -0.0288
 8738TIP3    H250410   1.569  -0.017   9.739 -1.0230 -1.0308  2.4198
 8739TIP3   OH250411   3.289   5.310   8.741 -0.1196 -0.1560  0.3322
 8739TIP3    H150412   3.333   5.280   8.821  1.6583  1.5713  0.0862
 8739TIP3    H250413   3.361   5.339   8.685 -1.3947 -0.6157 -1.6026
 8740TIP3   OH250414   0.985   0.445   8.660  0.0355  0.0440 -0.5155
 8740TIP3    H150415   1.020   0.523   8.703 -0.3705 -0.8700  1.6352
 8740TIP3    H250416   0.900   0.431   8.701  1.6666 -3.6833  2.2683
 8741TIP3   OH250417   5.529   4.818   9.445  0.1591 -0.3279 -0.2551
 8741TIP3    H150418   5.535   4.798   9.539 -0.9511  0.9506  0.1192
 8741TIP3    H250419   5.619   4.835   9.419  0.4008  0.1801  0.8152
 8742TIP3   OH250420   5.552   2.945   8.441 -0.2039 -0.1313 -0.2611
 8742TIP3    H150421   5.465   2.940   8.480 -0.8247  1.1959 -1.3993
 8742TIP3    H250422   5.572   2.855   8.416 -0.8981 -0.5814  0.7255
 8743TIP3   OH250423   3.122   4.223   9.675 -0.7293  0.7528 -0.3620
 8743TIP3    H150424   3.085   4.206   9.588 -1.7379 -0.5626  0.2771
 8743TIP3    H250425   3.138   4.136   9.711 -1.4003  1.2414  1.1954
 8744TIP3   OH250426   2.630   0.423  10.824  0.1543  0.1706  0.7665
 8744TIP3    H150427   2.632   0.515  10.848  1.4267  0.5942 -0.7746
 8744TIP3    H250428   2.619   0.377  10.908 -0.1060  1.6795  1.6071
 8745TIP3   OH250429   4.684   1.554   9.451  0.5465 -0.0543  0.0264
 8745TIP3    H150430   4.632   1.496   9.395  0.1314  1.5928 -1.4008
 8745TIP3    H250431   4.620   1.591   9.512  0.3281  0.6688 -0.6173
 8746TIP3   OH250432   5.630   5.926  10.655 -0.0424 -0.2583  0.0371
 8746TIP3    H150433   5.697   5.987  10.684  0.2913 -1.2760  1.5060
 8746TIP3    H250434   5.579   5.906  10.734 -2.8155  1.3068 -1.2009
 8747TIP3   OH250435   4.192   3.137  11.521 -0.6158 -0.5859 -0.1914
 8747TIP3    H150436   4.174   3.213  11.467 -1.0380  0.1090  0.8944
 8747TIP3    H250437   4.281   3.110  11.495 -0.2423  0.5994 -0.2155
 8748TIP3   OH250438   1.981   0.914   9.948  0.1564 -0.6196 -0.3943
 8748TIP3    H150439   1.888   0.896   9.933  0.1600 -0.5613 -0.4862
 8748TIP3    H250440   1.991   0.910  10.043  0.1177 -0.9085 -0.4010
 8749TIP3   OH250441   4.120   6.527   9.560 -0.1738  0.5399 -0.2621
 8749TIP3    H150442   4.168   6.475   9.626 -1.4593 -0.3084  0.0463
 8749TIP3    H250443   4.101   6.464   9.490  0.2932  1.1948 -0.9917
 8750TIP3   OH250444   5.408   1.146   9.065  0.4652  0.4403 -0.2512
 8750TIP3    H150445   5.431   1.159   8.973  3.0788  1.0013  0.4184
 8750TIP3    H250446   5.323   1.100   9.062  0.4973  0.4102 -2.9054
 8751TIP3   OH250447   5.037   1.975   9.908 -0.0534 -0.6094 -0.1794
 8751TIP3    H150448   5.063   1.910   9.842 -0.8460  1.4748 -2.6887
 8751TIP3    H250449   4.945   1.957   9.925  0.3884 -1.7699  1.2170
 8752TIP3   OH250450   0.932   5.759   8.905  0.7933 -0.5209 -0.2187
 8752TIP3    H150451   0.936   5.734   8.812 -1.5536  1.2334 -0.8939
 8752TIP3    H250452   0.986   5.693   8.949  1.1380 -2.0614 -2.6875
 8753TIP3   OH250453   4.070   3.730   9.874  0.0592  0.0093  0.3663
 8753TIP3    H150454   4.064   3.765   9.963 -1.3269  1.9634 -0.4224
 8753TIP3    H250455   3.980   3.729   9.842  0.3863 -1.7581 -0.6674
 8754TIP3   OH250456   2.122   5.802  11.181  0.2974 -0.3796  0.5448
 8754TIP3    H150457   2.130   5.717  11.137  1.3733  0.0417 -0.1034
 8754TIP3    H250458   2.050   5.790  11.243  0.3842 -1.7456  0.4111
 8755TIP3   OH250459   6.236   2.970   9.152  0.0357  0.3206 -0.4397
 8755TIP3    H150460   6.151   2.961   9.195 -0.0892  0.7114 -0.6055
 8755TIP3    H250461   6.297   2.926   9.212 -0.2654  0.1258 -0.2727
 8756TIP3   OH250462   4.730   4.204   8.340  0.1779  0.4705  0.2084
 8756TIP3    H150463   4.812   4.240   8.374  0.0945 -0.3173  1.2763
 8756TIP3    H250464   4.703   4.266   8.272  0.4606  1.9828  1.4269
 8757TIP3   OH250465   0.905   3.882  11.524 -0.0366  0.4676  0.4501
 8757TIP3    H150466   0.914   3.964  11.476  0.2929 -0.5437 -1.3431
 8757TIP3    H250467   0.816   3.852  11.504 -0.0838  0.2823  0.9210
 8758TIP3   OH250468   3.709   5.005  11.657 -0.6567  0.1318  0.1786
 8758TIP3    H150469   3.681   4.953  11.733  0.1297 -0.4619  0.0732
 8758TIP3    H250470   3.651   4.975  11.586 -0.6010 -0.1794  0.2604
 8759TIP3   OH250471   6.441   2.055   9.156 -0.2512  0.1373  0.1964
 8759TIP3    H150472   6.406   2.136   9.118 -0.5682  0.4150  1.0358
 8759TIP3    H250473   6.386   1.986   9.121  1.4165 -0.0233 -2.3265
 8760TIP3   OH250474   2.229   4.866   9.982 -0.4797  0.5388 -0.2504
 8760TIP3    H150475   2.176   4.786   9.991  0.4042  0.0933  1.1949
 8760TIP3    H250476   2.278   4.852   9.901 -0.7521 -0.1324 -0.3103
 8761TIP3   OH250477   3.194   1.471  10.994  0.4942 -0.0094 -0.2835
 8761TIP3    H150478   3.193   1.499  11.086  0.4018 -0.3166 -0.1922
 8761TIP3    H250479   3.139   1.535  10.950  0.0757 -0.1897 -0.0283
 8762TIP3   OH250480   1.724   5.428  10.219 -0.0168  0.6460 -0.4792
 8762TIP3    H150481   1.698   5.493  10.154 -0.4490 -0.3909 -1.3861
 8762TIP3    H250482   1.642   5.396  10.256 -0.1187 -1.7865 -2.4975
 8763TIP3   OH250483   2.692   1.462  12.097  0.1552  0.8792 -0.1922
 8763TIP3    H150484   2.622   1.480  12.034  0.9835  2.3150 -0.7420
 8763TIP3    H250485   2.772   1.483  12.050  0.8287  1.4359  1.1600
 8764TIP3   OH250486   2.793   2.913  18.100 -0.0318 -0.2058 -0.3019
 8764TIP3    H150487   2.780   2.842  18.037  1.8926 -3.6410  2.7306
 8764TIP3    H250488   2.744   2.885  18.178  1.8798  1.0479  1.4799
 8765TIP3   OH250489   2.880   1.460   9.698 -0.6241 -0.4777  0.1406
 8765TIP3    H150490   2.795   1.419   9.684 -1.5255  1.1485  0.5573
 8765TIP3    H250491   2.880   1.485   9.790  0.0676  0.0624  0.0026
 8766TIP3   OH250492   3.972   3.407  13.455 -0.2804  0.3252  0.3248
 8766TIP3    H150493   4.005   3.412  13.365  0.1037 -0.7702  0.3941
 8766TIP3    H250494   3.994   3.492  13.493 -1.8784  1.4456 -1.0686
 8767TIP3   OH250495   4.152   1.476   8.961 -1.2985 -0.1471 -0.0104
 8767TIP3    H150496   4.117   1.541   9.022 -2.4800 -1.3211  0.6369
 8767TIP3    H250497   4.153   1.395   9.012  0.3173 -0.6162 -0.7333
 8768TIP3   OH250498   4.588   5.311   9.808  0.6774  0.2778  0.3098
 8768TIP3    H150499   4.659   5.335   9.748  1.4908  1.0050  1.5031
 8768TIP3    H250500   4.604   5.366   9.885 -1.5543  0.9006  0.3813
 8769TIP3   OH250501   6.582   6.553  12.188  0.0852 -0.3012  0.1755
 8769TIP3    H150502   6.675   6.546  12.207 -0.0834 -1.7275  0.5879
 8769TIP3    H250503   6.577   6.614  12.114  1.5499 -1.9534 -1.3755
 8770TIP3   OH250504   3.864   3.412   8.896 -0.2657  0.3022  0.0381
 8770TIP3    H150505   3.841   3.468   8.823  0.3574  0.5925  0.0591
 8770TIP3    H250506   3.958   3.396   8.887 -0.1711  0.3640  0.7814
 8771TIP3   OH250507   5.508   4.769  10.373 -0.5589 -0.2982  1.0145
 8771TIP3    H150508   5.589   4.766  10.322 -0.1064  0.8993  1.6220
 8771TIP3    H250509   5.533   4.737  10.460 -0.4088  1.3176  1.5874
 8772TIP3   OH250510   2.211   2.307  10.575 -0.5215 -0.5565  0.1836
 8772TIP3    H150511   2.286   2.329  10.520  0.5137 -1.1012  1.3315
 8772TIP3    H250512   2.158   2.250  10.520 -0.5790  0.5533 -0.9619
 8773TIP3   OH250513   1.019   3.144  10.207  0.1127 -0.2657 -0.1069
 8773TIP3    H150514   0.982   3.086  10.272 -1.2140 -0.6035 -1.1179
 8773TIP3    H250515   1.020   3.093  10.126  0.3944  0.5898 -0.6690
 8774TIP3   OH250516   6.425   3.578   9.208  0.0949  0.2347  0.2585
 8774TIP3    H150517   6.377   3.533   9.278 -0.6867 -1.5596 -1.3499
 8774TIP3    H250518   6.363   3.641   9.173  0.5174  1.2018  1.1839
 8775TIP3   OH250519   0.447   1.506   9.134 -0.4186  0.0535  0.4872
 8775TIP3    H150520   0.486   1.556   9.062 -0.5609  0.6167  0.7955
 8775TIP3    H250521   0.469   1.556   9.213 -0.6310 -0.3289  0.7915
 8776TIP3   OH250522   1.382   2.628  16.795 -0.4803  0.0782  0.3264
 8776TIP3    H150523   1.379   2.539  16.758  1.3845 -0.3173  0.9691
 8776TIP3    H250524   1.328   2.623  16.874 -0.8820 -0.3175  0.0312
 8777TIP3   OH250525   6.002   3.606   8.583  0.0366 -0.3393  0.1275
 8777TIP3    H150526   6.084   3.610   8.632  1.5168 -0.3888 -2.2237
 8777TIP3    H250527   5.936   3.638   8.645  1.9058  0.4207  1.8504
 8778TIP3   OH250528   3.662   2.885  10.045 -0.1164  0.3906  0.0353
 8778TIP3    H150529   3.617   2.955   9.998  0.6070  0.2903 -0.8260
 8778TIP3    H250530   3.745   2.923  10.071  1.1386 -0.6563 -2.1236
 8779TIP3   OH250531   3.407   2.974  11.184 -0.4616 -0.5855 -0.3456
 8779TIP3    H150532   3.499   2.951  11.165  0.5813  1.2070  1.9831
 8779TIP3    H250533   3.395   3.060  11.145 -0.7330 -0.2990  0.3455
 8780TIP3   OH250534   6.144   6.568  10.112 -0.0884  0.0076 -0.1885
 8780TIP3    H150535   6.090   6.618  10.174  1.1141 -0.1655  1.0396
 8780TIP3    H250536   6.206   6.631  10.078  2.0978 -0.7062  2.1169
 8781TIP3   OH250537   2.390   6.162   9.020 -0.2269  0.2876 -0.3769
 8781TIP3    H150538   2.382   6.086   8.962  1.1764  0.0668 -0.3228
 8781TIP3    H250539   2.326   6.146   9.089  0.6870 -1.3420  0.1474
 8782TIP3   OH250540   1.302   3.123   9.879 -0.3089  0.6599  0.5277
 8782TIP3    H150541   1.386   3.089   9.908 -0.8999 -1.1554  0.2814
 8782TIP3    H250542   1.295   3.095   9.788 -0.1045  3.0181 -0.2824
 8783TIP3   OH250543   6.573   4.913   9.387  0.2606  0.0778  0.9418
 8783TIP3    H150544   6.582   4.953   9.300 -1.7701 -0.8062  0.2654
 8783TIP3    H250545   6.648   4.854   9.393  0.8349  0.6912  0.0953
 8784TIP3   OH250546   3.925   3.209   8.473 -0.0321  0.0165  0.2567
 8784TIP3    H150547   3.910   3.299   8.448 -3.1611 -0.1249  1.2296
 8784TIP3    H250548   4.020   3.201   8.477  0.3870  2.6306 -1.8867
 8785TIP3   OH250549   3.487   5.832  12.047  0.7213  0.0970 -0.2114
 8785TIP3    H150550   3.529   5.765  11.993  0.0740  0.6522 -1.4479
 8785TIP3    H250551   3.530   5.914  12.023  1.8384  0.1070  1.6436
 8786TIP3   OH250552   3.389   0.416  10.904  0.1130 -0.0841 -0.2715
 8786TIP3    H150553   3.447   0.485  10.936 -0.6308  0.8619 -0.8750
 8786TIP3    H250554   3.312   0.463  10.872  0.1097 -1.0770 -1.8719
 8787TIP3   OH250555   0.288   3.077   9.062  0.8553 -0.1053 -0.2536
 8787TIP3    H150556   0.345   3.005   9.034  0.0978 -0.0920 -2.0276
 8787TIP3    H250557   0.333   3.156   9.032  0.1690 -0.0711 -1.2666
 8788TIP3   OH250558   2.570   2.538  10.757 -0.9885 -0.3173  0.2663
 8788TIP3    H150559   2.533   2.453  10.733 -0.7369  0.1714 -2.1126
 8788TIP3    H250560   2.645   2.518  10.811 -1.2020 -1.5894  0.1067
 8789TIP3   OH250561   4.022   3.712   9.547  0.0758  0.2854  1.0161
 8789TIP3    H150562   3.958   3.725   9.616 -0.5285 -0.6723  0.6526
 8789TIP3    H250563   4.098   3.674   9.591 -0.2756 -0.2420  1.1702
 8790TIP3   OH250564   0.393   0.838  10.622 -0.0761 -0.1963  0.7890
 8790TIP3    H150565   0.321   0.880  10.669 -0.3168 -0.7729  0.9392
 8790TIP3    H250566   0.402   0.891  10.542 -3.1699 -2.2181 -1.1112
 8791TIP3   OH250567   2.530   4.598  11.098  0.4729  0.0144 -0.5431
 8791TIP3    H150568   2.482   4.559  11.171  0.0234 -1.1171 -1.4095
 8791TIP3    H250569   2.481   4.677  11.076  0.0847 -0.1383 -0.2285
 8792TIP3   OH250570   1.113   3.319  11.449 -0.5032 -0.6581  0.1686
 8792TIP3    H150571   1.021   3.298  11.465 -0.6385  0.3624  0.8176
 8792TIP3    H250572   1.150   3.330  11.537  0.9520 -3.8106  0.1217
 8793TIP3   OH250573   2.079   2.038  11.150  0.1779  0.2262  0.4130
 8793TIP3    H150574   1.990   2.042  11.116  0.0508  2.6683  0.8869
 8793TIP3    H250575   2.127   1.985  11.087 -1.5590 -1.0310  0.0903
 8794TIP3   OH250576   3.886   6.192  10.163  0.0602 -0.0303 -0.3058
 8794TIP3    H150577   3.966   6.140  10.164  0.7157  0.9612  0.5119
 8794TIP3    H250578   3.876   6.218  10.071  0.7449 -0.0713 -0.3999
 8795TIP3   OH250579   1.677   3.345   8.843 -0.3391  1.3244  0.2896
 8795TIP3    H150580   1.583   3.329   8.836 -0.2704  1.4589 -1.3201
 8795TIP3    H250581   1.688   3.385   8.929 -1.3682 -1.2376  1.7278
 8796TIP3   OH250582   3.948   5.709   9.491 -0.5967  0.2388  0.0951
 8796TIP3    H150583   3.990   5.774   9.435  1.1989 -0.3931  0.6391
 8796TIP3    H250584   3.943   5.630   9.437 -0.1138  0.0232  0.3526
 8797TIP3   OH250585   0.923   3.673   8.404 -0.0126 -0.0427 -0.1198
 8797TIP3    H150586   0.995   3.667   8.467  0.3310 -1.5614 -0.6228
 8797TIP3    H250587   0.942   3.752   8.353  0.2565  0.6282  0.9829
 8798TIP3   OH250588   1.401   5.155  10.034  0.0934 -0.4748 -0.0794
 8798TIP3    H150589   1.380   5.121  10.121  1.7129  2.8959  1.8256
 8798TIP3    H250590   1.493   5.131  10.020  0.4566  0.7458  0.1146
 8799TIP3   OH250591   1.111   0.811   9.389 -0.4267 -0.2605  0.1965
 8799TIP3    H150592   1.181   0.750   9.368 -0.1089 -0.1265  0.8349
 8799TIP3    H250593   1.154   0.896   9.393 -0.7248 -0.1027  0.0647
 8800TIP3   OH250594   5.114   2.900  10.974 -0.8716  0.0893 -0.8287
 8800TIP3    H150595   5.171   2.976  10.987 -0.8365  0.0145 -0.5353
 8800TIP3    H250596   5.169   2.835  10.932 -0.5483 -0.2280  0.0753
 8801TIP3   OH250597   0.730   6.332  11.534  0.9151  0.3207 -0.4472
 8801TIP3    H150598   0.738   6.410  11.589  2.9281 -0.8960  1.1378
 8801TIP3    H250599   0.649   6.290  11.564  0.6441  0.9755 -0.2340
 8802TIP3   OH250600   4.853   5.604  10.150 -0.4750 -0.3991  0.1791
 8802TIP3    H150601   4.865   5.560  10.235  2.1087 -1.6702 -0.7418
 8802TIP3    H250602   4.925   5.667  10.146  0.9796 -2.0810 -2.0370
 8803TIP3   OH250603   2.913   1.397  11.348  0.0238 -0.5780 -0.2264
 8803TIP3    H150604   2.883   1.310  11.321  0.9273 -0.3633 -2.0454
 8803TIP3    H250605   2.842   1.430  11.404 -0.8091 -2.0444 -0.3622
 8804TIP3   OH250606   2.383   2.453  11.556 -0.4170  0.4508  0.4585
 8804TIP3    H150607   2.298   2.431  11.592 -1.0508  2.4399  0.3240
 8804TIP3    H250608   2.376   2.434  11.463 -0.0903 -1.0582  0.7281
 8805TIP3   OH250609   6.051   2.083   8.975  0.0163  0.1374 -0.2800
 8805TIP3    H150610   5.980   2.081   9.039 -0.2463  0.7978 -0.5341
 8805TIP3    H250611   6.127   2.047   9.021  0.2653  2.0805  0.9467
 8806TIP3   OH250612   3.254   3.478   9.269 -0.0228  0.1556 -0.2207
 8806TIP3    H150613   3.326   3.430   9.309  1.1440  0.7388 -1.5266
 8806TIP3    H250614   3.289   3.566   9.253 -1.2197  0.6392 -0.3282
 8807TIP3   OH250615   1.816   6.171  11.039 -0.4678  0.3011 -0.0693
 8807TIP3    H150616   1.901   6.209  11.016 -0.4586 -0.3736 -1.2399
 8807TIP3    H250617   1.807   6.095  10.981 -2.1330  0.7060 -0.3935
 8808TIP3   OH250618   4.677   2.816  12.478  0.2145  0.6526 -0.4347
 8808TIP3    H150619   4.727   2.898  12.485 -0.4618  0.9305  1.7282
 8808TIP3    H250620   4.725   2.766  12.412  1.9407  1.8977 -0.2244
 8809TIP3   OH250621   3.374   0.125   9.914 -0.4034  0.1543  0.4032
 8809TIP3    H150622   3.467   0.149   9.920 -0.7148  1.2961  1.0082
 8809TIP3    H250623   3.362   0.098   9.823  0.8545 -1.5643  0.6924
 8810TIP3   OH250624   1.543   3.120  11.007  0.4592 -0.1325  0.2642
 8810TIP3    H150625   1.638   3.121  11.017  0.3798 -0.4246  1.1004
 8810TIP3    H250626   1.530   3.108  10.913  1.2369  0.9079  0.0033
 8811TIP3   OH250627   0.407   3.683   9.146  0.6663  0.1693  0.3183
 8811TIP3    H150628   0.478   3.692   9.210 -0.2901  1.0845  1.2986
 8811TIP3    H250629   0.450   3.693   9.061  1.6556  1.2099  0.9128
 8812TIP3   OH250630   4.503   5.090  12.764  0.3306  0.5507  0.0137
 8812TIP3    H150631   4.461   5.096  12.678  1.6117  0.7610 -0.6152
 8812TIP3    H250632   4.597   5.086  12.745  0.7657  2.4784  1.4426
 8813TIP3   OH250633   2.502   4.079   9.826 -0.4708  0.6578 -0.6007
 8813TIP3    H150634   2.423   4.051   9.780  0.3826 -2.1668 -0.5658
 8813TIP3    H250635   2.472   4.104   9.914 -1.3850  0.0899 -0.7404
 8814TIP3   OH250636   1.872   4.250  10.127 -0.6118  0.1836 -0.7774
 8814TIP3    H150637   1.896   4.333  10.086 -1.5768  1.0931  0.4189
 8814TIP3    H250638   1.787   4.267  10.169 -1.3519 -1.7169 -1.4008
 8815TIP3   OH250639   4.279   6.518  10.601  0.3785 -0.2526 -0.0879
 8815TIP3    H150640   4.268   6.574  10.677 -0.8893  0.1304 -0.5315
 8815TIP3    H250641   4.253   6.431  10.631 -0.8368  0.0346 -0.2500
 8816TIP3   OH250642   5.911   5.200  10.367  0.6232 -0.1337  0.5631
 8816TIP3    H150643   5.858   5.140  10.314  1.2140  0.9778 -1.4032
 8816TIP3    H250644   5.939   5.147  10.442 -1.0120 -1.5149  0.2661
 8817TIP3   OH250645   4.168   4.512  11.953  0.0834  0.0306  0.2457
 8817TIP3    H150646   4.229   4.570  11.908  0.7512 -0.6433  0.2691
 8817TIP3    H250647   4.099   4.494  11.889  0.0742  0.5430  0.1140
 8818TIP3   OH250648   5.194   0.119   9.649  0.1576 -0.2670  0.0727
 8818TIP3    H150649   5.278   0.113   9.604  1.0464  1.4311  1.3554
 8818TIP3    H250650   5.191   0.043   9.707 -1.1949 -2.7297 -2.9292
 8819TIP3   OH250651   0.729   5.659  10.151 -0.7753 -0.2176 -0.1425
 8819TIP3    H150652   0.723   5.596  10.224 -1.4384  0.4126  0.3560
 8819TIP3    H250653   0.780   5.732  10.187 -1.8715  0.4997 -0.0076
 8820TIP3   OH250654   4.810   5.368   9.670  1.0896  0.0675  0.6806
 8820TIP3    H150655   4.881   5.306   9.653  2.1513  2.0248 -3.1781
 8820TIP3    H250656   4.843   5.451   9.637 -2.2263  1.5560  0.7672
 8821TIP3   OH250657   3.849   3.158  12.058  0.1033 -0.2944  0.3517
 8821TIP3    H150658   3.874   3.066  12.053  0.6590 -0.1392  0.2666
 8821TIP3    H250659   3.779   3.160  12.123  0.8062 -0.6280  1.1296
 8822TIP3   OH250660   0.179   2.954   9.646 -0.0425  0.4246 -0.6209
 8822TIP3    H150661   0.140   3.019   9.588  0.8522  1.7259  0.1959
 8822TIP3    H250662   0.268   2.986   9.662  0.7823 -1.5197 -0.9830
 8823TIP3   OH250663   2.694   2.861  10.023 -0.5787  0.3728  0.0054
 8823TIP3    H150664   2.603   2.861  10.054  0.0372  0.3975  1.9652
 8823TIP3    H250665   2.726   2.773  10.040 -0.7348 -0.1982 -2.3994
 8824TIP3   OH250666   0.761   5.190  10.283 -0.4030  0.2407  1.0001
 8824TIP3    H150667   0.793   5.256  10.221  1.3172  0.2290  1.7970
 8824TIP3    H250668   0.795   5.219  10.367  0.8724 -1.9058  1.2982
 8825TIP3   OH250669   4.425   3.348  11.433  0.1083 -0.3321  0.1426
 8825TIP3    H150670   4.473   3.430  11.431  0.6830 -0.6665 -0.6535
 8825TIP3    H250671   4.487   3.285  11.472 -0.4027 -0.3531  0.9531
 8826TIP3   OH250672   1.234   5.431  10.234 -0.2895 -0.2623 -0.5426
 8826TIP3    H150673   1.252   5.433  10.140  0.6974  1.6025 -0.3505
 8826TIP3    H250674   1.319   5.419  10.275 -0.1742  2.3682  0.1724
 8827TIP3   OH250675   4.158   1.950   9.831 -0.3102 -0.5869 -0.4061
 8827TIP3    H150676   4.170   1.871   9.778  0.0343 -0.4337 -0.5610
 8827TIP3    H250677   4.236   1.952   9.888 -0.0686 -0.0937 -0.7488
 8828TIP3   OH250678   0.539   2.814  10.386 -0.1710  0.3344  0.1199
 8828TIP3    H150679   0.559   2.771  10.469 -1.5706  1.1193  0.8931
 8828TIP3    H250680   0.588   2.764  10.320 -0.0423 -1.0667  1.2511
 8829TIP3   OH250681   0.948   2.866   9.326 -0.0997 -0.2287  0.3422
 8829TIP3    H150682   1.035   2.847   9.361 -0.7201 -1.9425  1.0985
 8829TIP3    H250683   0.948   2.960   9.308  2.1365 -0.3141 -0.3644
 8830TIP3   OH250684   5.702   1.537  10.626 -0.2831  0.0663  0.2156
 8830TIP3    H150685   5.674   1.624  10.653  0.3810  0.4196 -0.2066
 8830TIP3    H250686   5.773   1.552  10.564  0.0156 -0.7783  0.3282
 8831TIP3   OH250687   4.595   2.592  10.284 -0.0771  0.3783  0.3882
 8831TIP3    H150688   4.573   2.520  10.343  0.4602 -0.2865 -0.2034
 8831TIP3    H250689   4.679   2.567  10.245  0.1088  1.3179  0.1551
 8832TIP3   OH250690   2.527   4.128   8.814  0.5220  0.3197 -0.7819
 8832TIP3    H150691   2.577   4.048   8.833 -0.9177 -0.2650  0.8919
 8832TIP3    H250692   2.580   4.199   8.850 -0.0920 -0.3538  1.6048
 8833TIP3   OH250693   1.194   3.962  12.069  0.0377  0.2578  0.2060
 8833TIP3    H150694   1.287   3.972  12.090  0.6892 -1.3646 -1.6511
 8833TIP3    H250695   1.187   3.987  11.978 -1.7503  2.1237  0.7950
 8834TIP3   OH250696   4.828   4.945  11.307 -0.0601 -0.0557 -0.4159
 8834TIP3    H150697   4.844   4.972  11.398 -2.4098  1.0779 -0.2563
 8834TIP3    H250698   4.892   4.875  11.291 -0.0342 -0.7907  2.3443
 8835TIP3   OH250699   0.102   2.365  11.173 -0.2683 -0.2066  0.8067
 8835TIP3    H150700   0.148   2.298  11.222 -0.8045  0.0237  1.6445
 8835TIP3    H250701   0.022   2.322  11.142  0.9974 -0.9774 -1.6982
 8836TIP3   OH250702   2.141   1.433  10.761  0.3304  0.6670  0.0643
 8836TIP3    H150703   2.046   1.422  10.771  0.3760  0.8367  0.7102
 8836TIP3    H250704   2.170   1.468  10.845  1.2014 -0.8778  0.4306
 8837TIP3   OH250705   2.465   2.258  10.700  0.0215 -0.8545 -0.2641
 8837TIP3    H150706   2.446   2.204  10.776 -0.3383  0.0331  0.2902
 8837TIP3    H250707   2.379   2.273  10.660  0.1664 -1.0129 -0.6370
 8838TIP3   OH250708   2.165   4.035   9.552 -0.6402 -0.1855 -0.1452
 8838TIP3    H150709   2.153   3.969   9.620 -2.1469 -1.2542 -1.3862
 8838TIP3    H250710   2.240   4.004   9.501  0.8193  0.8758  1.2315
 8839TIP3   OH250711   4.805   6.639  10.955  0.3618  0.0748 -0.1313
 8839TIP3    H150712   4.783   6.554  10.992 -3.1925  1.0469  0.3319
 8839TIP3    H250713   4.859   6.681  11.022  0.2816 -0.9514  0.6055
 8840TIP3   OH250714   6.682   4.876   8.803  0.7496  0.2168 -0.0958
 8840TIP3    H150715   6.738   4.807   8.769  0.5146 -0.0690  0.0950
 8840TIP3    H250716   6.641   4.838   8.881 -1.0576 -0.2098 -1.1814
 8841TIP3   OH250717   6.017   5.230   9.908 -0.0295 -0.7715 -0.1443
 8841TIP3    H150718   5.994   5.207   9.818  0.4088 -1.0032 -0.2036
 8841TIP3    H250719   6.022   5.325   9.908 -1.8420 -0.6493  0.0985
 8842TIP3   OH250720   5.482   4.138  10.639  0.2567 -0.3752 -0.1407
 8842TIP3    H150721   5.510   4.046  10.638  1.6923  0.0408  0.1480
 8842TIP3    H250722   5.516   4.172  10.722 -0.6868  0.3142 -0.0149
 8843TIP3   OH250723   4.352   0.746   9.737 -0.6536 -0.9647  0.0620
 8843TIP3    H150724   4.311   0.726   9.821 -0.0161  0.6011  0.7989
 8843TIP3    H250725   4.311   0.828   9.710  0.7266 -0.2618 -0.0082
 8844TIP3   OH250726   3.437   5.052  11.963 -0.3438 -0.4483  0.2966
 8844TIP3    H150727   3.423   4.962  11.990 -0.4682  0.1708  2.4154
 8844TIP3    H250728   3.530   5.068  11.980 -0.5232  0.0859  0.7897
 8845TIP3   OH250729   1.721   3.950  11.438  0.7299 -0.0433 -0.1987
 8845TIP3    H150730   1.781   3.876  11.429 -0.1516 -0.8302  0.2897
 8845TIP3    H250731   1.716   3.965  11.533  0.8604  0.6214 -0.2907
 8846TIP3   OH250732   2.872   6.573  12.121  0.6992 -0.0607 -0.1028
 8846TIP3    H150733   2.948   6.535  12.165  0.2217 -0.4555  0.3914
 8846TIP3    H250734   2.882   6.668  12.133  1.2916 -0.0864 -0.3492
 8847TIP3   OH250735   2.660   0.662  10.977  0.0811 -0.2905 -0.0254
 8847TIP3    H150736   2.606   0.661  11.056  0.5501  2.8147  0.4519
 8847TIP3    H250737   2.750   0.663  11.009  0.2722  1.3076 -0.5410
 8848TIP3   OH250738   6.146   2.304  10.129 -0.0348 -0.3474  0.3067
 8848TIP3    H150739   6.123   2.347  10.047  0.2004 -2.5565 -0.9821
 8848TIP3    H250740   6.235   2.335  10.148  1.3122 -2.3294 -2.1567
 8849TIP3   OH250741   3.042   0.293  10.077 -0.3535 -0.2081  0.1632
 8849TIP3    H150742   3.123   0.262  10.119 -1.0949 -0.6936  1.3076
 8849TIP3    H250743   3.052   0.269   9.985  2.0242  2.2735 -0.3538
 8850TIP3   OH250744   2.958   6.532  11.144  0.3098  0.1615 -0.5471
 8850TIP3    H150745   3.005   6.478  11.081  0.3087  1.1007 -1.3873
 8850TIP3    H250746   3.022   6.599  11.170 -0.2667  0.9300 -1.0414
 8851TIP3   OH250747   4.526   4.830  11.243  0.1581  0.2626  0.0991
 8851TIP3    H150748   4.471   4.907  11.257 -0.6616  0.2606 -2.5859
 8851TIP3    H250749   4.593   4.859  11.182  1.1888 -0.6206  0.7785
 8852TIP3   OH250750   3.402   0.048   9.009  0.1907 -0.1880  0.0552
 8852TIP3    H150751   3.350   0.002   9.074 -0.3163 -0.1270 -0.3029
 8852TIP3    H250752   3.487   0.061   9.051  0.8472 -2.6841 -0.2935
 8853TIP3   OH250753   2.144   2.714   8.923  0.2089  0.3295  0.1797
 8853TIP3    H150754   2.129   2.656   8.848 -1.1199  0.8576 -0.0039
 8853TIP3    H250755   2.057   2.727   8.960  0.8348  0.1978  1.7513
 8854TIP3   OH250756   3.236   3.373  12.274  0.4485  0.1120  0.0682
 8854TIP3    H150757   3.307   3.318  12.241 -0.9487 -1.5958 -0.2429
 8854TIP3    H250758   3.176   3.312  12.317 -1.6988  1.1913 -1.1842
 8855TIP3   OH250759   4.414   3.304  10.846 -0.3907  0.0282 -0.0705
 8855TIP3    H150760   4.326   3.320  10.878 -0.2767  0.3662  0.0749
 8855TIP3    H250761   4.467   3.293  10.925 -0.4778 -1.1565 -0.1634
 8856TIP3   OH250762   3.526   4.921  11.466 -0.6647 -0.5654 -0.4219
 8856TIP3    H150763   3.481   5.006  11.459 -0.5028 -0.5829 -1.9363
 8856TIP3    H250764   3.455   4.857  11.474 -0.7732 -0.2504  1.6796
 8857TIP3   OH250765   5.357   2.968  11.498 -0.6456 -0.0451  0.2194
 8857TIP3    H150766   5.309   2.888  11.477  0.1022 -0.5268  0.3086
 8857TIP3    H250767   5.295   3.021  11.549 -1.4772 -0.1348 -0.6652
 8858TIP3   OH250768   2.813   0.946   9.717  0.5121 -0.0044  0.3077
 8858TIP3    H150769   2.782   0.864   9.680  0.5342  0.2191 -0.2149
 8858TIP3    H250770   2.794   0.939   9.811 -1.2842  0.1963 -0.0022
 8859TIP3   OH250771   2.323   3.062  10.836 -0.1600 -0.6046  0.4637
 8859TIP3    H150772   2.401   3.010  10.857  0.0481  0.4769  2.6165
 8859TIP3    H250773   2.259   3.036  10.902 -1.2047 -0.5591 -0.5154
 8860TIP3   OH250774   3.692   3.020  11.104 -0.5172 -0.2606 -0.3366
 8860TIP3    H150775   3.760   3.009  11.170  0.2642  0.0573 -1.0690
 8860TIP3    H250776   3.648   3.101  11.128 -0.5883 -0.4228  0.0910
 8861TIP3   OH250777   2.930   4.833  12.985  0.6243 -0.2470  0.1011
 8861TIP3    H150778   2.933   4.840  12.889  1.2435  0.2174  0.1519
 8861TIP3    H250779   2.864   4.897  13.011  1.5225  0.7281  0.0784
 8862TIP3   OH250780   2.917   1.987  11.286 -1.2246  0.2234 -0.1040
 8862TIP3    H150781   2.976   2.042  11.337 -2.4227  0.9818  0.5231
 8862TIP3    H250782   2.831   1.999  11.327 -1.9250 -0.4192 -1.3030
 8863TIP3   OH250783   2.856   1.535  11.033  0.4578 -0.2203 -0.1408
 8863TIP3    H150784   2.885   1.546  11.123 -4.0766  5.1964  1.2259
 8863TIP3    H250785   2.914   1.592  10.982  0.0956  0.6045  0.3394
 8864TIP3   OH250786   5.621   5.699   8.682  0.0080  0.1038 -0.5797
 8864TIP3    H150787   5.620   5.625   8.742  1.9074 -0.5636 -1.3077
 8864TIP3    H250788   5.546   5.684   8.624  0.2267 -1.1237 -0.5590
 8865TIP3   OH250789   4.831   3.230  11.358 -0.4750 -0.3523  0.1845
 8865TIP3    H150790   4.917   3.255  11.392  0.2486 -1.6744 -0.5960
 8865TIP3    H250791   4.832   3.261  11.267 -2.4160  3.2136  1.1757
 8866TIP3   OH250792   0.782   0.720  10.841  0.2290  0.0521  0.0499
 8866TIP3    H150793   0.712   0.728  10.906  0.9438 -1.7625  1.1090
 8866TIP3    H250794   0.756   0.779  10.770 -3.1902 -1.7269 -0.3461
 8867TIP3   OH250795   3.505   4.615   9.545 -0.5029  0.2588  0.0827
 8867TIP3    H150796   3.507   4.589   9.453  0.5007 -2.7503  0.8316
 8867TIP3    H250797   3.433   4.566   9.583  0.2076  0.0573  1.2408
 8868TIP3   OH250798   1.847   5.673  12.245  0.3634  0.0310  0.7442
 8868TIP3    H150799   1.797   5.618  12.305  0.5126 -1.3502 -0.3378
 8868TIP3    H250800   1.938   5.665  12.274  0.3385  0.0108  0.8161
 8869TIP3   OH250801   4.575   1.373  11.462  0.9924  0.0242 -0.3899
 8869TIP3    H150802   4.539   1.462  11.460  0.7347 -0.0857 -1.4783
 8869TIP3    H250803   4.666   1.384  11.433  0.2592 -0.3216 -3.1589
 8870TIP3   OH250804   0.451   0.378  10.154 -0.3728 -0.4408  0.0883
 8870TIP3    H150805   0.442   0.285  10.177 -0.3925 -1.0040 -2.0011
 8870TIP3    H250806   0.544   0.397  10.168 -0.2480 -0.9366 -0.0255
 8871TIP3   OH250807   4.844   0.559  11.020  0.2063 -0.3035  0.0627
 8871TIP3    H150808   4.802   0.641  10.991  0.0059 -1.0231 -1.8536
 8871TIP3    H250809   4.932   0.563  10.982 -0.4576 -1.8182 -1.8061
 8872TIP3   OH250810   1.383   5.637  11.549 -0.0011  0.1172 -0.1239
 8872TIP3    H150811   1.341   5.722  11.564 -2.1186 -1.0231  0.8499
 8872TIP3    H250812   1.379   5.625  11.454 -0.8148  0.5669 -0.1538
 8873TIP3   OH250813   1.244   3.725  10.053  0.2341  0.0686  0.0114
 8873TIP3    H150814   1.216   3.638  10.080 -0.0077  0.0405 -0.3273
 8873TIP3    H250815   1.271   3.768  10.134 -0.0230 -0.1845  0.2313
 8874TIP3   OH250816   3.893   3.561   8.640 -0.4041  0.2269 -0.1601
 8874TIP3    H150817   3.832   3.516   8.581 -0.2841 -0.8976  0.5357
 8874TIP3    H250818   3.888   3.653   8.614 -0.9818 -0.1182 -1.3518
 8875TIP3   OH250819   2.846   0.763  11.663 -0.0959  0.6642  0.1946
 8875TIP3    H150820   2.847   0.789  11.571 -0.0647  1.0021  0.2893
 8875TIP3    H250821   2.772   0.702  11.670  0.4722 -0.1093 -0.2535
 8876TIP3   OH250822   5.374   6.183   9.299  0.1170 -0.1211 -0.4289
 8876TIP3    H150823   5.367   6.146   9.387  2.7719 -2.4755 -1.0745
 8876TIP3    H250824   5.419   6.116   9.248 -0.1885  1.6787 -3.2967
 8877TIP3   OH250825   2.166   3.224  12.049 -0.2444  0.0860  0.7701
 8877TIP3    H150826   2.212   3.165  11.989  0.7623 -1.0145  2.4890
 8877TIP3    H250827   2.075   3.194  12.048 -0.1575 -0.1698  0.1065
 8878TIP3   OH250828   4.296   1.042   9.974  0.4637  0.4075 -0.5866
 8878TIP3    H150829   4.253   0.999   9.900  0.3274 -0.3582 -0.0784
 8878TIP3    H250830   4.289   1.135   9.955 -1.1372  0.2949 -0.6801
 8879TIP3   OH250831   2.388   4.578  10.571 -0.2782  0.0643 -0.1538
 8879TIP3    H150832   2.476   4.604  10.544 -0.4108  0.9013  0.1860
 8879TIP3    H250833   2.375   4.622  10.655 -0.8475 -0.4331  0.0259
 8880TIP3   OH250834   0.901   1.438   8.914  0.2106  0.0387 -0.2848
 8880TIP3    H150835   0.828   1.445   8.852 -0.3517  0.4661  0.4155
 8880TIP3    H250836   0.860   1.431   9.000  0.9679 -1.2724 -0.0045
 8881TIP3   OH250837   3.708   6.073   9.083 -0.6931  0.2032 -0.3450
 8881TIP3    H150838   3.767   6.000   9.062 -0.9574  0.1539 -0.9220
 8881TIP3    H250839   3.620   6.038   9.069 -0.8850  0.2272  0.6678
 8882TIP3   OH250840   0.788   5.489  10.721  0.4728  0.4976 -0.4836
 8882TIP3    H150841   0.764   5.571  10.677  1.5221  0.8353 -0.4426
 8882TIP3    H250842   0.779   5.508  10.814 -2.5450 -0.4551 -0.4559
 8883TIP3   OH250843   4.183   6.601  10.021  0.1512 -0.3296  0.1948
 8883TIP3    H150844   4.178   6.538  10.094 -2.1219 -0.2459  0.1779
 8883TIP3    H250845   4.258   6.573   9.970  1.0496 -1.1504  1.8941
 8884TIP3   OH250846   2.958   5.588  11.205  0.2040 -0.3205  0.5183
 8884TIP3    H150847   2.978   5.497  11.226 -0.2637 -0.2714  1.2095
 8884TIP3    H250848   3.037   5.636  11.231  1.1828 -0.7138 -1.5152
 8885TIP3   OH250849   4.958   2.278   8.583 -0.3315  0.4952 -0.3229
 8885TIP3    H150850   4.920   2.359   8.549 -1.4871 -0.6720 -1.9897
 8885TIP3    H250851   4.889   2.213   8.570  0.7451 -0.8589  0.5289
 8886TIP3   OH250852   1.499   5.771   9.997 -0.2870 -0.0273  0.5835
 8886TIP3    H150853   1.501   5.866   9.992 -1.0371 -0.0028  0.5241
 8886TIP3    H250854   1.590   5.745  10.012  0.0950  0.6298 -0.4584
 8887TIP3   OH250855   0.647   4.439   8.562 -0.0412  0.4030 -0.0064
 8887TIP3    H150856   0.646   4.485   8.478  0.7019  1.3602  0.4815
 8887TIP3    H250857   0.616   4.504   8.625  3.1587  1.0795  1.0488
 8888TIP3   OH250858   3.073   3.976  10.146  0.0262 -0.0988 -0.4269
 8888TIP3    H150859   3.106   3.986  10.056  0.0180 -0.4321 -0.4689
 8888TIP3    H250860   3.133   3.912  10.186  0.0730  0.1009 -0.1722
 8889TIP3   OH250861   0.672   2.058  10.573 -0.3213  0.1351  0.0349
 8889TIP3    H150862   0.594   2.068  10.626 -0.8846  1.0088 -0.9142
 8889TIP3    H250863   0.707   2.147  10.565  0.1666 -0.0940 -0.4302
 8890TIP3   OH250864   6.047   6.271   9.637  0.3670 -0.1489  0.4318
 8890TIP3    H150865   6.132   6.254   9.596  0.5952 -2.4492  1.6804
 8890TIP3    H250866   6.067   6.281   9.730 -0.5490  1.3194  0.5115
 8891TIP3   OH250867   0.952   6.215  10.718  0.2009  0.0982 -0.4863
 8891TIP3    H150868   0.960   6.146  10.784  2.2304  1.2159  0.5218
 8891TIP3    H250869   1.034   6.211  10.669 -0.5158  0.4995 -1.7845
 8892TIP3   OH250870   3.785   4.308  11.824 -0.3501 -0.2494  0.0142
 8892TIP3    H150871   3.755   4.305  11.733 -1.5732 -2.2423  0.4276
 8892TIP3    H250872   3.708   4.283  11.875  1.3466 -3.4124  1.2706
 8893TIP3   OH250873   3.887   3.374  11.137 -0.2244  0.0389 -0.4780
 8893TIP3    H150874   3.969   3.411  11.171  0.1053 -0.8645 -0.2668
 8893TIP3    H250875   3.893   3.281  11.157 -1.9913  0.1833  0.9255
 8894TIP3   OH250876   1.416   5.170   9.576  0.3663 -0.1707 -0.2503
 8894TIP3    H150877   1.437   5.231   9.505 -0.5546  1.8610  1.1438
 8894TIP3    H250878   1.499   5.155   9.621  0.2444  1.9045  0.7522
 8895TIP3   OH250879   3.872   2.409  12.066  0.1272  0.3950 -0.3399
 8895TIP3    H150880   3.916   2.452  12.139 -1.0765  2.8376 -0.9185
 8895TIP3    H250881   3.809   2.350  12.106  1.4957 -0.5381  0.5120
 8896TIP3   OH250882   3.921   3.459   9.907 -0.4093  0.2952 -0.8429
 8896TIP3    H150883   3.856   3.448   9.976  0.2433 -0.4469 -0.3259
 8896TIP3    H250884   3.998   3.493   9.953 -0.0586  0.0452 -1.2410
 8897TIP3   OH250885   1.158   5.264   9.662 -0.2297  0.5014  0.5709
 8897TIP3    H150886   1.107   5.211   9.723 -2.4946  1.6107 -0.2717
 8897TIP3    H250887   1.239   5.214   9.650 -1.8080 -2.2806  0.5733
 8898TIP3   OH250888   4.165   1.665  11.766 -0.4107  0.1844 -0.2276
 8898TIP3    H150889   4.120   1.584  11.742 -0.4815 -0.1690  1.0133
 8898TIP3    H250890   4.209   1.644  11.848 -2.2782  2.0532  1.3523
 8899TIP3   OH250891   5.521   6.363  11.581  0.4479 -0.7659 -0.1755
 8899TIP3    H150892   5.577   6.438  11.604  0.2512 -0.5843 -0.2839
 8899TIP3    H250893   5.443   6.374  11.636  0.1767 -0.5827 -0.5880
 8900TIP3   OH250894   1.467   2.155  11.613 -0.3574 -0.2303 -0.0328
 8900TIP3    H150895   1.485   2.151  11.707 -0.0173  0.1033 -0.0825
 8900TIP3    H250896   1.496   2.070  11.580 -1.5031 -0.7828  0.3316
 8901TIP3   OH250897   5.215   5.804   8.970  0.3283  0.1995  0.1519
 8901TIP3    H150898   5.151   5.832   8.904 -0.8894 -2.4952  0.0810
 8901TIP3    H250899   5.300   5.827   8.933 -0.3735 -0.4404 -1.9753
 8902TIP3   OH250900   1.039   3.669   9.674 -0.3312 -0.0316  0.8013
 8902TIP3    H150901   0.985   3.713   9.739 -1.0240  0.0414  0.1816
 8902TIP3    H250902   1.129   3.694   9.697 -0.7227  2.2061  0.1234
 8903TIP3   OH250903   2.696   4.804  11.157 -0.2074  0.0590  0.1927
 8903TIP3    H150904   2.686   4.722  11.206  1.3907 -0.6245 -0.5492
 8903TIP3    H250905   2.761   4.784  11.090  1.8278  2.5110  1.3070
 8904TIP3   OH250906   0.672   1.978   9.061 -1.1232 -0.0865 -0.2187
 8904TIP3    H150907   0.761   1.946   9.074 -1.0973  0.0726 -0.0027
 8904TIP3    H250908   0.669   2.060   9.110 -0.6661  1.1472 -2.1645
 8905TIP3   OH250909   3.526   4.554  10.903  0.2739  0.7749 -0.4528
 8905TIP3    H150910   3.447   4.581  10.949  0.8360  0.0979  0.9528
 8905TIP3    H250911   3.515   4.460  10.889 -0.3636  1.1319 -2.7052
 8906TIP3   OH250912   0.679   2.962  11.083  0.2052  0.5657 -0.7025
 8906TIP3    H150913   0.706   3.041  11.037 -0.0073  0.9321 -0.2085
 8906TIP3    H250914   0.718   2.890  11.033  0.1083  0.9631 -1.3533
 8907TIP3   OH250915   3.151   0.983   9.475  0.0088  0.7949 -0.0933
 8907TIP3    H150916   3.109   0.905   9.510  0.4596  0.9538  0.8304
 8907TIP3    H250917   3.080   1.046   9.466 -0.1391  0.7082  0.4316
 8908TIP3   OH250918   1.724   4.190  12.643 -0.0684 -0.1217 -0.2807
 8908TIP3    H150919   1.632   4.172  12.659  0.0410  0.1214  0.7350
 8908TIP3    H250920   1.727   4.285  12.626 -0.0085 -0.1253 -0.2904
 8909TIP3   OH250921   5.235   5.984  10.709  0.4845 -0.1740  0.0608
 8909TIP3    H150922   5.287   6.032  10.774  1.5420  0.5590 -1.2747
 8909TIP3    H250923   5.225   5.897  10.746  4.0025 -0.8636 -0.2564
 8910TIP3   OH250924   0.841   1.484  10.477  0.5649 -0.1840 -0.2999
 8910TIP3    H150925   0.834   1.428  10.399  1.3454 -0.8687  0.1042
 8910TIP3    H250926   0.931   1.517  10.474  0.7971 -0.7000  0.6221
 8911TIP3   OH250927   5.743   2.854  10.228  0.1991  0.6853  0.1678
 8911TIP3    H150928   5.794   2.934  10.242  2.2489 -0.3487 -0.8774
 8911TIP3    H250929   5.760   2.830  10.137 -0.9826 -0.5489  0.2354
 8912TIP3   OH250930   5.023   1.060  10.584 -0.4448  0.2183  0.2181
 8912TIP3    H150931   5.103   1.106  10.609 -0.7974  1.1108 -0.2604
 8912TIP3    H250932   5.004   1.002  10.657  0.4215  0.2931  0.5067
 8913TIP3   OH250933   6.409   4.046   8.988 -0.1856 -0.0396  0.4842
 8913TIP3    H150934   6.469   3.979   9.020  0.1281  0.8093  1.7832
 8913TIP3    H250935   6.455   4.087   8.915  0.1922 -0.3421  0.5516
 8914TIP3   OH250936   4.126   3.325   8.882 -0.0485  0.7095  0.1099
 8914TIP3    H150937   4.180   3.246   8.886 -1.1458 -0.1044 -0.5371
 8914TIP3    H250938   4.183   3.395   8.913  0.5793 -0.5310  1.9156
 8915TIP3   OH250939   2.212   3.273  10.346  0.2041  0.4768  0.3646
 8915TIP3    H150940   2.257   3.292  10.264 -0.7487 -0.3103 -0.3635
 8915TIP3    H250941   2.125   3.311  10.335 -1.2030 -2.6511 -0.4985
 8916TIP3   OH250942   1.035   0.911  10.440  0.4040  0.2129 -0.3258
 8916TIP3    H150943   0.974   0.851  10.483 -0.8505 -0.0757 -2.3783
 8916TIP3    H250944   1.003   0.917  10.350  2.3955  1.4679 -1.0046
 8917TIP3   OH250945   2.428   3.298   9.521 -0.4399  0.0156 -0.3925
 8917TIP3    H150946   2.489   3.236   9.480 -0.0040 -0.1236  0.4469
 8917TIP3    H250947   2.458   3.305   9.611 -1.0517  0.7461 -0.2368
 8918TIP3   OH250948   0.462   6.437   9.965  0.1995  0.0065 -0.0113
 8918TIP3    H150949   0.536   6.490   9.937 -1.0513  1.3864 -0.7916
 8918TIP3    H250950   0.403   6.498  10.008  0.1733 -1.3404  2.0416
 8919TIP3   OH250951   4.814   1.016  11.293 -0.0639  0.3213  0.4371
 8919TIP3    H150952   4.790   1.006  11.385  0.5907  0.9653  0.6890
 8919TIP3    H250953   4.731   1.018  11.246 -0.4029  0.0141  1.0150
 8920TIP3   OH250954   0.692   6.336  10.765  0.1837  0.0553  0.2043
 8920TIP3    H150955   0.761   6.286  10.723  1.7301  0.9150  1.6028
 8920TIP3    H250956   0.681   6.294  10.851 -1.6831 -0.6048 -0.3018
 8921TIP3   OH250957   5.880   0.476  10.623 -0.0506  0.0432  0.3182
 8921TIP3    H150958   5.818   0.406  10.641 -0.2675  0.0024 -0.5292
 8921TIP3    H250959   5.949   0.465  10.689 -0.1654 -0.8664  0.2961
 8922TIP3   OH250960   2.859   4.682  11.509 -0.3159  0.2846 -0.7035
 8922TIP3    H150961   2.899   4.644  11.430  1.2247  1.7434 -0.6795
 8922TIP3    H250962   2.933   4.721  11.556 -1.7185  2.9333 -0.5322
 8923TIP3   OH250963   0.137   3.176  11.006  0.2669 -0.8358 -0.0840
 8923TIP3    H150964   0.224   3.139  10.993  0.3904 -0.9423  0.9683
 8923TIP3    H250965   0.086   3.146  10.930  1.2026 -0.5647 -0.8390
 8924TIP3   OH250966   0.092   5.991  11.790 -0.3507 -0.0965 -0.1648
 8924TIP3    H150967   0.090   5.976  11.696 -3.2160 -0.3004 -0.1612
 8924TIP3    H250968   0.080   6.086  11.800  1.5424  0.1587  0.0240
 8925TIP3   OH250969   5.249   2.157   9.892  0.5009 -0.2756 -0.3531
 8925TIP3    H150970   5.200   2.219   9.838 -0.2592  0.4257  1.0548
 8925TIP3    H250971   5.184   2.091   9.918  0.1283  0.7960  1.7297
 8926TIP3   OH250972   2.324   4.416   8.695 -0.1221 -0.2224 -0.0463
 8926TIP3    H150973   2.305   4.331   8.735 -0.9853  1.1004  2.5925
 8926TIP3    H250974   2.343   4.474   8.769 -1.0067  2.2424 -1.6231
 8927TIP3   OH250975   3.598   1.254  10.153  0.3702 -0.6687 -0.1334
 8927TIP3    H150976   3.674   1.206  10.120  1.1459  0.8760 -0.6922
 8927TIP3    H250977   3.621   1.279  10.242 -0.4165 -2.0828  0.4976
 8928TIP3   OH250978   2.572   1.816   8.904 -0.4211  0.2851  0.6091
 8928TIP3    H150979   2.633   1.868   8.852  1.2566 -0.2356  1.9686
 8928TIP3    H250980   2.509   1.879   8.938 -0.8660  0.7944 -1.0573
 8929TIP3   OH250981   1.538   0.242  10.927 -0.2354 -0.3367  0.1095
 8929TIP3    H150982   1.514   0.262  11.017 -1.0568 -0.3967 -0.0870
 8929TIP3    H250983   1.455   0.241  10.879 -0.0523 -2.3346 -0.2655
 8930TIP3   OH250984   3.531   3.502  11.599 -0.9188 -0.1271 -0.0510
 8930TIP3    H150985   3.479   3.445  11.656 -0.0177 -0.5010  0.4292
 8930TIP3    H250986   3.543   3.452  11.519  0.3662 -0.9155  0.5846
 8931TIP3   OH250987   2.630   1.278   9.856 -0.2555  0.4001  0.4726
 8931TIP3    H150988   2.629   1.335   9.933 -1.3429  0.8475  0.1412
 8931TIP3    H250989   2.663   1.194   9.890 -0.2277  0.7364  1.3128
 8932TIP3   OH250990   5.923   5.348   8.923  0.3295  0.1011  0.3739
 8932TIP3    H150991   5.857   5.293   8.965 -1.1377  1.3465 -0.1832
 8932TIP3    H250992   5.958   5.295   8.852 -2.1351  0.3319 -1.1211
 8933TIP3   OH250993   1.563   1.896   8.813 -0.6103  0.5096  0.2305
 8933TIP3    H150994   1.585   1.935   8.728 -0.1300  0.3164  0.2610
 8933TIP3    H250995   1.641   1.912   8.867 -0.5510 -0.1655  0.3568
 8934TIP3   OH250996   5.628   4.929   9.930  0.1922  0.2960  0.0754
 8934TIP3    H150997   5.683   5.007   9.918  0.4843  0.0448 -0.2476
 8934TIP3    H250998   5.556   4.959   9.984  0.2188  0.8352 -0.1792
 8935TIP3   OH250999   0.037   6.629  11.164 -0.1448 -0.0181 -0.2243
 8935TIP3    H151000   0.105   6.619  11.231  0.5099  2.0771 -0.5151
 8935TIP3    H251001  -0.043   6.643  11.214  0.3948  1.8829  0.1909
 8936TIP3   OH251002   4.873   5.237  12.912 -0.6984 -0.3123  0.1667
 8936TIP3    H151003   4.820   5.199  12.842  0.7087 -1.2123 -0.4587
 8936TIP3    H251004   4.959   5.250  12.872 -0.1689  0.1715  1.4228
 8937TIP3   OH251005   5.876   3.448  10.380 -0.3793 -0.6371 -0.0348
 8937TIP3    H151006   5.911   3.514  10.440  1.2426  0.2051 -1.7921
 8937TIP3    H251007   5.938   3.376  10.385 -0.1830 -0.5244 -0.7244
 8938TIP3   OH251008   1.194   5.884  10.163  0.2532 -0.3114  0.0102
 8938TIP3    H151009   1.274   5.903  10.211  0.3691 -2.3375  0.7450
 8938TIP3    H251010   1.220   5.820  10.096 -0.3566  0.6887 -1.2328
 8939TIP3   OH251011   6.183   4.113  11.858 -0.1480  0.0211 -0.2613
 8939TIP3    H151012   6.257   4.064  11.822  0.7339 -0.4471  2.0136
 8939TIP3    H251013   6.114   4.048  11.871  0.4065 -0.3375  1.1075
 8940TIP3   OH251014   0.287   4.934  10.609 -0.0029 -0.5135 -0.0314
 8940TIP3    H151015   0.308   4.915  10.518  1.8249  0.6450  0.1026
 8940TIP3    H251016   0.228   5.010  10.604  3.3305  2.3327 -0.2897
 8941TIP3   OH251017   0.097   5.909  10.272  0.4585 -0.1839  0.4622
 8941TIP3    H151018   0.087   5.815  10.286 -0.2091 -0.1471  0.2671
 8941TIP3    H251019   0.016   5.936  10.228  1.1464  0.2584 -0.5978
 8942TIP3   OH251020   4.517   3.161  11.885 -0.3430 -0.2618  0.6931
 8942TIP3    H151021   4.435   3.162  11.837 -1.0619 -0.6601  1.8556
 8942TIP3    H251022   4.491   3.174  11.977  0.7479 -1.6156  1.2340
 8943TIP3   OH251023   5.502   5.284   8.804  0.0817 -0.1533 -0.3052
 8943TIP3    H151024   5.528   5.373   8.828 -2.0178  0.0995  1.3461
 8943TIP3    H251025   5.419   5.295   8.758 -1.7092 -1.3103  2.3783
 8944TIP3   OH251026   6.269   0.324   9.371  0.0902 -0.2776  0.0094
 8944TIP3    H151027   6.207   0.311   9.299  1.1310  0.5707 -1.0815
 8944TIP3    H251028   6.350   0.349   9.328  0.5089  1.1428  1.5202
 8945TIP3   OH251029   2.646   4.881  10.688 -0.3280 -0.2258  0.0307
 8945TIP3    H151030   2.741   4.893  10.676 -0.4268  0.2137 -0.3755
 8945TIP3    H251031   2.638   4.801  10.738  0.2680 -0.2253  0.1379
 8946TIP3   OH251032   3.318   4.101  10.132 -0.2264 -0.2344  0.1446
 8946TIP3    H151033   3.275   4.154  10.065 -0.0730 -0.1008  0.1522
 8946TIP3    H251034   3.371   4.039  10.084 -0.2873 -0.2815  0.1375
 8947TIP3   OH251035   3.620   6.253  10.961 -0.1957  0.8170 -0.5230
 8947TIP3    H151036   3.550   6.195  10.990  1.7764 -0.6884  1.6227
 8947TIP3    H251037   3.614   6.329  11.020 -0.4377  1.0198 -0.8057
 8948TIP3   OH251038   5.237   1.371   9.161  0.6950  0.0822 -0.6206
 8948TIP3    H151039   5.192   1.379   9.245  0.3613  1.3091 -0.8882
 8948TIP3    H251040   5.297   1.298   9.173 -1.1825 -1.4585 -0.1823
 8949TIP3   OH251041   1.324   4.492   8.782 -0.2370  0.8198 -0.6360
 8949TIP3    H151042   1.364   4.436   8.716  1.5641  1.9590 -0.5841
 8949TIP3    H251043   1.392   4.504   8.848 -2.0858 -0.6136  1.7262
 8950TIP3   OH251044   6.450   3.217  11.088 -0.3494  0.0483  0.0492
 8950TIP3    H151045   6.395   3.142  11.107  0.1698 -0.7954 -1.5870
 8950TIP3    H251046   6.518   3.215  11.155 -1.0585 -0.1796  0.7705
 8951TIP3   OH251047   2.408   2.352   8.762  0.5357  0.1433  0.1020
 8951TIP3    H151048   2.424   2.402   8.842 -1.6108  1.3714 -0.1634
 8951TIP3    H251049   2.404   2.261   8.791  0.8943  0.4638  1.1905
 8952TIP3   OH251050   2.479   4.153   9.497 -0.4042 -0.4446 -0.3287
 8952TIP3    H151051   2.427   4.084   9.456  0.3224 -0.5402 -1.1082
 8952TIP3    H251052   2.556   4.108   9.532 -0.6384 -0.2428  0.4745
 8953TIP3   OH251053   2.622   4.693   9.743  0.5535 -0.3354 -0.6617
 8953TIP3    H151054   2.630   4.661   9.832  1.0178  0.2964 -0.4717
 8953TIP3    H251055   2.554   4.761   9.748  1.2178  0.3416 -0.5994
 8954TIP3   OH251056   0.057   3.501  10.771 -0.2925  0.6622  0.0136
 8954TIP3    H151057   0.041   3.421  10.821  0.6140  0.9367  0.7730
 8954TIP3    H251058  -0.023   3.515  10.721 -1.3431  0.5180  1.6017
 8955TIP3   OH251059   5.234   3.992  11.079 -0.0854  0.1245 -0.3864
 8955TIP3    H151060   5.318   3.972  11.122  0.4985 -0.3276 -1.7055
 8955TIP3    H251061   5.245   3.962  10.989 -0.8941  1.9839 -1.1705
 8956TIP3   OH251062   4.301   4.140  10.533  0.3402 -0.7057  0.3958
 8956TIP3    H151063   4.323   4.184  10.451  2.1773 -0.9436  0.7130
 8956TIP3    H251064   4.220   4.093  10.514 -2.0165  3.1054  0.2136
 8957TIP3   OH251065   2.116   3.785  10.029 -0.1525 -0.0862 -0.0485
 8957TIP3    H151066   2.054   3.722  10.066  0.0943 -0.5024 -0.3319
 8957TIP3    H251067   2.075   3.871  10.044 -0.8308 -0.3602 -0.2921
 8958TIP3   OH251068   4.311   5.194   9.908  0.0331  0.1118  0.5549
 8958TIP3    H151069   4.268   5.121   9.864  0.4556  1.6689 -2.7424
 8958TIP3    H251070   4.403   5.186   9.883 -0.1811  2.6773 -1.4579
 8959TIP3   OH251071   2.172   5.029  12.682 -0.4875  0.1669  0.4290
 8959TIP3    H151072   2.085   5.004  12.652 -1.0828 -1.2491  3.0319
 8959TIP3    H251073   2.229   4.956  12.659 -0.3171  0.3847  0.1480
 8960TIP3   OH251074   3.706   6.282  11.433  0.2995  0.2981  0.0829
 8960TIP3    H151075   3.656   6.360  11.455  0.5305  0.3964  0.2601
 8960TIP3    H251076   3.751   6.304  11.351 -2.2443 -0.7999 -1.7921
 8961TIP3   OH251077   6.206   5.892  11.775  0.0524  0.1366 -0.4173
 8961TIP3    H151078   6.180   5.932  11.858  0.0792  0.3533 -0.5133
 8961TIP3    H251079   6.126   5.890  11.723 -0.2956 -1.2760  0.1207
 8962TIP3   OH251080   0.748   0.190  10.745  0.5244  0.2743 -0.2249
 8962TIP3    H151081   0.799   0.256  10.792  0.4359  0.5377 -0.4990
 8962TIP3    H251082   0.798   0.109  10.758 -0.6786 -0.1548  2.2507
 8963TIP3   OH251083   4.010   4.575  10.126  0.2861  0.0407  0.1784
 8963TIP3    H151084   3.991   4.620  10.043 -3.0368  1.8540  1.6916
 8963TIP3    H251085   4.002   4.482  10.105 -2.1669  0.4772 -1.3020
 8964TIP3   OH251086   3.892   2.000  10.447  0.1403  0.1661 -0.0730
 8964TIP3    H151087   3.917   1.985  10.538  0.5012  1.5337  0.0725
 8964TIP3    H251088   3.944   2.076  10.420 -2.1423  1.6480 -0.5016
 8965TIP3   OH251089   2.725   3.347   9.058  0.2113 -0.1484  0.0211
 8965TIP3    H151090   2.680   3.415   9.009  0.9578  0.0827 -0.3577
 8965TIP3    H251091   2.813   3.344   9.020  0.0364 -1.6957 -0.3308
 8966TIP3   OH251092   5.120   2.529  10.122  0.2951  0.1731 -0.2104
 8966TIP3    H151093   5.203   2.536  10.170 -0.2399 -0.5221  0.8428
 8966TIP3    H251094   5.106   2.435  10.111 -1.7881  0.0804  2.2679
 8967TIP3   OH251095   4.952   5.120   9.316 -0.2127 -0.6640 -0.2583
 8967TIP3    H151096   4.892   5.067   9.370  0.7611 -2.3479 -0.7578
 8967TIP3    H251097   5.038   5.104   9.354 -0.1220  3.0068  1.4735
 8968TIP3   OH251098   0.415   5.856  11.054 -0.0962  0.1683  0.1303
 8968TIP3    H151099   0.431   5.946  11.026  1.2084 -0.1330 -0.1709
 8968TIP3    H251100   0.429   5.803  10.975  0.4775 -0.4119  0.6149
 8969TIP3   OH251101   3.702   5.065   9.420 -0.7769 -0.2521  0.2081
 8969TIP3    H151102   3.659   4.988   9.457  1.4609 -1.1301  1.1310
 8969TIP3    H251103   3.770   5.087   9.483 -0.7302  1.9227 -0.5212
 8970TIP3   OH251104   0.561   5.090  10.092  0.2536  0.3200  0.4419
 8970TIP3    H151105   0.484   5.038  10.117  0.7919 -1.8344 -1.9439
 8970TIP3    H251106   0.633   5.050  10.139  0.5126 -0.5309 -0.6267
 8971TIP3   OH251107   6.234   1.891   9.103 -0.6297 -0.0307  0.1593
 8971TIP3    H151108   6.196   1.924   9.185 -2.5592 -1.7741  0.0188
 8971TIP3    H251109   6.206   1.800   9.098  1.1454 -0.5535 -1.4902
 8972TIP3   OH251110   4.046   6.088   9.116  0.5165 -0.1209 -0.4990
 8972TIP3    H151111   3.955   6.116   9.106  1.2207  2.3769 -0.4834
 8972TIP3    H251112   4.098   6.167   9.099  2.6680 -1.3598 -0.0366
 8973TIP3   OH251113   0.990   0.949   8.931  0.3774  0.2337  0.2680
 8973TIP3    H151114   1.085   0.950   8.915  0.5751  2.3157  1.2487
 8973TIP3    H251115   0.968   1.040   8.950 -1.8503 -0.2043  0.0405
 8974TIP3   OH251116   4.393   3.022   9.204  0.5917 -0.3931 -0.1079
 8974TIP3    H151117   4.372   3.055   9.292 -0.9931 -2.1019  0.2225
 8974TIP3    H251118   4.316   3.043   9.152  1.8291  1.3125 -1.3729
 8975TIP3   OH251119   0.463   0.855   9.748 -0.4684  0.5001 -0.0042
 8975TIP3    H151120   0.394   0.881   9.810 -1.5512  0.4250 -1.1243
 8975TIP3    H251121   0.514   0.935   9.734 -1.3481  1.0178 -0.3972
 8976TIP3   OH251122   4.218   5.923   9.889 -0.7389  0.0747 -0.6612
 8976TIP3    H151123   4.247   5.985   9.822 -1.6879  1.9219  0.5545
 8976TIP3    H251124   4.170   5.856   9.840 -1.0332  1.1394 -1.8960
 8977TIP3   OH251125   0.146   5.685   8.819  0.4868  0.1079  0.5837
 8977TIP3    H151126   0.190   5.770   8.822  0.4977  0.0955  0.8776
 8977TIP3    H251127   0.151   5.653   8.910  0.0389  0.0188  0.5759
 8978TIP3   OH251128   6.209   3.366   9.073 -0.2258  0.1876  0.0228
 8978TIP3    H151129   6.192   3.440   9.132  0.4426  1.3788 -1.2056
 8978TIP3    H251130   6.141   3.375   9.005  0.0181 -0.1770 -0.2706
 8979TIP3   OH251131   2.493   3.572  10.856 -0.1792  0.0807  0.2548
 8979TIP3    H151132   2.571   3.545  10.806  0.6869  1.0427  1.0283
 8979TIP3    H251133   2.520   3.654  10.898 -1.6546  0.4694  0.4756
 8980TIP3   OH251134   5.749   4.564   9.631  0.1129 -0.3220  0.4137
 8980TIP3    H151135   5.745   4.622   9.706  1.2837  0.7351 -0.2923
 8980TIP3    H251136   5.756   4.476   9.669 -1.4154 -0.0154  1.4938
 8981TIP3   OH251137   6.174   4.132  10.790 -0.0874 -0.3951  0.0018
 8981TIP3    H151138   6.118   4.106  10.863  1.7065  0.5060  1.8096
 8981TIP3    H251139   6.176   4.227  10.794 -0.3806 -0.2921 -1.6100
 8982TIP3   OH251140   4.594   2.070  11.882  0.0663 -0.4106  0.5552
 8982TIP3    H151141   4.577   2.101  11.971  0.0481 -0.6266  0.6275
 8982TIP3    H251142   4.675   2.020  11.890  0.0373 -0.4724  0.4597
 8983TIP3   OH251143   2.033   0.231  12.182 -0.1372 -0.5694 -0.7478
 8983TIP3    H151144   1.988   0.180  12.115 -0.7441 -0.4320 -0.4562
 8983TIP3    H251145   1.988   0.316  12.181 -2.9848 -1.8048  2.5874
 8984TIP3   OH251146   3.266   1.638   9.549 -0.5371 -0.0068  0.1649
 8984TIP3    H151147   3.269   1.716   9.494  1.3165 -0.7210 -0.8353
 8984TIP3    H251148   3.323   1.659   9.623  0.0168 -0.4205 -0.1389
 8985TIP3   OH251149   2.190   3.873   9.167 -0.1747  0.3505 -0.1529
 8985TIP3    H151150   2.169   3.796   9.114  0.4171  0.1502 -0.1010
 8985TIP3    H251151   2.150   3.946   9.119 -2.1110 -0.1593  0.6220
 8986TIP3   OH251152   2.936   1.730  10.243 -0.3036 -0.4885  0.2318
 8986TIP3    H151153   2.979   1.726  10.328  1.0981  2.0226 -0.2671
 8986TIP3    H251154   2.954   1.645  10.203  1.3970 -0.6955  1.3589
 8987TIP3   OH251155   3.533   1.486   9.615 -0.1880 -0.1148 -0.1923
 8987TIP3    H151156   3.602   1.536   9.658 -0.6423  0.1639  0.2133
 8987TIP3    H251157   3.534   1.517   9.525 -2.0317  2.3974  0.5390
 8988TIP3   OH251158   4.379   5.758  10.835  0.6096  0.0260  0.0079
 8988TIP3    H151159   4.470   5.782  10.851  0.6450  0.0386 -0.2057
 8988TIP3    H251160   4.367   5.771  10.741  0.2229  0.5690  0.1270
 8989TIP3   OH251161   1.589   6.092  12.196 -0.6738  0.0349  0.1861
 8989TIP3    H151162   1.581   6.132  12.109 -1.6478  1.6347  0.9701
 8989TIP3    H251163   1.580   5.998  12.179  0.3357  0.2026 -1.5644
 8990TIP3   OH251164   0.906   3.571  11.742 -0.1187  0.1940 -0.1423
 8990TIP3    H151165   0.982   3.542  11.793  0.2959  0.0109 -0.8492
 8990TIP3    H251166   0.871   3.646  11.791  0.6219  0.3877  0.1035
 8991TIP3   OH251167   2.424   5.850  11.864 -0.3325  0.3294 -0.0799
 8991TIP3    H151168   2.387   5.765  11.889  0.3246  0.2396  0.6235
 8991TIP3    H251169   2.485   5.829  11.793 -0.1393  0.1992  0.1215
 8992TIP3   OH251170   6.181   5.569   8.777 -0.3125  0.6193  0.2311
 8992TIP3    H151171   6.181   5.662   8.753 -0.3822  0.8343  1.0490
 8992TIP3    H251172   6.274   5.547   8.786 -0.3378  0.9918  1.4739
 8993TIP3   OH251173   5.459   0.632  10.451  0.5738  0.4654  0.0038
 8993TIP3    H151174   5.469   0.721  10.418 -0.0167  0.4914 -0.1151
 8993TIP3    H251175   5.538   0.587  10.422 -0.4904  0.1121 -2.6834
 8994TIP3   OH251176   6.059   2.947   9.462 -0.3102  0.3581 -0.3101
 8994TIP3    H151177   6.020   2.878   9.409 -1.2488 -0.1088  0.9472
 8994TIP3    H251178   6.025   2.933   9.550  1.3868  0.9711  0.4970
 8995TIP3   OH251179   0.936   3.805   8.793 -0.0249 -0.6131 -0.1469
 8995TIP3    H151180   0.940   3.836   8.884 -1.9551 -0.8789  0.0816
 8995TIP3    H251181   0.907   3.882   8.744  0.0191 -0.7437 -0.3739
 8996TIP3   OH251182   2.986   0.194  11.849 -0.3094 -0.4811  0.7974
 8996TIP3    H151183   2.939   0.179  11.931 -0.0872 -0.4351  0.9346
 8996TIP3    H251184   3.070   0.150  11.862 -0.2870 -0.5009  0.5815
 8997TIP3   OH251185   0.152   3.961   9.780 -0.2650 -0.1035  0.7438
 8997TIP3    H151186   0.131   4.043   9.824 -1.0201  1.1977 -1.8638
 8997TIP3    H251187   0.069   3.912   9.778 -0.4071  0.1534  0.1763
 8998TIP3   OH251188   1.407   6.675   9.129 -0.8025  0.6483 -0.1307
 8998TIP3    H151189   1.476   6.635   9.076 -0.8767 -1.8472  1.5072
 8998TIP3    H251190   1.439   6.763   9.147  1.9712 -0.3951  0.5230
 8999TIP3   OH251191   2.263   6.575  10.173 -0.2436 -0.0507  0.0801
 8999TIP3    H151192   2.253   6.584  10.268  1.6585 -0.0893  0.3303
 8999TIP3    H251193   2.328   6.642  10.150  0.1148 -0.7484 -1.0068
 9000TIP3   OH251194   4.013   5.088   8.628 -0.6048 -0.3518 -0.0877
 9000TIP3    H151195   3.952   5.101   8.701 -0.0946 -2.3070  0.7656
 9000TIP3    H251196   4.093   5.132   8.656 -0.8526  0.1023 -0.0931
 9001TIP3   OH251197   4.829   5.060  11.585  0.7504  0.1484 -0.1596
 9001TIP3    H151198   4.834   5.153  11.604 -2.1026  0.8518 -2.0430
 9001TIP3    H251199   4.741   5.035  11.613  0.7745 -1.4979 -1.3849
 9002TIP3   OH251200   4.058   4.197   8.758 -0.0281 -0.2135  0.0558
 9002TIP3    H151201   4.022   4.181   8.845  0.5852 -0.9861  0.1829
 9002TIP3    H251202   4.016   4.131   8.703 -1.4608  1.1477 -0.5434
 9003TIP3   OH251203   5.881   4.613  11.228 -0.3958 -0.3892 -0.1914
 9003TIP3    H151204   5.785   4.615  11.221 -0.3876  2.0583 -0.5643
 9003TIP3    H251205   5.910   4.587  11.140 -0.7094  0.0435 -0.4288
 9004TIP3   OH251206   2.062   3.884  11.268  1.1354 -0.0635  0.2560
 9004TIP3    H151207   1.992   3.821  11.284  1.2627 -0.6152 -1.1404
 9004TIP3    H251208   2.020   3.956  11.222  1.6847 -1.1159 -2.0489
 9005TIP3   OH251209   3.856   4.113   8.561 -0.0454 -0.2986  0.3755
 9005TIP3    H151210   3.903   4.035   8.531  0.6324 -0.1976  1.1164
 9005TIP3    H251211   3.786   4.079   8.616  0.1776 -0.3981  0.6027
 9006TIP3   OH251212   0.437   4.639   9.047  0.7437  0.2214 -0.0198
 9006TIP3    H151213   0.474   4.571   9.103 -0.3232  1.3154  2.1056
 9006TIP3    H251214   0.497   4.712   9.054  1.4025 -0.1160 -1.5819
 9007TIP3   OH251215   6.035   5.796  11.407  0.2490 -0.2934 -0.4164
 9007TIP3    H151216   5.946   5.817  11.378 -1.2851 -3.7193  1.2464
 9007TIP3    H251217   6.039   5.829  11.497 -0.2624 -2.1324  0.3248
 9008TIP3   OH251218   4.935   3.643  11.826 -0.3869  0.2265  0.2558
 9008TIP3    H151219   4.974   3.556  11.825  0.7404  0.6752  1.7884
 9008TIP3    H251220   4.841   3.626  11.833 -0.2718 -0.8626 -0.5325
 9009TIP3   OH251221   6.553   4.955  10.331  0.1899  0.0621 -0.3737
 9009TIP3    H151222   6.524   4.871  10.296 -0.6733 -0.1971  0.8901
 9009TIP3    H251223   6.471   5.002  10.349  0.6506  1.8488 -2.5434
 9010TIP3   OH251224   5.300   4.136  12.164 -0.0093  0.8027 -0.2337
 9010TIP3    H151225   5.232   4.150  12.229 -0.0250  1.2193 -0.3377
 9010TIP3    H251226   5.274   4.056  12.118  0.8685 -0.4631  1.3560
 9011TIP3   OH251227   5.763   5.004  11.288 -0.1614 -0.1291  0.7687
 9011TIP3    H151228   5.696   4.972  11.227  2.2324 -0.5310 -1.9031
 9011TIP3    H251229   5.752   5.099  11.288 -1.2418 -0.2465  1.0225
 9012TIP3   OH251230   1.938   6.507   9.439  0.3216 -0.4993  0.2614
 9012TIP3    H151231   1.949   6.602   9.439 -1.2212 -0.2436  2.5883
 9012TIP3    H251232   2.003   6.476   9.503 -0.2975 -0.8197  0.7437
 9013TIP3   OH251233   0.768   5.270  10.561 -0.1652 -0.3281  0.5274
 9013TIP3    H151234   0.786   5.195  10.618 -1.5089  0.0336  1.4777
 9013TIP3    H251235   0.768   5.346  10.621 -0.1911  0.2438 -0.1875
 9014TIP3   OH251236   2.497   4.947   9.995 -0.1696 -0.2280 -0.0356
 9014TIP3    H151237   2.452   4.950   9.910 -2.4094 -1.7167  1.0160
 9014TIP3    H251238   2.587   4.920   9.973  0.3094  2.5377 -2.1690
 9015TIP3   OH251239   5.055   2.334   9.456 -0.7121 -0.3188 -0.1052
 9015TIP3    H151240   4.971   2.368   9.426 -1.4069 -1.6178  0.3180
 9015TIP3    H251241   5.109   2.331   9.377 -1.2191  0.0601 -0.4700
 9016TIP3   OH251242   1.253   4.227   9.074 -0.2229 -0.7098  0.3759
 9016TIP3    H151243   1.253   4.195   8.984  0.7593  0.6469 -0.1492
 9016TIP3    H251244   1.303   4.162   9.123  1.3303 -0.2821 -0.5660
 9017TIP3   OH251245   5.343   2.559   8.414 -0.2775 -0.1341  0.9721
 9017TIP3    H151246   5.334   2.482   8.359 -1.6465 -0.4620  1.6132
 9017TIP3    H251247   5.434   2.586   8.404  0.1982 -1.7843  0.6750
 9018TIP3   OH251248   0.636   5.379  12.154 -0.0277  0.0051 -0.1841
 9018TIP3    H151249   0.562   5.376  12.094 -0.2043  0.3134  0.0164
 9018TIP3    H251250   0.651   5.473  12.169  0.4099 -0.0560 -0.2333
 9019TIP3   OH251251   5.729   3.425   9.559 -0.0124  0.2951  0.0042
 9019TIP3    H151252   5.798   3.359   9.561  0.8718  1.2000  0.4378
 9019TIP3    H251253   5.677   3.409   9.638  0.7862  0.7048  0.6296
 9020TIP3   OH251254   4.910   4.612  11.686  0.3372  0.2100  0.1129
 9020TIP3    H151255   4.865   4.574  11.762 -1.0459  0.8316 -0.3663
 9020TIP3    H251256   4.839   4.634  11.625  1.2091  2.0429 -0.2991
 9021TIP3   OH251257   0.782   0.775  10.495 -0.1358  0.5222 -0.2054
 9021TIP3    H151258   0.727   0.758  10.418 -1.4126  0.6622  0.6484
 9021TIP3    H251259   0.746   0.855  10.533  1.5353  1.3888 -0.3713
 9022TIP3   OH251260   5.478   4.647  11.266 -0.3236 -0.5044  0.5205
 9022TIP3    H151261   5.551   4.642  11.204 -0.6225  1.8983 -0.1109
 9022TIP3    H251262   5.408   4.597  11.224 -0.0888 -0.0390 -0.4587
 9023TIP3   OH251263   4.277   0.276  11.060 -0.3102 -0.2486  0.0941
 9023TIP3    H151264   4.364   0.240  11.042 -0.7740 -1.9610  1.0438
 9023TIP3    H251265   4.286   0.370  11.044  1.7523 -0.3695  0.2750
 9024TIP3   OH251266   5.261   6.479   8.316 -0.4420 -0.3503  0.0922
 9024TIP3    H151267   5.309   6.404   8.282  1.8065 -0.0724  2.3410
 9024TIP3    H251268   5.246   6.459   8.408 -0.3515  1.6373  0.6019
 9025TIP3   OH251269   3.945   0.923   9.759  0.1618  0.2542 -0.3038
 9025TIP3    H151270   3.896   0.937   9.678 -0.3676 -0.6574 -0.1594
 9025TIP3    H251271   4.013   0.990   9.758  0.6016 -0.1676 -1.8463
 9026TIP3   OH251272   1.000   3.024  11.693 -0.5405  0.0648  0.2591
 9026TIP3    H151273   0.917   3.071  11.705 -0.6732  0.4172 -1.7282
 9026TIP3    H251274   0.975   2.933  11.681 -0.5665  0.0428  0.4723
 9027TIP3   OH251275   0.862   0.687  11.242  0.4615  0.0451  0.2373
 9027TIP3    H151276   0.908   0.752  11.295 -0.6701  0.0573  1.2528
 9027TIP3    H251277   0.774   0.722  11.232 -0.0098 -1.0721  0.3236
 9028TIP3   OH251278   1.969   6.584  11.228 -0.4531  0.4948 -0.0264
 9028TIP3    H151279   1.955   6.528  11.305  0.5864 -0.2792 -0.3751
 9028TIP3    H251280   1.928   6.536  11.156  0.6901  0.0257 -0.3791
 9029TIP3   OH251281   6.483   0.568  10.169  0.2745  0.1407 -0.4057
 9029TIP3    H151282   6.455   0.610  10.088  2.1165 -0.6441 -1.5046
 9029TIP3    H251283   6.417   0.500  10.184  1.0891 -1.2200 -2.5529
 9030TIP3   OH251284   4.848   3.028  12.399  0.2505 -0.0299  0.3096
 9030TIP3    H151285   4.927   3.013  12.347 -0.7321  0.9978 -1.5789
 9030TIP3    H251286   4.789   3.075  12.340 -1.3447  0.2525  2.0422
 9031TIP3   OH251287   2.462   2.471   9.817 -0.3379 -0.3491  0.1672
 9031TIP3    H151288   2.404   2.402   9.785  0.8734 -0.9556 -0.8028
 9031TIP3    H251289   2.445   2.546   9.761  2.3699 -1.6521 -2.7272
 9032TIP3   OH251290   6.332   2.419   8.677  0.5224 -0.6028  0.1120
 9032TIP3    H151291   6.286   2.338   8.656  1.7625 -1.2207 -0.2923
 9032TIP3    H251292   6.282   2.456   8.750  1.3946 -3.0782  2.1024
 9033TIP3   OH251293   4.389   3.475  10.642  0.2339 -0.5907  0.1053
 9033TIP3    H151294   4.376   3.563  10.676  1.2696 -0.2975 -0.2291
 9033TIP3    H251295   4.396   3.420  10.720 -1.4999 -0.5718  0.3144
 9034TIP3   OH251296   4.646   3.278  10.992 -0.0321  0.0958  0.1393
 9034TIP3    H151297   4.685   3.348  11.045  0.8530  0.8914 -1.5141
 9034TIP3    H251298   4.663   3.303  10.902 -1.7211 -1.1239 -0.5633
 9035TIP3   OH251299   1.739   5.559  11.187  0.2377 -0.2617  0.0283
 9035TIP3    H151300   1.794   5.634  11.163 -0.6435  0.7283  0.9807
 9035TIP3    H251301   1.653   5.597  11.205 -0.4035 -1.6049 -0.1137
 9036TIP3   OH251302   1.839   1.688   9.664  0.1411 -0.4933  0.0385
 9036TIP3    H151303   1.815   1.603   9.701 -0.5655 -0.0592  0.5935
 9036TIP3    H251304   1.786   1.696   9.585  1.1587 -1.1221 -0.7436
 9037TIP3   OH251305   3.184   5.189  10.895  0.4283 -0.3328  0.6409
 9037TIP3    H151306   3.113   5.172  10.957 -0.0646 -0.4238  0.0645
 9037TIP3    H251307   3.262   5.200  10.949  0.1040 -0.9481  1.2387
 9038TIP3   OH251308   2.799   5.965  12.349 -0.2207 -0.1027 -0.2635
 9038TIP3    H151309   2.873   5.907  12.365 -0.5753 -0.3984  0.3380
 9038TIP3    H251310   2.838   6.049  12.326  0.2977 -0.5111 -0.9034
 9039TIP3   OH251311   1.814   2.544  11.776 -0.6245 -0.4450 -0.1906
 9039TIP3    H151312   1.725   2.521  11.801 -0.4469 -1.4917 -0.4769
 9039TIP3    H251313   1.838   2.480  11.709  0.8562 -1.1056  0.8969
 9040TIP3   OH251314   2.045   2.997  10.398 -0.7485  0.4309  0.3412
 9040TIP3    H151315   2.062   2.943  10.475 -0.8286  1.8480  1.4056
 9040TIP3    H251316   1.999   3.074  10.433  0.0878  1.5744 -0.9656
 9041TIP3   OH251317   4.576   4.076   8.877 -0.0196  0.9273 -0.4202
 9041TIP3    H151318   4.624   4.156   8.856 -2.2926  3.1251  2.0326
 9041TIP3    H251319   4.486   4.093   8.848 -0.7882 -0.2464  1.1278
 9042TIP3   OH251320   0.613   6.553   9.557 -0.2714  0.6338  0.5017
 9042TIP3    H151321   0.706   6.570   9.545  0.0024 -0.2700  1.2367
 9042TIP3    H251322   0.592   6.486   9.492  0.5022 -1.9511  2.6938
 9043TIP3   OH251323   5.462   0.377   9.831 -0.3807  0.1426 -0.1837
 9043TIP3    H151324   5.391   0.439   9.814 -0.5229 -0.1459 -0.6546
 9043TIP3    H251325   5.418   0.297   9.858 -0.2418 -0.0736 -0.5910
 9044TIP3   OH251326   1.634   2.020  10.066 -0.2677 -0.4242 -0.4709
 9044TIP3    H151327   1.701   1.952  10.060  0.1271 -0.0480 -0.3517
 9044TIP3    H251328   1.683   2.102  10.069 -0.7065 -0.1785  0.2874
 9045TIP3   OH251329   5.003   6.626   9.172  0.3571 -0.0409  0.1241
 9045TIP3    H151330   5.074   6.615   9.235  0.2945  1.1535  0.4252
 9045TIP3    H251331   4.924   6.629   9.225 -0.1302 -2.6747 -0.2851
 9046TIP3   OH251332   1.998   1.906   9.333  0.0742  0.0969 -0.1222
 9046TIP3    H151333   1.929   1.900   9.398  0.2549  2.5129  0.3837
 9046TIP3    H251334   2.068   1.850   9.366 -1.5802 -2.4710 -0.6952
 9047TIP3   OH251335   2.891   4.255  10.889 -0.1150  0.3349  0.0823
 9047TIP3    H151336   2.986   4.258  10.893 -0.1429 -0.0037  2.0437
 9047TIP3    H251337   2.863   4.341  10.922 -0.4912  0.2490 -0.0104
 9048TIP3   OH251338   4.888   5.287  10.048 -0.1792  0.8855 -0.5448
 9048TIP3    H151339   4.830   5.341  10.101 -0.8596 -0.6465  0.3523
 9048TIP3    H251340   4.904   5.209  10.101  0.1043 -0.1674 -2.0942
 9049TIP3   OH251341   0.722   3.391   9.368 -0.2595 -0.0900 -0.4907
 9049TIP3    H151342   0.697   3.393   9.461  0.8499 -1.3808 -0.1306
 9049TIP3    H251343   0.789   3.460   9.361  0.8106 -1.0286  0.0692
 9050TIP3   OH251344   0.132   1.251   9.315 -0.4128  0.2510 -0.3719
 9050TIP3    H151345   0.154   1.279   9.404 -0.1575  0.7855 -0.5974
 9050TIP3    H251346   0.069   1.179   9.326 -0.9724  0.8294  0.2209
 9051TIP3   OH251347   3.226   4.067  10.858  0.4353 -0.2258 -0.1514
 9051TIP3    H151348   3.231   4.147  10.910 -1.5048 -0.2775  0.1774
 9051TIP3    H251349   3.144   4.075  10.809  0.3824 -1.8500 -0.3778
 9052TIP3   OH251350   4.599   0.392   8.706  0.0984  0.4655 -0.0549
 9052TIP3    H151351   4.548   0.474   8.706  0.4980  0.7442  1.3054
 9052TIP3    H251352   4.688   0.419   8.686  0.9249  0.9274  3.5712
 9053TIP3   OH251353   4.962   3.772  10.782  0.0696 -0.5431  0.3327
 9053TIP3    H151354   4.882   3.799  10.828  0.0464 -1.3716  0.8025
 9053TIP3    H251355   4.935   3.700  10.726 -0.2495  1.4939 -2.3200
 9054TIP3   OH251356   0.837   2.439   9.505  0.4435 -0.1960 -0.6930
 9054TIP3    H151357   0.823   2.472   9.416 -0.4444 -1.1771 -0.9373
 9054TIP3    H251358   0.883   2.510   9.550  1.0438  0.2601 -1.9736
 9055TIP3   OH251359   5.049   3.477   8.579  0.7077  0.8862 -0.0420
 9055TIP3    H151360   5.035   3.391   8.540  1.5862 -0.4139  2.2972
 9055TIP3    H251361   5.144   3.484   8.588  0.8648  3.1571 -2.2425
 9056TIP3   OH251362   1.420   1.031   9.921 -0.0890  0.3609  0.0522
 9056TIP3    H151363   1.412   1.058   9.829  1.0435 -1.3352 -0.5907
 9056TIP3    H251364   1.512   1.006   9.930  0.1392  1.6961  2.0235
 9057TIP3   OH251365   6.562   2.219  10.102  0.1939 -0.0772  0.5186
 9057TIP3    H151366   6.535   2.131  10.128 -0.9770  0.2932  0.6023
 9057TIP3    H251367   6.498   2.277  10.143  0.1923  0.7310 -0.5853
 9058TIP3   OH251368   5.223   0.732  11.279  0.0533  0.1105  0.3317
 9058TIP3    H151369   5.169   0.769  11.208 -1.5848  1.2443  2.0745
 9058TIP3    H251370   5.304   0.706  11.236 -0.9029  0.6764 -1.9770
 9059TIP3   OH251371   3.352   5.130  11.517 -0.1649 -0.2427 -0.4415
 9059TIP3    H151372   3.291   5.114  11.445 -1.0126  0.2625  0.1367
 9059TIP3    H251373   3.344   5.224  11.535 -0.9791 -0.5724  1.1499
 9060TIP3   OH251374   5.827   1.933  10.863  0.1972  0.2165  0.2065
 9060TIP3    H151375   5.838   1.838  10.864  2.3356  0.4060  0.3115
 9060TIP3    H251376   5.833   1.957  10.770  0.2187  0.2879  0.2259
 9061TIP3   OH251377   0.568   5.098  11.012  0.7799 -0.1202 -0.1067
 9061TIP3    H151378   0.662   5.112  10.997  0.1640  1.6220 -3.1211
 9061TIP3    H251379   0.551   5.011  10.977  1.0589  0.1410 -0.9296
 9062TIP3   OH251380   5.721   5.374   9.827  0.1262  0.0619  0.0237
 9062TIP3    H151381   5.657   5.357   9.758  2.3583 -2.9800 -1.5334
 9062TIP3    H251382   5.710   5.303   9.889 -1.3989  2.4009  2.6334
 9063TIP3   OH251383   0.410   1.254   9.223  0.4529  0.5724  0.5677
 9063TIP3    H151384   0.316   1.270   9.211  0.1454  0.2610  2.2386
 9063TIP3    H251385   0.451   1.339   9.208 -0.2394  0.9859  0.9578
 9064TIP3   OH251386   5.156   4.407  11.742  0.2505 -0.0047  0.2930
 9064TIP3    H151387   5.120   4.377  11.825 -0.2037  1.6717  0.7267
 9064TIP3    H251388   5.230   4.463  11.765  1.2419 -0.9363 -0.5056
 9065TIP3   OH251389   6.321   4.214   8.567 -0.1446 -0.0209  0.4101
 9065TIP3    H151390   6.394   4.276   8.563 -0.1019 -0.1361 -1.4986
 9065TIP3    H251391   6.248   4.266   8.601  0.8394  0.0297  2.5766
 9066TIP3   OH251392   2.126   3.305   9.369 -0.1122 -0.0826  0.1472
 9066TIP3    H151393   2.136   3.342   9.457  0.3060 -0.8448  0.4379
 9066TIP3    H251394   2.096   3.215   9.385  1.1866 -0.6421 -0.4236
 9067TIP3   OH251395   3.804   2.234   9.663  0.5601 -0.0464 -0.4566
 9067TIP3    H151396   3.854   2.223   9.582  0.3866  1.1139 -0.7413
 9067TIP3    H251397   3.858   2.194   9.731  2.0942  1.5377 -0.6914
 9068TIP3   OH251398   4.295   1.627  11.018 -0.2418  0.0432  0.1599
 9068TIP3    H151399   4.370   1.595  10.969  0.5034 -1.8260  2.3103
 9068TIP3    H251400   4.297   1.722  11.007  1.4985 -0.0913 -1.0846
 9069TIP3   OH251401   5.370   6.243   8.579 -0.0352  0.3691 -0.0995
 9069TIP3    H151402   5.315   6.284   8.646  0.9287  0.7437  0.4875
 9069TIP3    H251403   5.429   6.187   8.629 -0.9276 -1.3179 -0.8363
 9070TIP3   OH251404   4.529   5.396  10.481  0.1713  0.2926 -0.4692
 9070TIP3    H151405   4.599   5.374  10.421 -0.7677 -1.6984 -0.9012
 9070TIP3    H251406   4.516   5.317  10.534 -0.6559  1.1735  0.7122
 9071TIP3   OH251407   2.794   4.178  10.125 -0.0997 -0.0314  0.1874
 9071TIP3    H151408   2.841   4.162  10.043  0.3321 -1.1264  0.6363
 9071TIP3    H251409   2.741   4.100  10.138  0.2298 -0.1018  1.2141
 9072TIP3   OH251410   4.811   3.361   9.466  0.4211 -0.2694  0.2641
 9072TIP3    H151411   4.757   3.324   9.536  0.5798 -1.2037 -0.0879
 9072TIP3    H251412   4.780   3.317   9.387  1.2490 -0.3295 -0.0332
 9073TIP3   OH251413   6.210   6.194  12.025 -0.1835  0.5572 -0.5202
 9073TIP3    H151414   6.131   6.151  11.991  1.2879 -1.6161 -1.4222
 9073TIP3    H251415   6.256   6.125  12.072  0.4223  2.2011  1.4090
 9074TIP3   OH251416   0.466   5.523   9.961  0.1769  0.1735 -0.0406
 9074TIP3    H151417   0.471   5.440   9.914  0.5165  0.6315 -0.8275
 9074TIP3    H251418   0.379   5.523  10.000  0.3604 -0.7754  0.3972
 9075TIP3   OH251419   5.781   0.213   9.202  0.7643 -0.9770 -0.5799
 9075TIP3    H151420   5.747   0.241   9.117 -2.1982 -0.8256  0.5353
 9075TIP3    H251421   5.778   0.117   9.198 -1.8635 -1.0142  0.1200
 9076TIP3   OH251422   6.547   0.260  10.868 -0.5063 -0.6002 -0.5067
 9076TIP3    H151423   6.512   0.292  10.951  1.2341 -0.8335  0.3713
 9076TIP3    H251424   6.480   0.282  10.803 -1.3039  0.8381  0.7387
 9077TIP3   OH251425   5.180   6.246  11.387  0.2153 -0.0435  0.0445
 9077TIP3    H151426   5.132   6.232  11.469 -0.1441 -1.1502 -0.3294
 9077TIP3    H251427   5.220   6.161  11.368  2.6847  0.8964  0.5326
 9078TIP3   OH251428   2.740   3.439  10.895 -0.2980  0.3421  0.0646
 9078TIP3    H151429   2.775   3.517  10.939  0.6833 -0.5166  0.8870
 9078TIP3    H251430   2.793   3.430  10.816 -0.7159  0.7478 -0.2700
 9079TIP3   OH251431   3.104   3.698   9.946 -1.2322 -0.6405 -0.6432
 9079TIP3    H151432   3.049   3.642  10.001 -1.8807  0.5515 -0.0295
 9079TIP3    H251433   3.193   3.671   9.966 -1.5183 -1.1967 -0.0835
 9080TIP3   OH251434   3.238   2.902   9.713 -0.6007 -0.3476  0.0187
 9080TIP3    H151435   3.209   2.967   9.649  0.6970  0.3707  0.1200
 9080TIP3    H251436   3.232   2.819   9.667 -3.5597 -0.4024  0.3032
 9081TIP3   OH251437   0.818   4.893  11.469  0.3328  0.2653  0.1126
 9081TIP3    H151438   0.885   4.943  11.515  0.8771 -0.9096  0.6379
 9081TIP3    H251439   0.844   4.896  11.377  0.0499  1.3842  0.0558
 9082TIP3   OH251440   4.666   5.102   8.905  0.3843  0.3444 -0.2554
 9082TIP3    H151441   4.589   5.048   8.891 -1.5215  2.5536  0.8836
 9082TIP3    H251442   4.674   5.108   9.001  1.8533  0.3421 -0.3514
 9083TIP3   OH251443   1.941   2.006  10.002 -0.4042  0.2148  0.1032
 9083TIP3    H151444   1.925   2.099  10.012 -2.6838 -0.0423 -0.6538
 9083TIP3    H251445   1.949   1.993   9.908 -3.2847 -0.7425 -0.0927
 9084TIP3   OH251446   3.894   1.318  11.095  0.0064 -0.9818  0.4724
 9084TIP3    H151447   3.824   1.379  11.072 -1.3901 -1.6468  2.6257
 9084TIP3    H251448   3.964   1.374  11.130  0.2455 -0.3821 -0.9036
 9085TIP3   OH251449   0.799   5.453  11.000 -0.2641  0.3626 -0.4661
 9085TIP3    H151450   0.894   5.466  11.008 -0.3956  0.7696  0.5106
 9085TIP3    H251451   0.776   5.398  11.075 -0.9777  1.2293 -0.0407
 9086TIP3   OH251452   5.070   4.126  10.698 -0.1317 -0.1826 -0.4706
 9086TIP3    H151453   4.978   4.099  10.690 -0.8321  1.8209  0.0267
 9086TIP3    H251454   5.106   4.115  10.611 -0.3181 -2.5713 -0.3243
 9087TIP3   OH251455   4.091   0.935  11.628 -0.0352 -0.1291  0.6693
 9087TIP3    H151456   4.141   0.993  11.570  0.6491 -0.7235  0.6439
 9087TIP3    H251457   4.157   0.874  11.662 -0.7267 -0.8316  0.7618
 9088TIP3   OH251458   3.046   2.346  11.714  0.7666 -0.1888  0.4246
 9088TIP3    H151459   3.022   2.419  11.658  0.0744 -0.1086  0.8270
 9088TIP3    H251460   3.133   2.370  11.748  1.0906 -0.1322 -0.4157
 9089TIP3   OH251461   0.437   5.820   8.374  0.0151  0.3293 -0.5545
 9089TIP3    H151462   0.376   5.756   8.340  0.5069 -0.7137  0.4480
 9089TIP3    H251463   0.385   5.874   8.433 -0.0608 -0.2377 -0.0924
 9090TIP3   OH251464   1.159   2.589  10.432 -0.0363 -0.5758 -0.2671
 9090TIP3    H151465   1.116   2.642  10.499  1.1210  0.6431 -0.4588
 9090TIP3    H251466   1.213   2.526  10.480 -0.1157 -0.4811 -0.0564
 9091TIP3   OH251467   2.649   1.070  11.471  0.5516  0.3157  0.0738
 9091TIP3    H151468   2.568   1.115  11.447  1.2065  1.6995  0.3649
 9091TIP3    H251469   2.651   0.993  11.415 -0.0487  1.2408 -1.2842
 9092TIP3   OH251470   3.929   0.712  11.867  0.3461 -0.3538  0.2317
 9092TIP3    H151471   3.981   0.640  11.832  1.7728  0.3392  0.8405
 9092TIP3    H251472   3.908   0.766  11.790  0.6971 -0.5353  0.0064
 9093TIP3   OH251473   1.605   1.037  11.181 -0.0490  0.7969  0.0446
 9093TIP3    H151474   1.592   0.993  11.266 -0.5702  0.0404 -0.4166
 9093TIP3    H251475   1.686   1.086  11.192  0.3679 -0.0085  0.6952
 9094TIP3   OH251476   6.366   5.662   9.644  0.2529 -0.4421  0.8308
 9094TIP3    H151477   6.371   5.749   9.683 -0.1118  0.2739 -0.6448
 9094TIP3    H251478   6.296   5.618   9.692 -0.9818  0.8189  0.2859
 9095TIP3   OH251479   6.294   5.935  12.163 -0.2191 -0.4182 -0.0340
 9095TIP3    H151480   6.381   5.975  12.163 -0.4793  0.2141 -1.6484
 9095TIP3    H251481   6.302   5.861  12.103 -0.6637 -0.6528  0.1920
 9096TIP3   OH251482   1.213   4.066   8.838 -0.0372 -0.7305 -0.2873
 9096TIP3    H151483   1.155   4.016   8.895  0.5732 -0.5388  0.5229
 9096TIP3    H251484   1.299   4.028   8.852  0.4514  0.5813  0.4129
 9097TIP3   OH251485   4.907   1.648  10.316 -0.6461 -0.2333  0.3124
 9097TIP3    H151486   4.908   1.668  10.409 -1.3382 -1.4766  0.6159
 9097TIP3    H251487   4.988   1.599  10.301 -0.8206 -0.5587  0.4059
 9098TIP3   OH251488   6.602   3.736  10.506 -0.2839  0.0355 -0.0713
 9098TIP3    H151489   6.675   3.753  10.446  0.0792 -0.8557  0.1034
 9098TIP3    H251490   6.637   3.756  10.592 -0.8277  1.3818 -0.1233
 9099TIP3   OH251491   0.369   4.664   8.441 -0.0428  0.1701 -0.0951
 9099TIP3    H151492   0.277   4.664   8.416  0.4789  1.2035 -2.2586
 9099TIP3    H251493   0.376   4.732   8.508 -0.7588  0.4804 -0.3278
 9100TIP3   OH251494   1.057   4.732   9.116 -0.6713  0.2418 -0.7068
 9100TIP3    H151495   1.121   4.662   9.105  0.7994  1.5235 -0.5498
 9100TIP3    H251496   0.972   4.690   9.101  0.2700 -1.2430 -2.0862
 9101TIP3   OH251497   4.315   6.244   9.964 -0.1228 -0.3358 -0.2881
 9101TIP3    H151498   4.254   6.286   9.903 -0.9885 -0.3129  0.5787
 9101TIP3    H251499   4.400   6.282   9.942 -0.3766 -0.4466 -1.5895
 9102TIP3   OH251500   0.084   0.938   9.385 -0.5245 -0.0076  0.0836
 9102TIP3    H151501   0.169   0.899   9.406 -0.2466  0.5243 -0.0304
 9102TIP3    H251502   0.041   0.947   9.470 -0.2821  0.1331  0.1940
 9103TIP3   OH251503   2.825   1.166   8.889  0.5027  0.3412  0.2444
 9103TIP3    H151504   2.893   1.134   8.830 -0.5778 -2.1511  0.2451
 9103TIP3    H251505   2.770   1.223   8.834  1.1911  0.4403 -0.3564
 9104TIP3   OH251506   3.564   5.556   8.550  0.0464 -0.6829 -0.4856
 9104TIP3    H151507   3.503   5.556   8.476 -1.1945  0.1592  0.4822
 9104TIP3    H251508   3.590   5.648   8.560 -0.2440 -0.6872  0.4516
 9105TIP3   OH251509   3.470   2.408   9.650  0.4405 -0.0344 -0.0281
 9105TIP3    H151510   3.448   2.482   9.707  1.2567 -0.3077  0.6462
 9105TIP3    H251511   3.472   2.446   9.562  1.6648  0.9391  0.3926
 9106TIP3   OH251512   4.930   4.815   8.601  0.6666 -1.1446 -0.2403
 9106TIP3    H151513   5.026   4.822   8.604  0.5808  0.0562  0.2796
 9106TIP3    H251514   4.900   4.869   8.674 -0.4488 -0.5197 -1.1301
 9107TIP3   OH251515   4.207   4.055  10.060 -0.4666 -0.3343 -0.3030
 9107TIP3    H151516   4.151   4.046  10.136 -0.1752 -0.0037 -0.0432
 9107TIP3    H251517   4.295   4.065  10.096 -0.5019  1.3377 -0.6169
 9108TIP3   OH251518   2.555   3.194  11.681 -0.0178 -0.0016  0.7941
 9108TIP3    H151519   2.496   3.123  11.657 -0.1323  0.6857 -1.1706
 9108TIP3    H251520   2.603   3.213  11.600  1.1537  1.0781  1.7027
 9109TIP3   OH251521   5.425   3.315  11.353  0.1682 -0.0934 -0.3696
 9109TIP3    H151522   5.464   3.303  11.439 -1.1690  0.6052  0.3742
 9109TIP3    H251523   5.495   3.353  11.299  0.9431 -0.2963  0.4719
 9110TIP3   OH251524   3.194   6.186   8.865  0.3821  0.3964  0.2237
 9110TIP3    H151525   3.126   6.230   8.814 -0.9466 -0.7045  0.9543
 9110TIP3    H251526   3.229   6.119   8.807 -1.3831 -1.1015  0.7718
 9111TIP3   OH251527   4.732   2.579   8.688 -0.1103 -0.2652 -0.0956
 9111TIP3    H151528   4.820   2.586   8.726  0.5984  0.4392 -1.7730
 9111TIP3    H251529   4.708   2.669   8.668 -0.3061 -0.6373 -1.6069
 9112TIP3   OH251530   6.087   5.991  10.666  0.3176 -0.5819  0.2781
 9112TIP3    H151531   6.069   5.912  10.615 -0.5098  0.1988 -0.6783
 9112TIP3    H251532   6.169   5.972  10.712  0.2745 -1.8850 -0.1485
 9113TIP3   OH251533   5.008   2.511   9.104  0.3423  0.6536  0.5788
 9113TIP3    H151534   4.976   2.571   9.172 -2.7849  0.0739 -0.2168
 9113TIP3    H251535   5.004   2.562   9.023  3.3209  1.1014  0.6044
 9114TIP3   OH251536   2.536   0.243  10.180  0.2017  0.6811 -0.3599
 9114TIP3    H151537   2.461   0.267  10.125 -0.2583 -0.4104 -0.2365
 9114TIP3    H251538   2.598   0.315  10.168 -0.5784  1.2726 -1.0030
 9115TIP3   OH251539   5.182   3.091  11.681 -0.2444  0.3284 -0.6479
 9115TIP3    H151540   5.207   3.041  11.760 -0.1885  1.1035 -0.1630
 9115TIP3    H251541   5.231   3.173  11.689 -3.0153  2.0243  0.4531
 9116TIP3   OH251542   3.282   0.214  10.168  0.2157  0.3333  0.3734
 9116TIP3    H151543   3.295   0.163  10.088 -1.2050  0.0436  0.2968
 9116TIP3    H251544   3.362   0.201  10.218  1.3907  1.0452 -1.2752
 9117TIP3   OH251545   3.274   0.358   9.794  0.0765  0.0118  0.2239
 9117TIP3    H151546   3.304   0.288   9.851  1.8274 -0.5499 -1.2813
 9117TIP3    H251547   3.179   0.356   9.801  0.2111  0.1099  3.2098
 9118TIP3   OH251548   2.219   5.290  11.089 -0.2920  0.0857 -0.4260
 9118TIP3    H151549   2.257   5.370  11.123 -0.8518  0.1634  0.0204
 9118TIP3    H251550   2.186   5.244  11.166 -0.0191 -0.5544 -0.6805
 9119TIP3   OH251551   5.431   2.696  10.566  0.0964  0.4815  0.8239
 9119TIP3    H151552   5.477   2.778  10.546 -1.6731  0.8017 -2.5722
 9119TIP3    H251553   5.339   2.714  10.544 -0.4039 -2.3230  0.2964
 9120TIP3   OH251554   4.448   3.773   8.378  0.0182 -0.3639 -0.3540
 9120TIP3    H151555   4.503   3.815   8.311  0.4804 -0.8216 -0.2677
 9120TIP3    H251556   4.416   3.846   8.431 -0.4039  0.0162 -1.1027
 9121TIP3   OH251557   1.360   4.487   9.437  0.0374  0.0608 -0.7724
 9121TIP3    H151558   1.300   4.556   9.408  1.1055  0.7615 -1.4081
 9121TIP3    H251559   1.444   4.510   9.395  0.5229 -1.3815 -0.6279
 9122TIP3   OH251560   3.414   0.483   8.820 -0.4117 -0.6397 -0.2565
 9122TIP3    H151561   3.354   0.411   8.835 -0.0653 -0.5402  1.8740
 9122TIP3    H251562   3.424   0.525   8.905  0.0237  1.4529 -1.2550
 9123TIP3   OH251563   0.111   0.956   8.690 -0.0636  0.2661  0.0505
 9123TIP3    H151564   0.176   0.900   8.650  1.4593  2.0312 -0.1101
 9123TIP3    H251565   0.147   1.045   8.682 -2.1818  1.2549  0.5619
 9124TIP3   OH251566   1.555   4.367  11.112 -0.0811  0.1041  0.4794
 9124TIP3    H151567   1.643   4.354  11.148  0.3530  1.8971  0.1606
 9124TIP3    H251568   1.528   4.453  11.146 -1.0498  0.3003 -0.7324
 9125TIP3   OH251569   1.509   4.376  10.167 -0.9946 -0.3517  0.1692
 9125TIP3    H151570   1.540   4.393  10.256  0.3295  1.7371 -0.6135
 9125TIP3    H251571   1.558   4.437  10.113 -0.0575 -3.1300 -2.3506
 9126TIP3   OH251572   2.843   4.805  11.887 -0.4628  0.7890  0.3252
 9126TIP3    H151573   2.770   4.862  11.864 -1.0848 -0.6649 -1.5324
 9126TIP3    H251574   2.912   4.828  11.825 -0.2345  0.4633  0.4540
 9127TIP3   OH251575   1.540   2.504  11.823 -0.1506  0.3897  0.3138
 9127TIP3    H151576   1.501   2.503  11.735  1.4740 -0.1118 -0.4230
 9127TIP3    H251577   1.465   2.495  11.882 -1.1634 -0.5393 -1.0516
 9128TIP3   OH251578   4.682   0.522   9.435 -0.4448  0.0687  0.1190
 9128TIP3    H151579   4.644   0.586   9.375 -1.2752 -0.0579  0.4972
 9128TIP3    H251580   4.775   0.520   9.412 -0.3718  1.4994  0.1832
 9129TIP3   OH251581   0.739   6.241  11.006  0.1285  0.1965 -0.0295
 9129TIP3    H151582   0.671   6.184  11.042  0.6175 -0.9633 -0.9030
 9129TIP3    H251583   0.820   6.211  11.045  0.5201 -0.3647 -1.2325
 9130TIP3   OH251584   0.378   1.801   9.857  0.2222  0.0045  1.0526
 9130TIP3    H151585   0.415   1.864   9.795  0.2995  0.6136  1.7045
 9130TIP3    H251586   0.340   1.732   9.802 -1.3174  1.4248  0.2480
 9131TIP3   OH251587   2.081   1.602   8.965 -0.1552  0.6791  0.3225
 9131TIP3    H151588   2.083   1.631   8.874 -1.7315  0.4985  0.1963
 9131TIP3    H251589   2.029   1.669   9.010 -0.2187  0.2624  0.8787
 9132TIP3   OH251590   3.825   4.932   9.121 -0.0353  0.5625 -0.3709
 9132TIP3    H151591   3.904   4.913   9.173 -0.4841 -5.6067 -1.1698
 9132TIP3    H251592   3.760   4.959   9.186  1.4839  1.1081  1.0048
 9133TIP3   OH251593   1.946   5.013  12.249 -0.0968  0.2908  0.5457
 9133TIP3    H151594   1.896   4.935  12.222  1.4475 -0.9436  1.0953
 9133TIP3    H251595   1.938   5.015  12.344  0.4025  0.4297  0.5869
 9134TIP3   OH251596   6.072   4.833   9.898 -0.9386 -0.9297 -0.3217
 9134TIP3    H151597   6.080   4.872   9.810 -0.4350 -2.1257 -0.8331
 9134TIP3    H251598   6.162   4.827   9.930 -1.1366 -0.3160  0.3707
 9135TIP3   OH251599   4.167   1.728   8.815 -0.4855 -0.1478  0.2357
 9135TIP3    H151600   4.229   1.675   8.765 -1.2846  0.8111 -1.8563
 9135TIP3    H251601   4.119   1.664   8.868 -0.6588 -1.4217 -1.3841
 9136TIP3   OH251602   1.672   5.044  10.002  0.3141  0.2383  0.1987
 9136TIP3    H151603   1.625   4.977  10.052  0.7149  0.7458  1.2947
 9136TIP3    H251604   1.757   5.050  10.045  0.8144  0.4178 -0.8080
 9137TIP3   OH251605   2.396   5.293  11.666 -0.4734 -0.1993 -0.2809
 9137TIP3    H151606   2.453   5.253  11.731 -0.7644 -0.7739 -0.3755
 9137TIP3    H251607   2.425   5.257  11.583 -1.3453 -0.9593 -0.2737
 9138TIP3   OH251608   5.783   5.606  11.190 -0.2166 -0.3357 -0.1912
 9138TIP3    H151609   5.840   5.586  11.116 -0.3086 -0.3473 -0.2597
 9138TIP3    H251610   5.732   5.682  11.161 -0.4180 -0.4835 -0.2307
 9139TIP3   OH251611   5.355   1.693  10.414 -0.3217 -0.1325  0.2348
 9139TIP3    H151612   5.306   1.699  10.496 -0.1083  0.5867  0.3126
 9139TIP3    H251613   5.392   1.780  10.402  0.1709 -0.4136 -0.3043
 9140TIP3   OH251614   0.580   1.558   9.676  0.2841  0.0713 -0.5573
 9140TIP3    H151615   0.645   1.490   9.695  0.1046  0.5176  2.1658
 9140TIP3    H251616   0.594   1.624   9.744 -3.4455 -0.1639  0.6754
 9141TIP3   OH251617   2.812   6.137  11.754 -0.0840  0.6526  0.0594
 9141TIP3    H151618   2.757   6.134  11.675  0.2536 -2.9054 -0.2179
 9141TIP3    H251619   2.754   6.108  11.824  0.8591 -1.2883  0.0996
 9142TIP3   OH251620   5.595   1.290   9.223  0.1167 -0.5146 -0.2878
 9142TIP3    H151621   5.514   1.250   9.194  0.3275 -1.3000  0.1893
 9142TIP3    H251622   5.609   1.257   9.312 -0.5624  1.8898  0.8059
 9143TIP3   OH251623   4.978   1.130  11.729 -0.4069 -0.0723 -0.5417
 9143TIP3    H151624   5.065   1.094  11.748 -1.0807 -1.3806  0.2092
 9143TIP3    H251625   4.985   1.164  11.640  0.6749 -0.7903 -0.7474
 9144TIP3   OH251626   1.461   1.361  10.075 -0.3682  0.3313 -0.0999
 9144TIP3    H151627   1.432   1.275  10.106 -0.5971  0.1871 -0.6896
 9144TIP3    H251628   1.526   1.389  10.139 -1.9871  0.7836  1.4452
 9145TIP3   OH251629   4.012   5.297   9.787  0.0058 -0.0221  0.3997
 9145TIP3    H151630   4.063   5.352   9.728 -0.9199 -0.2058 -0.5864
 9145TIP3    H251631   4.069   5.222   9.804  1.1613  1.0540  1.5272
 9146TIP3   OH251632   6.528   5.901  11.516 -0.8103 -0.1880 -0.0409
 9146TIP3    H151633   6.494   5.821  11.557 -0.7910 -0.2349 -0.1164
 9146TIP3    H251634   6.623   5.895  11.526 -0.9000  1.0592  2.3007
 9147TIP3   OH251635   4.083   5.710  10.178 -0.6578  0.5276 -0.7237
 9147TIP3    H151636   4.107   5.743  10.265 -1.3370 -0.9753  0.0800
 9147TIP3    H251637   4.166   5.705  10.131  0.1221 -0.8358  0.6684
 9148TIP3   OH251638   2.820   3.372  10.515  0.0473 -0.4218 -0.1915
 9148TIP3    H151639   2.879   3.447  10.515 -1.2264  0.6428  1.1368
 9148TIP3    H251640   2.828   3.334  10.427 -1.1629  2.8415 -1.8798
 9149TIP3   OH251641   5.825   2.839   8.659  0.1463 -0.2842 -0.2875
 9149TIP3    H151642   5.748   2.799   8.619  0.7716 -0.3154 -1.4886
 9149TIP3    H251643   5.860   2.772   8.717 -2.3325  0.6756  2.5737
 9150TIP3   OH251644   2.149   6.297  10.167  0.1922  0.6963  0.0374
 9150TIP3    H151645   2.104   6.254  10.239 -0.3602  1.4141  0.1178
 9150TIP3    H251646   2.183   6.378  10.204  0.5936  0.6938 -0.3127
 9151TIP3   OH251647   1.229   4.504   9.139 -0.3840 -0.1147 -0.4424
 9151TIP3    H151648   1.237   4.417   9.102 -1.0285  0.0655 -1.0210
 9151TIP3    H251649   1.183   4.491   9.222 -1.3527 -0.2190 -0.9913
 9152TIP3   OH251650   4.437   5.629   9.126  0.9279  0.6711 -0.1209
 9152TIP3    H151651   4.415   5.708   9.176  0.1400  1.4288 -1.6177
 9152TIP3    H251652   4.494   5.660   9.056  1.1641 -0.2165 -0.3367
 9153TIP3   OH251653   3.436   0.431  10.090 -0.3024 -0.5699 -0.3245
 9153TIP3    H151654   3.357   0.396  10.131 -1.6005  2.6602  0.2102
 9153TIP3    H251655   3.505   0.367  10.112 -2.0718 -1.7934  2.0596
 9154TIP3   OH251656   3.128   2.478  11.168  0.0759  0.1965 -0.5982
 9154TIP3    H151657   3.033   2.480  11.159  0.1593  0.2508 -1.4851
 9154TIP3    H251658   3.160   2.532  11.096  0.7259  1.4353  0.5631
 9155TIP3   OH251659   2.559   4.423   9.337  0.2840  0.5192  0.7689
 9155TIP3    H151660   2.522   4.377   9.412 -0.3400  0.4594  0.4357
 9155TIP3    H251661   2.598   4.502   9.374 -0.1401  0.5586  1.1423
 9156TIP3   OH251662   6.152   3.137   9.840  0.4170 -0.3720 -0.5387
 9156TIP3    H151663   6.225   3.123   9.899 -0.6692 -0.2387  0.8924
 9156TIP3    H251664   6.082   3.081   9.873  0.0713 -1.0727 -2.3077
 9157TIP3   OH251665   1.402   2.443   9.612  0.2537 -0.1766 -0.1463
 9157TIP3    H151666   1.344   2.385   9.563  2.1577 -0.3095 -2.4009
 9157TIP3    H251667   1.468   2.385   9.650 -0.3432  0.0954  1.3564
 9158TIP3   OH251668   0.758   4.534  11.310 -0.3005 -0.3878 -0.3784
 9158TIP3    H151669   0.721   4.569  11.391  1.5322  3.6618 -1.0656
 9158TIP3    H251670   0.706   4.574  11.240  1.1966  0.1866 -1.2218
 9159TIP3   OH251671   0.377   4.230  11.004  0.1628  0.0253 -0.4111
 9159TIP3    H151672   0.408   4.153  11.051 -3.1363 -1.2584 -0.1273
 9159TIP3    H251673   0.335   4.196  10.925 -3.0537  1.2491  0.6276
 9160TIP3   OH251674   1.607   2.095  10.419 -0.3394  0.3629 -0.1324
 9160TIP3    H151675   1.617   2.149  10.341 -0.1742 -2.2612 -2.0994
 9160TIP3    H251676   1.516   2.067  10.418 -0.0706 -0.5602 -0.0336
 9161TIP3   OH251677   3.757   1.593   9.776  0.8154 -0.1362  0.1590
 9161TIP3    H151678   3.699   1.624   9.845  1.2203  1.1702 -0.0643
 9161TIP3    H251679   3.785   1.506   9.805 -2.0665 -1.3265 -0.2135
 9162TIP3   OH251680   1.523   4.578  10.694 -0.6366  0.2617  0.4338
 9162TIP3    H151681   1.547   4.655  10.746  0.4062 -0.0594  0.4588
 9162TIP3    H251682   1.531   4.607  10.603 -1.9989  0.6874  0.4365
 9163TIP3   OH251683   4.270   4.641  10.467  0.1226 -0.2439 -0.3384
 9163TIP3    H151684   4.266   4.546  10.477 -0.7475 -0.3777 -1.7469
 9163TIP3    H251685   4.182   4.671  10.486  0.3172  0.2563 -0.2116
 9164TIP3   OH251686   3.686   3.361   8.599 -0.2251  0.5755 -0.2593
 9164TIP3    H151687   3.694   3.321   8.512  1.6980  0.7569 -0.2139
 9164TIP3    H251688   3.653   3.291   8.655 -1.9928  0.5940 -1.2004
 9165TIP3   OH251689   0.602   5.759  11.205 -0.0525  0.4032  0.3688
 9165TIP3    H151690   0.572   5.677  11.243 -1.5505  1.6509  2.0815
 9165TIP3    H251691   0.533   5.783  11.143 -0.1359  0.8128  0.6099
 9166TIP3   OH251692   3.883   4.754  10.308 -0.2713  0.1193 -0.0127
 9166TIP3    H151693   3.953   4.819  10.311  0.7056 -0.7386 -1.9780
 9166TIP3    H251694   3.916   4.686  10.249 -1.7164 -1.6142  1.0802
 9167TIP3   OH251695   2.295   1.791   9.780 -0.0167 -0.3239 -0.4584
 9167TIP3    H151696   2.354   1.720   9.754  1.2396  0.3295  0.5473
 9167TIP3    H251697   2.213   1.771   9.734  0.3932 -2.2490 -0.4394
 9168TIP3   OH251698   4.069   1.846  10.971 -0.0533 -0.3848 -0.1055
 9168TIP3    H151699   4.054   1.823  10.880 -0.0980 -1.0918  0.0730
 9168TIP3    H251700   4.045   1.939  10.977 -1.3312 -0.6639 -0.5255
 9169TIP3   OH251701   4.829   1.315  11.371  0.0425 -1.4930 -0.4532
 9169TIP3    H151702   4.891   1.269  11.429  0.4588 -0.5997 -0.1796
 9169TIP3    H251703   4.794   1.246  11.314 -0.2006 -2.3564  0.6977
 9170TIP3   OH251704   5.517   0.053   8.856 -0.2118  0.4823 -0.0889
 9170TIP3    H151705   5.458   0.029   8.784 -1.2263  3.5277 -0.4245
 9170TIP3    H251706   5.604   0.028   8.826 -0.9737 -1.2464 -0.9510
 9171TIP3   OH251707   2.216   1.657  10.016 -0.1690  0.5746  0.4125
 9171TIP3    H151708   2.160   1.730  10.044  0.9944  1.8774 -0.5530
 9171TIP3    H251709   2.256   1.688   9.935  1.0851 -0.7772  0.4957
 9172TIP3   OH251710   2.575   4.288  11.508 -0.0101 -0.0872 -0.0300
 9172TIP3    H151711   2.613   4.302  11.595 -1.4790  1.9511  0.3625
 9172TIP3    H251712   2.483   4.268  11.525  0.3537 -3.0785 -1.0368
 9173TIP3   OH251713   2.941   2.651  12.197  0.2370  0.6153  0.5896
 9173TIP3    H151714   2.889   2.641  12.277  0.9468  0.5980  1.0536
 9173TIP3    H251715   3.026   2.613  12.219 -0.1242 -1.0768 -0.7547
 9174TIP3   OH251716   0.916   4.033   8.645  0.2925  0.1088  0.3269
 9174TIP3    H151717   0.903   4.128   8.655  0.1977  0.1001  0.2865
 9174TIP3    H251718   1.003   4.025   8.608  0.7620  0.1275  1.3891
 9175TIP3   OH251719   4.341   5.778   9.531 -0.2037  0.0897 -0.0035
 9175TIP3    H151720   4.258   5.736   9.550 -1.9736  3.1228 -0.4082
 9175TIP3    H251721   4.336   5.864   9.574  2.4222  0.6642 -0.6376
 9176TIP3   OH251722   6.229   1.606   9.049  0.6554  0.0214 -0.1657
 9176TIP3    H151723   6.205   1.611   8.957  2.7123  0.4144 -0.7310
 9176TIP3    H251724   6.298   1.539   9.053 -0.9439 -1.6862  1.5002
 9177TIP3   OH251725   0.250   2.272   9.435 -0.3937  0.0964  0.1747
 9177TIP3    H151726   0.225   2.190   9.479 -1.0134  0.7964  1.1735
 9177TIP3    H251727   0.317   2.246   9.372 -0.8876 -1.2449  0.1681
 9178TIP3   OH251728   2.512   0.618  11.208  0.0175 -0.3812 -0.4604
 9178TIP3    H151729   2.417   0.612  11.207 -0.0690  0.8211 -0.7062
 9178TIP3    H251730   2.534   0.642  11.298 -0.0386  0.9295 -0.7809
 9179TIP3   OH251731   0.576   4.547   8.264 -0.4819  0.3361 -0.1177
 9179TIP3    H151732   0.504   4.598   8.300  0.1523  2.4430 -1.6428
 9179TIP3    H251733   0.549   4.528   8.174  0.7367  0.9334 -0.6308
 9180TIP3   OH251734   4.560   6.271  10.758 -0.3422  0.3107  0.1058
 9180TIP3    H151735   4.465   6.273  10.743 -0.1919  0.2991 -0.8915
 9180TIP3    H251736   4.575   6.188  10.803 -0.6504 -0.2726 -0.8530
 9181TIP3   OH251737   5.507   6.233  11.338 -0.6161  0.4396  0.5176
 9181TIP3    H151738   5.427   6.183  11.350 -2.5031  2.7632 -1.2861
 9181TIP3    H251739   5.529   6.265  11.426  0.7245 -3.3340  1.7568
 9182TIP3   OH251740   5.222   4.742   8.631  0.2053  0.4458  0.2255
 9182TIP3    H151741   5.291   4.692   8.674 -1.6015 -1.5521  0.9897
 9182TIP3    H251742   5.233   4.831   8.664  2.2333  0.1334  0.5062
 9183TIP3   OH251743   0.255   2.689   8.582 -0.1058  0.7773  0.2502
 9183TIP3    H151744   0.236   2.639   8.503 -0.0334  0.8887  0.1619
 9183TIP3    H251745   0.351   2.696   8.584 -0.0341 -0.2826  1.0005
 9184TIP3   OH251746   0.418   5.600  10.376  0.3654  0.7924 -0.1013
 9184TIP3    H151747   0.326   5.621  10.360  0.8159  1.6974 -1.8619
 9184TIP3    H251748   0.439   5.534  10.309  0.4709 -1.0898  1.6919
 9185TIP3   OH251749   1.942   0.084  10.663  0.3580 -0.0433  0.1415
 9185TIP3    H151750   1.956   0.012  10.726  2.7093  1.0272  0.9772
 9185TIP3    H251751   2.030   0.102  10.629 -0.6659  0.3601 -2.4555
 9186TIP3   OH251752   2.364   3.322  12.225  0.0772 -0.4092 -0.2971
 9186TIP3    H151753   2.273   3.330  12.200 -0.8028  1.4346  2.8435
 9186TIP3    H251754   2.413   3.362  12.153 -1.7867  0.5947 -1.0608
 9187TIP3   OH251755   4.507   0.908  10.090  0.1963  0.6012 -0.3141
 9187TIP3    H151756   4.583   0.959  10.120 -0.1137  1.0100 -0.2025
 9187TIP3    H251757   4.453   0.972  10.043  0.5359  0.0361 -1.5132
 9188TIP3   OH251758   3.004   0.456   9.737  0.1559  0.1075 -0.0194
 9188TIP3    H151759   2.992   0.373   9.691  0.7769 -0.3530  0.6354
 9188TIP3    H251760   2.915   0.488   9.753 -0.0814 -0.2020 -0.6594
 9189TIP3   OH251761   0.708   5.126   8.917 -0.2406  0.0295 -0.1400
 9189TIP3    H151762   0.701   5.043   8.964  0.1078 -0.0840 -0.2798
 9189TIP3    H251763   0.794   5.122   8.874 -0.8813 -0.2299 -1.4560
 9190TIP3   OH251764   4.533   4.618  10.040  0.3380  0.5221  0.0905
 9190TIP3    H151765   4.459   4.613  10.100  0.0936  1.4232 -0.1147
 9190TIP3    H251766   4.500   4.666   9.964  0.5138 -1.0011 -0.9897
 9191TIP3   OH251767   3.756   5.685   8.699 -0.6366 -0.3600  0.1749
 9191TIP3    H151768   3.811   5.624   8.747  2.7109  3.2095  1.4635
 9191TIP3    H251769   3.694   5.719   8.764  0.8707  1.1518  0.8911
 9192TIP3   OH251770   0.426   3.900   9.829  0.2921 -0.0745 -0.4084
 9192TIP3    H151771   0.342   3.904   9.783  0.1945 -0.3078 -0.2487
 9192TIP3    H251772   0.431   3.983   9.876  0.0567 -0.1492 -0.2509
 9193TIP3   OH251773   1.425   4.990  10.965  0.0545 -0.3072  0.1262
 9193TIP3    H151774   1.352   4.985  10.903 -0.6924 -0.7474  0.9993
 9193TIP3    H251775   1.402   5.063  11.022  1.1812  0.6681 -0.6375
 9194TIP3   OH251776   1.474   2.540  10.817 -0.7449 -0.3955 -0.2587
 9194TIP3    H151777   1.554   2.578  10.780  0.3765 -0.6168  1.7489
 9194TIP3    H251778   1.415   2.615  10.829 -0.8399 -0.2205 -1.7200
 9195TIP3   OH251779   3.140   4.446   9.392  0.8593  0.1216  0.4621
 9195TIP3    H151780   3.189   4.511   9.343  1.4730  0.8110  1.9277
 9195TIP3    H251781   3.120   4.489   9.476  1.4434 -1.6012  1.5466
 9196TIP3   OH251782   4.794   1.246  10.535 -0.2341 -0.7685 -0.0425
 9196TIP3    H151783   4.708   1.229  10.497 -0.0435 -2.4589  0.2301
 9196TIP3    H251784   4.850   1.178  10.499  0.6194 -0.6705  1.0527
 9197TIP3   OH251785   1.530   6.566  11.948  0.2593  0.1755 -0.8199
 9197TIP3    H151786   1.511   6.641  11.892  1.5561  1.2935  0.1640
 9197TIP3    H251787   1.625   6.554  11.940  0.1679 -0.9271 -0.4300
 9198TIP3   OH251788   1.517   6.589  11.499  0.4945  0.2043 -0.4295
 9198TIP3    H151789   1.484   6.627  11.581 -0.9669  0.7536 -1.2358
 9198TIP3    H251790   1.557   6.662  11.453  0.2657  0.1570 -0.7080
 9199TIP3   OH251791   1.396   5.068  10.346 -0.2797  0.0569  0.1777
 9199TIP3    H151792   1.310   5.026  10.352 -0.2099  0.0720  1.9527
 9199TIP3    H251793   1.439   5.046  10.429  0.8033  1.3671  0.0036
 9200TIP3   OH251794   3.435   4.059   9.820 -0.0713  0.0832  0.3778
 9200TIP3    H151795   3.429   4.132   9.881  0.0157  1.2280 -0.9449
 9200TIP3    H251796   3.508   4.081   9.762 -1.5862  0.1938 -1.5950
 9201TIP3   OH251797   6.388   0.563   8.762 -0.2789  0.0365  0.8992
 9201TIP3    H151798   6.331   0.632   8.796 -1.6293  0.0997 -1.2576
 9201TIP3    H251799   6.473   0.605   8.752 -0.7966  1.0624  0.6979
 9202TIP3   OH251800   6.539   3.656  11.062 -0.0648  0.4329 -0.5267
 9202TIP3    H151801   6.592   3.733  11.081  0.4419 -0.2599  1.0764
 9202TIP3    H251802   6.599   3.582  11.073 -0.3600 -0.2041 -2.6721
 9203TIP3   OH251803   4.120   2.345   9.633  0.9768  0.1679 -0.5260
 9203TIP3    H151804   4.075   2.322   9.552  0.3079  0.3661 -0.2127
 9203TIP3    H251805   4.073   2.298   9.702  1.5884 -0.0647 -0.2527
 9204TIP3   OH251806   5.531   2.780  12.085  0.3584 -0.0795  0.4321
 9204TIP3    H151807   5.527   2.763  12.179  2.1075 -0.2770  0.5083
 9204TIP3    H251808   5.441   2.771  12.055  0.0985 -2.3723  1.6984
 9205TIP3   OH251809   4.592   5.715   8.909 -0.1557 -0.1189 -0.3357
 9205TIP3    H151810   4.669   5.709   8.853  0.7909 -1.5470  1.0358
 9205TIP3    H251811   4.537   5.782   8.868  2.6763  2.4241 -0.2879
 9206TIP3   OH251812   3.685   1.918   8.954 -0.0144 -0.0952 -0.8147
 9206TIP3    H151813   3.777   1.930   8.934  0.0935  0.7409  0.0942
 9206TIP3    H251814   3.645   2.004   8.938 -0.5215 -0.2950 -0.6468
 9207TIP3   OH251815   6.019   1.466  11.134 -0.3732  0.1706  0.7283
 9207TIP3    H151816   5.952   1.532  11.121  0.6050  1.1107  0.3206
 9207TIP3    H251817   6.049   1.478  11.224  0.1790  0.6461  0.4843
 9208TIP3   OH251818   3.985   3.791  10.161  0.4264 -0.1479  0.5691
 9208TIP3    H151819   3.981   3.862  10.225  0.0376 -0.6755  1.1363
 9208TIP3    H251820   4.068   3.747  10.178 -0.3462 -1.2290  1.7506
 9209TIP3   OH251821   5.756   2.875  11.251  0.4541  0.1689  0.1961
 9209TIP3    H151822   5.843   2.848  11.280  0.2614  0.7952  1.4306
 9209TIP3    H251823   5.696   2.820  11.303  0.0901  1.8803  1.6962
 9210TIP3   OH251824   3.690   3.435  10.953 -0.4466 -0.0758  0.2196
 9210TIP3    H151825   3.770   3.411  11.000 -0.2457 -1.1518 -0.6370
 9210TIP3    H251826   3.704   3.404  10.864 -1.6435  0.1136 -0.0536
 9211TIP3   OH251827   6.051   1.393  10.593 -0.1277  0.0649 -0.1413
 9211TIP3    H151828   6.142   1.364  10.604 -0.3889 -0.1131  1.9273
 9211TIP3    H251829   6.014   1.331  10.530  0.2061 -2.2602  1.7988
 9212TIP3   OH251830   3.429   1.355  11.478 -0.8540  0.3573 -0.3682
 9212TIP3    H151831   3.351   1.363  11.533 -0.0723  0.5711  0.7633
 9212TIP3    H251832   3.424   1.430  11.419 -0.9253  1.0563  0.4946
 9213TIP3   OH251833   3.755   4.243  13.421 -0.2172 -0.2761  0.1558
 9213TIP3    H151834   3.827   4.240  13.358 -0.1763 -0.8682  0.2283
 9213TIP3    H251835   3.732   4.151  13.437  0.1261 -0.1689  1.4035
 9214TIP3   OH251836   4.889   0.298   9.114  0.2416  0.0275  0.1728
 9214TIP3    H151837   4.830   0.224   9.129  1.7628 -1.4308 -0.5943
 9214TIP3    H251838   4.867   0.329   9.026 -0.6886  0.8092  0.6608
 9215TIP3   OH251839   6.403   0.438  10.574 -0.1111 -0.1469 -0.5833
 9215TIP3    H151840   6.333   0.473  10.518 -0.1248 -1.0835 -1.1772
 9215TIP3    H251841   6.479   0.491  10.553 -0.1267 -0.4600 -1.4886
 9216TIP3   OH251842   2.411   4.296  11.091  0.4362  0.0293  0.4974
 9216TIP3    H151843   2.442   4.297  11.001  2.0351 -0.7856  1.0128
 9216TIP3    H251844   2.480   4.251  11.140 -0.2188  0.8061  2.1953
 9217TIP3   OH251845   2.705   2.413  10.950  0.3076  0.2815  0.1663
 9217TIP3    H151846   2.792   2.384  10.978 -0.4071  0.5076  2.9089
 9217TIP3    H251847   2.644   2.358  10.999 -1.1171  1.0620 -0.6433
 9218TIP3   OH251848   5.865   1.867  10.550  0.3827 -0.6469 -0.0065
 9218TIP3    H151849   5.774   1.840  10.558 -0.1472  1.2204  0.8772
 9218TIP3    H251850   5.915   1.787  10.564 -1.0899 -2.0517 -2.2109
 9219TIP3   OH251851   4.505   0.746   8.945 -1.2504 -0.1382  0.0311
 9219TIP3    H151852   4.568   0.676   8.965 -0.3833  0.2139 -1.2747
 9219TIP3    H251853   4.424   0.720   8.989 -1.1453 -2.3301 -0.9251
 9220TIP3   OH251854   0.368   2.032  11.477 -0.0298  0.0251  0.3853
 9220TIP3    H151855   0.364   1.945  11.518 -0.3648 -0.7901 -1.3112
 9220TIP3    H251856   0.340   2.092  11.547 -2.4954 -1.4975  0.8371
 9221TIP3   OH251857   1.214   1.442   9.401 -0.2182 -0.4018  0.3280
 9221TIP3    H151858   1.173   1.467   9.319  1.0726 -1.3101 -0.6319
 9221TIP3    H251859   1.140   1.420   9.459 -1.1842  1.2270 -0.2058
 9222TIP3   OH251860   2.655   6.251   8.995 -0.0460 -1.1315 -0.0758
 9222TIP3    H151861   2.696   6.305   9.063  1.4513 -2.6898  0.3267
 9222TIP3    H251862   2.570   6.226   9.032 -0.2547 -0.0545  0.2160
 9223TIP3   OH251863   2.532   0.417  12.055 -0.0632 -0.1755  0.4436
 9223TIP3    H151864   2.574   0.349  12.001 -0.7243  0.0409 -0.3502
 9223TIP3    H251865   2.494   0.368  12.128 -2.0681 -0.9365 -1.0272
 9224TIP3   OH251866   5.431   1.027   9.819 -0.0565 -0.3172 -0.0607
 9224TIP3    H151867   5.497   1.038   9.749  1.2281 -0.3512  1.0946
 9224TIP3    H251868   5.428   0.932   9.834 -1.1541 -0.4193 -0.7957
 9225TIP3   OH251869   1.733   0.037   9.251 -0.6633  1.1233 -0.8116
 9225TIP3    H151870   1.764   0.093   9.322  1.0526  0.3310 -0.8881
 9225TIP3    H251871   1.741  -0.052   9.286  1.2082  0.6425 -2.3257
 9226TIP3   OH251872   5.992   5.742  10.426  0.0804 -0.0760  0.2947
 9226TIP3    H151873   6.065   5.717  10.481 -0.7266 -0.7221  1.1076
 9226TIP3    H251874   5.955   5.659  10.395 -2.5262 -0.0537  2.8806
 9227TIP3   OH251875   4.342   3.456  12.476 -0.3354 -0.3346  0.6433
 9227TIP3    H151876   4.424   3.411  12.456 -0.0195  0.6601 -0.4369
 9227TIP3    H251877   4.361   3.506  12.556 -0.1113 -0.6404  0.7837
 9228TIP3   OH251878   1.141   3.167   9.561 -0.1157 -0.0850 -0.5252
 9228TIP3    H151879   1.109   3.096   9.617  0.1671  0.8573  0.8684
 9228TIP3    H251880   1.090   3.243   9.587 -0.1878  0.3226 -1.7858
 9229TIP3   OH251881   2.663   1.512  11.443 -0.1683 -0.0284  0.0853
 9229TIP3    H151882   2.599   1.525  11.513 -1.1126  0.8506 -0.9040
 9229TIP3    H251883   2.621   1.452  11.382  0.1460  0.1659 -0.3334
 9230TIP3   OH251884   3.170   4.966   8.639  0.5345 -0.3588  0.1647
 9230TIP3    H151885   3.186   5.006   8.553  0.1376 -0.9255 -0.1818
 9230TIP3    H251886   3.252   4.980   8.687  0.0960  1.6518  0.3896
 9231TIP3   OH251887   2.949   6.505  11.476 -0.4244  0.0945  0.1698
 9231TIP3    H151888   2.992   6.567  11.416 -0.8206 -0.2113 -0.4398
 9231TIP3    H251889   2.893   6.559  11.531  0.3779  0.4469  0.6633
 9232TIP3   OH251890   3.361   0.364  10.427 -0.3738 -0.2115 -0.2504
 9232TIP3    H151891   3.297   0.385  10.359 -2.7530 -0.0281  1.8782
 9232TIP3    H251892   3.398   0.449  10.452 -0.9044 -0.0240 -0.0703
 9233TIP3   OH251893   5.904   0.871  11.471  0.3182 -0.6495 -0.1154
 9233TIP3    H151894   5.914   0.872  11.376 -0.4211  0.0999 -0.1893
 9233TIP3    H251895   5.945   0.952  11.501 -0.8278 -0.1052  0.0456
 9234TIP3   OH251896   3.681   4.974   9.883  0.1746  0.7312  0.3218
 9234TIP3    H151897   3.685   4.971   9.978  0.0747  0.3371  0.3172
 9234TIP3    H251898   3.641   5.059   9.863 -1.4762  0.0877  0.6991
 9235TIP3   OH251899   6.187   2.553   9.634  0.0565 -0.2043  0.8425
 9235TIP3    H151900   6.243   2.476   9.642 -0.2953 -0.3292  2.6813
 9235TIP3    H251901   6.181   2.569   9.540  1.6863 -1.2628  0.5206
 9236TIP3   OH251902   3.783   1.418   8.649  0.1916  0.1118  0.0820
 9236TIP3    H151903   3.832   1.455   8.575 -1.8827  0.3409 -1.2435
 9236TIP3    H251904   3.759   1.494   8.702  0.9662  0.0260  0.5773
 9237TIP3   OH251905   6.450   6.505  10.779  0.0593 -0.1531 -0.2159
 9237TIP3    H151906   6.450   6.409  10.779 -0.9962 -0.1627  0.4819
 9237TIP3    H251907   6.376   6.529  10.724  0.7072  0.2837 -0.9192
 9238TIP3   OH251908   0.834   1.584   9.427  0.1070  0.0815  0.4443
 9238TIP3    H151909   0.903   1.621   9.371 -0.4142  0.4144  0.0034
 9238TIP3    H251910   0.868   1.594   9.516  0.9072 -0.3624  0.2074
 9239TIP3   OH251911   2.042   0.033   9.130 -0.0705 -0.4701 -0.0501
 9239TIP3    H151912   2.105   0.028   9.057 -1.3389 -0.7696 -1.1632
 9239TIP3    H251913   1.957   0.037   9.088 -0.7412  2.6683  1.3466
 9240TIP3   OH251914   5.472   5.366  10.770  0.2974  0.0939 -0.3907
 9240TIP3    H151915   5.471   5.428  10.843  1.6542 -0.6081  0.2726
 9240TIP3    H251916   5.497   5.282  10.810 -0.7901 -0.7437 -1.3755
 9241TIP3   OH251917   4.938   4.083   9.990  0.0024 -0.5564 -0.5574
 9241TIP3    H151918   4.932   4.133  10.071  2.2133 -0.8243 -0.1642
 9241TIP3    H251919   4.868   4.118   9.935 -1.8597 -0.6660  1.5834
 9242TIP3   OH251920   4.928   5.074   9.860  0.8906  0.1086  0.6094
 9242TIP3    H151921   4.911   5.168   9.852  0.1139 -0.0457  0.4026
 9242TIP3    H251922   4.874   5.046   9.935 -0.2826 -0.4968 -0.4204
 9243TIP3   OH251923   0.866   5.089  11.016  0.0358  0.0808 -0.4963
 9243TIP3    H151924   0.952   5.132  11.010  0.1419 -0.0911 -0.2422
 9243TIP3    H251925   0.883   5.010  11.066 -0.1566 -0.2698 -0.9789
 9244TIP3   OH251926   5.856   4.346   9.806  0.3486 -0.5092 -0.8053
 9244TIP3    H151927   5.779   4.291   9.820 -0.6502  0.8414 -0.8315
 9244TIP3    H251928   5.893   4.358   9.894  0.4008 -0.9790 -0.7629
 9245TIP3   OH251929   2.171   0.517  10.387  0.1194 -0.0528 -0.5012
 9245TIP3    H151930   2.243   0.457  10.405  0.7398  1.0073  0.7331
 9245TIP3    H251931   2.093   0.471  10.417  0.6118 -0.1598  0.6594
 9246TIP3   OH251932   4.291   5.023  10.147 -0.3460  0.0925 -0.8372
 9246TIP3    H151933   4.280   5.075  10.067  1.0697 -2.1099 -2.5717
 9246TIP3    H251934   4.385   5.020  10.161 -0.5505  0.0434  0.6656
 9247TIP3   OH251935   5.016   3.216   8.862  1.1163 -0.1637  0.5224
 9247TIP3    H151936   4.948   3.149   8.865 -0.4564  1.3899  1.8785
 9247TIP3    H251937   5.083   3.179   8.805 -0.3109 -2.2670  0.0705
 9248TIP3   OH251938   6.508   5.012  11.115  0.4454 -0.3748  0.2147
 9248TIP3    H151939   6.595   5.022  11.078 -0.0649  1.2090 -0.6597
 9248TIP3    H251940   6.489   4.918  11.108  2.0043 -0.7133  0.3032
 9249TIP3   OH251941   1.440   1.105  10.214  0.0775 -0.0883  0.4714
 9249TIP3    H151942   1.519   1.067  10.252  1.0244 -0.3987 -1.6436
 9249TIP3    H251943   1.380   1.032  10.205 -0.6881  0.2246  2.4841
 9250TIP3   OH251944   4.199   1.399   8.566 -0.0795 -0.5783  0.7944
 9250TIP3    H151945   4.176   1.328   8.626 -1.5948 -0.6712  0.1587
 9250TIP3    H251946   4.193   1.359   8.479 -0.3269  0.1704  0.4602
 9251TIP3   OH251947   4.779   3.757  10.273 -0.2553  0.3783 -0.0475
 9251TIP3    H151948   4.863   3.795  10.298  0.1356  0.4303 -1.3565
 9251TIP3    H251949   4.733   3.743  10.356  2.4666 -3.1252  1.1309
 9252TIP3   OH251950   0.309   2.166  10.483 -0.3599 -0.5525  0.3152
 9252TIP3    H151951   0.348   2.099  10.538 -2.2345  0.6662  3.4006
 9252TIP3    H251952   0.382   2.201  10.431  1.1954 -2.8991  0.7921
 9253TIP3   OH251953   3.959   3.590  12.036 -0.4429 -0.0999  0.2250
 9253TIP3    H151954   3.992   3.526  12.099  0.0470 -0.1244 -0.0518
 9253TIP3    H251955   3.994   3.674  12.066  0.5651 -0.2294 -0.5182
 9254TIP3   OH251956   2.240   5.638  10.357 -0.9491 -0.4268 -0.0595
 9254TIP3    H151957   2.166   5.599  10.403 -1.3053 -0.0184 -0.2747
 9254TIP3    H251958   2.220   5.731  10.354 -0.6474 -0.3712 -0.5154
 9255TIP3   OH251959   6.219   4.572  11.064 -0.1213 -0.0010 -0.4231
 9255TIP3    H151960   6.268   4.492  11.046  0.8193  0.3031  0.6295
 9255TIP3    H251961   6.165   4.551  11.141 -0.5884  0.0913 -0.7223
 9256TIP3   OH251962   2.299   3.822  12.715  0.6529  0.2485 -0.6734
 9256TIP3    H151963   2.342   3.855  12.793 -0.7548  1.2389 -0.2727
 9256TIP3    H251964   2.210   3.856  12.720 -0.7965 -3.1456 -0.5242
 9257TIP3   OH251965   6.528   3.034   9.206 -0.1252  0.1676 -0.0119
 9257TIP3    H151966   6.577   3.081   9.139  0.0271 -1.3005 -0.9637
 9257TIP3    H251967   6.440   3.024   9.170  0.3482 -1.9415 -0.7105
 9258TIP3   OH251968   1.924   4.178   9.049 -0.5253 -0.2994 -0.2914
 9258TIP3    H151969   1.903   4.167   8.956 -0.8433 -0.2707 -0.2225
 9258TIP3    H251970   1.931   4.089   9.082 -2.9038 -0.3545  0.2206
 9259TIP3   OH251971   2.938   6.349   9.882 -0.0271 -0.5226  0.4132
 9259TIP3    H151972   2.995   6.419   9.913  0.5285 -1.9613  2.8363
 9259TIP3    H251973   2.915   6.299   9.960 -3.0430 -1.1832 -0.7531
 9260TIP3   OH251974   2.348   1.807  12.066  0.2641  0.6284  0.3492
 9260TIP3    H151975   2.415   1.770  12.124  2.5330  1.7512 -1.4376
 9260TIP3    H251976   2.342   1.745  11.993  1.5995  1.9650 -0.9620
 9261TIP3   OH251977   5.091   3.083  11.279  0.6810 -0.0367 -0.0897
 9261TIP3    H151978   5.169   3.050  11.234  0.1209  2.3098 -3.1659
 9261TIP3    H251979   5.018   3.051  11.226 -0.0868  2.0520 -0.3789
 9262TIP3   OH251980   4.729   5.575  11.475 -0.1200  0.1098 -0.2625
 9262TIP3    H151981   4.658   5.638  11.486  0.9453  1.3485 -0.2627
 9262TIP3    H251982   4.692   5.492  11.506 -1.3236  0.8639  0.4137
 9263TIP3   OH251983   3.343   4.102  12.020 -0.0273  0.0605  0.2142
 9263TIP3    H151984   3.310   4.097  11.930 -0.2543 -0.4594  0.3238
 9263TIP3    H251985   3.267   4.083  12.074  0.7354 -2.6849  0.4357
 9264TIP3   OH251986   4.634   5.151   9.175 -0.2063 -0.2609 -0.3857
 9264TIP3    H151987   4.632   5.068   9.222 -0.6278  0.1062  0.2669
 9264TIP3    H251988   4.693   5.206   9.227 -1.6862  0.5729  0.4597
 9265TIP3   OH251989   2.987   3.590  12.021  0.2619 -0.8428  0.0777
 9265TIP3    H151990   2.926   3.655  11.987  1.6768  0.1479 -0.6643
 9265TIP3    H251991   3.051   3.641  12.071  1.1212 -1.7060 -0.1126
 9266TIP3   OH251992   6.165   5.855   9.453  0.3775  0.0484  0.9877
 9266TIP3    H151993   6.139   5.777   9.404 -0.4159  0.0199  1.4308
 9266TIP3    H251994   6.138   5.837   9.543 -0.1306  0.9625  1.0338
 9267TIP3   OH251995   4.815   0.601   8.594  0.4967  0.2552  0.2136
 9267TIP3    H151996   4.775   0.617   8.509 -0.9824 -2.3196  0.3066
 9267TIP3    H251997   4.797   0.680   8.645  1.1370  1.7084 -1.7077
 9268TIP3   OH251998   1.191   6.091  10.673 -0.1757 -0.2166  0.1807
 9268TIP3    H151999   1.192   5.995  10.674  1.6905 -0.2459 -0.3910
 9268TIP3    H252000   1.278   6.115  10.643 -1.2022  1.6613 -1.4789
 9269TIP3   OH252001   4.595   3.790   8.898 -0.0993 -0.4321  0.2799
 9269TIP3    H152002   4.583   3.882   8.874 -0.3123 -0.3809  0.5691
 9269TIP3    H252003   4.521   3.745   8.859 -0.1199 -0.4440  0.3331
 9270TIP3   OH252004   5.310   5.969   8.424  0.0758 -0.2809  0.4774
 9270TIP3    H152005   5.381   5.979   8.362 -0.5653 -1.7632 -0.5688
 9270TIP3    H252006   5.311   6.049   8.476  2.6932 -0.4056  0.7221
 9271TIP3   OH252007   5.963   6.125  10.095 -0.0689  0.0750 -0.5895
 9271TIP3    H152008   5.997   6.206  10.133 -1.3251 -0.5881  2.2030
 9271TIP3    H252009   6.017   6.110  10.018  0.8359  3.0320 -0.6476
 9272TIP3   OH252010   1.100   4.432  11.242  0.8469  0.1572 -0.3405
 9272TIP3    H152011   1.165   4.399  11.303 -0.4024 -2.4963 -0.2621
 9272TIP3    H252012   1.033   4.471  11.297 -0.3033 -2.2744  0.1446
 9273TIP3   OH252013   6.662   2.087   8.898 -0.1668  0.0554  0.1258
 9273TIP3    H152014   6.566   2.086   8.903 -0.1594 -0.9723  0.4588
 9273TIP3    H252015   6.690   2.087   8.989  0.1381 -0.4945  0.0350
 9274TIP3   OH252016   1.701   5.646   9.403 -0.2567 -0.2536 -0.3251
 9274TIP3    H152017   1.746   5.574   9.359  0.2774  1.0368 -1.9715
 9274TIP3    H252018   1.765   5.678   9.467  0.9165  1.0189 -2.0669
 9275TIP3   OH252019   6.427   2.830  10.990 -0.6981 -0.1356  0.8241
 9275TIP3    H152020   6.426   2.786  10.904 -0.2200  0.3661  0.5527
 9275TIP3    H252021   6.499   2.787  11.037  0.8325  1.3772 -0.0174
 9276TIP3   OH252022   2.742   3.350   9.337  0.1337 -0.8444  0.1917
 9276TIP3    H152023   2.732   3.360   9.242 -1.4039 -0.9397  0.3210
 9276TIP3    H252024   2.727   3.257   9.353  1.7940 -1.1095  0.3993
 9277TIP3   OH252025   4.799   3.578  10.680 -0.1326  0.1577 -0.0911
 9277TIP3    H152026   4.721   3.613  10.636 -0.1920 -0.0074 -0.1214
 9277TIP3    H252027   4.779   3.485  10.691 -0.1058  0.1959  0.2625
 9278TIP3   OH252028   2.721   0.175   9.422  0.6530 -0.2173 -0.2797
 9278TIP3    H152029   2.729   0.200   9.330 -1.1610 -0.6438 -0.5953
 9278TIP3    H252030   2.677   0.249   9.463 -0.3825 -0.8579 -0.2032
 9279TIP3   OH252031   3.199   3.492   9.701 -0.1999 -0.3232 -0.2112
 9279TIP3    H152032   3.249   3.573   9.712  1.1974 -1.2224  0.4753
 9279TIP3    H252033   3.108   3.517   9.716 -0.0919  1.5229 -2.1935
 9280TIP3   OH252034   6.571   2.430  11.508  0.5275 -0.3304 -0.0636
 9280TIP3    H152035   6.600   2.370  11.440  1.2762  0.0559 -0.0893
 9280TIP3    H252036   6.603   2.516  11.480  3.1614 -0.4985  2.0233
 9281TIP3   OH252037   1.563   5.151   9.059 -0.6401 -0.1894 -0.0673
 9281TIP3    H152038   1.497   5.147   8.990 -0.9428 -1.5962  0.2790
 9281TIP3    H252039   1.602   5.063   9.060 -0.8325 -0.2823  1.7217
 9282TIP3   OH252040   4.556   4.217  12.709 -0.1560  0.6085 -0.3412
 9282TIP3    H152041   4.593   4.230  12.796 -0.5786 -0.3958 -0.0098
 9282TIP3    H252042   4.530   4.305  12.681  1.8669  1.2611 -0.3183
 9283TIP3   OH252043   6.551   1.121  10.109  0.8709  0.0208 -0.5591
 9283TIP3    H152044   6.474   1.067  10.089  0.8109  0.1418 -0.6501
 9283TIP3    H252045   6.621   1.057  10.122  1.1673 -0.0297 -2.1999
 9284TIP3   OH252046   5.505   3.437  10.230 -0.4803  0.2531  0.3494
 9284TIP3    H152047   5.550   3.521  10.242 -0.6233  0.1700  1.5065
 9284TIP3    H252048   5.545   3.378  10.294 -1.6136 -0.0675  0.7892
 9285TIP3   OH252049   1.848   3.036  10.854 -0.3275 -0.5492 -0.1923
 9285TIP3    H152050   1.774   3.036  10.793  1.7928  0.1560 -2.9525
 9285TIP3    H252051   1.865   3.129  10.870 -0.0071 -0.7078  0.3992
 9286TIP3   OH252052   2.023   0.581  10.040  0.1360 -0.3364 -0.5536
 9286TIP3    H152053   2.034   0.584   9.945 -0.5485 -1.9253 -0.7081
 9286TIP3    H252054   2.012   0.488  10.060 -0.2317  0.0198  1.0222
 9287TIP3   OH252055   3.760   1.508  11.387  0.3650 -0.2182 -0.4490
 9287TIP3    H152056   3.688   1.564  11.415 -2.2109 -3.2513 -0.4346
 9287TIP3    H252057   3.824   1.512  11.458 -0.4257  1.4540  0.2065
 9288TIP3   OH252058   0.230   6.012   9.435 -0.8055  0.3193 -0.0671
 9288TIP3    H152059   0.252   6.022   9.528 -1.3250  0.9569 -0.0109
 9288TIP3    H252060   0.294   5.949   9.403 -0.9690 -0.3403  0.8508
 9289TIP3   OH252061   3.072   4.639  11.974 -0.3350  0.2582 -0.5295
 9289TIP3    H152062   2.978   4.649  11.964 -0.2808 -0.8077 -2.4733
 9289TIP3    H252063   3.104   4.618  11.887  1.4922 -1.1416  0.4011
 9290TIP3   OH252064   1.633   4.167   9.693 -0.0749  0.1428 -0.0732
 9290TIP3    H152065   1.638   4.242   9.751 -0.5643 -0.9627  1.4551
 9290TIP3    H252066   1.591   4.201   9.614 -0.2704  1.4709  0.5688
 9291TIP3   OH252067   4.154   2.627  10.051  0.3884 -0.1133  0.1512
 9291TIP3    H152068   4.202   2.566   9.995 -1.0405 -0.0082 -1.2736
 9291TIP3    H252069   4.085   2.662   9.994  0.8604  2.4933  1.0357
 9292TIP3   OH252070   5.451   0.448  11.799  0.2308  0.0460 -0.3593
 9292TIP3    H152071   5.515   0.480  11.735 -0.5990  0.8835 -0.7839
 9292TIP3    H252072   5.428   0.524  11.851  0.5037 -0.5237  0.6077
 9293TIP3   OH252073   2.858   3.438  11.294 -0.1462  0.4936 -0.4365
 9293TIP3    H152074   2.803   3.364  11.322 -0.9578  1.1999 -0.1166
 9293TIP3    H252075   2.796   3.502  11.260  0.6168  0.7266 -1.4266
 9294TIP3   OH252076   5.096   3.254   9.134 -0.4224  0.1633  0.5962
 9294TIP3    H152077   5.082   3.239   9.040 -0.3220  1.6098  0.3165
 9294TIP3    H252078   5.135   3.341   9.138  0.8425 -0.4270  1.9083
 9295TIP3   OH252079   2.509   3.396  12.031 -0.7779  0.2953 -0.1108
 9295TIP3    H152080   2.592   3.433  12.064 -0.1862 -1.7525  0.8871
 9295TIP3    H252081   2.501   3.430  11.942  2.4791 -1.3509 -1.2143
 9296TIP3   OH252082   5.795   0.505   8.764 -1.0471  0.3539 -0.2397
 9296TIP3    H152083   5.773   0.598   8.762 -0.5901  0.4678 -1.9106
 9296TIP3    H252084   5.850   0.492   8.686  0.2131 -1.0034  0.8141
 9297TIP3   OH252085   0.789   2.521   9.915  0.1924 -0.0583 -0.2169
 9297TIP3    H152086   0.796   2.425   9.923  2.3600 -0.2709 -3.1356
 9297TIP3    H252087   0.715   2.535   9.857  1.5960 -0.2316 -2.1502
 9298TIP3   OH252088   0.877   4.311   8.629 -0.0368 -0.2200 -0.9118
 9298TIP3    H152089   0.940   4.382   8.635 -1.3831  0.9242  0.8738
 9298TIP3    H252090   0.793   4.355   8.612 -0.9237 -1.3465  0.3412
 9299TIP3   OH252091   0.746   5.274  11.220  0.1397  0.2949  0.1493
 9299TIP3    H152092   0.760   5.187  11.183 -0.6248  0.6721 -1.1052
 9299TIP3    H252093   0.670   5.264  11.277  0.6013 -0.0401  0.7139
 9300TIP3   OH252094   4.591   3.536   9.582  0.2290  0.3346 -0.0755
 9300TIP3    H152095   4.650   3.606   9.609 -1.6526  1.4261  1.4636
 9300TIP3    H252096   4.581   3.548   9.488 -0.2808  2.3720  0.1992
 9301TIP3   OH252097   1.766   6.263  10.627 -0.1542  0.2890  0.0597
 9301TIP3    H152098   1.721   6.230  10.705 -0.0829 -1.7921 -0.7044
 9301TIP3    H252099   1.702   6.320  10.585 -0.7334  0.2523  0.8630
 9302TIP3   OH252100   0.683   5.362  10.037 -0.2045 -0.1318 -0.0226
 9302TIP3    H152101   0.607   5.341  10.091 -1.5268  0.6802 -1.4697
 9302TIP3    H252102   0.681   5.458  10.028  0.5682 -0.1627 -0.6742
 9303TIP3   OH252103   5.563   2.901  10.468 -0.1130  0.6168 -0.3677
 9303TIP3    H152104   5.625   2.953  10.520  2.0595 -0.7495 -1.4110
 9303TIP3    H252105   5.614   2.873  10.392 -2.0629 -0.5992 -1.3073
 9304TIP3   OH252106   0.027   1.726  10.270 -1.2177 -0.0618 -0.0060
 9304TIP3    H152107   0.034   1.738  10.175  0.7331 -0.9099 -0.0112
 9304TIP3    H252108   0.011   1.814  10.304  0.5548  0.6872 -0.9698
 9305TIP3   OH252109   1.327   5.063   9.168  0.5726  0.0727  0.0834
 9305TIP3    H152110   1.258   5.030   9.225 -2.2177  0.3276 -2.8864
 9305TIP3    H252111   1.386   4.989   9.156  0.3119 -0.4663  1.8791
 9306TIP3   OH252112   4.999   5.140  11.130 -0.0961 -0.2384  0.0098
 9306TIP3    H152113   4.922   5.119  11.182 -0.7286  1.5031 -0.1415
 9306TIP3    H252114   5.024   5.058  11.088 -1.4685 -0.9683  0.5721
 9307TIP3   OH252115   0.187   1.864   9.421  0.1628  0.3231 -0.2600
 9307TIP3    H152116   0.270   1.898   9.456  0.6941  0.7283 -1.8288
 9307TIP3    H252117   0.176   1.910   9.338 -0.7889 -0.9477 -0.8731
 9308TIP3   OH252118   6.571   6.365  11.068  0.0593 -0.0008 -0.0905
 9308TIP3    H152119   6.659   6.384  11.037  0.1102 -0.1616 -0.0495
 9308TIP3    H252120   6.545   6.442  11.117 -1.0400  1.4224 -2.6898
 9309TIP3   OH252121   1.855   5.571   9.641 -0.3764  0.0457 -0.4456
 9309TIP3    H152122   1.899   5.619   9.711  0.3814  1.9462 -2.1411
 9309TIP3    H252123   1.810   5.499   9.686  1.6284  0.0514  1.7544
 9310TIP3   OH252124   6.021   4.192  12.196 -0.0769  0.0390 -0.5031
 9310TIP3    H152125   6.113   4.216  12.201 -0.0487 -0.2940  1.0248
 9310TIP3    H252126   6.022   4.101  12.165  0.1351 -0.0753 -0.1718
 9311TIP3   OH252127   0.574   4.461   9.235 -0.1466 -0.7237 -0.3741
 9311TIP3    H152128   0.577   4.367   9.215 -0.4187 -0.6712 -0.6832
 9311TIP3    H252129   0.658   4.480   9.275 -0.5031 -1.3203  0.6871
 9312TIP3   OH252130   2.380   1.501  10.178  0.0926 -0.4478 -0.2928
 9312TIP3    H152131   2.321   1.531  10.108 -0.3607 -0.1222  0.2221
 9312TIP3    H252132   2.333   1.521  10.259  1.1049  0.2043  0.1408
 9313TIP3   OH252133   6.498   6.148   9.273 -0.4267 -0.2164 -0.0355
 9313TIP3    H152134   6.430   6.174   9.211  0.5760 -0.6685 -1.3581
 9313TIP3    H252135   6.449   6.125   9.353 -1.6197  2.0805 -0.0169
 9314TIP3   OH252136   2.940   2.200  11.931  0.3457 -0.4087 -0.0085
 9314TIP3    H152137   2.981   2.249  11.860 -1.0788 -1.2613 -1.5018
 9314TIP3    H252138   2.986   2.116  11.932 -0.5209 -0.9189 -0.8948
 9315TIP3   OH252139   2.577   6.658  10.204 -0.4390  0.2295 -0.7120
 9315TIP3    H152140   2.601   6.631  10.293 -0.7587 -0.0232 -0.6992
 9315TIP3    H252141   2.567   6.753  10.210  1.6123  0.5150 -0.9675
 9316TIP3   OH252142   1.916   1.808  10.544 -0.1518 -0.8354 -0.1733
 9316TIP3    H152143   1.892   1.841  10.631  2.2683  0.2553  0.1546
 9316TIP3    H252144   1.875   1.870  10.483  0.3455 -0.0335  0.2986
 9317TIP3   OH252145   6.597   6.222  10.781  0.1281 -1.0067  0.0610
 9317TIP3    H152146   6.503   6.221  10.764 -0.0884 -2.4462  1.1583
 9317TIP3    H252147   6.604   6.241  10.874  1.1607  3.8308 -0.7459
 9318TIP3   OH252148   3.686   0.019  11.608 -0.0192 -0.2410  0.2497
 9318TIP3    H152149   3.769  -0.018  11.638 -0.3128  0.2102  1.7077
 9318TIP3    H252150   3.625  -0.055  11.610 -0.0121 -0.2356  0.6744
 9319TIP3   OH252151   3.814   0.504   9.997  0.5954 -0.1090 -0.4092
 9319TIP3    H152152   3.889   0.493   9.939  1.0383 -1.2391  0.3336
 9319TIP3    H252153   3.830   0.442  10.069 -0.7795  0.0131  0.0367
 9320TIP3   OH252154   5.289   4.076  11.358  0.5555  0.0421  0.1195
 9320TIP3    H152155   5.230   4.135  11.312  0.5575 -0.2167 -0.2172
 9320TIP3    H252156   5.232   4.010  11.397  0.7091 -0.9977 -1.3496
 9321TIP3   OH252157   4.875   1.110   9.098  0.5322 -0.6295 -0.0907
 9321TIP3    H152158   4.911   1.022   9.107  2.3096 -0.1963 -2.1138
 9321TIP3    H252159   4.799   1.100   9.042  0.4589 -0.9249  0.0608
 9322TIP3   OH252160   2.804   3.888  11.120 -0.3294  0.0870  0.0182
 9322TIP3    H152161   2.719   3.929  11.105  0.8235  2.1423 -1.3235
 9322TIP3    H252162   2.823   3.841  11.039 -0.0155 -0.0770  0.1827
 9323TIP3   OH252163   1.271   5.368   9.159  0.6395  0.8717 -0.0409
 9323TIP3    H152164   1.310   5.281   9.161 -0.8055  0.1569 -1.0668
 9323TIP3    H252165   1.215   5.371   9.237 -0.0709  0.4895 -0.5270
 9324TIP3   OH252166   1.975   3.954   8.435  0.1825 -0.1901 -0.2628
 9324TIP3    H152167   2.068   3.933   8.430 -0.0760 -1.2367 -0.8476
 9324TIP3    H252168   1.969   4.044   8.402  1.2590  0.7621  1.9292
 9325TIP3   OH252169   3.769   1.983   9.213  0.6850 -0.3935 -0.0072
 9325TIP3    H152170   3.741   2.071   9.237  0.3105 -0.1936 -1.1192
 9325TIP3    H252171   3.732   1.969   9.125 -0.8058 -2.3306  0.8483
 9326TIP3   OH252172   0.484   3.057  10.252  0.0316 -0.4907  0.0337
 9326TIP3    H152173   0.471   2.972  10.295 -1.1745 -1.3268 -1.8124
 9326TIP3    H252174   0.459   3.122  10.318 -1.6647 -1.6863  0.6474
 9327TIP3   OH252175   0.944   4.404  10.663 -0.3474  0.0057  0.3436
 9327TIP3    H152176   0.914   4.431  10.749 -0.1394 -0.6836  0.6403
 9327TIP3    H252177   0.989   4.481  10.628 -1.0781  0.5319  0.5345
 9328TIP3   OH252178   0.358   2.367   8.745  0.1552 -0.2084  0.5733
 9328TIP3    H152179   0.448   2.368   8.714  0.4911  2.2835  1.3913
 9328TIP3    H252180   0.305   2.384   8.667  0.5913  0.6068  0.4375
 9329TIP3   OH252181   0.718   1.956   9.395 -0.2178  0.3019 -0.3444
 9329TIP3    H152182   0.759   1.917   9.473  0.1644  0.0711 -0.6554
 9329TIP3    H252183   0.763   1.914   9.322 -0.8009  0.2823 -0.6918
 9330TIP3   OH252184   6.028   1.672  10.624 -0.3885  0.0398  0.4506
 9330TIP3    H152185   6.090   1.694  10.694 -1.1056 -0.7239  1.3679
 9330TIP3    H252186   6.045   1.580  10.606 -0.9644 -0.0696  0.4284
 9331TIP3   OH252187   3.823   0.294  12.171  0.0225 -0.5040 -0.7194
 9331TIP3    H152188   3.871   0.240  12.233 -1.2085 -0.9655 -0.1209
 9331TIP3    H252189   3.733   0.260  12.175 -0.8140  1.6149 -0.2723
 9332TIP3   OH252190   5.654   2.710  11.452 -0.1861  0.3211  0.1375
 9332TIP3    H152191   5.672   2.616  11.450 -0.5432  0.2420  0.6154
 9332TIP3    H252192   5.648   2.732  11.545  0.5452  0.9455  0.0471
 9333TIP3   OH252193   1.798   0.113   8.987  0.3550 -0.4587  0.0508
 9333TIP3    H152194   1.750   0.070   9.058  1.4918 -0.0171  1.1342
 9333TIP3    H252195   1.812   0.202   9.019  0.1068  0.0323 -1.1381
 9334TIP3   OH252196   0.928   1.927   9.027 -0.3085  0.1591  0.1110
 9334TIP3    H152197   0.974   1.997   8.981 -0.9635 -0.2938 -1.3070
 9334TIP3    H252198   0.950   1.848   8.978 -0.7514 -0.4014  0.7985
 9335TIP3   OH252199   1.550   3.075  10.732 -0.1181  0.0996 -0.4997
 9335TIP3    H152200   1.579   3.023  10.657  1.2870  2.0982 -1.4585
 9335TIP3    H252201   1.475   3.124  10.700 -0.9940 -0.7551  0.1793
 9336TIP3   OH252202   2.936   3.094   8.991  0.0278 -0.1616 -0.8434
 9336TIP3    H152203   3.019   3.098   9.039 -0.1988 -0.1110 -0.4518
 9336TIP3    H252204   2.935   3.007   8.953 -0.6406 -0.9304  0.8107
 9337TIP3   OH252205   2.501   1.852  11.278  0.4755 -0.1483  0.0764
 9337TIP3    H152206   2.559   1.785  11.243 -1.2754 -0.3687 -2.7536
 9337TIP3    H252207   2.437   1.805  11.330  1.3809 -0.1884  1.1786
 9338TIP3   OH252208   4.583   5.021  10.165  0.1908 -0.1272  0.0341
 9338TIP3    H152209   4.662   4.998  10.115  0.7549  1.3546  0.1956
 9338TIP3    H252210   4.615   5.041  10.253 -0.1841  1.5564 -0.1814
 9339TIP3   OH252211   2.389   0.302   9.731  0.4797 -0.2002 -0.5149
 9339TIP3    H152212   2.371   0.328   9.821 -0.0579 -2.4986  0.0876
 9339TIP3    H252213   2.372   0.381   9.680  1.9455  1.5052  1.4662
 9340TIP3   OH252214   4.653   4.972  10.972 -0.5496 -0.3069 -0.2087
 9340TIP3    H152215   4.650   4.900  10.909 -0.7008  0.9430 -1.6875
 9340TIP3    H252216   4.737   4.960  11.018 -0.9896 -1.9183  0.2402
 9341TIP3   OH252217   3.211   1.900   8.677 -0.5838 -0.1897  0.2410
 9341TIP3    H152218   3.155   1.921   8.752  0.4763 -1.8562  1.5936
 9341TIP3    H252219   3.206   1.805   8.669  0.4775 -0.1802 -0.8691
 9342TIP3   OH252220   3.812   2.297  11.178 -0.0440  0.1467 -0.4703
 9342TIP3    H152221   3.804   2.357  11.252  0.5169  0.9318 -1.0292
 9342TIP3    H252222   3.739   2.321  11.121 -0.5504 -0.5425 -0.1218
 9343TIP3   OH252223   2.192   5.881  10.771  0.0382 -0.4923  0.2988
 9343TIP3    H152224   2.259   5.900  10.837  0.2668 -1.9687  0.5412
 9343TIP3    H252225   2.110   5.881  10.820  0.2670 -2.1797  0.7715
 9344TIP3   OH252226   5.742   6.531  11.662  0.0584 -0.2456  0.0197
 9344TIP3    H152227   5.791   6.507  11.741 -0.7629  0.0269  0.6317
 9344TIP3    H252228   5.720   6.623  11.675  0.2547 -0.0903 -0.7203
 9345TIP3   OH252229   0.857   5.646  11.815 -0.3975 -0.2326  0.0239
 9345TIP3    H152230   0.848   5.567  11.761  0.5253  0.8172 -1.7325
 9345TIP3    H252231   0.949   5.671  11.805 -0.4328  0.5306  1.3667
 9346TIP3   OH252232   4.535   5.055   9.723  0.1514  0.0905  0.2247
 9346TIP3    H152233   4.595   5.033   9.652 -2.1346  0.7367 -2.0856
 9346TIP3    H252234   4.549   5.149   9.738  0.7584 -0.0845  0.7526
 9347TIP3   OH252235   5.282   0.533  11.036  0.2643  0.1892 -0.5903
 9347TIP3    H152236   5.334   0.613  11.026  0.2944  0.2127 -0.2790
 9347TIP3    H252237   5.344   0.462  11.019  0.1915  0.2373 -1.0513
 9348TIP3   OH252238   0.137   3.184   9.498  0.2295 -0.0196 -0.0690
 9348TIP3    H152239   0.151   3.141   9.413 -1.2872  1.6593 -1.2571
 9348TIP3    H252240   0.206   3.250   9.503 -0.0347  0.2829 -0.3130
 9349TIP3   OH252241   4.426   3.434   8.506  0.2682  0.3336  0.2069
 9349TIP3    H152242   4.414   3.341   8.485  0.1424  0.1407  1.0699
 9349TIP3    H252243   4.343   3.475   8.483 -0.2969 -0.0844  1.4018
 9350TIP3   OH252244   5.130   5.971   9.722  0.7260  0.2218  0.0504
 9350TIP3    H152245   5.210   5.953   9.772  0.3131  0.5756  0.8412
 9350TIP3    H252246   5.070   6.009   9.785  0.9266  2.7087 -1.1427
 9351TIP3   OH252247   6.558   3.220  10.435 -0.4265  0.4276  0.1632
 9351TIP3    H152248   6.503   3.206  10.512 -0.4626 -0.8344 -0.0764
 9351TIP3    H252249   6.563   3.134  10.392  0.1161  0.9608 -0.8954
 9352TIP3   OH252250   3.913   4.940  11.462  0.1574  0.2777 -0.3703
 9352TIP3    H152251   3.858   4.970  11.535 -0.5081 -0.6395 -0.4744
 9352TIP3    H252252   3.852   4.894  11.404  0.2627  2.7021 -2.5701
 9353TIP3   OH252253   2.649   1.430  10.094 -0.4743 -0.4921 -0.3313
 9353TIP3    H152254   2.557   1.455  10.105 -0.3810 -0.8252  1.5264
 9353TIP3    H252255   2.698   1.502  10.134 -0.0353 -1.3532  0.7298
 9354TIP3   OH252256   1.993   6.587   9.971  0.2687 -0.2360  0.0650
 9354TIP3    H152257   1.962   6.497   9.957  0.9686 -0.1809 -2.2430
 9354TIP3    H252258   1.914   6.637   9.991 -0.4010 -1.0254 -0.5558
 9355TIP3   OH252259   4.799   2.778  10.768  0.5846 -0.0650 -0.8317
 9355TIP3    H152260   4.740   2.736  10.705 -2.9912  0.2796  1.9565
 9355TIP3    H252261   4.834   2.705  10.819 -1.9732 -0.1200  1.0299
 9356TIP3   OH252262   1.012   5.152   9.171  0.0327 -0.2640  0.5906
 9356TIP3    H152263   0.928   5.193   9.149  0.5534 -0.4367 -2.0032
 9356TIP3    H252264   1.063   5.223   9.211  0.0816  1.0479 -1.6393
 9357TIP3   OH252265   3.145   4.352  10.729  0.1017 -0.0928 -0.6330
 9357TIP3    H152266   3.071   4.354  10.669  0.4226  0.6005 -1.0203
 9357TIP3    H252267   3.218   4.387  10.678  0.5381 -0.1519 -0.0538
 9358TIP3   OH252268   6.344   2.380  10.767 -0.3549 -0.2844 -0.5807
 9358TIP3    H152269   6.414   2.343  10.713  0.0897 -1.0298  0.4639
 9358TIP3    H252270   6.264   2.363  10.717  0.2401  1.2825 -2.1652
 9359TIP3   OH252271   4.663   6.110  10.478 -0.0855 -0.0088 -0.1436
 9359TIP3    H152272   4.709   6.186  10.442 -0.0191  0.1502  0.2616
 9359TIP3    H252273   4.571   6.127  10.460  0.0259 -0.4952 -1.2667
 9360TIP3   OH252274   4.446   4.641   8.939 -0.5357  0.2569  0.0112
 9360TIP3    H152275   4.355   4.630   8.911 -0.0269 -0.1706 -1.5282
 9360TIP3    H252276   4.486   4.556   8.922  0.2367  0.5306  0.4363
 9361TIP3   OH252277   3.354   3.530  11.193  0.5480  0.4733 -0.0438
 9361TIP3    H152278   3.278   3.588  11.195  0.5034  0.4014  0.4193
 9361TIP3    H252279   3.324   3.450  11.236  1.0031  0.5936  0.5041
 9362TIP3   OH252280   4.612   3.403  10.248  0.1514  0.1751 -0.1955
 9362TIP3    H152281   4.613   3.329  10.188  0.9691 -1.2133  1.4446
 9362TIP3    H252282   4.652   3.369  10.328 -0.9885  1.9211  1.1782
 9363TIP3   OH252283   0.994   4.675  11.350  0.5196  0.5428  0.1715
 9363TIP3    H152284   1.033   4.750  11.304  0.3566  0.9258  0.6583
 9363TIP3    H252285   0.915   4.655  11.300  1.1365 -0.0081 -0.6086
 9364TIP3   OH252286   0.553   5.519   8.801  0.2609  0.2540 -0.2212
 9364TIP3    H152287   0.594   5.542   8.717  0.9252  0.1528  0.0710
 9364TIP3    H252288   0.619   5.541   8.867 -1.0714  2.3881  0.4856
 9365TIP3   OH252289   4.133   4.399  10.461 -0.2100 -0.4571  0.1631
 9365TIP3    H152290   4.123   4.336  10.532 -1.1657 -1.3177 -0.7136
 9365TIP3    H252291   4.053   4.392  10.410  0.7247 -0.3528 -1.3956
 9366TIP3   OH252292   3.615   3.233  11.804 -0.1343  0.2865  0.2539
 9366TIP3    H152293   3.668   3.312  11.796  0.1350  0.1461  0.6429
 9366TIP3    H252294   3.525   3.266  11.808 -0.0971  0.5141 -0.5742
 9367TIP3   OH252295   4.600   0.223  10.568  0.1172  0.3051  0.0005
 9367TIP3    H152296   4.580   0.141  10.521 -2.3917  0.4371  0.6653
 9367TIP3    H252297   4.653   0.196  10.643 -0.4149 -0.6859  0.0377
 9368TIP3   OH252298   5.757   5.191   9.998 -0.2509  0.3316  0.2961
 9368TIP3    H152299   5.848   5.207   9.972 -0.8695  1.3506 -1.4965
 9368TIP3    H252300   5.762   5.128  10.069  1.7657 -1.3802 -1.2334
 9369TIP3   OH252301   0.098   1.457  10.751 -0.3900  0.0979  0.3092
 9369TIP3    H152302   0.148   1.437  10.672 -1.2874  1.6983 -0.7325
 9369TIP3    H252303   0.034   1.386  10.758 -0.2847 -0.0721 -0.4096
 9370TIP3   OH252304   2.099   4.180   8.732  0.0042  0.2323 -0.9144
 9370TIP3    H152305   2.054   4.126   8.666 -0.2209 -0.9271  0.1450
 9370TIP3    H252306   2.092   4.129   8.813 -0.0972  1.8251  0.1156
 9371TIP3   OH252307   0.074   2.419   9.064  0.3064  0.3180  0.3348
 9371TIP3    H152308   0.115   2.333   9.055  0.4544  0.5212 -1.3209
 9371TIP3    H252309   0.111   2.455   9.144  2.3435 -0.0828 -0.3641
 9372TIP3   OH252310   4.903   5.687   9.167  0.4688 -0.5016 -0.2685
 9372TIP3    H152311   4.902   5.783   9.168 -1.0751 -0.4779 -0.5751
 9372TIP3    H252312   4.885   5.662   9.258  0.5561 -0.4901 -0.2484
 9373TIP3   OH252313   4.867   2.056   9.215 -0.2866 -0.5246 -0.0531
 9373TIP3    H152314   4.819   2.108   9.279 -1.6658 -2.2579  0.4272
 9373TIP3    H252315   4.945   2.025   9.262  1.4228  2.2845 -0.8298
 9374TIP3   OH252316   2.175   5.489   8.416  0.5171  0.2291  0.2503
 9374TIP3    H152317   2.149   5.462   8.504  1.5823 -0.8465  0.2590
 9374TIP3    H252318   2.242   5.426   8.390  1.2379  1.3741 -0.7819
 9375TIP3   OH252319   1.277   0.097   9.504  0.3936  0.0246 -0.0946
 9375TIP3    H152320   1.345   0.032   9.486  0.3862  0.0837 -0.3388
 9375TIP3    H252321   1.236   0.112   9.419 -3.1921 -3.6095  0.6707
 9376TIP3   OH252322   3.223   4.382  11.849  0.3154 -0.2143 -0.0573
 9376TIP3    H152323   3.292   4.448  11.843  0.0074  0.2890  1.6504
 9376TIP3    H252324   3.166   4.400  11.773  0.2214  1.5203  0.3853
 9377TIP3   OH252325   4.941   3.826  11.622  0.4185  0.0147 -0.1686
 9377TIP3    H152326   4.969   3.908  11.663 -1.0618  0.5123 -0.1088
 9377TIP3    H252327   4.936   3.763  11.693 -0.3316  0.3866  0.1119
 9378TIP3   OH252328   5.877   5.649  10.918  0.2659 -0.2333  0.4712
 9378TIP3    H152329   5.800   5.707  10.911  0.9682  0.6572 -0.0702
 9378TIP3    H252330   5.945   5.705  10.956  1.1354 -0.5235 -0.6195
 9379TIP3   OH252331   6.381   0.789   9.666 -0.4632 -0.0906 -0.4524
 9379TIP3    H152332   6.312   0.731   9.633 -0.8625  1.5285 -2.7406
 9379TIP3    H252333   6.441   0.799   9.592  0.1391  1.5568  0.2080
 9380TIP3   OH252334   1.957   1.446  10.498 -0.0930  0.2614 -0.2819
 9380TIP3    H152335   1.971   1.507  10.571 -0.5178  0.2857 -0.2186
 9380TIP3    H252336   2.036   1.391  10.498 -0.4278 -0.2560  0.6940
 9381TIP3   OH252337   1.342   5.852  10.970 -0.6926 -0.6304  0.3825
 9381TIP3    H152338   1.263   5.812  10.934 -1.1430 -1.1991  1.9135
 9381TIP3    H252339   1.309   5.915  11.035  0.1092 -0.4446  0.6169
 9382TIP3   OH252340   4.607   0.165   9.980 -0.2842  0.2225  0.2755
 9382TIP3    H152341   4.522   0.134  10.010 -0.9985  1.0312 -0.8132
 9382TIP3    H252342   4.603   0.260   9.990  0.9286  0.1929  1.2598
 9383TIP3   OH252343   2.631   1.372   8.794  0.0497  0.2425 -0.2154
 9383TIP3    H152344   2.695   1.432   8.833  1.4798 -0.0882 -1.9496
 9383TIP3    H252345   2.546   1.415   8.808  0.7355  1.2092  1.1804
 9384TIP3   OH252346   5.970   4.361  10.052  0.2293  0.6490 -0.5424
 9384TIP3    H152347   6.038   4.333  10.112 -0.1938  0.7715 -0.0021
 9384TIP3    H252348   5.936   4.442  10.090 -0.6353  0.2619 -0.4834
 9385TIP3   OH252349   5.645   2.073  11.041 -0.3149 -0.4921 -0.1994
 9385TIP3    H152350   5.730   2.111  11.063 -1.4203  1.6427  0.6214
 9385TIP3    H252351   5.641   2.080  10.945 -0.0989  0.6625 -0.1432
 9386TIP3   OH252352   4.424   0.093  10.197  0.1225  0.1641  0.1621
 9386TIP3    H152353   4.349   0.045  10.232 -0.7143  2.1021  1.1844
 9386TIP3    H252354   4.395   0.184  10.193  1.7463  0.6702 -1.4013
 9387TIP3   OH252355   6.597   2.223  11.335 -0.1934 -0.5943  0.1823
 9387TIP3    H152356   6.513   2.185  11.359 -0.2328 -1.3605 -1.0801
 9387TIP3    H252357   6.654   2.148  11.317 -0.3228 -0.1611 -2.5652
 9388TIP3   OH252358   4.321   3.817  10.967 -0.1021  0.0368  0.0804
 9388TIP3    H152359   4.323   3.874  11.044 -1.8438 -0.2640  0.3961
 9388TIP3    H252360   4.229   3.815  10.942  0.4414  0.2447 -2.1229
 9389TIP3   OH252361   5.209   2.168   8.448 -0.1748  0.4573  0.1854
 9389TIP3    H152362   5.139   2.225   8.478 -0.9986 -0.7086  0.5868
 9389TIP3    H252363   5.222   2.105   8.520  0.3551 -0.1553 -0.4215
 9390TIP3   OH252364   1.630   3.190  10.123 -0.2045  0.2934 -0.1386
 9390TIP3    H152365   1.676   3.212  10.204  2.4904 -2.7631 -0.6083
 9390TIP3    H252366   1.570   3.119  10.148 -2.8166  2.3763 -0.0860
 9391TIP3   OH252367   0.772   0.368  10.478 -0.4264 -0.1151 -0.5780
 9391TIP3    H152368   0.694   0.361  10.533  0.3368  0.3429  0.5862
 9391TIP3    H252369   0.737   0.379  10.389 -1.6738 -1.0697 -0.2392
 9392TIP3   OH252370   1.485   3.956   8.861 -0.7175 -0.2136  0.1781
 9392TIP3    H152371   1.579   3.970   8.854 -0.8115  1.5470  1.5357
 9392TIP3    H252372   1.477   3.873   8.908  0.0686 -1.5057 -1.8476
 9393TIP3   OH252373   5.463   4.461   9.969 -0.0115  0.1780  0.5708
 9393TIP3    H152374   5.426   4.544   9.941 -0.9245 -0.0891  0.9534
 9393TIP3    H252375   5.491   4.418   9.887  1.1546  1.1581  0.4283
 9394TIP3   OH252376   2.958   1.462  10.241 -0.1603 -0.8249  0.6368
 9394TIP3    H152377   2.940   1.390  10.181  0.0635  0.5675 -1.1985
 9394TIP3    H252378   3.051   1.453  10.261  0.7512  0.7830 -2.3068
 9395TIP3   OH252379   0.893   6.487  11.249  0.0111  0.4465 -0.1783
 9395TIP3    H152380   0.832   6.500  11.176 -0.8470 -1.4003  0.1757
 9395TIP3    H252381   0.914   6.576  11.277 -1.7611  1.1613 -0.9296
 9396TIP3   OH252382   0.268   0.868  10.236 -0.2371  0.4610  0.4500
 9396TIP3    H152383   0.322   0.791  10.253 -0.6306  0.5898  2.4975
 9396TIP3    H252384   0.201   0.838  10.175  0.4815 -0.4021  0.0604
 9397TIP3   OH252385   3.353   1.807   9.787 -0.2235  0.4374  0.0080
 9397TIP3    H152386   3.415   1.826   9.857  1.3511 -1.4420 -0.8138
 9397TIP3    H252387   3.295   1.740   9.824  1.9605 -2.2175 -1.0575
 9398TIP3   OH252388   1.117   3.381   9.865 -0.2206  0.1957  0.0346
 9398TIP3    H152389   1.081   3.442   9.930  0.0716 -0.2288  0.6043
 9398TIP3    H252390   1.149   3.307   9.917 -0.8278 -0.5798 -0.6597
 9399TIP3   OH252391   3.162   6.491  10.650 -0.0185 -0.1889  0.5582
 9399TIP3    H152392   3.188   6.581  10.629  0.5461  0.1996  2.6366
 9399TIP3    H252393   3.219   6.437  10.596  1.0302  0.7163  0.7122
 9400TIP3   OH252394   0.044   0.236  10.688 -0.2914  0.2888 -0.5343
 9400TIP3    H152395  -0.028   0.249  10.750  0.3171  0.0122  0.2513
 9400TIP3    H252396   0.070   0.145  10.700 -0.8959 -0.1098 -2.0276
 9401TIP3   OH252397   5.582   3.891  10.579  0.3101 -0.2678  0.5630
 9401TIP3    H152398   5.525   3.864  10.508  0.5827 -0.6222  0.4783
 9401TIP3    H252399   5.670   3.872  10.548  0.5119  0.7750  0.4768
 9402TIP3   OH252400   6.096   3.590   9.261 -0.5120  0.2966  0.1407
 9402TIP3    H152401   6.099   3.648   9.337  0.2008  0.2884  0.1226
 9402TIP3    H252402   6.139   3.640   9.191 -0.1844 -0.1270  0.0382
 9403TIP3   OH252403   4.730   2.701   9.643 -0.2204  0.1557  0.1206
 9403TIP3    H152404   4.750   2.783   9.688 -0.6743 -0.3857  1.3701
 9403TIP3    H252405   4.767   2.633   9.699  0.9640 -0.4823 -1.3608
 9404TIP3   OH252406   2.730   4.370  10.646 -0.6925  0.1076 -0.6667
 9404TIP3    H152407   2.732   4.387  10.552 -2.1695 -0.6026 -0.8663
 9404TIP3    H252408   2.786   4.293  10.659  1.1652  1.4016 -0.6273
 9405TIP3   OH252409   3.528   3.895  12.745  0.2176 -0.1217 -0.4418
 9405TIP3    H152410   3.533   3.987  12.771 -0.6633 -0.4609  1.0676
 9405TIP3    H252411   3.436   3.873  12.755  0.7876 -1.8383  1.8363
 9406TIP3   OH252412   2.707   1.529  10.821 -0.3782  0.1474  0.4709
 9406TIP3    H152413   2.677   1.439  10.810 -0.8011  0.2727  0.5924
 9406TIP3    H252414   2.772   1.523  10.892 -0.8892  0.0421  0.9307
 9407TIP3   OH252415   5.849   6.436   9.901 -0.6462 -0.3363 -0.0210
 9407TIP3    H152416   5.852   6.343   9.877 -2.0822 -0.3429 -0.3120
 9407TIP3    H252417   5.788   6.439   9.976  0.3794  0.2261  0.8122
 9408TIP3   OH252418   4.766   5.792   8.690  0.1115  0.1764 -0.1552
 9408TIP3    H152419   4.783   5.759   8.602  0.7129  0.6730 -0.2353
 9408TIP3    H252420   4.849   5.830   8.718  0.0633 -0.3956  0.8184
 9409TIP3   OH252421   4.113   4.758  11.632 -0.3640 -0.5012  0.2156
 9409TIP3    H152422   4.038   4.734  11.577  1.6009 -0.6847 -2.6183
 9409TIP3    H252423   4.166   4.815  11.576  1.7882 -0.6463  1.9687
 9410TIP3   OH252424   5.671   3.653  10.314 -0.9154 -0.7262  0.2901
 9410TIP3    H152425   5.736   3.630  10.248 -2.0320  0.2622 -1.2195
 9410TIP3    H252426   5.716   3.718  10.369 -0.8179  0.5096 -1.1777
 9411TIP3   OH252427   6.198   4.657   9.605 -0.3339 -0.1877  0.3497
 9411TIP3    H152428   6.243   4.651   9.521 -1.4973  0.1090 -0.3209
 9411TIP3    H252429   6.163   4.747   9.607 -0.9203 -0.4164  0.8259
 9412TIP3   OH252430   5.805   2.332   9.092  0.3196  0.7795 -0.3959
 9412TIP3    H152431   5.727   2.332   9.037  0.4142  0.2362 -0.5310
 9412TIP3    H252432   5.803   2.247   9.136 -0.0989  1.4573  0.9324
 9413TIP3   OH252433   5.671   1.201   9.499  0.2588 -0.2992  0.6852
 9413TIP3    H152434   5.670   1.120   9.550 -1.5290  0.4063  1.8521
 9413TIP3    H252435   5.728   1.259   9.549 -1.8417  0.5401  2.2219
 9414TIP3   OH252436   2.654   1.706  11.108  0.1864 -0.3709  0.2414
 9414TIP3    H152437   2.722   1.645  11.080  0.8440  0.6993 -0.5683
 9414TIP3    H252438   2.574   1.673  11.066  0.7289 -0.1218 -1.0302
 9415TIP3   OH252439   1.535   4.806  10.132 -0.2143  1.1624 -0.1869
 9415TIP3    H152440   1.602   4.748  10.097 -0.6048  0.2837  0.5152
 9415TIP3    H252441   1.553   4.810  10.226 -2.2961 -0.6806  0.3637
 9416TIP3   OH252442   2.445   4.821  12.216 -0.1989  0.6320 -0.3227
 9416TIP3    H152443   2.354   4.849  12.212 -1.4652 -2.9503 -0.2203
 9416TIP3    H252444   2.447   4.756  12.287  1.7658 -1.2323 -1.9323
 9417TIP3   OH252445   2.630   3.564   8.908 -0.4558 -0.0912 -0.1125
 9417TIP3    H152446   2.539   3.535   8.919 -0.6538  1.3544  3.0017
 9417TIP3    H252447   2.624   3.659   8.902  0.8452 -0.0127 -0.3949
 9418TIP3   OH252448   5.673   6.150  10.044 -0.5461 -0.3232 -0.3725
 9418TIP3    H152449   5.759   6.134  10.082 -0.2275 -0.7498 -1.2463
 9418TIP3    H252450   5.619   6.180  10.118  0.5933  0.8936 -0.0188
 9419TIP3   OH252451   6.419   6.425   9.790  0.4601 -0.3657  0.5506
 9419TIP3    H152452   6.466   6.383   9.717  1.0065  0.5522  0.3566
 9419TIP3    H252453   6.481   6.488   9.825 -0.7736  1.2206  0.0022
 9420TIP3   OH252454   2.503   0.652  11.479 -0.2624 -0.6900  0.1973
 9420TIP3    H152455   2.553   0.676  11.557 -0.3435  0.9295 -0.1982
 9420TIP3    H252456   2.422   0.703  11.487 -0.7331 -1.3294 -0.4116
 9421TIP3   OH252457   4.276   5.192  11.124  0.1842 -0.5663 -0.2097
 9421TIP3    H152458   4.264   5.142  11.044  0.0747 -1.2475  0.2204
 9421TIP3    H252459   4.368   5.180  11.146  0.5352  0.6859 -0.9175
 9422TIP3   OH252460   3.425   2.004  10.464 -0.0986  0.5677  0.1793
 9422TIP3    H152461   3.500   2.045  10.508 -0.6663 -0.0444  1.7971
 9422TIP3    H252462   3.362   2.075  10.456  0.0085  0.6904  0.3881
 9423TIP3   OH252463   3.180   1.622   8.807  0.2674  0.3313  0.1387
 9423TIP3    H152464   3.269   1.622   8.843  0.2297  0.1150  0.2315
 9423TIP3    H252465   3.126   1.661   8.876  0.0086 -1.1107  0.7837
 9424TIP3   OH252466   4.361   2.459   9.491 -0.5667  0.7877 -0.1203
 9424TIP3    H152467   4.301   2.441   9.563 -0.7264  1.7686  0.0065
 9424TIP3    H252468   4.394   2.548   9.509 -0.4605  0.9670 -1.1445
 9425TIP3   OH252469   3.348   5.044   8.439 -0.1110  0.0263 -0.1302
 9425TIP3    H152470   3.396   5.089   8.369  1.0009  0.4112  0.8517
 9425TIP3    H252471   3.402   4.967   8.458 -0.0682  0.2726  0.7508
 9426TIP3   OH252472   1.787   6.187  11.306  0.4247  0.7287 -0.3283
 9426TIP3    H152473   1.700   6.224  11.301  0.3652  0.4558 -1.7808
 9426TIP3    H252474   1.819   6.187  11.216  1.3680 -0.4665 -0.0344
 9427TIP3   OH252475   2.985   5.845   8.905  0.3715  0.2445  0.1686
 9427TIP3    H152476   2.970   5.939   8.893  1.2603  0.2484 -1.1511
 9427TIP3    H252477   2.927   5.804   8.841  0.4638 -0.0733  0.2875
 9428TIP3   OH252478   0.407   5.808   9.301 -0.0596  0.0854 -0.5583
 9428TIP3    H152479   0.475   5.819   9.367  0.4850 -1.3509 -0.8516
 9428TIP3    H252480   0.452   5.822   9.218 -0.6933  1.6618 -0.6864
 9429TIP3   OH252481   4.611   0.770   9.342  0.1984  0.0415 -0.5107
 9429TIP3    H152482   4.610   0.855   9.386 -1.5514 -0.7747  1.1207
 9429TIP3    H252483   4.685   0.776   9.281  1.6611  1.8377  1.3133
 9430TIP3   OH252484   3.471   0.053  11.234  0.1098  0.7007  0.3546
 9430TIP3    H152485   3.496   0.108  11.160 -1.2577 -0.2675 -0.8753
 9430TIP3    H252486   3.456  -0.033  11.196 -0.9111  0.2482  1.7122
 9431TIP3   OH252487   6.441   1.532  10.637 -0.2131  0.4165 -0.1756
 9431TIP3    H152488   6.510   1.488  10.588  1.5135 -0.3036  2.6509
 9431TIP3    H252489   6.388   1.460  10.673 -1.3233  0.9136 -0.7790
 9432TIP3   OH252490   3.787   0.657   9.739 -0.1888 -0.1533 -0.5242
 9432TIP3    H152491   3.801   0.733   9.794 -1.6970  0.5126 -1.0161
 9432TIP3    H252492   3.734   0.598   9.792 -1.2768  0.3039 -1.0708
 9433TIP3   OH252493   5.766   4.991  10.196  0.0357  0.4497 -0.2677
 9433TIP3    H152494   5.705   5.027  10.261 -2.2910 -0.4472 -1.8298
 9433TIP3    H252495   5.785   4.903  10.228  0.5823  0.7415  0.2374
 9434TIP3   OH252496   4.125   4.270  10.923  0.2718 -0.0000 -0.7243
 9434TIP3    H152497   4.063   4.213  10.967 -1.4055  1.6722 -0.8141
 9434TIP3    H252498   4.096   4.271  10.832  2.6048 -1.9628 -1.5998
 9435TIP3   OH252499   0.559   3.469  11.397 -0.2995  0.1057 -0.4512
 9435TIP3    H152500   0.581   3.407  11.328 -0.5882 -0.3277 -0.1545
 9435TIP3    H252501   0.643   3.507  11.423  0.1413 -1.5318  0.6755
 9436TIP3   OH252502   0.719   2.632  10.236  0.5312 -0.2068  0.2825
 9436TIP3    H152503   0.709   2.589  10.152 -0.1132  0.2383  0.1252
 9436TIP3    H252504   0.791   2.586  10.278  1.2412 -0.0722 -0.7424
 9437TIP3   OH252505   4.488   4.278  11.264  0.1633  0.3481 -0.5017
 9437TIP3    H152506   4.481   4.186  11.290 -0.8398  0.2556 -1.0548
 9437TIP3    H252507   4.568   4.309  11.307 -0.1875 -0.4245  0.7731
 9438TIP3   OH252508   5.372   2.323   8.287 -0.1082 -0.4193 -0.2064
 9438TIP3    H152509   5.329   2.292   8.207  2.4050 -2.0168 -1.0570
 9438TIP3    H252510   5.327   2.277   8.358 -0.3855 -1.3908 -0.9876
 9439TIP3   OH252511   3.210   2.237   9.550  0.1588  0.3667 -0.3297
 9439TIP3    H152512   3.273   2.261   9.617 -0.9503  0.9354  0.5374
 9439TIP3    H252513   3.126   2.265   9.585 -0.9396 -2.6369 -0.3061
 9440TIP3   OH252514   5.792   4.388  12.262 -0.1077  0.2562 -0.5914
 9440TIP3    H152515   5.868   4.331  12.244  0.3242  0.2825  1.0222
 9440TIP3    H252516   5.717   4.330  12.255  0.2831 -0.3965  0.4144
 9441TIP3   OH252517   1.828   0.410   9.681 -0.2432  0.2509  0.5214
 9441TIP3    H152518   1.870   0.324   9.674 -1.9392 -0.5059 -1.4583
 9441TIP3    H252519   1.898   0.469   9.708  1.0656 -1.6632  1.4914
 9442TIP3   OH252520   6.339   5.291   9.464 -0.8796 -0.4436 -0.5258
 9442TIP3    H152521   6.258   5.329   9.429 -0.1256  1.2190 -0.5444
 9442TIP3    H252522   6.407   5.352   9.440  0.1796 -1.0412  0.8038
 9443TIP3   OH252523   0.632   4.683  12.208 -0.2100  0.2163  0.1652
 9443TIP3    H152524   0.684   4.756  12.174  1.4789 -1.8198 -1.8763
 9443TIP3    H252525   0.570   4.664  12.138  0.5608 -1.3986 -0.1202
 9444TIP3   OH252526   2.233   5.684  11.475 -0.3288 -0.6568 -0.4658
 9444TIP3    H152527   2.165   5.623  11.502  0.7399 -1.6297  0.0738
 9444TIP3    H252528   2.199   5.770  11.501 -1.0864 -1.1832  0.3307
 9445TIP3   OH252529   3.599   4.611  11.595 -0.3725 -0.4715  0.4849
 9445TIP3    H152530   3.577   4.680  11.657  0.5251  1.0735 -0.8401
 9445TIP3    H252531   3.565   4.531  11.635 -3.5871  0.9928  0.9691
 9446TIP3   OH252532   0.122   0.978  20.093  0.7276  0.1644 -0.3794
 9446TIP3    H152533   0.208   1.005  20.124  0.7070  1.1842 -1.1627
 9446TIP3    H252534   0.140   0.902  20.038  0.8480 -1.1374  1.3451
 9447TIP3   OH252535   3.180   6.510  10.946  0.3606  0.3618 -0.7910
 9447TIP3    H152536   3.154   6.470  10.864  2.4180  0.9872 -1.8306
 9447TIP3    H252537   3.173   6.604  10.930 -1.3860  0.5220  0.5613
 9448TIP3   OH252538   0.913   1.758   9.898  0.2237 -0.6754  0.2554
 9448TIP3    H152539   0.897   1.672   9.937  0.0331 -0.5452  0.4638
 9448TIP3    H252540   0.910   1.819   9.972  0.1610 -0.4645  0.0791
 9449TIP3   OH252541   1.686   1.377   8.984  0.1844  0.2809  0.4083
 9449TIP3    H152542   1.724   1.425   8.910 -0.2615  0.0538  0.0254
 9449TIP3    H252543   1.748   1.390   9.055 -0.3006  2.0812  0.5598
 9450TIP3   OH252544   3.322   5.457  10.370 -0.6283  0.5049 -0.2595
 9450TIP3    H152545   3.395   5.505  10.331 -1.7705  2.2605 -0.3696
 9450TIP3    H252546   3.355   5.427  10.454  0.8815 -0.6160 -1.2099
 9451TIP3   OH252547   1.835   4.557  10.559  0.2647  0.3719  0.0626
 9451TIP3    H152548   1.854   4.646  10.588  1.1315  0.5259 -0.9195
 9451TIP3    H252549   1.921   4.517  10.548 -0.0725 -0.1222 -0.8891
 9452TIP3   OH252550   1.517   5.756  11.245 -0.2813  0.1333 -0.3882
 9452TIP3    H152551   1.427   5.725  11.238 -0.2773  0.3460 -1.6485
 9452TIP3    H252552   1.516   5.841  11.201  0.2416  0.8199  0.8527
 9453TIP3   OH252553   5.758   6.403  10.658 -0.3363  0.2257  0.0605
 9453TIP3    H152554   5.837   6.431  10.613 -1.3400  0.2570 -1.7814
 9453TIP3    H252555   5.701   6.479  10.656 -1.4576 -0.5968 -1.1641
 9454TIP3   OH252556   4.435   1.813  10.853  0.3658  1.1896 -1.0299
 9454TIP3    H152557   4.389   1.746  10.803  0.4612  1.2457 -1.1954
 9454TIP3    H252558   4.525   1.781  10.858 -0.1161 -0.0359  1.2200
 9455TIP3   OH252559   6.317   0.111   9.765  0.4736  0.2897  0.3960
 9455TIP3    H152560   6.294   0.041   9.703  0.8456 -0.8523  1.5159
 9455TIP3    H252561   6.370   0.068   9.831 -0.0110  1.4602  1.5880
 9456TIP3   OH252562   2.834   3.776  10.689 -0.4967  0.6537  0.4867
 9456TIP3    H152563   2.747   3.767  10.651 -0.0224  0.9494 -0.7105
 9456TIP3    H252564   2.893   3.743  10.622  0.4226  1.8174  0.6960
 9457TIP3   OH252565   4.392   4.250  10.958 -0.7720  1.0291  0.0579
 9457TIP3    H152566   4.301   4.277  10.944 -1.1580 -0.1313  0.2358
 9457TIP3    H252567   4.386   4.173  11.015  0.2415  0.2519 -0.8366
 9458TIP3   OH252568   4.216   0.651   9.951  0.0071  0.3963  0.1151
 9458TIP3    H152569   4.254   0.625  10.035  3.7061  0.7772 -1.2802
 9458TIP3    H252570   4.191   0.568   9.909  2.5683 -0.2710 -0.2590
 9459TIP3   OH252571   6.629   2.232   9.319 -0.0750 -0.5941 -0.2318
 9459TIP3    H152572   6.549   2.183   9.302 -0.5936  1.0813 -3.2506
 9459TIP3    H252573   6.687   2.208   9.247  1.4798 -0.3488  0.8882
 9460TIP3   OH252574   0.437   6.252   8.846  0.1225  0.5815 -0.9759
 9460TIP3    H152575   0.390   6.213   8.920  1.4281  2.2542  0.8414
 9460TIP3    H252576   0.524   6.212   8.848  0.2607  0.8429 -1.4463
 9461TIP3   OH252577   5.841   3.166   8.854 -0.3831 -0.1812 -0.0554
 9461TIP3    H152578   5.894   3.088   8.871  0.9192  0.8099  0.6202
 9461TIP3    H252579   5.881   3.206   8.777  1.4085  1.8115  1.7882
 9462TIP3   OH252580   5.750   6.643   9.179 -0.0447  0.2088  0.2281
 9462TIP3    H152581   5.720   6.560   9.142 -0.2536  0.4157 -0.0722
 9462TIP3    H252582   5.835   6.623   9.217  0.3981  0.0938 -0.7884
 9463TIP3   OH252583   5.345   0.626  11.967  0.3882 -0.0125 -0.2199
 9463TIP3    H152584   5.407   0.586  12.028  0.5295  1.6189  0.7835
 9463TIP3    H252585   5.265   0.637  12.017  0.8903  2.5125  0.1825
 9464TIP3   OH252586   4.747   1.878  10.826  0.3863 -0.2432 -0.0710
 9464TIP3    H152587   4.711   1.897  10.913 -0.7152 -1.3501 -0.2678
 9464TIP3    H252588   4.746   1.963  10.781 -1.4859 -0.1157  0.1312
 9465TIP3   OH252589   3.316   3.257   9.752  0.0397 -0.0078 -0.6153
 9465TIP3    H152590   3.279   3.339   9.719  1.0935 -0.4837 -3.2787
 9465TIP3    H252591   3.243   3.195   9.748 -0.4741  0.5115  0.3471
 9466TIP3   OH252592   6.364   4.737   9.309 -0.1176  0.0838 -0.1786
 9466TIP3    H152593   6.435   4.683   9.274 -0.1411  0.2536 -0.4852
 9466TIP3    H252594   6.408   4.799   9.367 -0.1467 -0.6249  0.6250
 9467TIP3   OH252595   3.887   4.419   9.766  0.0730  0.6166  0.0767
 9467TIP3    H152596   3.953   4.388   9.703  2.0236  0.5624  2.0051
 9467TIP3    H252597   3.853   4.500   9.728  2.1972  1.3275 -0.4448
 9468TIP3   OH252598   5.910   3.077  10.116 -0.0845 -0.2886  0.4369
 9468TIP3    H152599   5.956   3.149  10.159 -1.0906 -0.7237  2.3261
 9468TIP3    H252600   5.847   3.119  10.058 -0.2219  0.3421  1.0451
 9469TIP3   OH252601   4.366   6.347  11.568  0.8565  0.3348  0.2416
 9469TIP3    H152602   4.365   6.375  11.659 -0.0323  0.4999  0.1899
 9469TIP3    H252603   4.454   6.312  11.554  2.1682  3.3482  0.2230
 9470TIP3   OH252604   1.285   4.827   8.898 -0.6013 -0.0694 -0.1194
 9470TIP3    H152605   1.235   4.901   8.932  0.2363  1.3882 -1.8918
 9470TIP3    H252606   1.341   4.800   8.971 -1.1190  0.8575  0.6422
 9471TIP3   OH252607   4.003   3.367  10.539 -0.1458  0.1645  0.0034
 9471TIP3    H152608   4.037   3.291  10.586  0.6885  1.0530  0.8621
 9471TIP3    H252609   3.918   3.338  10.507 -0.2122 -0.8694  1.0282
 9472TIP3   OH252610   1.068   6.107   9.411 -0.0636  0.1654 -0.3523
 9472TIP3    H152611   1.085   6.032   9.354  1.5365  0.7325 -0.6681
 9472TIP3    H252612   0.973   6.117   9.410 -0.1254 -0.1710 -2.4820
 9473TIP3   OH252613   2.300   2.121  10.921  0.6297 -0.2371 -0.5065
 9473TIP3    H152614   2.367   2.055  10.940 -1.0044 -2.5399 -2.1996
 9473TIP3    H252615   2.298   2.176  10.999  3.5708 -0.8203  0.1139
 9474TIP3   OH252616   3.250   0.980   9.219  0.1167 -0.1804 -0.0103
 9474TIP3    H152617   3.247   1.064   9.173 -3.1368 -0.7036 -1.0829
 9474TIP3    H252618   3.207   0.997   9.303 -0.2929 -0.6760 -0.1136
 9475TIP3   OH252619   3.096   0.361  12.202  0.2071 -0.2390  0.1016
 9475TIP3    H152620   3.082   0.351  12.296 -0.2712  1.7984  0.2952
 9475TIP3    H252621   3.185   0.330  12.187  0.1251 -1.0187  1.1341
 9476TIP3   OH252622   6.253   5.308  10.067  0.0321  0.6689 -0.4139
 9476TIP3    H152623   6.182   5.270  10.015  0.0453 -1.1640  0.7884
 9476TIP3    H252624   6.333   5.284  10.021 -0.0566  2.5884 -1.6780
 9477TIP3   OH252625   2.093   3.212  11.146  0.1403 -0.1086 -0.3100
 9477TIP3    H152626   2.096   3.167  11.061  0.5192 -0.9896  0.1515
 9477TIP3    H252627   2.165   3.173  11.196 -1.0590 -0.7609  0.9708
 9478TIP3   OH252628   0.700   3.133   8.477 -0.3118 -0.0072  0.1161
 9478TIP3    H152629   0.656   3.184   8.410 -0.9527  1.0140  1.2725
 9478TIP3    H252630   0.749   3.197   8.529  0.4711 -0.8136  0.4125
 9479TIP3   OH252631   3.481   3.550  10.555 -0.3680 -0.1065  0.4457
 9479TIP3    H152632   3.437   3.596  10.626  0.4941  1.5397 -0.0321
 9479TIP3    H252633   3.571   3.581  10.559 -0.3258  0.1059 -1.4386
 9480TIP3   OH252634   1.015   4.089  11.183  0.0515 -0.3014  0.1345
 9480TIP3    H152635   1.000   4.104  11.276 -0.2219 -1.4172  0.2798
 9480TIP3    H252636   1.017   4.177  11.145  1.1951  0.2451  1.3362
 9481TIP3   OH252637   4.705   4.568  10.626 -0.1149  0.4629  0.0838
 9481TIP3    H152638   4.741   4.653  10.601  1.5280 -0.5214 -1.1442
 9481TIP3    H252639   4.757   4.541  10.702  0.3117 -0.0139 -0.3650
 9482TIP3   OH252640   6.410   0.047  10.026  0.0605 -0.0333 -0.1596
 9482TIP3    H152641   6.469  -0.010  10.075 -0.3050 -0.6317 -0.4071
 9482TIP3    H252642   6.461   0.126  10.010  1.9598 -1.6631 -3.0540
 9483TIP3   OH252643   4.093   1.586  10.808 -0.3149  0.6087  0.0096
 9483TIP3    H152644   4.142   1.583  10.726 -0.5906 -2.1906 -0.1288
 9483TIP3    H252645   4.159   1.604  10.875  0.3173  0.4168 -0.5480
 9484TIP3   OH252646   2.667   2.048  11.374  0.4930 -0.2467 -0.0259
 9484TIP3    H152647   2.588   2.003  11.345 -1.8190  2.8066  0.9902
 9484TIP3    H252648   2.642   2.087  11.458  3.0128  1.0503  0.2028
 9485TIP3   OH252649   4.850   1.966  11.857  0.2690 -0.6636 -0.3851
 9485TIP3    H152650   4.895   1.897  11.906  1.6576 -2.5105 -3.9191
 9485TIP3    H252651   4.913   2.038  11.854  0.9821 -1.2923 -1.0101
 9486TIP3   OH252652   4.963   5.549   9.839 -0.2403 -0.3806 -0.4002
 9486TIP3    H152653   4.921   5.583   9.918 -0.6316 -1.6271 -0.0583
 9486TIP3    H252654   4.947   5.455   9.841 -1.1668 -0.3266 -2.4986
 9487TIP3   OH252655   3.554   1.277  11.052 -0.9170  0.1938 -0.7004
 9487TIP3    H152656   3.600   1.240  10.976 -2.7633 -1.1651 -1.2403
 9487TIP3    H252657   3.556   1.371  11.038 -1.5209 -0.0423 -2.6699
 9488TIP3   OH252658   2.324   5.442  12.728  0.4314  0.6314 -0.1458
 9488TIP3    H152659   2.260   5.505  12.695 -0.8670 -0.0588  0.9349
 9488TIP3    H252660   2.280   5.401  12.803  2.6836  1.1000  1.5185
 9489TIP3   OH252661   1.291   2.218  12.042  0.1093  0.1357 -0.5169
 9489TIP3    H152662   1.325   2.307  12.039  1.3623 -0.1910  1.5901
 9489TIP3    H252663   1.206   2.222  11.998  0.9483  1.9506 -2.0463
 9490TIP3   OH252664   1.931   3.293   8.720 -0.6317  0.7064  0.2894
 9490TIP3    H152665   1.905   3.201   8.724  0.5866  0.3750  0.8924
 9490TIP3    H252666   1.853   3.341   8.746 -1.3487 -0.1364 -0.2477
 9491TIP3   OH252667   0.412   4.228  10.631  0.4568 -0.6668  0.0021
 9491TIP3    H152668   0.491   4.193  10.672  0.0101  0.0155  1.5218
 9491TIP3    H252669   0.443   4.302  10.579  0.6900  0.7376  2.0025
 9492TIP3   OH252670   4.256   6.302   9.282  0.3225 -0.4506  0.6699
 9492TIP3    H152671   4.258   6.254   9.199  0.0407 -0.5210  0.7026
 9492TIP3    H252672   4.272   6.393   9.258 -0.1028 -0.4205  0.4987
 9493TIP3   OH252673   1.814   4.946  10.229  0.7235 -0.0091  0.3167
 9493TIP3    H152674   1.826   5.013  10.297  0.6884  1.9516 -1.4967
 9493TIP3    H252675   1.756   4.882  10.269 -0.5443  1.8553  1.6618
 9494TIP3   OH252676   5.693   0.467   9.986  0.4397 -0.0578  0.1907
 9494TIP3    H152677   5.698   0.561   9.971 -0.2276  0.2785  1.8645
 9494TIP3    H252678   5.624   0.437   9.926 -0.2286  0.7399  0.5422
 9495TIP3   OH252679   3.583   0.209  11.437  0.4087  0.0344 -0.0522
 9495TIP3    H152680   3.534   0.167  11.366  0.4820  0.4578 -0.3601
 9495TIP3    H252681   3.617   0.136  11.488  0.1802 -0.2772 -0.3318
 9496TIP3   OH252682   2.817   3.342  13.005 -0.9526 -0.0564 -0.0677
 9496TIP3    H152683   2.787   3.425  12.969  0.6727  1.5844  2.0678
 9496TIP3    H252684   2.890   3.316  12.948 -1.8801 -0.3896 -1.1232
 9497TIP3   OH252685   0.738   2.956  10.208  0.4605  0.5021 -0.6603
 9497TIP3    H152686   0.761   2.906  10.130  0.9502  2.0921 -1.5920
 9497TIP3    H252687   0.644   2.971  10.200 -0.0155 -1.5800  0.4618
 9498TIP3   OH252688   3.079   4.656   9.538  0.0914 -0.4322 -0.1535
 9498TIP3    H152689   3.036   4.658   9.623 -1.5412 -0.0644 -0.9579
 9498TIP3    H252690   3.133   4.735   9.537 -0.7440  0.1564  0.1267
 9499TIP3   OH252691   3.033   4.866  12.627 -0.6480 -0.5294  0.0339
 9499TIP3    H152692   2.961   4.809  12.654 -0.5178 -0.3904  0.6709
 9499TIP3    H252693   3.000   4.955  12.639 -0.2025 -0.4617  0.7900
 9500TIP3   OH252694   5.526   3.155   9.142  1.0377 -0.1535 -0.4069
 9500TIP3    H152695   5.470   3.207   9.199  0.8663 -0.2978 -0.4430
 9500TIP3    H252696   5.470   3.130   9.069  1.1959 -0.1566 -0.5292
 9501TIP3   OH252697   6.171   0.274  10.148 -0.0360 -0.1204 -0.0556
 9501TIP3    H152698   6.111   0.203  10.175 -0.4000 -0.8874 -2.6469
 9501TIP3    H252699   6.118   0.328  10.090  1.1763  0.4599 -0.6359
 9502TIP3   OH252700   1.867   2.334  10.506  0.1831 -0.0369  0.3131
 9502TIP3    H152701   1.811   2.402  10.543 -2.1217 -1.0714 -1.0719
 9502TIP3    H252702   1.887   2.277  10.581  1.6676  1.7497  1.3653
 9503TIP3   OH252703   5.740   6.443   9.445 -0.3044  0.4578  0.0117
 9503TIP3    H152704   5.689   6.389   9.505 -1.6829  0.7211 -0.8652
 9503TIP3    H252705   5.811   6.477   9.498  0.4755 -1.9658  0.6786
 9504TIP3   OH252706   5.334   3.721   9.206 -0.2628  0.0502  0.2717
 9504TIP3    H152707   5.281   3.798   9.184  2.0845  1.2428 -1.7666
 9504TIP3    H252708   5.368   3.741   9.294  0.1583  1.2877 -0.1482
 9505TIP3   OH252709   1.278   3.878  10.284 -0.0010  0.0154  0.5838
 9505TIP3    H152710   1.316   3.924  10.210 -0.0995  0.4166  0.7808
 9505TIP3    H252711   1.189   3.912  10.291 -0.0865 -0.2276  0.7131
 9506TIP3   OH252712   2.293   6.392  10.643  0.2849 -0.0065  0.0066
 9506TIP3    H152713   2.326   6.304  10.661 -1.0230 -0.5034  0.1274
 9506TIP3    H252714   2.277   6.429  10.730 -2.4355 -0.9880  0.0317
 9507TIP3   OH252715   2.776   5.030  10.358 -0.4839  0.9809  0.1352
 9507TIP3    H152716   2.807   4.940  10.351 -2.1055  0.2645  1.3586
 9507TIP3    H252717   2.841   5.082  10.311  1.1521 -0.6730  0.4422
 9508TIP3   OH252718   5.452   5.136   9.164 -0.2546 -0.6614 -0.1621
 9508TIP3    H152719   5.493   5.103   9.084  0.0580 -0.2525 -0.1738
 9508TIP3    H252720   5.522   5.184   9.209 -0.1609 -1.6591  0.8256
 9509TIP3   OH252721   4.756   3.164  11.774 -0.2960  0.3946  0.3519
 9509TIP3    H152722   4.668   3.149  11.810  0.2486 -1.0550  1.1743
 9509TIP3    H252723   4.803   3.082  11.791  0.4807  0.2187 -2.3070
 9510TIP3   OH252724   0.471   0.024  11.668 -0.2378 -0.4710 -0.4891
 9510TIP3    H152725   0.557   0.045  11.705 -1.1921  1.8163  0.6332
 9510TIP3    H252726   0.482  -0.064  11.632  3.0038  0.3079 -1.8190
 9511TIP3   OH252727   3.320   4.729  11.450  0.2846 -0.5694 -0.4226
 9511TIP3    H152728   3.294   4.641  11.421  1.0733 -1.2961  0.9590
 9511TIP3    H252729   3.293   4.733  11.541  0.9305  0.3369 -0.2593
 9512TIP3   OH252730   3.833   1.221  10.691 -0.4725 -0.1914  0.8934
 9512TIP3    H152731   3.902   1.274  10.732 -0.3136 -0.8917  1.5611
 9512TIP3    H252732   3.752   1.265  10.717 -0.3394 -0.1934  1.3318
 9513TIP3   OH252733   5.496   1.571   8.517  0.2369  0.1607 -0.2102
 9513TIP3    H152734   5.564   1.504   8.524  1.2671  0.8532 -2.6699
 9513TIP3    H252735   5.509   1.626   8.595  2.3751  0.1319 -0.4935
 9514TIP3   OH252736   5.199   5.589  11.546 -0.1334 -0.0926  0.1477
 9514TIP3    H152737   5.148   5.635  11.613  1.1211  0.2984  0.8727
 9514TIP3    H252738   5.278   5.560  11.592 -0.2240 -1.7195 -0.6497
 9515TIP3   OH252739   6.580   5.676   9.451  0.6019  0.3630  0.1419
 9515TIP3    H152740   6.502   5.682   9.507  1.8436  5.0779  1.8354
 9515TIP3    H252741   6.635   5.611   9.494 -1.1137 -0.8180  0.6689
 9516TIP3   OH252742   5.427   1.238   8.468  0.0151  0.2481  0.4176
 9516TIP3    H152743   5.455   1.324   8.439  0.4789 -0.0559 -0.0625
 9516TIP3    H252744   5.495   1.179   8.437 -0.9626 -0.4673 -0.4580
 9517TIP3   OH252745   6.319   5.105  10.301  0.4652 -0.1201  0.0175
 9517TIP3    H152746   6.229   5.084  10.276 -0.0498 -0.2832  1.9106
 9517TIP3    H252747   6.354   5.152  10.225 -1.5504  0.9121 -0.3414
 9518TIP3   OH252748   1.064   3.455   9.063  0.3117 -1.0654 -0.3262
 9518TIP3    H152749   1.029   3.408   8.987 -1.1099 -0.1670 -0.2700
 9518TIP3    H252750   1.092   3.540   9.028 -1.0034 -0.3682  0.2215
 9519TIP3   OH252751   2.353   3.932   9.378 -0.1661  0.1815  0.4795
 9519TIP3    H152752   2.435   3.899   9.342  0.3710  1.0385  0.8704
 9519TIP3    H252753   2.287   3.907   9.314  0.0919 -2.1068  1.0107
 9520TIP3   OH252754   6.575   2.718   9.659 -0.4024  0.1343 -0.3955
 9520TIP3    H152755   6.531   2.639   9.627 -0.2012 -1.1832  2.2841
 9520TIP3    H252756   6.542   2.729   9.748  1.2346  1.8163  0.0587
 9521TIP3   OH252757   3.678   3.125  11.556 -0.0975  0.4686  0.1469
 9521TIP3    H152758   3.719   3.040  11.576 -2.0324 -0.6421 -0.3692
 9521TIP3    H252759   3.651   3.159  11.641  0.9259  0.7376  0.3858
 9522TIP3   OH252760   0.047   4.741  10.486  0.0394  0.1087 -0.3174
 9522TIP3    H152761   0.037   4.833  10.462 -0.8175  0.2161  0.3989
 9522TIP3    H252762   0.095   4.701  10.413 -0.0285  1.0107 -0.8571
 9523TIP3   OH252763   2.645   0.098  10.980 -0.2161  0.1908  0.2050
 9523TIP3    H152764   2.727   0.119  10.937 -0.7614  0.6480 -0.6507
 9523TIP3    H252765   2.649   0.142  11.065  0.1776  0.7067 -0.0781
 9524TIP3   OH252766   4.629   1.513  10.664  0.3291  0.5397  0.2375
 9524TIP3    H152767   4.694   1.514  10.734  1.0348 -0.7519 -0.3683
 9524TIP3    H252768   4.675   1.476  10.589 -0.4342  1.8008 -0.9072
 9525TIP3   OH252769   2.441   2.825  10.078 -0.2423 -0.2494 -0.3312
 9525TIP3    H152770   2.392   2.777  10.146 -0.1071 -0.0032 -0.0561
 9525TIP3    H252771   2.398   2.800   9.996 -0.3167 -0.6629 -0.1711
 9526TIP3   OH252772   1.944   3.462   9.238  0.3910 -0.3687 -0.7489
 9526TIP3    H152773   1.866   3.421   9.276  0.2080 -0.6040 -1.3757
 9526TIP3    H252774   2.017   3.420   9.284  0.1525  2.0032  2.0954
 9527TIP3   OH252775   1.965   5.042  11.928 -0.0120 -0.1191 -0.2332
 9527TIP3    H152776   1.892   5.103  11.940  0.7152  0.2045  3.9344
 9527TIP3    H252777   1.959   4.983  12.003  2.9730 -1.2101 -0.7489
 9528TIP3   OH252778   1.311   6.636  10.252  0.0017  0.3679 -0.4642
 9528TIP3    H152779   1.222   6.603  10.266  0.4340 -1.1659 -1.1487
 9528TIP3    H252780   1.333   6.680  10.335 -0.8091 -0.6229  0.3100
 9529TIP3   OH252781   1.051   0.622  10.091 -0.0473  0.0103 -0.3373
 9529TIP3    H152782   1.094   0.603  10.174  1.9463  0.4191 -1.2303
 9529TIP3    H252783   1.015   0.710  10.102 -0.0403 -0.0509  0.1785
 9530TIP3   OH252784   5.107   3.591  11.331  0.4417  0.5531  0.2473
 9530TIP3    H152785   5.125   3.661  11.267 -0.6025 -0.4729 -1.2291
 9530TIP3    H252786   5.138   3.511  11.288 -0.0899 -0.1394  1.1300
 9531TIP3   OH252787   0.517   0.612  10.503  0.5059 -0.1338 -0.3671
 9531TIP3    H152788   0.548   0.548  10.567 -0.2255 -1.0018 -0.8632
 9531TIP3    H252789   0.518   0.695  10.550  0.9494 -0.5960  0.4566
 9532TIP3   OH252790   1.712   1.220  10.785  0.4246 -0.6613 -0.0389
 9532TIP3    H152791   1.652   1.229  10.859  0.5757 -0.7484  0.0959
 9532TIP3    H252792   1.701   1.129  10.756  3.6736 -2.2354  2.8067
 9533TIP3   OH252793   1.006   6.258   9.759 -0.1932 -0.3744 -0.1866
 9533TIP3    H152794   0.915   6.265   9.789 -0.6161 -0.9458 -1.3042
 9533TIP3    H252795   1.031   6.349   9.739 -1.0697 -0.3786 -1.4158
 9534TIP3   OH252796   3.452   0.470  11.467 -0.2903  0.7319  0.3227
 9534TIP3    H152797   3.496   0.392  11.434  0.5836  0.5064  1.9253
 9534TIP3    H252798   3.363   0.442  11.484 -0.9528  1.0019 -2.2633
 9535TIP3   OH252799   5.355   2.293  10.838  0.1123  0.2022  0.1587
 9535TIP3    H152800   5.389   2.326  10.755  0.1370  0.4511  0.2664
 9535TIP3    H252801   5.393   2.205  10.846  0.3241  0.2809  0.0347
 9536TIP3   OH252802   2.749   6.629  11.656 -0.2568 -0.3421  0.1115
 9536TIP3    H152803   2.718   6.631  11.746 -0.9791 -0.4810 -0.1263
 9536TIP3    H252804   2.712   6.708  11.616  0.7037  0.1324  0.1394
 9537TIP3   OH252805   6.279   0.211  10.716 -0.1890 -0.1115  0.0551
 9537TIP3    H152806   6.218   0.202  10.789 -1.7160  0.8603 -1.0204
 9537TIP3    H252807   6.281   0.305  10.698 -0.6817 -0.4185 -1.8006
 9538TIP3   OH252808   2.796   0.369  10.226  0.1741 -0.2594  0.0868
 9538TIP3    H152809   2.778   0.297  10.286  0.8312 -0.4506  0.0677
 9538TIP3    H252810   2.863   0.335  10.167  0.3461  0.3023 -0.0536
 9539TIP3   OH252811   3.440   6.530   9.815  0.2090 -0.1336 -0.1364
 9539TIP3    H152812   3.504   6.600   9.805  0.9981 -1.1019 -2.3029
 9539TIP3    H252813   3.360   6.565   9.776 -0.7333  1.1036  2.6354
 9540TIP3   OH252814   3.874   1.913  11.432  0.5445  0.4309 -0.1609
 9540TIP3    H152815   3.896   1.884  11.520  1.3233 -0.6120 -0.6665
 9540TIP3    H252816   3.856   2.006  11.440 -0.9790  0.0457  1.3667
 9541TIP3   OH252817   0.956   1.233  11.520 -0.0203 -0.6818 -0.0492
 9541TIP3    H152818   0.976   1.311  11.572 -0.3253 -0.1861 -0.6716
 9541TIP3    H252819   1.026   1.172  11.541  0.9221  0.2163 -0.5198
 9542TIP3   OH252820   6.228   5.605  11.437 -0.1741 -0.4781 -0.2236
 9542TIP3    H152821   6.174   5.683  11.419 -1.4326 -1.6185 -1.7007
 9542TIP3    H252822   6.206   5.545  11.366  1.2425 -1.9550  0.5447
 9543TIP3   OH252823   0.357   2.255   9.191  0.6184  0.2397  0.2907
 9543TIP3    H152824   0.429   2.191   9.192  0.0806 -0.3709  0.5923
 9543TIP3    H252825   0.400   2.339   9.174  1.3214 -0.2251 -0.3175
 9544TIP3   OH252826   4.636   6.048   8.702  0.1957  0.2772 -0.3142
 9544TIP3    H152827   4.686   5.969   8.719  0.2019  0.4229  0.3974
 9544TIP3    H252828   4.544   6.019   8.700  0.2841  0.0416 -1.4292
 9545TIP3   OH252829   1.789   4.121   8.806 -0.2850 -0.0242  0.7955
 9545TIP3    H152830   1.805   4.039   8.759  0.8531 -0.5593  2.0506
 9545TIP3    H252831   1.770   4.185   8.737 -2.2825 -1.5367 -0.1536
 9546TIP3   OH252832   2.449   5.452   8.795  0.3573 -0.1961  0.1552
 9546TIP3    H152833   2.504   5.445   8.717  0.1131 -0.0778 -0.0312
 9546TIP3    H252834   2.361   5.465   8.760  0.3605  0.7304  0.4591
 9547TIP3   OH252835   2.848   3.713   9.291  0.0969 -0.4079 -0.5730
 9547TIP3    H152836   2.839   3.782   9.358  0.5341 -1.6187  0.7859
 9547TIP3    H252837   2.886   3.758   9.215  0.4673  0.8317  0.3105
 9548TIP3   OH252838   2.907   5.826  12.059 -0.0796 -0.4184 -0.2824
 9548TIP3    H152839   2.935   5.801  12.146  2.7716  2.6619 -0.0872
 9548TIP3    H252840   2.828   5.879  12.073  1.1312  1.2205  0.6771
 9549TIP3   OH252841   0.158   5.635  11.913  0.2355  0.0880  0.4382
 9549TIP3    H152842   0.104   5.556  11.905  0.6991 -0.1416 -0.5422
 9549TIP3    H252843   0.097   5.702  11.946 -0.4660 -0.3541  0.0659
 9550TIP3   OH252844   6.562   5.085   8.656 -0.7447 -0.6519 -0.1012
 9550TIP3    H152845   6.600   5.006   8.694 -0.5872 -0.5685 -0.0867
 9550TIP3    H252846   6.470   5.082   8.683 -0.6215 -0.5666  0.3310
 9551TIP3   OH252847   0.796   3.762  11.915  0.4688 -0.1991 -0.3027
 9551TIP3    H152848   0.736   3.794  11.982  1.8535 -0.3856  1.0581
 9551TIP3    H252849   0.883   3.774  11.952  1.3963  1.1648 -2.7053
 9552TIP3   OH252850   6.150   0.101   8.387 -0.0659  0.3380  0.2099
 9552TIP3    H152851   6.204   0.180   8.393  1.7030 -0.9061  1.3640
 9552TIP3    H252852   6.166   0.068   8.299 -2.6651  2.4406 -1.2007
 9553TIP3   OH252853   4.334   2.536   8.582  0.4232  0.0431  0.4392
 9553TIP3    H152854   4.378   2.616   8.555  1.7029 -0.9643 -0.6184
 9553TIP3    H252855   4.300   2.555   8.670  0.3159  1.8557  0.0428
 9554TIP3   OH252856   2.563   1.977  10.907  0.0398  0.3519 -0.1088
 9554TIP3    H152857   2.651   1.960  10.941  0.1211  0.5592 -0.2177
 9554TIP3    H252858   2.567   1.950  10.815  0.4189  1.7495 -0.5296
 9555TIP3   OH252859   2.726   6.370  12.265 -0.0141  0.1953  0.0824
 9555TIP3    H152860   2.757   6.416  12.187 -0.2854  0.7136  0.2777
 9555TIP3    H252861   2.649   6.419  12.293  0.2353  0.1681  0.8292
 9556TIP3   OH252862   2.307   6.600  10.453 -0.6115  0.3266  0.6817
 9556TIP3    H152863   2.328   6.520  10.501  0.8342  0.1515 -0.1962
 9556TIP3    H252864   2.255   6.652  10.515 -2.2264 -1.5753  1.0047
 9557TIP3   OH252865   4.182   1.177  11.210 -0.0398  0.1377 -0.6706
 9557TIP3    H152866   4.142   1.103  11.165 -0.9973  0.9505 -1.1964
 9557TIP3    H252867   4.180   1.248  11.147  3.7809 -0.1497 -1.3431
 9558TIP3   OH252868   1.998   4.409   9.147  0.0477  0.0331 -0.7829
 9558TIP3    H152869   2.020   4.401   9.240 -0.4963  0.7296 -0.5821
 9558TIP3    H252870   1.959   4.325   9.125 -1.5065  0.4536  0.1208
 9559TIP3   OH252871   2.121   5.316   9.383 -0.4216 -0.7213 -0.3323
 9559TIP3    H152872   2.206   5.329   9.340 -0.1875 -1.1838 -0.0106
 9559TIP3    H252873   2.108   5.221   9.384 -1.0928 -0.6418 -0.6594
 9560TIP3   OH252874   2.844   6.006   9.175 -0.1301  0.0915  0.3630
 9560TIP3    H152875   2.890   5.928   9.207 -0.1933  0.8027  2.3274
 9560TIP3    H252876   2.892   6.032   9.096  1.8560 -0.1180  1.4373
 9561TIP3   OH252877   1.866   3.246  10.000 -0.1985 -0.6830  0.2924
 9561TIP3    H152878   1.787   3.209  10.038 -0.2214  1.4885  2.6845
 9561TIP3    H252879   1.835   3.307   9.933 -0.7272  0.7646  1.7666
 9562TIP3   OH252880   0.634   2.288  10.319  0.1660 -0.2902  0.2013
 9562TIP3    H152881   0.687   2.365  10.300 -0.7860  0.0501 -1.2591
 9562TIP3    H252882   0.544   2.316  10.302 -0.1715 -1.8075 -0.7548
 9563TIP3   OH252883   4.701   4.396  11.402 -0.3192  0.5637  0.0274
 9563TIP3    H152884   4.778   4.439  11.365 -1.5550  1.4671 -1.6305
 9563TIP3    H252885   4.710   4.408  11.497  2.1587 -0.4246 -0.0185
 9564TIP3   OH252886   3.156   2.245  12.185 -0.1520  0.0451 -0.7512
 9564TIP3    H152887   3.220   2.174  12.181  0.3170  0.5138 -2.1499
 9564TIP3    H252888   3.171   2.287  12.270  0.0270 -1.0903 -0.2079
 9565TIP3   OH252889   2.560   3.243  13.134  0.3742  0.0208  0.2900
 9565TIP3    H152890   2.650   3.254  13.103  0.0802  1.0384 -0.2431
 9565TIP3    H252891   2.513   3.208  13.059  0.8506 -3.3231  1.3591
 9566TIP3   OH252892   3.383   5.017   8.791  0.3813  0.0732 -0.1931
 9566TIP3    H152893   3.466   5.015   8.744  0.9343  0.4011  0.7540
 9566TIP3    H252894   3.402   5.063   8.872 -1.0552  1.5250 -0.6173
 9567TIP3   OH252895   1.591   0.782   9.207  0.3619  0.4205  0.0074
 9567TIP3    H152896   1.528   0.748   9.270  0.8818  1.1853  0.9520
 9567TIP3    H252897   1.554   0.866   9.179  0.1559  0.1074 -0.6880
 9568TIP3   OH252898   4.358   1.588  10.705  0.3407  0.7332  0.0969
 9568TIP3    H152899   4.448   1.557  10.720 -0.0039 -0.1672  0.3802
 9568TIP3    H252900   4.321   1.524  10.644 -0.4556  0.4339  0.8637
 9569TIP3   OH252901   5.630   6.632  10.719 -0.8379 -0.2350  0.2815
 9569TIP3    H152902   5.587   6.684  10.651 -0.6608 -1.6610 -0.9649
 9569TIP3    H252903   5.562   6.571  10.749 -0.2062 -1.3865 -0.5327
 9570TIP3   OH252904   0.980   2.978   9.701 -0.0381  0.2967 -0.0484
 9570TIP3    H152905   0.932   2.896   9.708 -0.2143  0.5265  2.3636
 9570TIP3    H252906   0.915   3.045   9.725  1.0431  0.7512  1.7368
 9571TIP3   OH252907   3.441   5.970  10.005 -0.5419 -0.1285  0.3723
 9571TIP3    H152908   3.524   6.014  10.025  0.4157 -1.0402 -1.3578
 9571TIP3    H252909   3.397   6.028   9.944  0.2548 -1.0009 -1.0986
 9572TIP3   OH252910   2.692   2.572   9.244 -0.3796 -0.2218  0.1358
 9572TIP3    H152911   2.699   2.648   9.302 -1.9609 -0.7997  1.1377
 9572TIP3    H252912   2.673   2.609   9.158 -0.7509  0.5462  0.5406
 9573TIP3   OH252913   4.157   0.154   9.022  0.2129 -0.0941 -1.0331
 9573TIP3    H152914   4.092   0.100   8.977  0.5913 -2.8409  1.4478
 9573TIP3    H252915   4.241   0.115   8.998  0.5575 -0.0995  0.1361
 9574TIP3   OH252916   2.346   5.841   9.252 -0.1574  0.1840  0.3959
 9574TIP3    H152917   2.276   5.888   9.206 -0.9094 -2.3480 -1.2731
 9574TIP3    H252918   2.427   5.874   9.213 -0.4603  1.8424  1.0691
 9575TIP3   OH252919   2.360   2.255  10.145  0.1079  0.0423 -0.0414
 9575TIP3    H152920   2.267   2.236  10.135  0.3093 -0.9281 -0.1801
 9575TIP3    H252921   2.405   2.188  10.093  0.8942  0.2419  0.3527
 9576TIP3   OH252922   6.258   5.635  11.007 -0.2475 -0.3018  0.4704
 9576TIP3    H152923   6.217   5.584  10.937 -1.4294  0.7108  0.3872
 9576TIP3    H252924   6.190   5.696  11.036  0.6150  0.1510  1.6524
 9577TIP3   OH252925   3.091   1.876   8.942 -0.3966  0.0888  0.1743
 9577TIP3    H152926   3.023   1.897   9.006 -0.0475  0.0547  0.5605
 9577TIP3    H252927   3.171   1.916   8.977 -0.3298  0.6034 -0.5607
 9578TIP3   OH252928   1.541   3.062  11.582 -0.7314  0.7149  0.4178
 9578TIP3    H152929   1.556   3.116  11.660  0.9883 -2.7466  2.7404
 9578TIP3    H252930   1.625   3.062  11.537 -0.7736  0.1728  0.3339
 9579TIP3   OH252931   2.199   4.930  12.147  0.1882  0.6239 -0.3453
 9579TIP3    H152932   2.204   4.929  12.052  1.2476  1.2231 -0.3132
 9579TIP3    H252933   2.109   4.959  12.166  0.2888  1.5382 -1.1766
 9580TIP3   OH252934   1.229   1.896   9.433 -0.3621  0.5027  0.9973
 9580TIP3    H152935   1.268   1.968   9.482  0.1715  0.3556  0.8029
 9580TIP3    H252936   1.215   1.827   9.499 -0.4748  0.6308  1.1066
 9581TIP3   OH252937   3.939   1.369   9.444  0.1627 -0.2750 -0.3763
 9581TIP3    H152938   3.902   1.414   9.369  1.3995 -0.8302 -1.3510
 9581TIP3    H252939   3.869   1.310   9.473 -0.0409 -0.6983 -1.6515
 9582TIP3   OH252940   6.433   3.931  10.447  0.1404  0.5015  0.1075
 9582TIP3    H152941   6.405   3.963  10.533 -1.0445 -0.3058  0.0435
 9582TIP3    H252942   6.493   3.859  10.467 -0.4535  0.0456  0.2671
 9583TIP3   OH252943   2.410   2.964   9.809  0.0215  0.1868  0.6127
 9583TIP3    H152944   2.428   3.010   9.891  0.8125  0.9251  0.0389
 9583TIP3    H252945   2.387   3.033   9.747 -0.3493 -0.3471  0.1452
 9584TIP3   OH252946   4.113   3.850  12.757 -0.4681 -0.0271 -0.4318
 9584TIP3    H152947   4.099   3.755  12.762 -0.2035 -0.0085  1.3278
 9584TIP3    H252948   4.168   3.870  12.833  0.5733  1.3604 -1.4938
 9585TIP3   OH252949   3.934   4.596   9.218  0.1419 -0.0590 -0.4237
 9585TIP3    H152950   3.984   4.675   9.240 -0.3691 -0.4369  2.6078
 9585TIP3    H252951   3.914   4.605   9.125  0.6991  3.0366 -0.3521
 9586TIP3   OH252952   1.941   4.505  11.428 -0.5623  0.2768  0.1548
 9586TIP3    H152953   1.983   4.494  11.514  0.5731 -0.4296 -0.4626
 9586TIP3    H252954   1.960   4.595  11.403  1.0191 -0.1544 -0.3077
 9587TIP3   OH252955   0.463   4.060  10.076  0.4802  0.1297  0.1547
 9587TIP3    H152956   0.466   4.076  10.170  1.3107  1.0786 -0.0067
 9587TIP3    H252957   0.431   4.142  10.038 -0.2507 -0.3818 -0.3686
 9588TIP3   OH252958   2.171   1.075  10.263  0.1059  0.2085 -0.4344
 9588TIP3    H152959   2.237   1.072  10.193  0.8140  1.3188  0.1519
 9588TIP3    H252960   2.118   0.996  10.250  2.6800 -1.7362  0.2167
 9589TIP3   OH252961   1.415   3.388  10.011  0.1700  0.0499 -0.7393
 9589TIP3    H152962   1.353   3.383  10.084  1.4343  1.4258  0.5112
 9589TIP3    H252963   1.455   3.301  10.008  0.3381  0.0655  0.4468
 9590TIP3   OH252964   1.611   2.603   9.944 -0.4574 -0.6588 -0.1185
 9590TIP3    H152965   1.624   2.641  10.031  0.1379  0.5752 -0.7093
 9590TIP3    H252966   1.536   2.651   9.908  0.8976  0.7532 -1.2434
 9591TIP3   OH252967   2.465   5.235  10.691  0.1895 -0.1852  0.1097
 9591TIP3    H152968   2.477   5.276  10.605 -0.4939  0.0906  0.1481
 9591TIP3    H252969   2.389   5.178  10.681  0.9044 -1.1722  0.1633
 9592TIP3   OH252970   4.795   0.188  10.826  0.2786 -0.1248 -0.2037
 9592TIP3    H152971   4.796   0.113  10.885  0.1048 -0.4558 -0.6142
 9592TIP3    H252972   4.878   0.232  10.842 -0.3682  0.5942  1.2967
 9593TIP3   OH252973   6.310   0.724   9.143 -0.1807  0.0924  0.1021
 9593TIP3    H152974   6.350   0.810   9.131  1.9429 -0.8984 -0.6319
 9593TIP3    H252975   6.296   0.692   9.053  1.4484 -1.2766  0.2660
 9594TIP3   OH252976   1.210   1.205  10.493 -0.1378  0.2370  0.6095
 9594TIP3    H152977   1.244   1.127  10.537  0.7140  0.5308  0.4872
 9594TIP3    H252978   1.115   1.193  10.493 -0.0320 -0.6759  0.8234
 9595TIP3   OH252979   6.269   5.856  18.615  0.2623 -0.4058 -0.5043
 9595TIP3    H152980   6.352   5.898  18.592  1.7682 -1.5524  2.3704
 9595TIP3    H252981   6.246   5.893  18.700 -0.9500 -1.8282 -0.1702
 9596TIP3   OH252982   1.296   5.230  10.759 -0.0379 -0.1909 -0.2714
 9596TIP3    H152983   1.350   5.249  10.836  1.1625  0.5627 -1.2709
 9596TIP3    H252984   1.232   5.301  10.757  0.9360  0.6860 -0.8569
 9597TIP3   OH252985   0.144   2.114   9.127 -0.0484 -0.0865 -0.1997
 9597TIP3    H152986   0.212   2.146   9.186 -0.1514 -1.0381  0.4658
 9597TIP3    H252987   0.189   2.105   9.042  0.1037  1.2615 -0.2754
 9598TIP3   OH252988   1.053   1.674  10.182  0.1539 -0.1618 -0.0576
 9598TIP3    H152989   1.019   1.763  10.168  1.5189  0.3343 -0.4334
 9598TIP3    H252990   0.987   1.617  10.143 -0.0741  0.7706 -1.0980
 9599TIP3   OH252991   0.471   3.261   9.282 -0.3360 -0.2614  0.5284
 9599TIP3    H152992   0.548   3.315   9.297  1.2329 -2.3017  0.1169
 9599TIP3    H252993   0.449   3.276   9.190  0.8303 -1.2179  0.0802
 9600TIP3   OH252994   5.035   0.333   9.596 -0.0308 -0.5146  0.4994
 9600TIP3    H152995   5.079   0.248   9.600  1.6020  0.2824  0.1299
 9600TIP3    H252996   5.039   0.358   9.504  2.9135  1.6118  1.0587
 9601TIP3   OH252997   3.827   3.455   9.385 -0.3937 -0.2208  0.2175
 9601TIP3    H152998   3.780   3.384   9.342  0.2638 -1.2525  1.1684
 9601TIP3    H252999   3.811   3.442   9.478  0.1461  0.5882  0.4376
 9602TIP3   OH253000   0.078   5.648  10.020  0.2948 -0.3963  0.1789
 9602TIP3    H153001   0.017   5.581  10.051  0.7166 -0.7607  0.2262
 9602TIP3    H253002   0.101   5.619   9.931 -0.3757  0.2754 -0.2234
 9603TIP3   OH253003   5.677   5.385  10.360  0.3871 -0.4262 -0.3582
 9603TIP3    H153004   5.743   5.445  10.324 -1.0620  0.6695 -1.2776
 9603TIP3    H253005   5.664   5.416  10.449 -0.9464  1.2367 -1.0691
 9604TIP3   OH253006   4.511   0.858  11.321 -0.0113  0.1731  0.2595
 9604TIP3    H153007   4.585   0.893  11.371  0.0460 -0.1758  0.4231
 9604TIP3    H253008   4.448   0.829  11.387 -0.4265  0.7323  0.1200
 9605TIP3   OH253009   4.126   1.674   9.140 -0.0424 -0.1243 -0.2453
 9605TIP3    H153010   4.098   1.765   9.151 -0.5616 -0.1771 -1.0615
 9605TIP3    H253011   4.179   1.656   9.217 -1.1567  0.4012  0.6660
 9606TIP3   OH253012   1.022   5.299   8.347 -0.4469  0.1696  0.3703
 9606TIP3    H153013   1.074   5.362   8.397  0.0740  0.2591 -0.2754
 9606TIP3    H253014   1.086   5.250   8.296 -0.8738 -0.6898  0.6352
 9607TIP3   OH253015   0.130   1.220  10.582  0.1871  0.3912 -0.2316
 9607TIP3    H153016   0.103   1.156  10.516 -0.7773 -1.0455  1.4555
 9607TIP3    H253017   0.056   1.279  10.591 -0.8466 -1.0587  1.4338
 9608TIP3   OH253018   5.423   1.029  11.011  0.0514 -0.0829 -0.2548
 9608TIP3    H153019   5.410   1.124  11.002 -0.3814  0.2575  2.8707
 9608TIP3    H253020   5.352   0.990  10.961 -0.1636  1.2662 -1.0488
 9609TIP3   OH253021   5.825   5.310  11.849  0.4853 -0.1852 -0.1599
 9609TIP3    H153022   5.876   5.253  11.792  0.1696 -1.5729  0.9133
 9609TIP3    H253023   5.860   5.295  11.937 -0.3451  0.4502  0.3002
 9610TIP3   OH253024   0.235   4.495  10.768 -0.0617 -0.3645 -0.1715
 9610TIP3    H153025   0.297   4.478  10.697  0.7172 -0.7132  0.5802
 9610TIP3    H253026   0.151   4.466  10.733 -0.2789  2.1899 -2.0593
 9611TIP3   OH253027   2.105   3.518   8.804 -0.3041  0.3111  0.2119
 9611TIP3    H153028   2.197   3.497   8.788 -0.2915  0.8111 -0.3911
 9611TIP3    H253029   2.057   3.442   8.770 -0.1077 -0.0694  0.7662
 9612TIP3   OH253030   0.581   4.863   8.754  0.0496 -0.0109 -0.7008
 9612TIP3    H153031   0.604   4.774   8.726 -1.8007 -1.5896  2.2076
 9612TIP3    H253032   0.618   4.870   8.842  1.0849  2.6244 -1.2476
 9613TIP3   OH253033   1.188   4.224  10.205 -0.5458 -0.6288 -0.3400
 9613TIP3    H153034   1.267   4.171  10.207  0.5421  0.9001  2.1643
 9613TIP3    H253035   1.196   4.279  10.127  1.4339  0.2079  0.3914
 9614TIP3   OH253036   4.249   3.189   9.438  0.3097 -0.1576  0.4617
 9614TIP3    H153037   4.263   3.194   9.533  0.5764 -0.8037  0.4641
 9614TIP3    H253038   4.189   3.261   9.419  0.6846  0.3189  1.0356
 9615TIP3   OH253039   4.587   5.335  10.910 -0.0135  0.0962  0.5666
 9615TIP3    H153040   4.545   5.377  10.986 -0.4018  0.1251  0.3346
 9615TIP3    H253041   4.680   5.332  10.934  0.0753  1.3584  0.4734
 9616TIP3   OH253042   3.533   5.595  10.280 -0.1486  0.0661  0.0676
 9616TIP3    H153043   3.587   5.671  10.305 -1.4103  0.2606  2.5703
 9616TIP3    H253044   3.590   5.543  10.223  2.1060  1.0539  1.2660
 9617TIP3   OH253045   4.912   3.041   9.165 -0.0220 -0.3612 -0.0569
 9617TIP3    H153046   4.985   3.090   9.126 -0.6838 -0.9098 -2.1286
 9617TIP3    H253047   4.866   3.105   9.220  1.1711  0.3616  0.1240
 9618TIP3   OH253048   2.134   5.028   9.298  0.1926 -0.0333  0.6182
 9618TIP3    H153049   2.206   5.003   9.356  0.1858 -0.0691  0.6112
 9618TIP3    H253050   2.057   4.990   9.338  0.3106 -0.8624  0.0787
 9619TIP3   OH253051   2.968   6.039   9.494 -0.0615 -0.5185  0.6535
 9619TIP3    H153052   2.954   5.945   9.499  1.5366 -0.9928 -1.7324
 9619TIP3    H253053   2.995   6.064   9.582  1.3273 -2.6751  0.9159
 9620TIP3   OH253054   3.700   5.027  12.066  0.2472  0.2891  0.4516
 9620TIP3    H153055   3.747   5.088  12.123  1.5061 -1.3416  1.2160
 9620TIP3    H253056   3.730   4.940  12.092 -1.2869 -0.6816 -0.7960
 9621TIP3   OH253057   1.269   0.553   9.722 -0.2276  0.0828  0.4259
 9621TIP3    H153058   1.232   0.641   9.729 -0.8639 -0.2323  1.1421
 9621TIP3    H253059   1.315   0.540   9.805  0.3493 -0.0451  0.0899
 9622TIP3   OH253060   4.092   4.436  12.211  0.6489 -0.1436  0.2291
 9622TIP3    H153061   4.156   4.416  12.279  0.8845  2.1362  0.7522
 9622TIP3    H253062   4.137   4.418  12.129  1.0504 -0.9954  0.6196
 9623TIP3   OH253063   0.847   4.595  10.131 -0.5166  0.1568 -0.5149
 9623TIP3    H153064   0.872   4.515  10.086  3.2279  1.7684 -1.7365
 9623TIP3    H253065   0.859   4.664  10.065 -2.8973  1.8660  0.6793
 9624TIP3   OH253066   5.182   3.598   9.719 -0.2193  0.2566  0.4993
 9624TIP3    H153067   5.255   3.633   9.668  0.3914 -0.3722  0.9320
 9624TIP3    H253068   5.108   3.597   9.658 -0.9049  4.3100  0.9679
 9625TIP3   OH253069   3.403   1.547  11.301 -0.4284 -0.4804  0.7095
 9625TIP3    H153070   3.432   1.638  11.311 -0.6651 -0.1565 -1.1354
 9625TIP3    H253071   3.308   1.553  11.293 -0.4717 -0.9268  0.8921
 9626TIP3   OH253072   4.227   5.248   9.483  0.4825  0.6055  0.2814
 9626TIP3    H153073   4.231   5.324   9.427 -0.7285  0.4561 -0.0301
 9626TIP3    H253074   4.263   5.278   9.567  2.0830  0.8865 -0.4720
 9627TIP3   OH253075   4.776   0.613   8.992  0.1938 -0.1823 -0.3988
 9627TIP3    H153076   4.828   0.689   9.019  1.9942  0.0712 -4.0308
 9627TIP3    H253077   4.840   0.546   8.971 -1.0724 -0.9042 -2.2081
 9628TIP3   OH253078   3.648   6.134   9.579  0.0405  0.7504  0.3303
 9628TIP3    H153079   3.726   6.183   9.556 -0.3191  0.7701 -0.9037
 9628TIP3    H253080   3.588   6.199   9.617 -0.5197  1.3494 -1.4916
 9629TIP3   OH253081   3.058   3.345  10.841  0.1476  0.5280 -0.5557
 9629TIP3    H153082   3.094   3.328  10.928  0.5090 -0.7184 -0.9243
 9629TIP3    H253083   3.095   3.429  10.816 -1.3313  1.7801  1.1916
 9630TIP3   OH253084   3.556   4.287  11.972 -0.0092 -0.0533 -0.2095
 9630TIP3    H153085   3.488   4.228  12.005 -2.0792  2.5607  0.5073
 9630TIP3    H253086   3.608   4.310  12.049  1.2094 -1.3325 -0.5995
 9631TIP3   OH253087   0.495   3.771   8.589  0.0664  0.3805 -0.2017
 9631TIP3    H153088   0.448   3.721   8.522  0.9673  1.2555 -1.5225
 9631TIP3    H253089   0.583   3.734   8.591  0.5278  1.3988 -0.6749
 9632TIP3   OH253090   4.109   1.053  10.715 -0.4063 -0.1417 -0.2071
 9632TIP3    H153091   4.087   1.131  10.766 -0.0050 -0.0931 -0.1083
 9632TIP3    H253092   4.025   1.008  10.703 -0.6564  0.3522 -0.3466
 9633TIP3   OH253093   0.302   0.166  11.472 -0.2915  0.4704 -0.1396
 9633TIP3    H153094   0.343   0.131  11.551 -1.4731  0.0441  0.3022
 9633TIP3    H253095   0.262   0.248  11.500  1.4424  1.6339 -0.9007
 9634TIP3   OH253096   5.038   3.859  10.347 -0.3848 -0.2954  0.6141
 9634TIP3    H153097   5.041   3.776  10.395  0.2162  0.7509  2.5036
 9634TIP3    H253098   5.129   3.876  10.324 -0.3298  0.4290  1.3364
 9635TIP3   OH253099   3.647   0.673   9.309  0.1705 -0.3375 -0.0937
 9635TIP3    H153100   3.636   0.632   9.395 -0.5775  1.5395  0.7561
 9635TIP3    H253101   3.742   0.672   9.295  0.2033 -1.9337  0.0761
 9636TIP3   OH253102   3.158   3.153   8.790 -0.2857 -0.2138 -0.1425
 9636TIP3    H153103   3.165   3.247   8.808  1.0404 -0.3432  0.1821
 9636TIP3    H253104   3.085   3.123   8.844  0.6864  0.2530  1.5128
 9637TIP3   OH253105   2.261   2.885  11.301  0.6432  0.3456  0.1229
 9637TIP3    H153106   2.263   2.981  11.293  0.1369  0.5294  1.9498
 9637TIP3    H253107   2.349   2.858  11.273  1.2200  1.4473  0.7766
 9638TIP3   OH253108   1.028   6.410  10.897 -0.2399 -0.4648 -0.0997
 9638TIP3    H153109   0.978   6.340  10.938 -2.0288  0.1100 -1.2023
 9638TIP3    H253110   1.043   6.381  10.807  1.1397 -0.4660  0.1083
 9639TIP3   OH253111   3.037   4.110  11.486  0.5756 -0.3468 -0.3260
 9639TIP3    H153112   3.122   4.066  11.491  0.6135 -0.1524  1.1444
 9639TIP3    H253113   2.975   4.048  11.526  0.1537 -0.1480 -0.6567
 9640TIP3   OH253114   4.944   1.923   8.722 -0.6899  0.4556  0.0820
 9640TIP3    H153115   5.016   1.874   8.760  0.1356  1.0815 -0.6506
 9640TIP3    H253116   4.957   2.013   8.753 -0.9885  0.6265 -0.2800
 9641TIP3   OH253117   5.439   1.835   8.982 -0.0137 -0.3362 -0.0453
 9641TIP3    H153118   5.488   1.880   9.050 -1.5186 -0.3072  1.0712
 9641TIP3    H253119   5.387   1.770   9.029 -3.5118  1.7388 -0.6670
 9642TIP3   OH253120   6.552   2.604   9.239 -0.6362 -0.4362  0.0757
 9642TIP3    H153121   6.616   2.540   9.272  1.8133  1.3182 -0.9445
 9642TIP3    H253122   6.583   2.688   9.272 -1.0944  0.7414 -2.2709
 9643TIP3   OH253123   0.216   5.237  10.617 -0.1367  0.4147  0.2606
 9643TIP3    H153124   0.309   5.223  10.637 -0.1801  0.4678  0.5025
 9643TIP3    H253125   0.175   5.252  10.702 -0.1997  1.3690  0.0769
 9644TIP3   OH253126   2.133   2.034  10.720  0.4459 -0.2898  0.4522
 9644TIP3    H153127   2.203   2.015  10.657 -0.8641 -0.9855 -0.8394
 9644TIP3    H253128   2.179   2.070  10.795  2.1611 -0.2872 -0.5339
 9645TIP3   OH253129   2.378   3.521   9.762 -0.1750  0.5430  0.4728
 9645TIP3    H153130   2.392   3.580   9.836  1.2408 -0.2567  0.9032
 9645TIP3    H253131   2.442   3.451   9.776 -0.6549 -0.2084 -0.9159
 9646TIP3   OH253132   3.787   2.590  10.919 -0.0131 -0.2567 -0.1888
 9646TIP3    H153133   3.739   2.518  10.960  0.6471 -1.2395 -1.0663
 9646TIP3    H253134   3.857   2.611  10.980  0.0227 -0.6332 -0.0989
 9647TIP3   OH253135   4.284   0.822  10.393  0.3871  0.0004 -0.2734
 9647TIP3    H153136   4.295   0.728  10.408  0.9856  0.1959  0.6261
 9647TIP3    H253137   4.374   0.856  10.388  0.1762  0.6086  0.0074
 9648TIP3   OH253138   1.001   2.744  11.245 -0.0941  0.5212  0.4602
 9648TIP3    H153139   0.932   2.684  11.270  0.3828 -0.3512 -0.2374
 9648TIP3    H253140   1.043   2.769  11.327 -0.1547 -0.2904  0.7410
 9649TIP3   OH253141   3.339   1.962   9.061  0.0760 -0.3749 -0.1285
 9649TIP3    H153142   3.399   1.890   9.078 -1.0895 -1.4631 -0.4962
 9649TIP3    H253143   3.390   2.023   9.008  1.0577 -0.9530  0.1263
 9650TIP3   OH253144   0.338   1.242   9.872  0.3433  0.2010  0.0965
 9650TIP3    H153145   0.405   1.215   9.810  0.9379  3.2579 -0.7914
 9650TIP3    H253146   0.345   1.338   9.874 -0.6109  0.3638  3.8268
 9651TIP3   OH253147   6.584   3.049   8.606  0.1512 -0.3066 -0.4373
 9651TIP3    H153148   6.535   3.034   8.687 -0.1679 -1.3872 -0.8252
 9651TIP3    H253149   6.590   3.145   8.599 -0.1231 -0.1950  0.6716
 9652TIP3   OH253150   4.198   6.029  11.720 -0.0322 -0.0629  0.0542
 9652TIP3    H153151   4.225   6.069  11.637  0.4561  1.2074  0.7855
 9652TIP3    H253152   4.279   6.025  11.772 -0.5391  0.2712  0.8895
 9653TIP3   OH253153   2.290   6.434  11.431 -0.9023 -0.0700  0.1199
 9653TIP3    H153154   2.248   6.386  11.502  0.5515 -0.4189  0.7730
 9653TIP3    H253155   2.383   6.433  11.453 -0.7756  2.8558  0.0168
 9654TIP3   OH253156   2.420   3.136  10.035  0.1159 -0.3458  0.0386
 9654TIP3    H153157   2.328   3.149  10.057  0.7429  1.3478  1.8658
 9654TIP3    H253158   2.468   3.177  10.106  2.3089  0.7067 -1.9340
 9655TIP3   OH253159   5.635   0.638  10.729  0.5717  0.0206  0.3824
 9655TIP3    H153160   5.670   0.610  10.645  0.9159 -0.0711  0.5506
 9655TIP3    H253161   5.625   0.733  10.721  1.5172  0.1507  0.5558
 9656TIP3   OH253162   1.816   0.858  10.452  0.0906 -0.1485  0.7343
 9656TIP3    H153163   1.836   0.919  10.523  2.1981  0.7097 -0.4972
 9656TIP3    H253164   1.817   0.772  10.493  0.7943  0.3607  1.8400
 9657TIP3   OH253165   5.565   5.904  10.129 -0.8541  0.1965 -0.0817
 9657TIP3    H153166   5.641   5.886  10.186 -1.1530 -0.2523  0.1836
 9657TIP3    H253167   5.581   5.992  10.095  0.6704 -0.5468 -1.4292
 9658TIP3   OH253168   1.851   4.149  12.251  0.2827 -0.6486  0.3086
 9658TIP3    H153169   1.945   4.133  12.246  0.2840 -0.7309  0.5689
 9658TIP3    H253170   1.812   4.066  12.223  0.2870 -0.7294  0.5460
 9659TIP3   OH253171   3.977   4.324  10.003 -0.2634 -0.7278 -0.0602
 9659TIP3    H153172   4.067   4.310   9.972 -0.1093 -1.5205  0.7168
 9659TIP3    H253173   3.925   4.332   9.923  0.6094  0.5491 -0.5325
 9660TIP3   OH253174   1.869   2.150  10.752  0.2076  0.1968  0.2281
 9660TIP3    H153175   1.964   2.142  10.753  0.1723 -0.5503 -1.1132
 9660TIP3    H253176   1.852   2.239  10.783  1.2850  0.0445  1.3165
 9661TIP3   OH253177   1.668   4.263  10.397  0.0894 -0.6326  0.3737
 9661TIP3    H153178   1.751   4.214  10.396  1.2481  1.2173  0.7950
 9661TIP3    H253179   1.654   4.282  10.490  1.8221  3.1407  0.0592
 9662TIP3   OH253180   1.262   4.740  10.133  0.0979 -0.0157  0.0282
 9662TIP3    H153181   1.356   4.760  10.130 -0.0413  0.9934  1.4055
 9662TIP3    H253182   1.235   4.736  10.042  1.5680 -0.7528 -0.3963
 9663TIP3   OH253183   4.733   0.722  11.820 -0.0462  0.0646 -0.2469
 9663TIP3    H153184   4.643   0.691  11.821 -0.6558  1.7050  1.3757
 9663TIP3    H253185   4.782   0.654  11.773 -1.7462 -1.8929  0.6979
 9664TIP3   OH253186   3.565   4.787   8.890 -0.0425  0.1102  0.5693
 9664TIP3    H153187   3.509   4.720   8.852  1.0333 -0.1227 -0.6508
 9664TIP3    H253188   3.589   4.843   8.817  1.1875  0.3015  1.0886
 9665TIP3   OH253189   3.046   2.493  11.456  0.2567 -0.1504 -0.0567
 9665TIP3    H153190   3.076   2.493  11.365  1.1321 -0.3895  0.2257
 9665TIP3    H253191   3.124   2.513  11.508 -0.8175  3.1163  0.4847
 9666TIP3   OH253192   3.373   2.259  10.908 -0.0761  0.0333 -0.8148
 9666TIP3    H153193   3.304   2.196  10.928 -1.1577  2.0215  2.4697
 9666TIP3    H253194   3.327   2.342  10.893  1.4783  1.1227  0.1102
 9667TIP3   OH253195   4.257   4.984  10.437  0.2221  0.4353  0.0376
 9667TIP3    H153196   4.325   4.942  10.489  0.7952  2.3108  0.9091
 9667TIP3    H253197   4.300   5.005  10.354  1.5897  3.7398  1.4161
 9668TIP3   OH253198   2.338   0.177  10.922 -0.1545  0.4799 -0.0753
 9668TIP3    H153199   2.275   0.113  10.954 -1.9712  2.1725 -0.1111
 9668TIP3    H253200   2.423   0.140  10.947 -1.1960 -1.1290  1.3678
 9669TIP3   OH253201   3.795   2.615  11.871 -0.3846  0.0037  0.8223
 9669TIP3    H153202   3.867   2.679  11.873  0.2276 -0.6819  0.8368
 9669TIP3    H253203   3.819   2.549  11.936 -0.2447 -1.0598 -0.2767
 9670TIP3   OH253204   0.525   0.193  10.934 -0.4554  0.0469  0.0412
 9670TIP3    H153205   0.575   0.182  11.016 -0.8749 -3.1402 -0.0184
 9670TIP3    H253206   0.589   0.178  10.865 -0.2847  1.9453 -0.2765
 9671TIP3   OH253207   4.033   1.926   9.228 -0.6667 -0.2517 -0.3872
 9671TIP3    H153208   4.085   1.991   9.180  1.4990  0.6651  2.8889
 9671TIP3    H253209   3.942   1.957   9.219 -0.1476  0.9251 -2.1807
 9672TIP3   OH253210   0.961   5.723   9.941 -0.4020  0.0267  0.3529
 9672TIP3    H153211   1.050   5.707   9.974 -0.0957  1.3072  0.1828
 9672TIP3    H253212   0.904   5.695  10.012  0.2218  1.7857  1.6151
 9673TIP3   OH253213   3.421   2.262   9.204 -0.0159 -0.1068 -0.0400
 9673TIP3    H153214   3.350   2.202   9.181 -1.6089  0.9456  1.8473
 9673TIP3    H253215   3.428   2.320   9.127  0.4783 -1.6433 -1.2155
 9674TIP3   OH253216   6.614   4.468   9.863  0.0212 -0.1083  0.2180
 9674TIP3    H153217   6.538   4.441   9.811  0.3178  0.3817 -0.4795
 9674TIP3    H253218   6.586   4.457   9.954 -0.4564 -1.1064 -0.0389
 9675TIP3   OH253219   4.116   0.400  10.803  0.4750  0.1204 -0.0015
 9675TIP3    H153220   4.209   0.379  10.794  0.6953 -0.1138  2.2655
 9675TIP3    H253221   4.072   0.315  10.804  0.5035  0.1099  1.2350
 9676TIP3   OH253222   0.871   1.329  10.256 -0.1845  0.1192 -0.0465
 9676TIP3    H153223   0.803   1.266  10.279 -0.8805  0.9792  0.3274
 9676TIP3    H253224   0.930   1.281  10.197 -1.0730 -0.6685 -0.3189
 9677TIP3   OH253225   5.438   6.051  10.486 -0.1467  0.6503 -0.1380
 9677TIP3    H153226   5.509   6.027  10.546 -0.6815 -3.3173 -0.8164
 9677TIP3    H253227   5.364   6.070  10.542  0.1684 -0.0343  0.5235
 9678TIP3   OH253228   4.331   1.080  10.559  0.3558  0.0732  0.0155
 9678TIP3    H153229   4.294   1.012  10.503  0.3694  0.2620 -0.2230
 9678TIP3    H253230   4.279   1.077  10.639 -0.2735  0.4303 -0.3724
 9679TIP3   OH253231   4.206   3.530   9.690 -0.2481 -0.2655 -0.1268
 9679TIP3    H153232   4.191   3.583   9.768  0.2939 -0.4156  0.0789
 9679TIP3    H253233   4.286   3.482   9.708  0.5248  0.5528 -1.2233
 9680TIP3   OH253234   1.831   5.160  10.418  0.4234  0.1717  0.3574
 9680TIP3    H153235   1.764   5.205  10.470  1.0697  1.4497  0.1397
 9680TIP3    H253236   1.908   5.217  10.425  1.2475 -0.8650 -0.0387
 9681TIP3   OH253237   4.334   1.115  12.241 -0.5197  0.3673 -0.2207
 9681TIP3    H153238   4.389   1.163  12.303  0.5696 -3.7715  2.4426
 9681TIP3    H253239   4.393   1.052  12.199 -2.4284 -1.4722 -0.3522
 9682TIP3   OH253240   6.405   2.009  11.438  0.3864  0.1453  0.3548
 9682TIP3    H153241   6.341   1.980  11.503  1.5896 -0.9994  1.0975
 9682TIP3    H253242   6.457   1.931  11.419 -0.3248  0.2630 -2.5303
 9683TIP3   OH253243   1.261   5.096   8.379 -0.1766  0.6816 -0.0964
 9683TIP3    H153244   1.252   5.133   8.467  2.2503  0.1582  0.4260
 9683TIP3    H253245   1.210   5.015   8.382 -0.3948  0.8454  0.7172
 9684TIP3   OH253246   0.470   5.230   8.800 -0.7146 -0.2303  0.0301
 9684TIP3    H153247   0.544   5.184   8.840 -1.0176 -0.9802 -0.2562
 9684TIP3    H253248   0.495   5.322   8.802  0.5524 -0.5406 -0.7437
 9685TIP3   OH253249   6.263   2.016  11.204 -0.4418 -0.0431 -0.1638
 9685TIP3    H153250   6.218   2.084  11.253 -0.1544 -0.7681  1.1598
 9685TIP3    H253251   6.331   1.984  11.264 -0.8641 -1.7904 -0.5714
 9686TIP3   OH253252   5.908   0.055   8.918 -0.8202 -0.2008  0.0539
 9686TIP3    H153253   5.862   0.022   8.841 -1.2704 -0.3255  0.3768
 9686TIP3    H253254   5.847   0.043   8.991 -0.3372 -0.2333  0.4616
 9687TIP3   OH253255   0.861   1.096   9.940  0.2464  0.5499  0.0683
 9687TIP3    H153256   0.925   1.166   9.955  1.1476 -0.3497  0.5637
 9687TIP3    H253257   0.891   1.052   9.861  0.4850 -0.1273  0.5260
 9688TIP3   OH253258   5.968   0.951   8.938  0.4240 -0.1583  0.3886
 9688TIP3    H153259   6.039   0.979   8.881  1.0342 -2.4686 -0.0700
 9688TIP3    H253260   5.992   0.983   9.025  0.4178  1.7797 -0.2908
 9689TIP3   OH253261   4.830   5.626   9.428  0.0239 -0.3405  0.5481
 9689TIP3    H153262   4.741   5.638   9.460  0.4697  1.4020  1.2970
 9689TIP3    H253263   4.885   5.670   9.493  1.4544 -1.4356  0.1462
 9690TIP3   OH253264   6.386   2.421  10.233 -0.0997 -0.3685  0.0280
 9690TIP3    H153265   6.334   2.428  10.313 -2.1510 -1.9006 -1.0479
 9690TIP3    H253266   6.451   2.490  10.240 -2.3447  1.7548  1.4850
 9691TIP3   OH253267   4.317   2.762  10.836 -0.5562 -0.6545 -0.4353
 9691TIP3    H153268   4.350   2.805  10.914 -1.2096 -0.1501 -0.4252
 9691TIP3    H253269   4.378   2.787  10.766  0.2423 -1.4123 -0.0264
 9692TIP3   OH253270   1.602   2.272  10.203  0.0750  0.7719 -0.0577
 9692TIP3    H153271   1.510   2.300  10.200 -0.1388  0.0630 -0.4380
 9692TIP3    H253272   1.651   2.351  10.225 -0.9524  0.4964  4.2159
 9693TIP3   OH253273   3.121   2.571   9.593 -0.0034  0.2280 -0.0067
 9693TIP3    H153274   3.151   2.505   9.530 -1.3107  1.5238 -2.0929
 9693TIP3    H253275   3.146   2.535   9.679  1.7798 -1.6418 -1.2222
 9694TIP3   OH253276   1.454   4.941  11.536  0.2735 -0.3491 -0.3650
 9694TIP3    H153277   1.431   4.863  11.586  0.8739 -0.8787 -0.9035
 9694TIP3    H253278   1.544   4.926  11.507 -0.2911 -0.3840 -2.1941
 9695TIP3   OH253279   5.458   5.396  11.035 -0.0799 -0.6642  0.0884
 9695TIP3    H153280   5.498   5.314  11.005 -1.3343 -0.7268 -1.5572
 9695TIP3    H253281   5.369   5.370  11.061 -0.4967  0.1553 -0.4845
 9696TIP3   OH253282   3.841   0.242   9.702 -0.1709 -0.1431  0.2533
 9696TIP3    H153283   3.764   0.293   9.675  0.3223  0.2263 -0.4944
 9696TIP3    H253284   3.912   0.279   9.651  0.6407 -0.0278  1.4254
 9697TIP3   OH253285   1.660   2.759  10.943 -0.7545 -0.3685 -0.2428
 9697TIP3    H153286   1.704   2.816  10.880 -1.5105  0.0905 -0.3609
 9697TIP3    H253287   1.569   2.758  10.915 -0.7336 -1.7376 -0.3089
 9698TIP3   OH253288   4.150   5.808   8.904  0.4100 -1.2278  0.1912
 9698TIP3    H153289   4.066   5.853   8.903  1.3386  0.6218 -0.5965
 9698TIP3    H253290   4.148   5.751   8.827 -0.5076 -2.0326  0.7890
 9699TIP3   OH253291   6.395   5.822   9.270 -0.1265  0.3453  0.1831
 9699TIP3    H153292   6.398   5.855   9.359  1.1973  0.4425  0.1244
 9699TIP3    H253293   6.481   5.783   9.256 -0.9602 -1.3776 -0.4221
 9700TIP3   OH253294   3.441   3.818  11.173  0.1301  0.6819 -0.0198
 9700TIP3    H153295   3.435   3.837  11.080  1.6583  1.4059  0.0015
 9700TIP3    H253296   3.445   3.722  11.178  1.2623  0.6675 -0.8076
 9701TIP3   OH253297   3.095   0.807   9.873 -0.5994  0.1158 -0.3507
 9701TIP3    H153298   3.171   0.842   9.920  0.4310 -0.9946 -1.1502
 9701TIP3    H253299   3.066   0.734   9.927 -1.7520  1.1254  0.4674
 9702TIP3   OH253300   1.917   0.790  11.554 -0.5013 -0.0030 -0.1642
 9702TIP3    H153301   1.954   0.739  11.482  1.3768 -1.4044  1.6665
 9702TIP3    H253302   1.977   0.864  11.564 -0.1801 -0.3418  0.5277
 9703TIP3   OH253303   3.545   2.434  11.591 -0.1163  0.1432  0.3447
 9703TIP3    H153304   3.562   2.372  11.661  0.3579  0.9756  0.9941
 9703TIP3    H253305   3.551   2.520  11.633  1.4214  0.7256 -0.9442
 9704TIP3   OH253306   3.263   3.134  11.530 -0.2902 -0.8370  0.2144
 9704TIP3    H153307   3.287   3.043  11.512  0.6754 -0.5077 -0.2082
 9704TIP3    H253308   3.335   3.185  11.494 -1.5554  0.1911 -1.0060
 9705TIP3   OH253309   2.128   2.339  10.851 -0.4682  0.1946 -0.3356
 9705TIP3    H153310   2.185   2.323  10.776 -1.1082 -0.1967 -0.7536
 9705TIP3    H253311   2.107   2.432  10.846 -1.0372  0.0403 -1.0423
 9706TIP3   OH253312   4.223   2.490  10.759  0.7626  0.4769 -0.2612
 9706TIP3    H153313   4.236   2.564  10.819 -1.0277  0.9107 -0.3462
 9706TIP3    H253314   4.275   2.512  10.682 -0.3536  2.0830 -0.6105
 9707TIP3   OH253315   2.635   5.224   8.633  0.5195  0.0017  0.8041
 9707TIP3    H153316   2.639   5.320   8.634  0.8879 -0.0129  1.0296
 9707TIP3    H253317   2.726   5.196   8.630  0.3939 -0.3417  0.1493
 9708TIP3   OH253318   4.811   3.197  10.372 -0.4192 -0.5278 -0.0954
 9708TIP3    H153319   4.837   3.128  10.311  1.2923 -0.8095  0.8793
 9708TIP3    H253320   4.890   3.249  10.383 -0.9589  0.0590  1.1728
 9709TIP3   OH253321   1.906   0.953  10.218  0.8044  0.2261 -0.8537
 9709TIP3    H153322   1.871   0.907  10.294 -1.2649  0.5773 -1.5320
 9709TIP3    H253323   1.893   1.046  10.237  1.8156  0.4118 -0.9611
 9710TIP3   OH253324   2.776   4.662  12.116 -0.3135 -0.0346  0.1444
 9710TIP3    H153325   2.796   4.714  12.194  0.1309  0.4408 -0.2794
 9710TIP3    H253326   2.806   4.716  12.043  1.6184 -1.5248 -0.2449
 9711TIP3   OH253327   1.019   0.509  11.099  0.6830 -0.1240  0.0507
 9711TIP3    H153328   0.987   0.483  11.012  1.3059  0.9879 -0.5312
 9711TIP3    H253329   0.953   0.570  11.132  1.1038  0.4650 -0.2015
 9712TIP3   OH253330   2.635   2.764   9.438  0.2766 -0.6144  0.2022
 9712TIP3    H153331   2.565   2.733   9.495  0.5796 -1.8673 -0.0766
 9712TIP3    H253332   2.691   2.817   9.495  0.4516 -1.6557  1.0242
 9713TIP3   OH253333   3.032   5.286   8.639 -0.1432  0.1590 -0.3987
 9713TIP3    H153334   3.112   5.277   8.691  0.8900  0.1899 -1.9135
 9713TIP3    H253335   2.984   5.205   8.654 -0.4371  0.6470  1.4792
 9714TIP3   OH253336   2.058   0.072   9.411 -0.0319 -0.2611 -0.2335
 9714TIP3    H153337   2.053   0.071   9.315  0.8352  0.4107 -0.3037
 9714TIP3    H253338   2.139   0.025   9.431 -0.7278 -1.2834  0.2288
 9715TIP3   OH253339   3.925   6.652  10.592 -0.4010  0.6291  0.1436
 9715TIP3    H153340   3.843   6.602  10.581 -0.3451  0.6318 -0.3061
 9715TIP3    H253341   3.952   6.633  10.682 -1.1337  0.9907  0.4479
 9716TIP3   OH253342   3.219   0.706  11.235  0.2190  0.3841  0.3202
 9716TIP3    H153343   3.197   0.793  11.202  0.2424  0.5088  0.6255
 9716TIP3    H253344   3.313   0.708  11.250  0.1781  0.3987  0.5862
 9717TIP3   OH253345   0.995   6.109  11.025 -0.3908  0.0684  0.3712
 9717TIP3    H153346   0.971   6.040  10.964 -0.8352 -0.4276  1.0876
 9717TIP3    H253347   1.068   6.073  11.075  1.2997  1.2158 -1.1577
 9718TIP3   OH253348   4.869   2.508   9.771 -0.6118 -0.2986 -0.4800
 9718TIP3    H153349   4.823   2.437   9.727  0.2360 -1.2341  0.0852
 9718TIP3    H253350   4.962   2.485   9.763 -0.3310  0.6467 -0.1086
 9719TIP3   OH253351   1.548   4.617  11.225  0.2032  0.3080 -0.2807
 9719TIP3    H153352   1.559   4.620  11.320  2.0552  1.5760 -0.4876
 9719TIP3    H253353   1.463   4.659  11.209 -0.3430 -0.3417  0.8212
 9720TIP3   OH253354   3.980   2.100  11.165 -0.3038 -0.3454 -0.7267
 9720TIP3    H153355   3.914   2.167  11.178  1.2184  1.0926 -0.0309
 9720TIP3    H253356   4.030   2.100  11.247 -0.5594 -2.7274 -0.4869
 9721TIP3   OH253357   1.154   3.415   9.334  0.2720  0.3971  0.6628
 9721TIP3    H153358   1.082   3.381   9.386  0.1636 -1.3645 -0.5229
 9721TIP3    H253359   1.116   3.427   9.246  1.3199 -0.3048  0.0913
 9722TIP3   OH253360   1.847   3.710  11.403 -0.0033 -0.4777  0.1219
 9722TIP3    H153361   1.762   3.702  11.361 -0.1322 -1.6372  0.5744
 9722TIP3    H253362   1.871   3.621  11.427  0.5588  0.0167  1.5162
 9723TIP3   OH253363   0.107   1.488  10.370 -0.3533 -0.3866 -0.1951
 9723TIP3    H153364   0.039   1.433  10.331 -0.5923 -0.0243 -0.2921
 9723TIP3    H253365   0.112   1.565  10.314 -0.6190  0.0834  0.4100
 9724TIP3   OH253366   0.027   2.150  10.802  0.5238  0.0801  0.1212
 9724TIP3    H153367  -0.033   2.151  10.877  2.0475 -1.0440  1.4270
 9724TIP3    H253368  -0.028   2.174  10.727 -1.0713  1.2271  1.5653
 9725TIP3   OH253369   4.242   2.408   9.866  0.2725 -0.1739  0.1634
 9725TIP3    H153370   4.252   2.316   9.891 -0.5770 -0.4253 -0.4092
 9725TIP3    H253371   4.210   2.406   9.776  0.8415  0.6957 -0.0751
 9726TIP3   OH253372   3.220   0.049  11.926 -0.7954  0.2320  0.2095
 9726TIP3    H153373   3.253   0.105  11.996  0.8827 -0.8877  0.3649
 9726TIP3    H253374   3.275  -0.029  11.930 -1.4079 -0.3361 -1.6296
 9727TIP3   OH253375   5.731   0.437   9.373 -0.1160  0.2705 -0.3555
 9727TIP3    H153376   5.655   0.427   9.430 -0.3906 -0.4175 -0.8245
 9727TIP3    H253377   5.734   0.356   9.322  0.7930  0.3903 -0.5159
 9728TIP3   OH253378   3.049   3.891  11.860  0.1834  0.4818  0.3846
 9728TIP3    H153379   2.958   3.885  11.888  0.1709  2.2133  0.8015
 9728TIP3    H253380   3.093   3.820  11.907 -0.8454 -0.0778  0.5388
 9729TIP3   OH253381   6.339   1.656   9.821  0.3479 -0.3495 -0.3968
 9729TIP3    H153382   6.277   1.609   9.766  0.2063 -0.5256 -0.0930
 9729TIP3    H253383   6.308   1.640   9.911 -1.3928  2.6026 -0.3600
 9730TIP3   OH253384   2.328   2.776  10.340  0.0768  0.2969  0.1626
 9730TIP3    H153385   2.288   2.721  10.407  0.0229 -0.0082 -0.1145
 9730TIP3    H253386   2.322   2.865  10.374  1.0325  0.0427  1.0544
 9731TIP3   OH253387   3.421   3.867  10.906  0.2751 -0.1182 -0.2999
 9731TIP3    H153388   3.465   3.835  10.827  1.5892  1.2614 -0.1880
 9731TIP3    H253389   3.389   3.954  10.881  0.0111  0.0076  0.4549
 9732TIP3   OH253390   4.582   2.414   8.854 -0.0047 -0.2174 -0.0185
 9732TIP3    H153391   4.601   2.494   8.804 -2.8632  1.3058  1.1051
 9732TIP3    H253392   4.655   2.408   8.916  1.0897  0.5747 -1.1629
 9733TIP3   OH253393   4.244   3.802  13.004  0.1747 -0.0874  0.1374
 9733TIP3    H153394   4.267   3.714  12.976  1.6070  0.2395  0.2154
 9733TIP3    H253395   4.222   3.793  13.097  2.1664 -0.1083  0.6548
 9734TIP3   OH253396   3.284   0.024  11.596  0.0344  0.4685  0.4818
 9734TIP3    H153397   3.337   0.032  11.675 -0.0240  3.3726  0.3076
 9734TIP3    H253398   3.198  -0.005  11.628  0.5101 -0.1338  1.2536
 9735TIP3   OH253399   2.970   1.208  10.565  0.1732 -0.3671  0.4818
 9735TIP3    H153400   2.977   1.211  10.660 -1.1421 -0.4163  0.6012
 9735TIP3    H253401   2.879   1.185  10.549  0.1591  0.4982 -0.8053
 9736TIP3   OH253402   5.521   5.745   9.734 -0.0974  0.4368  0.0300
 9736TIP3    H153403   5.494   5.721   9.645  0.6960  0.6384 -0.2753
 9736TIP3    H253404   5.452   5.805   9.765 -1.1840 -0.8287  0.1458
 9737TIP3   OH253405   4.622   3.586   9.089  0.5602  0.5607 -0.1932
 9737TIP3    H153406   4.670   3.523   9.035 -0.0778  0.6526 -0.8716
 9737TIP3    H253407   4.626   3.668   9.040  0.8632  0.9053  0.3964
 9738TIP3   OH253408   1.443   3.366  10.905  0.2079 -0.3835  0.2579
 9738TIP3    H153409   1.394   3.291  10.871  0.7563 -0.2491 -0.8695
 9738TIP3    H253410   1.511   3.327  10.960  0.6489 -0.7474 -0.5240
 9739TIP3   OH253411   3.271   1.363   9.467 -0.0519  0.2270 -0.1923
 9739TIP3    H153412   3.218   1.380   9.545 -1.5811 -1.5529 -0.7640
 9739TIP3    H253413   3.290   1.450   9.432 -0.6270  1.0023  1.3202
 9740TIP3   OH253414   0.035   4.591   8.714 -0.2900 -0.6444  0.2188
 9740TIP3    H153415   0.012   4.600   8.806  1.0922  1.0671  0.4418
 9740TIP3    H253416   0.124   4.555   8.714  0.4804  1.1667 -0.3637
 9741TIP3   OH253417   3.874   0.659  11.537  0.0276  0.3035 -0.0503
 9741TIP3    H153418   3.904   0.616  11.457 -0.2473  0.7126 -0.3735
 9741TIP3    H253419   3.940   0.635  11.603  1.1444  1.2828 -0.7785
 9742TIP3   OH253420   5.940   5.137  11.673  0.2655  0.0517 -0.1402
 9742TIP3    H153421   5.951   5.043  11.685 -0.5203 -0.1176 -0.6372
 9742TIP3    H253422   5.891   5.145  11.591  0.5238  0.9028 -0.2194
 9743TIP3   OH253423   6.338   5.316   8.500  0.0666  0.2892 -0.4290
 9743TIP3    H153424   6.305   5.340   8.414 -1.6185 -0.8235 -0.1387
 9743TIP3    H253425   6.426   5.353   8.503 -0.9749  3.0764 -1.4047
 9744TIP3   OH253426   3.227   4.327   8.840 -0.2560 -0.0815  0.1634
 9744TIP3    H153427   3.263   4.299   8.924  2.1881 -0.0897 -0.7945
 9744TIP3    H253428   3.163   4.394   8.862  1.9669  1.5872  1.9835
 9745TIP3   OH253429   5.065   4.425  10.646  0.0315 -0.3132 -0.0648
 9745TIP3    H153430   5.088   4.332  10.635 -0.8241 -0.5761  0.2681
 9745TIP3    H253431   4.988   4.424  10.702 -0.3921  0.5692 -0.6131
 9746TIP3   OH253432   6.670   1.145   9.828 -0.6076 -0.0648  0.1584
 9746TIP3    H153433   6.681   1.215   9.892 -0.6140  0.7137 -0.6734
 9746TIP3    H253434   6.587   1.104   9.852 -0.7015  0.3326  0.5320
 9747TIP3   OH253435   4.706   0.950  11.533  0.0373  0.0874 -0.0862
 9747TIP3    H153436   4.679   1.026  11.584 -1.1787  0.0493 -0.6430
 9747TIP3    H253437   4.645   0.881  11.557  1.6317 -1.0169  1.0478
 9748TIP3   OH253438   3.558   2.628  12.496  0.6358  0.3044 -0.0151
 9748TIP3    H153439   3.476   2.669  12.523  0.8162  0.9697 -0.4503
 9748TIP3    H253440   3.543   2.534  12.507 -0.2035  0.4164 -0.1395
 9749TIP3   OH253441   4.175   4.659   8.966  0.1353 -0.2434 -0.0472
 9749TIP3    H153442   4.092   4.641   9.010 -0.4585  0.2277 -0.9319
 9749TIP3    H253443   4.170   4.752   8.944  0.3171 -0.5065 -1.2827
 9750TIP3   OH253444   6.500   6.256   8.727  0.3217  0.5237  0.6310
 9750TIP3    H153445   6.516   6.165   8.749 -3.5029 -0.8257 -1.3447
 9750TIP3    H253446   6.459   6.293   8.804 -1.7380 -0.6381  0.1451
 9751TIP3   OH253447   2.729   4.780  12.383 -0.0096  0.1270  0.0036
 9751TIP3    H153448   2.717   4.874  12.370  1.8180  1.0144  3.5470
 9751TIP3    H253449   2.644   4.750  12.415 -0.1957  0.9126  0.2824
 9752TIP3   OH253450   2.259   5.544   9.787 -0.1519 -0.3081  0.2519
 9752TIP3    H153451   2.176   5.533   9.834 -0.4811 -0.6789 -0.3904
 9752TIP3    H253452   2.306   5.462   9.801 -0.1286 -0.3084  0.1721
 9753TIP3   OH253453   5.712   5.169   9.006  0.7033  0.0544  0.0644
 9753TIP3    H153454   5.694   5.212   8.922 -0.9340  1.4321  1.0517
 9753TIP3    H253455   5.672   5.083   8.999  0.7889  0.0713 -0.6545
 9754TIP3   OH253456   6.457   3.702   8.750 -0.2699  0.2278 -0.2232
 9754TIP3    H153457   6.465   3.608   8.764  0.2557 -0.0750 -2.2606
 9754TIP3    H253458   6.542   3.738   8.775 -0.5252  0.1959  0.7113
 9755TIP3   OH253459   5.990   1.189  10.380  0.2602 -0.2736  0.1045
 9755TIP3    H153460   6.054   1.186  10.310 -1.5252  0.3249 -1.6416
 9755TIP3    H253461   5.931   1.115  10.362  0.4834 -0.8779  1.7173
 9756TIP3   OH253462   1.355   1.974  10.506  0.3541  0.2246  0.0588
 9756TIP3    H153463   1.376   1.895  10.456  0.1722 -0.0299  0.3774
 9756TIP3    H253464   1.261   1.967  10.523  0.3538  0.4676  0.1651
 9757TIP3   OH253465   2.173   3.676  10.436  0.2116  0.3961 -0.2189
 9757TIP3    H153466   2.145   3.618  10.507  0.2557  0.3550 -0.2349
 9757TIP3    H253467   2.174   3.763  10.476 -2.6022  0.8401 -0.9285
 9758TIP3   OH253468   5.060   4.195   9.597 -0.3463  0.1645 -0.0063
 9758TIP3    H153469   5.001   4.251   9.648 -0.2376  0.1552  0.1311
 9758TIP3    H253470   5.040   4.215   9.506  1.6294  2.4668 -0.0064
 9759TIP3   OH253471   2.680   3.781   9.625  0.5529 -0.5734  0.1107
 9759TIP3    H153472   2.686   3.721   9.550 -0.3588 -1.3836  0.6599
 9759TIP3    H253473   2.686   3.725   9.702 -0.1638  0.0547  0.6402
 9760TIP3   OH253474   1.932   3.924  11.744  0.2289  0.0644  0.1373
 9760TIP3    H153475   1.934   3.963  11.832  0.2860  0.0224  0.1547
 9760TIP3    H253476   2.009   3.867  11.741  0.5800  0.5485 -0.1589
 9761TIP3   OH253477   3.338   2.850  10.394 -0.2018  0.5685 -0.1838
 9761TIP3    H153478   3.430   2.833  10.370 -1.0660 -2.0862 -2.1593
 9761TIP3    H253479   3.326   2.806  10.478  0.1464  0.1504 -0.3478
 9762TIP3   OH253480   5.694   4.312   8.570 -0.3769 -0.9182  0.0810
 9762TIP3    H153481   5.748   4.279   8.498  0.9746 -0.2114  0.7335
 9762TIP3    H253482   5.606   4.321   8.533  0.6512  1.2768 -2.0701
 9763TIP3   OH253483   1.905   4.917   9.044 -0.3336  0.7490  0.4279
 9763TIP3    H153484   1.839   4.942   9.108 -0.0513  0.3413  0.8880
 9763TIP3    H253485   1.908   4.821   9.048  1.6815  0.8006  1.8902
 9764TIP3   OH253486   4.120   2.262  12.237 -0.1869  0.2492 -0.6187
 9764TIP3    H153487   4.109   2.341  12.184 -0.1609  0.1373 -0.7914
 9764TIP3    H253488   4.096   2.191  12.178  1.9794 -0.0693 -1.2236
 9765TIP3   OH253489   1.948   4.220  11.914 -0.0526  0.6517 -0.7680
 9765TIP3    H153490   2.017   4.251  11.973  0.9742 -0.3351 -1.4077
 9765TIP3    H253491   1.941   4.126  11.933 -0.2788  0.4828 -1.6433
 9766TIP3   OH253492   1.498   0.362   9.635 -0.0368 -0.6004  0.5671
 9766TIP3    H153493   1.575   0.412   9.663  0.7275 -1.9207  0.8991
 9766TIP3    H253494   1.448   0.349   9.716 -1.1988  1.1782  0.1806
 9767TIP3   OH253495   6.034   3.636  11.821 -0.6498 -0.4046  0.2535
 9767TIP3    H153496   5.995   3.606  11.903 -1.2383  0.8540  0.4699
 9767TIP3    H253497   5.969   3.697  11.785 -1.1563 -2.1542 -1.9911
 9768TIP3   OH253498   1.613   2.506   9.171 -0.0846 -0.2789  0.4421
 9768TIP3    H153499   1.536   2.461   9.137  0.1897 -0.3118 -0.1506
 9768TIP3    H253500   1.655   2.442   9.229  0.0598 -0.6287 -0.0458
 9769TIP3   OH253501   5.211   3.201   8.636 -0.0761 -0.0492 -0.7094
 9769TIP3    H153502   5.269   3.125   8.636  1.2586  0.9454 -0.8687
 9769TIP3    H253503   5.269   3.276   8.629 -1.4197  0.9667 -1.4441
 9770TIP3   OH253504   4.167   2.971  11.213 -0.1618  0.1140 -0.1569
 9770TIP3    H153505   4.194   2.940  11.127 -1.5489  0.4764 -0.7445
 9770TIP3    H253506   4.230   3.041  11.234 -0.8134  1.2222 -1.6745
 9771TIP3   OH253507   3.521   0.491   9.821 -0.0005  0.2317 -0.3840
 9771TIP3    H153508   3.442   0.442   9.842 -0.3567  0.8132 -0.3213
 9771TIP3    H253509   3.562   0.508   9.906  1.5857 -2.2610 -0.5512
 9772TIP3   OH253510   1.227   2.801   9.369  1.0105  0.3918  0.4126
 9772TIP3    H153511   1.225   2.773   9.461 -0.0511 -0.5226  0.1264
 9772TIP3    H253512   1.313   2.773   9.338  1.4651  0.8948  1.1737
 9773TIP3   OH253513   3.862   4.528  10.681  0.3770  0.5333 -0.7788
 9773TIP3    H153514   3.828   4.520  10.770 -1.2173  2.7100 -1.1258
 9773TIP3    H253515   3.890   4.439  10.658 -0.4485 -0.3417  1.3900
 9774TIP3   OH253516   3.962   6.353  10.521  0.1903 -0.3534  0.0906
 9774TIP3    H153517   4.043   6.398  10.546  0.0605  0.4924 -0.9459
 9774TIP3    H253518   3.893   6.405  10.563  0.1907 -1.6232  1.7787
 9775TIP3   OH253519   2.962   4.930  12.113 -0.3315 -0.0604 -0.6982
 9775TIP3    H153520   2.918   4.849  12.086  0.3176 -0.2317 -1.2724
 9775TIP3    H253521   2.903   4.999  12.082 -0.7925 -0.2991 -0.3804
 9776TIP3   OH253522   0.158   0.107   8.579  0.1022 -0.3396  0.0307
 9776TIP3    H153523   0.206   0.128   8.659 -1.0363  1.6319  0.2513
 9776TIP3    H253524   0.066   0.109   8.605 -0.4458  2.6284 -1.7270
 9777TIP3   OH253525   4.868   6.219   9.639  0.5688  0.0832 -0.2892
 9777TIP3    H153526   4.964   6.217   9.639  0.5757  0.3000 -0.7803
 9777TIP3    H253527   4.845   6.237   9.548  0.0386 -0.9051 -0.3584
 9778TIP3   OH253528   0.921   0.896  10.175  0.3391  0.0194  0.1145
 9778TIP3    H153529   0.915   0.986  10.144  1.3295 -0.1251 -0.5323
 9778TIP3    H253530   0.834   0.860  10.161  0.6410  0.0648 -2.2003
 9779TIP3   OH253531   0.752   0.671   8.885 -0.0684  0.0027 -0.4764
 9779TIP3    H153532   0.719   0.585   8.859 -0.9068  0.1405  0.0883
 9779TIP3    H253533   0.847   0.665   8.873  0.0754 -1.5195  0.9413
 9780TIP3   OH253534   4.486   6.619   9.371 -0.5139  0.0211 -0.1915
 9780TIP3    H153535   4.421   6.643   9.437 -1.0732  0.3017 -0.8293
 9780TIP3    H253536   4.435   6.596   9.294  0.1344 -0.1053 -0.5958
 9781TIP3   OH253537   1.540   3.720   9.984 -0.4346  0.0431 -0.8103
 9781TIP3    H153538   1.528   3.807   9.946  0.7640 -0.5651 -2.7148
 9781TIP3    H253539   1.562   3.664   9.910 -1.1211 -1.8965  0.3809
 9782TIP3   OH253540   0.682   0.680  10.005  0.5878 -0.5422 -0.0505
 9782TIP3    H153541   0.756   0.620   9.998  0.5281 -0.7549  0.9572
 9782TIP3    H253542   0.638   0.675   9.920  1.4979 -0.7180 -0.5151
 9783TIP3   OH253543   2.991   2.508  10.649 -0.4622  0.5440  0.8795
 9783TIP3    H153544   2.981   2.413  10.638  2.8268  0.2147 -0.3805
 9783TIP3    H253545   2.912   2.545  10.611 -1.4422 -1.6682  0.6068
 9784TIP3   OH253546   1.778   6.653  10.486  0.3306 -0.0619 -0.0332
 9784TIP3    H153547   1.793   6.562  10.461  1.9962  0.4509 -1.0450
 9784TIP3    H253548   1.861   6.682  10.523 -0.1413  1.0849  0.1706
 9785TIP3   OH253549   4.108   2.091  12.001  0.1696  0.1419  0.0516
 9785TIP3    H153550   4.065   2.124  11.922 -0.2400 -1.6600 -0.5456
 9785TIP3    H253551   4.146   2.007  11.973  1.5293  0.3124  1.3362
 9786TIP3   OH253552   2.947   1.993   9.485  0.3171 -0.3949  0.1022
 9786TIP3    H153553   2.992   2.011   9.403  0.3816 -0.6334  0.0861
 9786TIP3    H253554   3.014   2.007   9.553  1.3018 -3.6542 -0.0700
 9787TIP3   OH253555   6.666   6.019   9.826  0.5647  0.1702 -0.6019
 9787TIP3    H153556   6.648   6.099   9.876  1.1463  0.7403 -1.2827
 9787TIP3    H253557   6.679   5.952   9.893 -0.9354  0.4086 -0.0393
 9788TIP3   OH253558   0.481   0.363   9.206 -0.5024  0.2820 -0.7294
 9788TIP3    H153559   0.522   0.343   9.122 -1.7989 -1.7049 -0.9524
 9788TIP3    H253560   0.497   0.457   9.219  2.7142 -0.0522 -1.4944
 9789TIP3   OH253561   1.896   2.755   9.387  0.1924 -0.3476 -0.2129
 9789TIP3    H153562   1.823   2.809   9.356  0.8954  0.6875 -0.1374
 9789TIP3    H253563   1.973   2.813   9.380  0.8201 -1.0271  0.7739
 9790TIP3   OH253564   5.538   5.163  10.933 -0.6838  0.7446 -0.2302
 9790TIP3    H153565   5.614   5.106  10.939 -0.9125  0.1801 -2.1600
 9790TIP3    H253566   5.467   5.111  10.972 -1.0206 -0.6139 -2.4928
 9791TIP3   OH253567   4.018   1.254  10.219  0.9496  0.4544 -0.6394
 9791TIP3    H153568   4.048   1.165  10.238 -1.9807 -0.2091  1.6026
 9791TIP3    H253569   4.071   1.310  10.276 -1.0156 -0.5779  2.4599
 9792TIP3   OH253570   3.041   4.849  10.016 -0.1491 -0.7227 -0.4694
 9792TIP3    H153571   3.068   4.768  10.058 -0.3709 -0.5852 -0.0589
 9792TIP3    H253572   3.123   4.897  10.001 -0.1460 -0.2113  0.9664
 9793TIP3   OH253573   0.269   0.750   8.614  0.5354 -0.2254  0.6428
 9793TIP3    H153574   0.257   0.668   8.661  3.0640 -0.6095  0.7490
 9793TIP3    H253575   0.292   0.724   8.525 -1.6962  0.4642 -0.2034
 9794TIP3   OH253576   5.490   2.801   8.832 -0.0857  0.1854  0.0490
 9794TIP3    H153577   5.410   2.799   8.884  0.4650  0.3471  0.9482
 9794TIP3    H253578   5.553   2.847   8.889  0.8266 -0.5376 -0.3502
 9795TIP3   OH253579   0.555   2.471   9.225  0.1549 -0.0962  0.1431
 9795TIP3    H153580   0.492   2.527   9.180  0.5936 -0.7407 -1.2985
 9795TIP3    H253581   0.562   2.509   9.313 -2.0295  0.1382  0.2580
 9796TIP3   OH253582   2.118   0.353   9.234 -0.0234 -0.2691 -0.0587
 9796TIP3    H153583   2.093   0.416   9.301  0.0824 -1.9137  1.6059
 9796TIP3    H253584   2.053   0.283   9.241  2.0866 -2.2570  0.9510
 9797TIP3   OH253585   0.944   4.383   9.996  0.6990 -0.0232 -0.5337
 9797TIP3    H153586   1.027   4.337   9.983 -0.0191 -2.4493  2.2214
 9797TIP3    H253587   0.892   4.362   9.918  1.7807 -0.6554 -1.1095
 9798TIP3   OH253588   4.588   3.933   9.519  0.0087 -0.3034 -0.1871
 9798TIP3    H153589   4.551   3.862   9.467 -1.9010  0.6599 -0.2285
 9798TIP3    H253590   4.625   3.891   9.596  0.2897 -1.4637 -0.9328
 9799TIP3   OH253591   6.638   5.744  10.796 -0.0030  0.0888  0.1554
 9799TIP3    H153592   6.637   5.823  10.850  1.1882  0.4934 -0.3747
 9799TIP3    H253593   6.703   5.762  10.729 -0.1507 -1.1187 -0.3366
 9800TIP3   OH253594   5.265   4.711   9.912  0.1606  0.1933 -0.0265
 9800TIP3    H153595   5.300   4.745   9.994  0.0459 -0.3734  0.2649
 9800TIP3    H253596   5.170   4.719   9.921  0.0042 -1.8684  0.8357
 9801TIP3   OH253597   0.626   3.540  11.034 -0.1155  0.4978  0.2261
 9801TIP3    H153598   0.721   3.545  11.035 -0.0861  0.0228 -0.1438
 9801TIP3    H253599   0.598   3.614  11.088  0.4998 -0.4127  1.8834
 9802TIP3   OH253600   2.525   0.398   8.950 -0.0630  0.1850 -0.1540
 9802TIP3    H153601   2.611   0.404   8.991 -0.0617  0.3804 -0.1828
 9802TIP3    H253602   2.464   0.402   9.023 -0.0155 -3.3458  0.2330
 9803TIP3   OH253603   6.345   3.417   8.793  0.5368 -0.5445 -0.1781
 9803TIP3    H153604   6.254   3.448   8.789  0.6798 -0.2019 -0.9591
 9803TIP3    H253605   6.337   3.322   8.798  0.1299 -0.4898  0.3346
 9804TIP3   OH253606   4.352   2.216  11.524 -0.3634 -0.2496 -0.1720
 9804TIP3    H153607   4.428   2.164  11.551  0.3362  0.2529 -1.1103
 9804TIP3    H253608   4.378   2.254  11.440 -1.7091 -0.1593 -0.5599
 9805TIP3   OH253609   1.718   1.762   9.397  0.7732  0.1591 -0.6000
 9805TIP3    H153610   1.699   1.843   9.445  0.9883  0.1118 -0.4313
 9805TIP3    H253611   1.644   1.751   9.339 -1.2914 -1.6471  2.1438
 9806TIP3   OH253612   4.723   2.168   9.841  0.2220 -0.4091  0.3983
 9806TIP3    H153613   4.770   2.128   9.767 -1.4543 -2.1588  0.2021
 9806TIP3    H253614   4.633   2.176   9.810 -0.2304  0.1002  1.7933
 9807TIP3   OH253615   4.035   3.486  10.908  0.0824  0.0066 -0.6339
 9807TIP3    H153616   4.035   3.487  11.003 -3.3380 -0.1840 -0.5163
 9807TIP3    H253617   4.045   3.393  10.885  1.2356  0.0845 -0.5403
 9808TIP3   OH253618   1.612   2.072   9.099  0.1766 -0.8649 -0.5098
 9808TIP3    H153619   1.582   1.995   9.147  1.1757 -0.3325  1.0150
 9808TIP3    H253620   1.699   2.048   9.067 -0.1328 -0.9023 -1.3552
 9809TIP3   OH253621   6.641   1.961   9.538 -0.0366  0.1360 -0.2413
 9809TIP3    H153622   6.567   1.901   9.527 -0.7643  1.1501 -1.1394
 9809TIP3    H253623   6.717   1.911   9.509 -0.3177 -0.9979  0.8971
 9810TIP3   OH253624   5.535   3.959   9.387 -0.4308  0.3753  0.3220
 9810TIP3    H153625   5.499   3.997   9.467 -1.3840  0.0455  0.0734
 9810TIP3    H253626   5.621   4.000   9.376 -0.0250 -0.0294  1.8393
 9811TIP3   OH253627   5.255   4.577   8.945  0.3149 -0.0733 -0.4907
 9811TIP3    H153628   5.195   4.633   8.995  0.6670  0.8175 -1.0346
 9811TIP3    H253629   5.236   4.489   8.975 -0.0466  0.3641  0.6210
 9812TIP3   OH253630   1.497   2.344   9.941  0.2994  0.4339  0.1489
 9812TIP3    H153631   1.560   2.288   9.987 -2.7228 -0.9180  3.0488
 9812TIP3    H253632   1.522   2.433   9.965  0.5563 -0.1188  2.1349
 9813TIP3   OH253633   4.283   2.105  10.303 -0.1753 -0.1484  0.2577
 9813TIP3    H153634   4.227   2.098  10.381  0.1717  2.2036  0.7894
 9813TIP3    H253635   4.371   2.088  10.335 -0.1194  0.1167  0.2475
 9814TIP3   OH253636   0.781   0.130   9.866 -0.6590 -0.1088  0.2191
 9814TIP3    H153637   0.869   0.106   9.895 -1.2430 -0.2316  2.0199
 9814TIP3    H253638   0.794   0.203   9.806  0.8473 -1.8921 -1.7897
 9815TIP3   OH253639   4.205   4.358  11.256  0.7422 -0.0529  0.2115
 9815TIP3    H153640   4.236   4.443  11.227 -1.5318  0.7906  0.0468
 9815TIP3    H253641   4.281   4.300  11.248  1.9683  1.6371 -0.9874
 9816TIP3   OH253642   4.367   4.309  10.337 -0.6365 -0.6336  0.2231
 9816TIP3    H153643   4.283   4.346  10.365 -0.0629 -0.7458  2.2677
 9816TIP3    H253644   4.430   4.380  10.350 -0.2361 -0.9210 -0.1391
 9817TIP3   OH253645   6.521   0.880  11.127 -0.0689  0.4537  0.2263
 9817TIP3    H153646   6.584   0.951  11.139  0.1073  0.4079 -0.3857
 9817TIP3    H253647   6.482   0.867  11.213  1.6727 -0.3897  0.9304
 9818TIP3   OH253648   3.218   4.173   9.287  0.1059  0.4569 -0.6670
 9818TIP3    H153649   3.228   4.209   9.199  1.4825  0.2280 -0.6233
 9818TIP3    H253650   3.190   4.247   9.341  0.6762  0.9370 -1.0178
 9819TIP3   OH253651   5.077   0.318  10.062 -0.0585 -0.0081 -0.1298
 9819TIP3    H153652   5.017   0.292  10.132 -0.1381  2.3312  0.7690
 9819TIP3    H253653   5.163   0.318  10.104  0.0316  0.4393 -0.3173
 9820TIP3   OH253654   3.873   5.201  10.226  0.3677 -0.1854 -0.2301
 9820TIP3    H153655   3.909   5.115  10.203 -0.7536 -0.9988  0.9196
 9820TIP3    H253656   3.796   5.210  10.170  0.5478  0.1349 -0.4314
 9821TIP3   OH253657   2.764   0.180   9.142 -0.0978 -0.6129 -0.0750
 9821TIP3    H153658   2.762   0.274   9.124  0.5648 -0.7722 -1.0725
 9821TIP3    H253659   2.841   0.148   9.095  1.5964 -1.1597  2.8236
 9822TIP3   OH253660   2.622   0.640  10.096  0.2524  0.0218 -0.0214
 9822TIP3    H153661   2.583   0.620  10.011  0.5529  1.0393 -0.4095
 9822TIP3    H253662   2.690   0.574  10.107  0.7223  0.3482 -0.9226
 9823TIP3   OH253663   0.353   6.520   8.819 -0.2871  0.5168  0.1462
 9823TIP3    H153664   0.366   6.428   8.840  0.5721  0.0969 -2.0022
 9823TIP3    H253665   0.258   6.533   8.826 -0.4409 -0.5851  0.2212
 9824TIP3   OH253666   3.707   5.793  10.302  0.3060 -0.0078  0.2262
 9824TIP3    H153667   3.753   5.806  10.219  0.5830 -0.2090  0.3442
 9824TIP3    H253668   3.680   5.881  10.329  1.7512  0.2931  0.7921
 9825TIP3   OH253669   6.089   1.029   9.232  0.3913 -0.3809 -0.6479
 9825TIP3    H153670   6.075   1.123   9.222 -0.4115 -0.5418 -1.0715
 9825TIP3    H253671   6.184   1.020   9.238  0.5777  0.3314 -2.0511
 9826TIP3   OH253672   6.153   1.627  10.355 -0.0825 -0.2003  0.1197
 9826TIP3    H153673   6.202   1.672  10.424  1.2755 -1.1064 -0.2028
 9826TIP3    H253674   6.079   1.587  10.400 -0.2823  0.8062  0.7143
 9827TIP3   OH253675   0.784   5.736  10.989 -1.0010  0.1857 -0.1909
 9827TIP3    H153676   0.792   5.640  10.985  2.1447  0.3579 -0.6990
 9827TIP3    H253677   0.719   5.751  11.057 -0.4910 -2.3408  1.0050
 9828TIP3   OH253678   4.712   6.588  11.510 -0.2843 -0.1457  0.3777
 9828TIP3    H153679   4.764   6.653  11.462  0.4206 -0.6806  0.3971
 9828TIP3    H253680   4.776   6.542  11.565 -0.5617 -1.6801 -0.5345
 9829TIP3   OH253681   6.208   4.613  10.245 -0.3046 -0.4258 -0.6695
 9829TIP3    H153682   6.212   4.518  10.234  1.3625 -0.3357 -1.1266
 9829TIP3    H253683   6.152   4.626  10.322  0.8150 -1.8645  0.4443
 9830TIP3   OH253684   6.405   6.301  10.395 -0.0791  0.3007  0.1652
 9830TIP3    H153685   6.378   6.290  10.487 -0.8669 -0.6474 -0.1677
 9830TIP3    H253686   6.465   6.229  10.378 -1.8851 -1.0623 -0.7659
 9831TIP3   OH253687   0.466   0.155  10.312 -0.3745 -0.5071  0.2870
 9831TIP3    H153688   0.371   0.150  10.313 -0.4141 -0.1906  2.5494
 9831TIP3    H253689   0.493   0.137  10.402  1.7803 -1.6125 -0.5030
 9832TIP3   OH253690   5.556   3.900   8.871 -0.0752 -0.5312  0.7304
 9832TIP3    H153691   5.533   3.818   8.827  0.0727 -0.2571  0.1263
 9832TIP3    H253692   5.602   3.873   8.950  1.6967 -1.0145 -0.4173
 9833TIP3   OH253693   4.252   5.642  11.545  0.0755  0.9121 -0.1405
 9833TIP3    H153694   4.262   5.549  11.524  2.9255  1.3846 -1.3562
 9833TIP3    H253695   4.246   5.645  11.641  1.8789 -0.4418  0.0590
 9834TIP3   OH253696   1.330   1.838   8.937  0.0036  0.1101 -0.6867
 9834TIP3    H153697   1.310   1.928   8.911  1.1742  0.9164  0.9903
 9834TIP3    H253698   1.420   1.824   8.906  0.1246 -0.1677 -0.2213
 9835TIP3   OH253699   2.178   0.015  11.363  0.5219  0.1231  0.1935
 9835TIP3    H153700   2.091  -0.014  11.338  0.8812  0.6070 -1.8365
 9835TIP3    H253701   2.225  -0.065  11.385 -0.4589 -0.1240  1.5171
 9836TIP3   OH253702   1.809   0.216   9.444 -0.5898  0.2272 -0.3011
 9836TIP3    H153703   1.891   0.206   9.493 -0.2290  0.3126 -0.8888
 9836TIP3    H253704   1.769   0.295   9.480 -0.1788  0.4617 -0.3617
 9837TIP3   OH253705   6.525   3.318  10.834  0.3476 -0.3122  0.2503
 9837TIP3    H153706   6.539   3.297  10.926  3.8624 -0.8293 -0.2651
 9837TIP3    H253707   6.518   3.233  10.791  0.7389 -0.1162 -0.2012
 9838TIP3   OH253708   3.604   0.570   9.565  0.4152 -0.3354  0.1981
 9838TIP3    H153709   3.672   0.632   9.592  0.2503  0.2946 -0.7928
 9838TIP3    H253710   3.553   0.556   9.645  1.1874 -0.1542  0.7428
 9839TIP3   OH253711   4.781   5.673  10.963  0.2853  0.0473 -0.0397
 9839TIP3    H153712   4.744   5.608  10.903  0.2778 -0.7134  0.7637
 9839TIP3    H253713   4.749   5.646  11.050  1.1169  0.5328  0.4241
 9840TIP3   OH253714   1.320   1.133  11.348 -0.0689  0.0610  0.1302
 9840TIP3    H153715   1.355   1.220  11.330 -0.0319 -0.0524 -0.3525
 9840TIP3    H253716   1.323   1.088  11.264  1.2186 -0.8690  0.6283
 9841TIP3   OH253717   4.282   1.476  10.421 -0.0609 -0.0292  0.0695
 9841TIP3    H153718   4.282   1.467  10.326  1.9669 -0.8243  0.0924
 9841TIP3    H253719   4.236   1.399  10.453 -1.7625  0.8020 -0.2462
 9842TIP3   OH253720   6.262   3.021  11.133  0.5334  0.0960 -0.0509
 9842TIP3    H153721   6.296   2.940  11.095  1.3140  0.4970 -0.2342
 9842TIP3    H253722   6.217   2.994  11.213  4.2145 -0.1706  2.1176
 9843TIP3   OH253723   2.723   2.341   9.845 -0.3494  0.3989 -0.3969
 9843TIP3    H153724   2.705   2.282   9.918 -0.0009  0.8958  0.0906
 9843TIP3    H253725   2.797   2.300   9.800 -1.2090 -0.4528 -1.0916
 9844TIP3   OH253726   4.910   1.117  10.320  0.4640 -0.3396 -0.0808
 9844TIP3    H153727   4.891   1.204  10.285  1.8765  0.7319  1.6556
 9844TIP3    H253728   4.991   1.090  10.277  0.7004 -0.2293  0.2856
 9845TIP3   OH253729   6.490   1.474   9.963  0.2584 -0.0745  0.5511
 9845TIP3    H153730   6.493   1.549   9.903 -1.2608 -1.1211 -0.9311
 9845TIP3    H253731   6.411   1.488  10.015 -0.7203 -1.2032 -0.5746
 9846TIP3   OH253732   1.076   3.632  10.818 -0.1067 -0.3531  0.4513
 9846TIP3    H153733   0.984   3.636  10.792  0.0175 -2.4325 -0.4795
 9846TIP3    H253734   1.084   3.548  10.864  1.5458 -0.7507 -0.4744
 9847TIP3   OH253735   4.762   0.993  11.873  0.1310  0.1155  0.3344
 9847TIP3    H153736   4.819   1.029  11.805 -2.1885  1.5962 -0.9781
 9847TIP3    H253737   4.759   0.899  11.855  0.4858  0.3206 -0.8744
 9848TIP3   OH253738   4.541   0.246   9.317  0.1952  0.1079  0.4015
 9848TIP3    H153739   4.565   0.237   9.409  1.4926  0.8343  0.1632
 9848TIP3    H253740   4.575   0.332   9.291 -1.3059  0.4885 -0.4218
 9849TIP3   OH253741   0.274   4.743   8.840 -0.5425 -0.1871 -0.9709
 9849TIP3    H153742   0.336   4.694   8.787  0.3937 -0.6197  0.4808
 9849TIP3    H253743   0.314   4.749   8.927 -2.2737 -0.0026 -0.1277
 9850TIP3   OH253744   1.550   4.868  12.235  0.3359 -0.3052  0.3586
 9850TIP3    H153745   1.501   4.941  12.274 -0.6436  0.1242 -1.5794
 9850TIP3    H253746   1.488   4.795  12.235  0.3218 -0.2953 -0.4037
 9851TIP3   OH253747   2.435   0.427  10.616 -0.5443 -0.7735 -0.0802
 9851TIP3    H153748   2.451   0.354  10.557 -0.5193 -0.0787 -0.9644
 9851TIP3    H253749   2.497   0.414  10.688  2.5606  0.5763 -2.2836
 9852TIP3   OH253750   3.538   5.616   9.350  0.2828 -0.3404  0.1487
 9852TIP3    H153751   3.584   5.699   9.362  1.5719 -0.9811 -0.2670
 9852TIP3    H253752   3.580   5.555   9.410  1.0291 -1.3249 -1.2967
 9853TIP3   OH253753   5.485   4.814   9.705  0.3367  0.0982 -0.3516
 9853TIP3    H153754   5.491   4.814   9.801  1.8310 -0.4332 -0.4100
 9853TIP3    H253755   5.392   4.815   9.687  0.0232  0.3100  1.1150
 9854TIP3   OH253756   6.262   4.195   9.169  0.0276 -0.0107 -0.0922
 9854TIP3    H153757   6.314   4.153   9.100  1.6045  2.5006 -0.5657
 9854TIP3    H253758   6.221   4.122   9.216 -0.3810 -1.8560 -3.0717
 9855TIP3   OH253759   3.446   3.257   9.061  0.2744  0.0160 -0.8515
 9855TIP3    H153760   3.424   3.194   9.129  1.5263 -1.3740 -1.6813
 9855TIP3    H253761   3.363   3.297   9.036 -0.1533  1.0531  1.9059
 9856TIP3   OH253762   1.631   5.957  10.233 -0.2559 -0.5389  0.2454
 9856TIP3    H153763   1.565   5.997  10.289  0.0247 -2.0158  1.7197
 9856TIP3    H253764   1.595   5.965  10.144 -1.7907 -0.1436  0.8680
 9857TIP3   OH253765   4.481   2.467  10.568  0.1732  0.5346  0.1878
 9857TIP3    H153766   4.520   2.382  10.548 -0.8606 -0.1926  1.1112
 9857TIP3    H253767   4.552   2.530  10.557  0.4616 -0.1548 -2.5724
 9858TIP3   OH253768   0.888   5.052   9.926 -0.1886 -0.2206 -0.2655
 9858TIP3    H153769   0.887   5.009  10.011  0.2184 -0.9222 -0.6048
 9858TIP3    H253770   0.973   5.094   9.920 -1.1344  1.9827  0.6938
 9859TIP3   OH253771   3.749   3.632  10.511 -0.1580  0.1740 -0.0426
 9859TIP3    H153772   3.740   3.702  10.446  0.6985  1.6882  1.3805
 9859TIP3    H253773   3.843   3.627  10.527 -0.2108 -1.3368 -0.1144
 9860TIP3   OH253774   2.149   1.699  10.438  0.4413  0.0418  0.1226
 9860TIP3    H153775   2.083   1.728  10.501 -0.5411 -3.3023  0.8100
 9860TIP3    H253776   2.107   1.710  10.353 -0.4598 -0.6929  0.4580
 9861TIP3   OH253777   1.260   1.025   8.842 -0.5965  0.4837 -0.0279
 9861TIP3    H153778   1.323   1.090   8.872 -1.2343 -0.1574  3.0210
 9861TIP3    H253779   1.295   0.994   8.759  1.8083  1.8697  0.3916
 9862TIP3   OH253780   2.293   0.843  11.286 -0.2344 -0.1328  0.0103
 9862TIP3    H153781   2.271   0.814  11.374 -1.2843 -1.8085 -0.7434
 9862TIP3    H253782   2.260   0.773  11.229  0.9244  0.6295 -1.6758
 9863TIP3   OH253783   2.594   2.943  10.526 -0.3595 -0.5799 -0.3291
 9863TIP3    H153784   2.507   2.968  10.497  0.3135  1.1686 -1.0016
 9863TIP3    H253785   2.638   2.912  10.447  0.1328  0.1234 -0.3430
 9864TIP3   OH253786   5.655   5.412  11.605  0.1601 -0.7327  0.0049
 9864TIP3    H153787   5.659   5.317  11.608  0.4686 -0.7423 -0.5751
 9864TIP3    H253788   5.733   5.438  11.555 -0.2681 -0.2162 -0.4106
 9865TIP3   OH253789   3.799   5.469   9.785 -0.3483  0.0177  0.6149
 9865TIP3    H153790   3.866   5.401   9.778 -0.9128 -0.4157 -0.7148
 9865TIP3    H253791   3.787   5.481   9.880  1.6513  0.1675  0.8953
 9866TIP3   OH253792   5.739   2.959  10.993  0.0592  0.0287 -0.0375
 9866TIP3    H153793   5.720   2.930  11.083 -0.5537 -1.3791 -0.5829
 9866TIP3    H253794   5.759   2.878  10.946  0.7364  0.7900 -1.0943
 9867TIP3   OH253795   5.154   1.104   9.823  0.1452 -0.0103  0.1280
 9867TIP3    H153796   5.168   1.196   9.798  2.0430 -0.4158 -0.4875
 9867TIP3    H253797   5.242   1.066   9.825 -0.5493 -1.6826  0.9642
 9868TIP3   OH253798   2.397   4.706   8.968 -0.5471 -0.0858  0.1294
 9868TIP3    H153799   2.306   4.684   8.991 -0.6977 -0.5418 -0.8441
 9868TIP3    H253800   2.447   4.684   9.046 -1.0117 -1.7618 -0.0013
 9869TIP3   OH253801   3.815   3.808   8.385  0.0360 -0.3428  0.2122
 9869TIP3    H153802   3.876   3.836   8.453  1.1356  0.6591 -1.1333
 9869TIP3    H253803   3.869   3.798   8.306 -1.3919 -0.2505 -0.8257
 9870TIP3   OH253804   0.329   6.266   9.304 -0.6099 -0.1026  0.2284
 9870TIP3    H153805   0.292   6.350   9.329 -1.3063  0.0839 -1.3318
 9870TIP3    H253806   0.270   6.201   9.343  1.8436 -0.1167  4.5585
 9871TIP3   OH253807   5.354   1.077  10.223  0.2311 -0.6181 -0.5679
 9871TIP3    H153808   5.411   1.051  10.151 -0.3646 -3.3572 -0.1638
 9871TIP3    H253809   5.284   1.012  10.223  0.0084 -0.5058  2.2347
 9872TIP3   OH253810   5.609   3.885  10.894 -0.1799 -0.7020  0.0107
 9872TIP3    H153811   5.543   3.931  10.843 -0.7403 -0.1726  1.1854
 9872TIP3    H253812   5.566   3.804  10.922  0.3884 -1.3748 -0.9896
 9873TIP3   OH253813   2.650   1.258   9.260  0.0534  0.3595  0.3330
 9873TIP3    H153814   2.610   1.292   9.180  2.0343  1.4267 -0.2755
 9873TIP3    H253815   2.698   1.332   9.297  0.1574 -0.4311  1.8649
 9874TIP3   OH253816   0.574   4.956  11.633  0.0439 -0.4727  0.3190
 9874TIP3    H153817   0.533   4.887  11.685  0.7076 -1.0111  0.1454
 9874TIP3    H253818   0.611   4.909  11.557  0.4380  0.0866  0.1627
 9875TIP3   OH253819   1.748   2.934  11.423  0.8673 -0.4409 -0.3505
 9875TIP3    H153820   1.804   2.994  11.472 -1.2659  1.0951  0.3553
 9875TIP3    H253821   1.780   2.938  11.333  3.2700 -1.3793  0.3934
 9876TIP3   OH253822   0.809   2.249   9.987 -0.5873  0.1035 -0.0046
 9876TIP3    H153823   0.902   2.234  10.005 -0.1869  1.3744 -0.8660
 9876TIP3    H253824   0.765   2.224  10.068  0.4772 -0.6824  0.3591
 9877TIP3   OH253825   6.228   0.917  10.110  0.1153  0.0112 -0.2372
 9877TIP3    H153826   6.277   0.918  10.028 -0.1563  0.1609 -0.3990
 9877TIP3    H253827   6.165   0.846  10.100 -1.7015  1.6516 -1.2271
 9878TIP3   OH253828   1.881   5.473   9.326  0.0287 -0.4430  0.0312
 9878TIP3    H153829   1.957   5.432   9.367  0.1098 -0.1296  0.2002
 9878TIP3    H253830   1.864   5.420   9.248  3.8465  2.4668 -3.2667
 9879TIP3   OH253831   2.960   5.329  11.277 -0.2807  0.1951 -0.2008
 9879TIP3    H153832   2.925   5.345  11.365 -1.0132  1.2369 -0.6676
 9879TIP3    H253833   2.898   5.268  11.237  0.8776 -1.5426  0.5035
 9880TIP3   OH253834   5.032   4.871  11.690  0.2813  0.0958  0.4951
 9880TIP3    H153835   4.981   4.790  11.691  0.3402  0.0434 -0.2226
 9880TIP3    H253836   4.985   4.929  11.631 -0.1504  0.8615  1.5612
 9881TIP3   OH253837   2.516   0.660   9.227 -0.3241  0.6697 -0.2236
 9881TIP3    H153838   2.506   0.742   9.276 -0.2288  0.7077 -0.2680
 9881TIP3    H253839   2.593   0.674   9.172  0.2478  0.2248  0.4321
 9882TIP3   OH253840   5.201   6.543  10.119  0.4105  0.2572  0.1860
 9882TIP3    H153841   5.130   6.500  10.166 -0.9491  0.9582 -1.1798
 9882TIP3    H253842   5.202   6.633  10.153  0.1114  0.4728 -0.3710
 9883TIP3   OH253843   4.726   4.312  12.426 -0.8426  0.2735  0.7247
 9883TIP3    H153844   4.673   4.380  12.468 -1.5960  0.5207 -0.5629
 9883TIP3    H253845   4.666   4.239  12.413 -0.3299 -0.2206  1.0788
 9884TIP3   OH253846   2.360   0.211  11.220  0.0534 -0.0260 -0.0419
 9884TIP3    H153847   2.313   0.138  11.261  1.0655  0.4425  2.0554
 9884TIP3    H253848   2.291   0.273  11.195 -0.6775 -0.9046 -0.2779
 9885TIP3   OH253849   4.168   3.529  10.092  0.1075  0.0363 -0.4941
 9885TIP3    H153850   4.146   3.488  10.175 -0.9614  0.6819 -0.4426
 9885TIP3    H253851   4.252   3.572  10.107  0.7361 -1.2413 -0.2540
 9886TIP3   OH253852   4.483   4.013  11.381  0.0892 -0.5411 -0.1704
 9886TIP3    H153853   4.519   3.935  11.422  0.7663  0.2562  0.8099
 9886TIP3    H253854   4.400   3.984  11.342 -0.5015 -1.4094  1.6220
 9887TIP3   OH253855   1.696   4.550  11.880  0.6498  0.2893 -0.3869
 9887TIP3    H153856   1.724   4.474  11.829  1.2080  1.9497 -2.7365
 9887TIP3    H253857   1.601   4.540  11.890  0.7360 -0.7401 -0.5624
 9888TIP3   OH253858   3.915   0.598  10.765  0.6639  0.0581  0.2738
 9888TIP3    H153859   3.923   0.602  10.670  0.3757  0.4362  0.2611
 9888TIP3    H253860   3.990   0.547  10.794  0.6331 -0.2436 -0.1750
 9889TIP3   OH253861   4.631   4.897   9.276  0.3456 -0.1775  0.3126
 9889TIP3    H153862   4.565   4.877   9.210  0.1577  2.6480 -0.4652
 9889TIP3    H253863   4.703   4.838   9.256 -0.0863 -0.0541 -1.8387
 9890TIP3   OH253864   3.600   0.336   9.114 -0.3314 -0.2878  0.1610
 9890TIP3    H153865   3.595   0.426   9.082  0.0759 -0.7667 -1.3712
 9890TIP3    H253866   3.604   0.283   9.034 -0.5285 -1.6638  1.0290
 9891TIP3   OH253867   0.152   6.626   9.101 -0.4097 -0.1775  0.0152
 9891TIP3    H153868   0.191   6.711   9.122 -0.8060  0.0778 -0.2881
 9891TIP3    H253869   0.061   6.633   9.130 -1.1923  0.4394 -2.3601
 9892TIP3   OH253870   2.072   1.800   9.609 -0.1815 -0.4507  0.0716
 9892TIP3    H153871   1.987   1.767   9.638 -2.9602  1.9660 -4.1896
 9892TIP3    H253872   2.077   1.888   9.645 -0.7857  0.3204 -1.6244
 9893TIP3   OH253873   6.655   5.828  11.986  0.0383 -0.2215 -0.5957
 9893TIP3    H153874   6.687   5.877  11.910  1.4590 -1.3176 -0.7313
 9893TIP3    H253875   6.654   5.892  12.057 -0.0958  0.5068 -1.2439
 9894TIP3   OH253876   6.310   2.888  10.525 -0.3138  0.0565 -0.2578
 9894TIP3    H153877   6.264   2.927  10.451  2.0484  1.6864 -0.9613
 9894TIP3    H253878   6.332   2.962  10.582 -0.5107 -0.9488  1.1879
 9895TIP3   OH253879   2.242   2.076   9.923  0.3612  0.0524 -0.5705
 9895TIP3    H153880   2.184   2.102   9.995  0.7434 -1.1675  0.1909
 9895TIP3    H253881   2.287   1.999   9.954  0.7494 -0.3448 -2.0279
 9896TIP3   OH253882   4.004   3.362  12.179  0.2735 -0.4717  0.4674
 9896TIP3    H153883   4.025   3.312  12.258  1.7371 -0.6631 -0.0156
 9896TIP3    H253884   3.973   3.296  12.117 -1.6846 -0.2248  1.0861
 9897TIP3   OH253885   3.170   3.419  10.522 -0.4091 -0.0823 -0.4684
 9897TIP3    H153886   3.146   3.465  10.603  0.6653 -1.5666  0.7509
 9897TIP3    H253887   3.143   3.328  10.537 -2.0847 -0.0334 -2.6392
 9898TIP3   OH253888   3.524   5.446   9.671 -0.0444  0.5966  0.1238
 9898TIP3    H153889   3.605   5.399   9.650 -0.6686 -0.5261  0.1396
 9898TIP3    H253890   3.551   5.537   9.683  1.6225 -0.1046  2.4334
 9899TIP3   OH253891   5.106   1.914  10.352  0.0671 -0.4318  0.0422
 9899TIP3    H153892   5.163   1.857  10.299  0.2057 -1.2165  1.0140
 9899TIP3    H253893   5.085   1.862  10.429  0.5364  0.9888  1.1687
 9900TIP3   OH253894   1.040   4.171   9.522  0.0869  0.1681 -0.4162
 9900TIP3    H153895   1.032   4.107   9.450  1.4223 -0.5711  0.0589
 9900TIP3    H253896   1.060   4.254   9.478 -1.4717  0.2646 -1.0281
 9901TIP3   OH253897   3.995   2.314   8.373 -0.1926 -0.4792 -0.0580
 9901TIP3    H153898   3.997   2.409   8.364 -2.2858 -0.5245 -1.7032
 9901TIP3    H253899   4.065   2.283   8.315 -1.1363  0.0114 -1.5225
 9902TIP3   OH253900   0.162   6.423  11.015  0.8037  0.6996  1.0611
 9902TIP3    H153901   0.123   6.510  11.019 -0.8784 -0.0375  1.6702
 9902TIP3    H253902   0.244   6.431  11.063 -0.2962  1.4861  2.8974
 9903TIP3   OH253903   1.565   0.246  10.268 -0.1010 -0.4275  0.1074
 9903TIP3    H153904   1.507   0.201  10.206 -0.3445  0.0038  0.0160
 9903TIP3    H253905   1.509   0.312  10.309  0.0995 -0.6066  0.6756
 9904TIP3   OH253906   1.695   0.887   9.965  0.2677 -0.2818 -0.2732
 9904TIP3    H153907   1.725   0.916  10.051 -1.8994 -1.8021  1.1229
 9904TIP3    H253908   1.631   0.819   9.984  0.7613 -1.7225 -3.1766
 9905TIP3   OH253909   4.796   6.652   9.353 -0.1464  0.0926 -0.4131
 9905TIP3    H153910   4.713   6.608   9.373 -0.7503  1.1250 -0.6130
 9905TIP3    H253911   4.773   6.722   9.293  0.9141  0.2482 -0.6643
 9906TIP3   OH253912   1.061   6.436  10.276  0.3618  0.6619 -0.1603
 9906TIP3    H153913   1.023   6.455  10.191  0.1829 -2.1259 -0.7905
 9906TIP3    H253914   1.023   6.501  10.335 -2.4943  0.3119 -1.4779
 9907TIP3   OH253915   4.633   5.414   8.980  0.4265  0.3074 -0.2796
 9907TIP3    H153916   4.712   5.396   9.031 -1.0160 -0.2881  1.8681
 9907TIP3    H253917   4.622   5.509   8.986 -0.3142  0.1506  1.5472
 9908TIP3   OH253918   3.485   4.013   9.174  0.0581  0.4655  0.6191
 9908TIP3    H153919   3.449   4.100   9.162  0.6580  0.8396  1.4219
 9908TIP3    H253920   3.575   4.027   9.204  0.5788 -0.4385 -0.4343
 9909TIP3   OH253921   4.714   1.253  11.108 -0.1869  0.0795  0.6253
 9909TIP3    H153922   4.666   1.207  11.039 -0.4455  0.5850  0.4560
 9909TIP3    H253923   4.648   1.270  11.176 -0.5306  1.6909 -0.0616
 9910TIP3   OH253924   4.664   0.443  10.435  0.2002  0.1224 -0.5048
 9910TIP3    H153925   4.701   0.421  10.349 -0.1465  1.1500 -0.9395
 9910TIP3    H253926   4.649   0.359  10.477  3.0788 -0.3577 -0.2607
 9911TIP3   OH253927   5.001   6.444  10.265  0.2174  0.4110  0.7592
 9911TIP3    H153928   4.980   6.512  10.329 -1.1809 -0.7640  1.6169
 9911TIP3    H253929   5.013   6.365  10.317 -1.4826 -0.7076 -0.4107
 9912TIP3   OH253930   0.507   2.896   9.202  0.0203 -0.1857 -0.1810
 9912TIP3    H153931   0.558   2.908   9.281 -0.1010 -1.3609  0.0955
 9912TIP3    H253932   0.565   2.924   9.131  0.1548  0.8025  0.3044
 9913TIP3   OH253933   5.997   1.776   9.548  0.4093  0.3531  0.3393
 9913TIP3    H153934   6.041   1.701   9.588 -0.6159 -0.0881  0.6993
 9913TIP3    H253935   5.927   1.798   9.610 -0.9612 -0.0921 -0.9759
 9914TIP3   OH253936   2.677   5.813  10.476 -0.2441  0.3380  0.3837
 9914TIP3    H153937   2.766   5.815  10.509  0.7414 -2.9730 -1.5549
 9914TIP3    H253938   2.632   5.747  10.529 -0.9818  0.6288  0.1437
 9915TIP3   OH253939   2.580   5.969  11.011 -0.2101 -0.4582  0.2698
 9915TIP3    H153940   2.624   5.888  10.984  0.9184  0.4567 -0.7743
 9915TIP3    H253941   2.616   6.036  10.953 -0.5600  0.9393  1.5888
 9916TIP3   OH253942   0.159   2.357   9.932  0.0164 -0.1881 -0.0397
 9916TIP3    H153943   0.091   2.302   9.895  2.3226 -3.0081 -0.4184
 9916TIP3    H253944   0.188   2.412   9.858  0.3287 -1.2718 -0.7373
 9917TIP3   OH253945   5.257   6.658   9.290  0.1198 -0.3809  0.2647
 9917TIP3    H153946   5.292   6.577   9.327 -0.1258 -0.9509 -0.7341
 9917TIP3    H253947   5.333   6.703   9.254  0.4575  0.4576  1.9151
 9918TIP3   OH253948   5.863   6.266  11.014  0.2333 -0.1577  0.0422
 9918TIP3    H153949   5.870   6.176  11.046  1.2567 -0.4380 -0.8996
 9918TIP3    H253950   5.776   6.294  11.041  0.7002 -0.6300  2.3276
 9919TIP3   OH253951   1.070   3.526  10.120  0.0594 -0.2618 -0.1745
 9919TIP3    H153952   1.039   3.616  10.115 -0.4205 -0.4745 -1.5126
 9919TIP3    H253953   1.009   3.482  10.179 -0.0212  0.1584  0.0553
 9920TIP3   OH253954   2.254   4.564  10.912  0.1439  0.4324 -0.4955
 9920TIP3    H153955   2.310   4.640  10.929 -1.8937  1.9846 -0.2906
 9920TIP3    H253956   2.237   4.528  10.999 -0.1200  0.6855 -0.4408
 9921TIP3   OH253957   2.531   5.003  10.431 -0.2625 -0.5111  0.1423
 9921TIP3    H153958   2.514   4.984  10.523 -0.3602 -0.7655  0.0726
 9921TIP3    H253959   2.621   5.036  10.429 -0.1787 -0.7331  0.2963
 9922TIP3   OH253960   1.068   6.526   9.749  0.3008  0.4084 -0.5487
 9922TIP3    H153961   1.154   6.563   9.731  0.1198  0.4090 -1.4691
 9922TIP3    H253962   1.031   6.580   9.819  0.0689  1.9364 -1.8048
 9923TIP3   OH253963   5.976   0.096  10.265 -0.1639 -0.2932 -0.2071
 9923TIP3    H153964   5.985   0.085  10.359 -1.5518 -1.3322 -0.1598
 9923TIP3    H253965   5.886   0.127  10.253 -0.2489 -0.9001 -1.2417
 9924TIP3   OH253966   6.472   0.165  11.524 -0.1504 -0.0607  0.0622
 9924TIP3    H153967   6.512   0.078  11.520  0.9224  0.4410 -1.1232
 9924TIP3    H253968   6.481   0.199  11.435 -0.2694  1.3825  0.5751
 9925TIP3   OH253969   0.184   5.044  11.389  0.3667  0.6538  0.4117
 9925TIP3    H153970   0.242   5.056  11.314  0.6080 -0.3459  0.4308
 9925TIP3    H253971   0.242   5.045  11.465  0.1680  1.2552  0.5626
 9926TIP3   OH253972   5.772   4.724  10.234  0.3165 -0.5746  0.3773
 9926TIP3    H153973   5.829   4.656  10.271 -1.2807 -1.9733  0.4045
 9926TIP3    H253974   5.747   4.690  10.148 -4.8376 -2.9354  2.3712
 9927TIP3   OH253975   3.245   1.947  11.690 -0.3938 -0.2790 -0.0636
 9927TIP3    H153976   3.330   1.979  11.719  0.2544 -0.7815 -1.3220
 9927TIP3    H253977   3.194   1.937  11.770  0.9466 -0.6028  0.7713
 9928TIP3   OH253978   1.782   4.850  12.092 -0.4087  0.1171  0.1115
 9928TIP3    H153979   1.755   4.820  12.005  1.5078 -0.2458 -0.4085
 9928TIP3    H253980   1.700   4.856  12.141 -1.6023  0.7439 -1.8155
 9929TIP3   OH253981   6.442   0.892  10.292  0.1673 -0.7059  0.2173
 9929TIP3    H153982   6.367   0.886  10.233  0.5258 -0.9199 -0.2238
 9929TIP3    H253983   6.433   0.817  10.350 -1.2067  0.5052  1.6731
 9930TIP3   OH253984   0.109   5.845  11.533 -0.1059 -0.1199  0.5053
 9930TIP3    H153985   0.141   5.821  11.446  1.8935  0.1651  1.1197
 9930TIP3    H253986   0.167   5.799  11.594 -1.0393  0.2227  1.6993
 9931TIP3   OH253987   0.395   0.990   9.145 -0.4637 -0.2130 -0.1901
 9931TIP3    H153988   0.394   1.084   9.161  0.0245  0.1136 -1.8545
 9931TIP3    H253989   0.419   0.951   9.229 -2.1345  1.0275  0.9104
 9932TIP3   OH253990   2.774   2.583  10.531  0.0426  0.1068  0.0703
 9932TIP3    H153991   2.715   2.563  10.459 -0.4243 -0.4723  0.6065
 9932TIP3    H253992   2.719   2.628  10.595  0.9117  2.5611 -0.8111
 9933TIP3   OH253993   4.027   3.783  10.957  0.1529 -0.4288 -0.2654
 9933TIP3    H153994   3.960   3.754  10.895 -1.8429  1.3166  0.9191
 9933TIP3    H253995   4.018   3.879  10.958  0.5970 -0.3554  2.1538
 9934TIP3   OH253996   0.457   6.612   9.143  0.5177  0.5662  0.1727
 9934TIP3    H153997   0.390   6.582   9.081 -0.5210  1.8722  0.6342
 9934TIP3    H253998   0.532   6.555   9.126 -1.1925 -2.0046  0.7038
 9935TIP3   OH253999   1.115   5.081  10.625 -0.1690 -0.2548  0.1075
 9935TIP3    H154000   1.179   5.138  10.666  1.6002 -1.2818 -1.1140
 9935TIP3    H254001   1.099   5.120  10.539 -0.6835 -0.3948  0.1321
 9936TIP3   OH254002   1.966   0.480   9.432 -0.1280  0.2682 -0.5418
 9936TIP3    H154003   1.978   0.573   9.451  1.0336  0.0089  0.0876
 9936TIP3    H254004   1.888   0.455   9.481 -1.0393  1.1300 -1.5194
 9937TIP3   OH254005   6.624   5.151   9.191  0.4697  0.5381  0.4790
 9937TIP3    H154006   6.583   5.229   9.230  0.8948  1.5679 -1.0459
 9937TIP3    H254007   6.706   5.183   9.153  0.1119 -0.4043 -1.1942
 9938TIP3   OH254008   3.816   1.580  11.131  0.2017  0.7426  0.6359
 9938TIP3    H154009   3.856   1.665  11.146  0.6872  1.1815 -2.5810
 9938TIP3    H254010   3.807   1.542  11.219  2.4115  2.9602  1.9324
 9939TIP3   OH254011   3.220   6.206   9.130  0.4595 -0.1937  0.3865
 9939TIP3    H154012   3.142   6.251   9.162  0.5966 -0.1618  0.6815
 9939TIP3    H254013   3.214   6.212   9.035 -0.1830 -0.6771  0.3871
 9940TIP3   OH254014   1.606   0.471   8.841 -0.4555 -0.4113  0.2052
 9940TIP3    H154015   1.572   0.450   8.928  1.4194 -4.2483  0.2475
 9940TIP3    H254016   1.534   0.449   8.781 -1.1252  0.4878  0.6572
 9941TIP3   OH254017   0.203   2.971  10.388 -0.0333 -0.3336 -0.2471
 9941TIP3    H154018   0.258   3.048  10.408  1.4682 -1.0392 -1.4274
 9941TIP3    H254019   0.165   2.990  10.302  0.7596 -1.1012 -0.7858
 9942TIP3   OH254020   5.578   3.529   9.354  0.0716  0.6797  0.1711
 9942TIP3    H154021   5.657   3.503   9.402 -0.5470 -1.3240  0.2064
 9942TIP3    H254022   5.608   3.546   9.265  0.4468 -1.0287 -0.0611
 9943TIP3   OH254023   1.174   0.072   9.253 -0.3328 -0.1264  0.8134
 9943TIP3    H154024   1.085   0.037   9.253 -0.5820  0.1666 -2.7931
 9943TIP3    H254025   1.229  -0.002   9.228  0.1916  0.1760  1.0539
 9944TIP3   OH254026   2.229   1.985  10.262 -0.0427 -0.2374  0.6672
 9944TIP3    H154027   2.184   1.910  10.222  0.1229  0.1407 -0.2549
 9944TIP3    H254028   2.158   2.045  10.284 -0.1086 -0.2697  0.5485
 9945TIP3   OH254029   2.458   1.248  10.236  0.6572  0.1254  0.2879
 9945TIP3    H154030   2.550   1.269  10.217  0.9593 -0.0870  1.4721
 9945TIP3    H254031   2.416   1.334  10.244  0.8188  0.2289  0.0483
 9946TIP3   OH254032   6.601   0.244   9.348  0.0447  0.0938 -0.0612
 9946TIP3    H154033   6.624   0.278   9.435  1.7021  1.7237 -1.0562
 9946TIP3    H254034   6.562   0.318   9.303 -0.4085 -0.6161 -0.8552
 9947TIP3   OH254035   5.297   3.850   8.611 -0.1683 -0.3295 -0.1362
 9947TIP3    H154036   5.368   3.907   8.583  0.8794 -0.4382  2.0431
 9947TIP3    H254037   5.338   3.764   8.621 -0.3985 -0.2727  1.7049
 9948TIP3   OH254038   3.646   3.252   8.894 -0.0288  0.7685  0.7989
 9948TIP3    H154039   3.701   3.326   8.922  0.6378 -0.3605  2.6541
 9948TIP3    H254040   3.568   3.258   8.948 -0.3768  0.6007  0.3248
 9949TIP3   OH254041   5.689   0.851  10.993  0.3873  0.1540  0.5866
 9949TIP3    H154042   5.628   0.905  10.942  1.3923 -0.7270 -1.7097
 9949TIP3    H254043   5.728   0.912  11.056 -0.3054  1.5256 -0.2659
 9950TIP3   OH254044   4.737   3.436  11.705  0.4392 -0.4303  0.4671
 9950TIP3    H154045   4.795   3.448  11.630 -0.4455  0.1480 -0.1568
 9950TIP3    H254046   4.736   3.342  11.722  1.6758 -0.4269  0.6054
 9951TIP3   OH254047   4.646   3.758  10.506 -0.0300  0.2367  0.5486
 9951TIP3    H154048   4.656   3.844  10.546 -1.8254 -0.4708  2.7521
 9951TIP3    H254049   4.551   3.747  10.495  0.1561 -1.3865  0.2396
 9952TIP3   OH254050   4.094   3.480  13.207  0.4510 -0.2581  0.1885
 9952TIP3    H154051   4.176   3.518  13.177 -0.1126  0.6610 -0.2233
 9952TIP3    H254052   4.099   3.388  13.181  0.3411  0.3107 -2.0058
 9953TIP3   OH254053   0.594   1.893   9.722 -0.0296  0.5317  0.6536
 9953TIP3    H154054   0.679   1.862   9.689 -1.0140  2.0217 -3.9854
 9953TIP3    H254055   0.612   1.979   9.759  0.3510  2.0904 -2.7621
 9954TIP3   OH254056   3.625   5.654  12.673  0.3085 -0.2619  0.3685
 9954TIP3    H154057   3.559   5.642  12.605  2.3539 -0.5004 -1.7095
 9954TIP3    H254058   3.614   5.579  12.731  0.3883 -1.7533 -1.4388
 9955TIP3   OH254059   3.653   5.497  10.060  0.4309  0.1484 -0.1810
 9955TIP3    H154060   3.734   5.526  10.101  1.1962 -0.5149 -1.1668
 9955TIP3    H254061   3.620   5.574  10.014  1.2562  0.0768 -0.9259
 9956TIP3   OH254062   2.289   4.157   9.144 -0.2959  0.7151 -0.9289
 9956TIP3    H154063   2.239   4.200   9.213 -1.5232 -1.3636 -0.4166
 9956TIP3    H254064   2.380   4.180   9.161 -0.8106  2.2114 -0.0977
 9957TIP3   OH254065   5.713   3.835   8.561  0.0897 -0.4605  0.6246
 9957TIP3    H154066   5.781   3.815   8.497  0.4319  0.7857  0.5589
 9957TIP3    H254067   5.761   3.847   8.643  0.0781  1.0993  0.4412
 9958TIP3   OH254068   0.259   0.490   8.716  0.4891  0.1094  0.0334
 9958TIP3    H154069   0.280   0.504   8.808 -1.2713  1.0522  0.3447
 9958TIP3    H254070   0.338   0.453   8.678  1.1171 -0.7239  2.0212
 9959TIP3   OH254071   0.979   5.741  11.239  0.0251  0.6006  0.1391
 9959TIP3    H154072   0.974   5.647  11.258  0.6086  0.3335 -0.9146
 9959TIP3    H254073   0.926   5.752  11.160  0.3000  1.0829  0.0198
 9960TIP3   OH254074   1.319   3.195  10.724  0.1207 -0.6247  0.3814
 9960TIP3    H154075   1.319   3.147  10.641  1.2135 -1.3772  0.7942
 9960TIP3    H254076   1.266   3.272  10.707  0.9260 -0.3937 -1.2558
 9961TIP3   OH254077   2.849   4.310  12.001  0.7920  0.0277 -0.0400
 9961TIP3    H154078   2.871   4.398  11.969  0.5048  0.0848 -0.0818
 9961TIP3    H254079   2.797   4.326  12.079 -0.8487 -0.0697 -1.0665
 9962TIP3   OH254080   6.426   1.986  10.171  0.2180 -0.2552 -0.1689
 9962TIP3    H154081   6.471   1.933  10.237 -0.4694 -1.4683 -0.6488
 9962TIP3    H254082   6.333   1.972  10.188 -0.0063  1.7037  0.3930
 9963TIP3   OH254083   2.090   5.943  11.533 -0.4937  0.1168  0.7038
 9963TIP3    H154084   2.018   5.900  11.487  0.6535 -1.5690  0.4139
 9963TIP3    H254085   2.097   6.029  11.491  1.9817 -2.0478 -4.2034
 9964TIP3   OH254086   2.410   3.803   9.778  0.7430  0.2994  0.5153
 9964TIP3    H154087   2.349   3.760   9.718  1.0430  0.4670  0.0937
 9964TIP3    H254088   2.488   3.821   9.726  0.6462  1.3136  0.6994
 9965TIP3   OH254089   5.079   0.620  10.887  0.5569  0.0801 -0.2062
 9965TIP3    H154090   5.124   0.582  10.811  0.0718 -0.2129 -0.3501
 9965TIP3    H254091   5.146   0.623  10.955  0.5655 -1.2101 -0.1303
 9966TIP3   OH254092   2.793   4.261  11.704  0.2660 -0.3898  0.3329
 9966TIP3    H154093   2.835   4.297  11.782  0.3224  0.1584  0.0580
 9966TIP3    H254094   2.851   4.288  11.632  0.8365 -1.8691  0.2022
 9967TIP3   OH254095   5.916   4.817  10.498 -0.8687 -0.2540  0.4664
 9967TIP3    H154096   5.916   4.724  10.474 -0.7680 -0.0591 -0.3202
 9967TIP3    H254097   6.008   4.843  10.492 -1.0184  0.1366 -0.3250
 9968TIP3   OH254098   4.680   5.868  11.890 -0.1096 -0.1699 -0.1051
 9968TIP3    H154099   4.635   5.952  11.895 -2.7053 -1.4531  0.0959
 9968TIP3    H254100   4.678   5.834  11.979 -0.8926 -1.2703 -0.5189
 9969TIP3   OH254101   5.631   4.449  10.312 -0.2778  0.0280 -0.0154
 9969TIP3    H154102   5.719   4.461  10.348  0.0252 -0.4716 -0.5724
 9969TIP3    H254103   5.627   4.510  10.238 -0.7088  0.6628  0.5160
 9970TIP3   OH254104   0.052   5.411  10.438 -0.5567 -0.7963 -0.4307
 9970TIP3    H154105   0.120   5.379  10.497 -1.3396  1.1177  1.6730
 9970TIP3    H254106  -0.018   5.347  10.444 -0.2159 -1.1397 -0.0755
 9971TIP3   OH254107   0.628   1.605  10.795  0.2839  0.4197 -0.0973
 9971TIP3    H154108   0.572   1.636  10.866  0.7298  0.7764  0.1127
 9971TIP3    H254109   0.673   1.684  10.764  0.8221  0.1137 -0.1151
 9972TIP3   OH254110   5.375   4.199   9.540 -0.5129  0.8429 -0.3848
 9972TIP3    H154111   5.280   4.207   9.555 -0.5673  0.3194 -0.4263
 9972TIP3    H254112   5.387   4.222   9.448 -0.7433 -0.1024 -0.6642
 9973TIP3   OH254113   2.414   4.500  11.345  0.0855  0.2380 -0.5748
 9973TIP3    H154114   2.434   4.418  11.389  0.5736  0.7149  0.1258
 9973TIP3    H254115   2.476   4.563  11.383 -1.3203  1.2880  0.0984
 9974TIP3   OH254116   0.469   4.529  10.608  0.0611  0.1240 -0.1954
 9974TIP3    H154117   0.472   4.624  10.606  0.8895  0.1329  0.7639
 9974TIP3    H254118   0.561   4.501  10.605 -0.1506 -0.6216 -0.0897
 9975TIP3   OH254119   5.639   4.729   8.762 -0.8716  0.2198 -0.6727
 9975TIP3    H154120   5.632   4.677   8.682 -1.4358 -0.1253 -0.4038
 9975TIP3    H254121   5.635   4.665   8.833  0.6995  0.4119 -0.3691
 9976TIP3   OH254122   4.398   4.235   9.073  0.6652  0.0793  0.4435
 9976TIP3    H154123   4.371   4.191   8.992 -0.2693  0.6609  0.4300
 9976TIP3    H254124   4.435   4.165   9.126 -0.0465 -0.5873  0.0884
 9977TIP3   OH254125   0.095   3.052  10.151  0.1303 -0.4588  0.3235
 9977TIP3    H154126   0.068   3.109  10.080 -0.1772  0.8672  1.4773
 9977TIP3    H254127   0.014   3.014  10.184 -0.1855  1.6076  2.1657
 9978TIP3   OH254128   6.600   3.273   9.590  0.0387 -0.0583  1.0150
 9978TIP3    H154129   6.693   3.274   9.566 -0.2086 -0.6568 -0.0604
 9978TIP3    H254130   6.582   3.181   9.609 -0.6114 -0.1548 -0.0030
 9979TIP3   OH254131   4.612   0.116   9.654  0.0715  0.5270  0.4010
 9979TIP3    H154132   4.563   0.192   9.621 -3.5078 -1.1567  1.3076
 9979TIP3    H254133   4.630   0.137   9.745  0.8400  1.0351  0.1414
 9980TIP3   OH254134   5.736   4.528  11.534 -0.2850  0.1288  0.0142
 9980TIP3    H154135   5.768   4.615  11.510 -1.4786  0.8394  0.9353
 9980TIP3    H254136   5.793   4.501  11.606  1.2959 -0.7034 -1.4391
 9981TIP3   OH254137   3.090   5.834  10.249 -0.1833  0.3757  0.3508
 9981TIP3    H154138   3.107   5.832  10.155 -1.5645 -0.4764  0.0817
 9981TIP3    H254139   3.092   5.742  10.276  2.9113  0.7241  1.7498
 9982TIP3   OH254140   0.667   3.064   9.062  0.3264 -0.2350 -0.2726
 9982TIP3    H154141   0.646   3.140   9.009  0.7233 -0.0392 -0.1493
 9982TIP3    H254142   0.739   3.021   9.016  0.4182 -0.2746 -0.0923
 9983TIP3   OH254143   3.539   4.569  11.283 -0.0125 -0.2893  0.2431
 9983TIP3    H154144   3.579   4.485  11.261  0.4431  0.0224 -0.1367
 9983TIP3    H254145   3.533   4.569  11.378 -0.4374 -0.9459  0.2142
 9984TIP3   OH254146   5.405   2.405  10.616 -0.6300  0.5216  0.0118
 9984TIP3    H154147   5.343   2.378  10.548 -1.4346  2.7430 -0.2046
 9984TIP3    H254148   5.416   2.499  10.603  0.8858  0.6233  1.6324
 9985TIP3   OH254149   0.748   6.346   8.478  0.0616 -0.0039 -0.8051
 9985TIP3    H154150   0.654   6.360   8.494  0.3324 -0.1442  1.1908
 9985TIP3    H254151   0.754   6.327   8.385 -1.7553  1.1370 -1.2033
 9986TIP3   OH254152   5.405   6.382  10.205 -0.3528 -0.2933  0.1677
 9986TIP3    H154153   5.327   6.433  10.184 -0.0217 -0.6062 -2.0828
 9986TIP3    H254154   5.372   6.296  10.231 -0.8249  0.3747  1.8972
 9987TIP3   OH254155   2.944   0.423   9.279 -0.3053  0.0310 -0.1104
 9987TIP3    H154156   3.009   0.490   9.300  0.7150 -1.3683  1.4481
 9987TIP3    H254157   2.992   0.341   9.283 -2.2513 -1.1275  1.7608
 9988TIP3   OH254158   3.336   2.875  11.460  0.3351  0.1463 -1.0228
 9988TIP3    H154159   3.411   2.818  11.477 -0.1579 -0.0555  0.5945
 9988TIP3    H254160   3.347   2.902  11.368  1.5676 -1.0582 -1.2591
 9989TIP3   OH254161   4.872   0.916   9.477  0.3366  0.7048 -0.0811
 9989TIP3    H154162   4.914   0.997   9.508  2.4209  0.0802 -1.1255
 9989TIP3    H254163   4.904   0.849   9.537  0.3004  0.3241 -0.4870
 9990TIP3   OH254164   3.320   0.012  10.516 -0.0728  0.0984 -0.4747
 9990TIP3    H154165   3.355   0.070  10.583 -0.5120 -0.5167  0.3011
 9990TIP3    H254166   3.250   0.062  10.474 -0.8032 -0.0391  0.5414
 9991TIP3   OH254167   0.411   2.784  11.105 -0.0662 -0.4558  0.0629
 9991TIP3    H154168   0.491   2.735  11.088  0.2129 -0.6145  1.7124
 9991TIP3    H254169   0.349   2.719  11.138 -0.5638 -0.1535 -0.2548
 9992TIP3   OH254170   3.801   4.946  11.067 -0.4055 -0.6241 -0.1932
 9992TIP3    H154171   3.751   4.879  11.021 -0.7466  0.2781 -1.1792
 9992TIP3    H254172   3.793   4.923  11.160 -1.6014 -1.2079 -0.4252
 9993TIP3   OH254173   5.191   6.004  11.606  0.3890 -0.4612 -0.1098
 9993TIP3    H154174   5.161   6.091  11.634  0.8065 -0.3496 -0.0036
 9993TIP3    H254175   5.163   5.998  11.514  1.8183  0.4676 -0.6383
 9994TIP3   OH254176   3.074   0.462  11.207 -0.1123  0.1310 -0.2340
 9994TIP3    H154177   3.137   0.534  11.211 -0.1402  0.1385  0.0709
 9994TIP3    H254178   3.121   0.392  11.160 -0.1605  0.4176 -0.7202
 9995TIP3   OH254179   0.474   3.343   9.010 -0.2740  0.2068 -0.1505
 9995TIP3    H154180   0.542   3.394   9.054 -0.5302 -0.9528  1.7027
 9995TIP3    H254181   0.471   3.379   8.921  2.1754  0.8212 -0.0643
 9996TIP3   OH254182   4.922   0.232  10.567  0.5455  0.2044 -0.1922
 9996TIP3    H154183   4.905   0.232  10.661  0.5913 -2.4313 -0.1111
 9996TIP3    H254184   4.883   0.314  10.536  0.5864  1.1724  2.0991
 9997TIP3   OH254185   4.821   3.147  12.682  0.1447  0.0567 -0.1047
 9997TIP3    H154186   4.822   3.099  12.600  0.5141  1.6433 -1.0867
 9997TIP3    H254187   4.732   3.183  12.688 -0.7382 -2.1992  1.5717
 9998TIP3   OH254188   5.578   1.312   8.857 -0.5869  0.6998 -0.1794
 9998TIP3    H154189   5.601   1.372   8.927 -3.0999  0.8326  0.6370
 9998TIP3    H254190   5.604   1.357   8.777  0.2278  1.5639  0.5547
 9999TIP3   OH254191   3.384   1.847  10.216  0.6832  0.1970  0.1052
 9999TIP3    H154192   3.413   1.884  10.300  0.5842 -1.7402  1.0501
 9999TIP3    H254193   3.307   1.899  10.193 -0.4138 -0.3840  2.2035
10000TIP3   OH254194   4.596   1.349   9.233  0.0499  0.0701  0.2371
10000TIP3    H154195   4.504   1.353   9.259 -0.0190 -0.1398  0.0275
10000TIP3    H254196   4.599   1.399   9.151 -0.1211 -1.0035 -0.4390
10001TIP3   OH254197   0.230   2.101  11.237  0.5829 -0.4323  0.5085
10001TIP3    H154198   0.142   2.064  11.246 -0.1249  1.3391  1.3186
10001TIP3    H254199   0.272   2.082  11.321  0.3679  0.1532  0.7597
10002TIP3   OH254200   3.092   6.488  12.289 -0.1233  0.0150  0.8532
10002TIP3    H154201   3.143   6.544  12.346  2.3578 -0.2962 -0.8864
10002TIP3    H254202   3.157   6.441  12.236 -2.1870 -1.4969 -0.5347
10003TIP3   OH254203   1.163   4.032  10.979  0.1155  0.3300 -0.0277
10003TIP3    H154204   1.075   4.064  10.999 -1.0504 -2.9789  0.8571
10003TIP3    H254205   1.218   4.070  11.047 -0.3474  3.1714 -1.1059
10004TIP3   OH254206   4.217   5.222  10.653  0.0500  0.0558 -0.2298
10004TIP3    H154207   4.190   5.197  10.565 -1.9245 -0.3444  0.4563
10004TIP3    H254208   4.195   5.315  10.660 -1.8443 -0.4121  0.5370
10005TIP3   OH254209   6.262   1.367  11.003 -0.4312  0.2876 -0.3221
10005TIP3    H154210   6.299   1.299  11.060  1.6869  2.8264  1.5897
10005TIP3    H254211   6.175   1.385  11.040  0.4997  1.1637  1.6317
10006TIP3   OH254212   5.325   6.496  10.473 -0.1362  0.1203  0.0234
10006TIP3    H154213   5.386   6.492  10.547 -0.8099  1.3732  0.6861
10006TIP3    H254214   5.380   6.483  10.396  0.4123 -2.3559  0.7600
10007TIP3   OH254215   1.164   3.098  11.268 -0.0348 -0.2757 -0.1538
10007TIP3    H154216   1.165   3.015  11.316 -0.6958 -0.2038 -0.0042
10007TIP3    H254217   1.125   3.161  11.329 -0.5141 -0.0914 -0.6359
10008TIP3   OH254218   0.222   2.709   9.861  0.2680 -0.2518  0.5304
10008TIP3    H154219   0.166   2.639   9.893  1.1230 -2.8680 -3.0450
10008TIP3    H254220   0.164   2.764   9.808  0.5519 -1.6616 -1.3268
10009TIP3   OH254221   4.752   2.625  10.022  0.6680 -0.5288  0.1504
10009TIP3    H154222   4.783   2.715  10.015 -0.0877 -0.2802 -0.0378
10009TIP3    H254223   4.776   2.585   9.938 -0.6649  0.0327 -0.5263
10010TIP3   OH254224   2.771   6.414  10.753  0.5051  0.2049 -0.0338
10010TIP3    H154225   2.798   6.326  10.725  1.7410  1.0339 -1.5936
10010TIP3    H254226   2.679   6.420  10.726  0.1169 -0.9203  0.9458
10011TIP3   OH254227   4.242   2.919  11.814 -0.1215 -0.5192  0.2547
10011TIP3    H154228   4.216   3.007  11.785  0.0426 -0.1022  1.3211
10011TIP3    H254229   4.323   2.901  11.766  0.1975  0.1885  0.5092
10012TIP3   OH254230   4.008   2.187   9.842 -0.7547  0.1238 -0.1661
10012TIP3    H154231   3.987   2.188   9.935  0.6967 -2.0645  0.2760
10012TIP3    H254232   4.086   2.132   9.836  0.4785  1.9735 -2.4610
10013TIP3   OH254233   4.427   4.106  11.765  0.1320  0.2785  0.1863
10013TIP3    H154234   4.391   4.017  11.765  1.4190 -0.3428 -2.2217
10013TIP3    H254235   4.511   4.096  11.810  0.8038 -0.0291 -1.0849
10014TIP3   OH254236   5.645   0.161  11.318  0.2677 -0.1632  0.1912
10014TIP3    H154237   5.570   0.112  11.353 -1.1109  1.0093 -1.0002
10014TIP3    H254238   5.691   0.193  11.396  0.4177 -2.1270  0.9723
10015TIP3   OH254239   5.929   3.303   8.645 -0.2672 -0.1777  0.4134
10015TIP3    H154240   5.964   3.365   8.580 -0.6273  0.0166  0.4044
10015TIP3    H254241   5.877   3.241   8.594 -1.6306  0.7372  0.6487
10016TIP3   OH254242   4.990   4.842   9.699 -0.0849 -0.8360 -0.1635
10016TIP3    H154243   4.905   4.810   9.670 -0.5913  0.7699 -0.5087
10016TIP3    H254244   4.973   4.928   9.737  1.4696 -0.1744 -0.8595
10017TIP3   OH254245   0.002   6.018   9.130  0.2041  0.6067  0.5904
10017TIP3    H154246  -0.072   6.064   9.170 -1.5312 -0.6435 -1.0303
10017TIP3    H254247   0.018   5.943   9.187 -0.6434  0.1810  0.2826
10018TIP3   OH254248   6.009   5.591  11.623  0.8404  0.1760 -0.0703
10018TIP3    H154249   6.000   5.570  11.530 -0.0242  3.1424 -0.7509
10018TIP3    H254250   6.098   5.562  11.645  0.9109 -0.9622 -1.6616
10019TIP3   OH254251   5.039   2.498  10.432 -0.1779  0.4663  0.5839
10019TIP3    H154252   5.026   2.585  10.392  1.3012  0.0839 -0.7983
10019TIP3    H254253   4.991   2.438  10.375 -0.2584  0.2150  0.9086
10020TIP3   OH254254   4.109   3.888  10.608 -0.6186 -0.4704  0.2296
10020TIP3    H154255   4.079   3.934  10.530  0.3484 -2.8015 -1.6099
10020TIP3    H254256   4.051   3.812  10.615 -0.9599 -0.0872  2.0658
10021TIP3   OH254257   1.378   2.800  10.928  0.4494  0.1675 -0.4373
10021TIP3    H154258   1.336   2.751  10.999  0.2199 -1.0214 -1.3514
10021TIP3    H254259   1.374   2.891  10.955 -0.5136 -0.1701  0.6226
10022TIP3   OH254260   2.836   3.217  10.290 -0.0603  0.2271 -0.1002
10022TIP3    H154261   2.920   3.192  10.253 -0.4983 -0.7787 -0.4421
10022TIP3    H254262   2.799   3.136  10.325 -1.3359  0.4584 -0.8462
10023TIP3   OH254263   4.106   1.283  10.497 -0.4446 -0.3482  0.1164
10023TIP3    H154264   4.167   1.210  10.483 -1.1787 -0.8714 -0.4809
10023TIP3    H254265   4.043   1.249  10.560 -0.2537  0.1013  0.5447
10024TIP3   OH254266   6.252   4.341  12.135  0.0537  0.3563 -0.1849
10024TIP3    H154267   6.319   4.320  12.071 -1.5781  0.2265 -1.9225
10024TIP3    H254268   6.227   4.432  12.115 -0.7061  0.2026  0.0330
10025TIP3   OH254269   5.664   3.043  11.544  0.5480  0.0786 -0.1979
10025TIP3    H154270   5.713   2.961  11.547  0.9474  0.3415  1.5022
10025TIP3    H254271   5.572   3.017  11.539  0.7354 -0.4332 -1.2725
10026TIP3   OH254272   3.521   0.163  10.996 -0.1704  0.1736  0.2692
10026TIP3    H154273   3.541   0.247  10.955  1.9122 -0.9002 -1.1102
10026TIP3    H254274   3.559   0.098  10.937 -1.3747 -1.7324  1.4876
10027TIP3   OH254275   6.579   5.467   8.485 -0.1949  0.1561 -0.3553
10027TIP3    H154276   6.527   5.542   8.516 -2.0034 -1.6085  1.1608
10027TIP3    H254277   6.662   5.475   8.531 -0.6724  0.7870  0.4377
10028TIP3   OH254278   5.882   4.142   8.411  0.1145 -0.1058  0.2434
10028TIP3    H154279   5.976   4.153   8.397 -0.0689 -0.1378 -1.2541
10028TIP3    H254280   5.871   4.048   8.429  0.2884 -0.3127 -0.6415
10029TIP3   OH254281   3.453   4.608  12.201 -0.1242 -0.2861 -0.1752
10029TIP3    H154282   3.471   4.651  12.284 -1.5711  0.8189 -0.4105
10029TIP3    H254283   3.482   4.517  12.214  0.2906  0.0372  1.2807
10030TIP3   OH254284   1.422   4.238   9.520  0.2124 -0.1100 -0.1321
10030TIP3    H154285   1.389   4.323   9.492 -0.6010 -0.8593 -1.5727
10030TIP3    H254286   1.355   4.206   9.581 -1.0063 -0.9316 -1.8204
10031TIP3   OH254287   0.331   2.980  10.031 -0.4417 -0.1946  0.3122
10031TIP3    H154288   0.242   2.983  10.067 -0.8954  0.6512 -0.8013
10031TIP3    H254289   0.384   3.026  10.095 -1.1020  0.6468  0.2880
10032TIP3   OH254290   0.144   0.577   9.907  0.2203 -0.2142  0.0266
10032TIP3    H154291   0.111   0.552   9.994  2.4109 -0.1359  0.9628
10032TIP3    H254292   0.239   0.561   9.913  0.5831  0.9260 -1.9705
10033TIP3   OH254293   2.967   3.077  11.150  0.0863 -0.2634 -0.2176
10033TIP3    H154294   2.895   3.079  11.086 -0.6247  0.4165  0.5735
10033TIP3    H254295   2.940   3.011  11.214 -0.0241  0.2617  0.2862
10034TIP3   OH254296   6.637   5.317   8.828  0.5598 -0.1631 -0.3515
10034TIP3    H154297   6.676   5.233   8.853  1.6473 -0.3096 -2.3305
10034TIP3    H254298   6.600   5.302   8.742 -1.3471  0.8032  0.2375
10035TIP3   OH254299   0.778   5.501  10.385 -0.2289 -0.0615 -0.4142
10035TIP3    H154300   0.742   5.570  10.441  0.0760  0.5783 -1.0031
10035TIP3    H254301   0.764   5.420  10.435 -0.0841  0.4830  0.5301
10036TIP3   OH254302   6.414   4.354  11.079 -0.0259  0.3667  0.0952
10036TIP3    H154303   6.363   4.276  11.102  3.1058 -2.2840 -1.2104
10036TIP3    H254304   6.441   4.340  10.988  2.5543  1.8309  0.5284
10037TIP3   OH254305   2.264   4.130  10.725 -0.1907 -0.5262 -0.0036
10037TIP3    H154306   2.231   4.213  10.760 -0.0246 -0.9397  1.1577
10037TIP3    H254307   2.200   4.065  10.754  0.8077 -1.1136  0.9551
10038TIP3   OH254308   4.192   6.464  10.919  0.2615 -0.2964 -0.5334
10038TIP3    H154309   4.196   6.425  11.006 -1.8083  1.2109  0.3113
10038TIP3    H254310   4.258   6.533  10.921 -0.3516  0.2753  0.1375
10039TIP3   OH254311   3.520   1.805   9.975  0.3080 -0.0080  0.0284
10039TIP3    H154312   3.457   1.821  10.045  0.3713 -0.1500  0.1164
10039TIP3    H254313   3.564   1.724   9.999  1.2679  0.6394  0.5112
10040TIP3   OH254314   1.655   5.774  11.502  0.0292  0.2448 -0.0623
10040TIP3    H154315   1.600   5.763  11.424  0.1192 -1.0421  0.0258
10040TIP3    H254316   1.606   5.731  11.572  1.5448 -1.9259 -0.1978
10041TIP3   OH254317   1.019   0.680   8.820 -0.1596 -0.5123 -0.1497
10041TIP3    H154318   1.099   0.675   8.872 -0.7354 -1.1943  0.7034
10041TIP3    H254319   1.006   0.774   8.805 -0.3004 -0.2431  1.4780
10042TIP3   OH254320   1.591   5.825   9.688 -0.1389 -0.0894  0.1282
10042TIP3    H154321   1.534   5.802   9.615  0.5896 -2.0058  0.1180
10042TIP3    H254322   1.644   5.898   9.656 -0.3584 -0.4095 -0.9872
10043TIP3   OH254323   6.000   5.159  10.662 -0.2156 -0.0312  0.3200
10043TIP3    H154324   5.930   5.099  10.687 -1.0965  0.2747 -1.2788
10043TIP3    H254325   5.977   5.242  10.704 -0.4752 -0.1009  0.3177
10044TIP3   OH254326   4.632   5.492  10.052  0.0598  0.1086 -0.4406
10044TIP3    H154327   4.561   5.542  10.094  0.7090 -0.3916  1.3400
10044TIP3    H254328   4.712   5.537  10.079  0.4903  0.5695 -2.3045
10045TIP3   OH254329   1.276   3.399  11.222  0.5583 -0.4459 -0.1629
10045TIP3    H154330   1.197   3.387  11.273 -0.2983 -1.3396 -1.6136
10045TIP3    H254331   1.336   3.332  11.255 -0.3592 -1.7139 -0.9731
10046TIP3   OH254332   0.591   6.332   9.399 -0.1304  0.3023  0.1371
10046TIP3    H154333   0.502   6.299   9.390  0.6425 -2.0344  0.4462
10046TIP3    H254334   0.633   6.311   9.316  0.9557 -1.4474  1.0855
10047TIP3   OH254335   3.952   2.754  10.308 -0.4730  0.3200  0.3581
10047TIP3    H154336   3.962   2.733  10.401  0.9178  2.3490  0.7153
10047TIP3    H254337   4.019   2.702  10.264 -0.7900 -0.2458  0.5294
10048TIP3   OH254338   2.584   5.082   9.598  0.0294  0.0764 -0.1409
10048TIP3    H154339   2.541   5.161   9.629 -0.6000  0.1702 -1.1813
10048TIP3    H254340   2.525   5.011   9.621  0.1278  0.0147 -0.0757
10049TIP3   OH254341   4.183   2.308  10.168 -0.1364 -0.2188 -0.0803
10049TIP3    H154342   4.201   2.390  10.215 -2.3394 -0.2307  0.8772
10049TIP3    H254343   4.227   2.241  10.220 -0.4725  0.0694  0.5858
10050TIP3   OH254344   3.836   2.171  11.575 -0.4119  0.3313 -0.1562
10050TIP3    H154345   3.820   2.122  11.656  1.7545 -0.2130 -0.0084
10050TIP3    H254346   3.844   2.262  11.604 -1.9079  0.4854 -0.1068
10051TIP3   OH254347   3.474   1.054   8.873 -0.2387  0.1059  0.5312
10051TIP3    H154348   3.514   1.123   8.819 -1.1807  0.6459  0.5058
10051TIP3    H254349   3.383   1.081   8.882 -0.4049 -0.6836  1.2792
10052TIP3   OH254350   1.297   2.796  10.302  0.1577 -0.4633 -0.1303
10052TIP3    H154351   1.282   2.719  10.356  0.7133  0.7067  1.8140
10052TIP3    H254352   1.211   2.838  10.295 -0.0248 -0.9216 -0.6534
10053TIP3   OH254353   0.029   0.910  10.030  0.1769  0.2244  0.7470
10053TIP3    H154354  -0.054   0.942   9.995  1.9033  0.5230 -3.7331
10053TIP3    H254355   0.023   0.815  10.023  0.4703  0.2773 -0.4710
10054TIP3   OH254356   5.888   4.274  11.953  0.0595 -0.2128  0.1056
10054TIP3    H154357   5.944   4.275  12.030 -1.6996 -1.8061  1.5248
10054TIP3    H254358   5.909   4.192  11.909  0.5412  0.3477 -0.7233
10055TIP3   OH254359   2.570   5.510  10.243 -0.5104  0.4317 -0.0258
10055TIP3    H154360   2.534   5.469  10.322 -0.7296  0.4772 -0.1015
10055TIP3    H254361   2.539   5.601  10.247  0.8748  0.8903  0.6955
10056TIP3   OH254362   5.250   1.333   9.450  0.1438  0.6045 -0.2261
10056TIP3    H154363   5.317   1.275   9.487  0.5685  1.7249  0.8242
10056TIP3    H254364   5.182   1.336   9.518 -0.0927  0.9612 -0.4823
10057TIP3   OH254365   3.952   2.439  10.723 -0.2631  0.5288 -0.3527
10057TIP3    H154366   3.919   2.528  10.740 -0.3662  0.3253  0.5789
10057TIP3    H254367   4.045   2.445  10.742  0.2957  1.0905 -2.9339
10058TIP3   OH254368   2.278   4.010  11.034 -0.0290  0.1049  0.2008
10058TIP3    H154369   2.341   4.082  11.031 -0.9607  0.9074 -0.9441
10058TIP3    H254370   2.271   3.988  11.127  0.1413  1.6131  0.5930
10059TIP3   OH254371   5.835   0.212  10.845  0.3341 -0.0246 -0.4193
10059TIP3    H154372   5.768   0.159  10.888 -0.3387  1.2051  0.1071
10059TIP3    H254373   5.893   0.149  10.802 -0.5576 -1.1524  0.0089
10060TIP3   OH254374   4.994   5.428  11.424 -0.0508 -0.3930 -0.3740
10060TIP3    H154375   5.051   5.480  11.481  0.5410  0.0631 -1.3652
10060TIP3    H254376   4.906   5.463  11.440  0.4018  1.3221 -1.4219
10061TIP3   OH254377   0.076   5.227   8.542  0.1460  0.3099  0.4272
10061TIP3    H154378   0.035   5.280   8.473 -0.5280  1.4196  1.6307
10061TIP3    H254379   0.007   5.168   8.571  0.0900  0.6039  0.8972
10062TIP3   OH254380   0.927   6.242  11.368 -0.3935 -0.3209 -0.4276
10062TIP3    H154381   0.858   6.241  11.435 -1.2198 -1.5078 -1.2490
10062TIP3    H254382   0.922   6.330  11.330  1.2327  1.0088  2.1323
10063TIP3   OH254383   6.615   5.423  10.079  0.0589  0.1789 -0.1874
10063TIP3    H154384   6.703   5.392  10.098 -0.1350 -0.4231 -0.2700
10063TIP3    H254385   6.569   5.346  10.046 -0.6732  0.3434  0.4340
10064TIP3   OH254386   4.491   4.975  13.156 -0.0203  0.4295  0.0804
10064TIP3    H154387   4.556   5.041  13.179 -0.4330  1.6853 -2.0840
10064TIP3    H254388   4.425   5.023  13.106 -1.0984 -1.3666 -0.3065
10065TIP3   OH254389   0.488   5.809  10.189  0.1320 -0.4406  0.2756
10065TIP3    H154390   0.474   5.755  10.267  0.8073  0.4742  1.0540
10065TIP3    H254391   0.582   5.800  10.170  0.0951 -0.1569 -0.0502
10066TIP3   OH254392   3.933   5.247  11.465 -0.8114  0.3688 -0.5474
10066TIP3    H154393   4.011   5.195  11.480 -1.8882 -0.9247  0.9627
10066TIP3    H254394   3.937   5.270  11.373  0.9606 -0.2959 -0.6744
10067TIP3   OH254395   1.795   5.844  11.129  0.0077  0.5885 -0.1015
10067TIP3    H154396   1.832   5.864  11.043  1.4921  1.4564  0.7057
10067TIP3    H254397   1.706   5.879  11.125 -0.2502 -0.1123 -1.5365
10068TIP3   OH254398   3.841   6.294   9.900  0.0707 -0.5213 -0.1007
10068TIP3    H154399   3.877   6.382   9.887 -0.3908 -0.4477 -0.9054
10068TIP3    H254400   3.754   6.309   9.937  0.2000 -0.6545  0.2587
10069TIP3   OH254401   2.559   1.057   9.401 -0.6380  0.1515 -0.3182
10069TIP3    H154402   2.624   1.120   9.368  0.1839 -0.6612 -0.3000
10069TIP3    H254403   2.504   1.109   9.459 -0.5562  1.0566 -1.0156
10070TIP3   OH254404   2.486   6.209  10.132  0.5779  0.1206  0.3821
10070TIP3    H154405   2.393   6.235  10.126  0.4428 -0.4852 -0.2428
10070TIP3    H254406   2.493   6.132  10.076  1.7422  0.9436 -0.6694
10071TIP3   OH254407   3.838   3.898  12.693 -0.7313 -0.2174  0.2718
10071TIP3    H154408   3.933   3.885  12.690 -0.6186  0.6994 -0.9066
10071TIP3    H254409   3.803   3.812  12.718  0.4486 -0.2367  2.0164
10072TIP3   OH254410   4.448   5.994  10.071  0.1864  0.0861  0.1994
10072TIP3    H154411   4.499   6.052  10.015  0.6780  0.6050  1.1481
10072TIP3    H254412   4.375   5.965  10.017  0.2698  1.1102 -0.4757
10073TIP3   OH254413   2.947   4.045   9.034 -0.3476  0.1402  0.0094
10073TIP3    H154414   2.993   3.995   9.102 -1.1280 -3.1163 -1.6648
10073TIP3    H254415   2.854   4.035   9.056 -0.5762 -0.4143 -1.1453
10074TIP3   OH254416   2.128   3.500  12.055 -0.2448 -0.1615 -0.2112
10074TIP3    H154417   2.120   3.408  12.029  0.9849 -0.4104  0.1848
10074TIP3    H254418   2.078   3.506  12.136  0.2459 -0.6783  0.1469
10075TIP3   OH254419   0.743   1.115   9.441 -0.0560  0.5426 -0.1553
10075TIP3    H154420   0.652   1.129   9.412 -0.3348  0.4907  0.6675
10075TIP3    H254421   0.746   1.022   9.463 -0.2666  0.8608  1.3348
10076TIP3   OH254422   4.510   2.130   9.548  0.2446 -0.0130 -0.3651
10076TIP3    H154423   4.557   2.049   9.530 -1.4327 -1.1874  0.2231
10076TIP3    H254424   4.479   2.121   9.638  0.8738  1.7555  0.0653
10077TIP3   OH254425   6.397   1.814  10.506 -0.1497 -0.5519 -0.2732
10077TIP3    H154426   6.381   1.844  10.596  1.4725  1.2975 -0.5400
10077TIP3    H254427   6.465   1.747  10.516  3.3701  2.6694 -0.2894
10078TIP3   OH254428   3.696   4.912  10.136  0.1699 -0.7623 -0.2324
10078TIP3    H154429   3.732   4.927  10.224 -0.2968  0.9190 -0.2946
10078TIP3    H254430   3.618   4.859  10.151  0.3043 -0.8094  0.3291
10079TIP3   OH254431   4.823   3.410   9.889  0.2040 -0.2044  0.2110
10079TIP3    H154432   4.782   3.485   9.844 -1.1483  0.2723  2.1033
10079TIP3    H254433   4.833   3.439   9.980 -0.4486 -2.3458  1.0263
10080TIP3   OH254434   2.028   5.296   9.853  0.4835  0.1054  0.2679
10080TIP3    H154435   2.032   5.275   9.946  3.4240  3.0574  0.9534
10080TIP3    H254436   2.110   5.262   9.817  0.3483  0.8643 -0.8014
10081TIP3   OH254437   5.252   3.500  10.403 -0.1309  0.3606 -0.4904
10081TIP3    H154438   5.309   3.513  10.479 -1.2806 -1.2853  0.7201
10081TIP3    H254439   5.310   3.462  10.337  0.3543 -0.6147  0.4677
10082TIP3   OH254440   3.620   1.032   9.676  0.0076  0.4415  0.1405
10082TIP3    H154441   3.693   1.003   9.622  0.5699  0.0304  1.1002
10082TIP3    H254442   3.543   1.027   9.619  0.6552  0.4518 -0.7412
10083TIP3   OH254443   3.088   0.778  10.981 -0.3613  0.3823 -0.7345
10083TIP3    H154444   3.142   0.834  11.037  2.7213 -1.3827 -1.7215
10083TIP3    H254445   3.080   0.826  10.899  0.1097  0.4733 -0.7288
10084TIP3   OH254446   4.130   4.109  11.400  0.6062  0.2987 -0.2691
10084TIP3    H154447   4.152   4.135  11.489 -1.7764  0.4188  0.3705
10084TIP3    H254448   4.137   4.190  11.349  1.3003  0.3803 -0.0553
10085TIP3   OH254449   5.925   3.362  10.103  0.3889  0.3769  0.0287
10085TIP3    H154450   5.835   3.335  10.091 -0.5461  1.8164  2.8499
10085TIP3    H254451   5.923   3.421  10.179  3.7225  0.2538  0.3963
10086TIP3   OH254452   4.248   2.019   8.583  0.1215 -0.2908 -0.6859
10086TIP3    H154453   4.216   1.985   8.499  0.6770  0.1486 -1.0823
10086TIP3    H254454   4.313   2.085   8.559 -0.2821  0.4035  0.0753
10087TIP3   OH254455   2.834   0.029  10.029 -0.1495 -0.0775 -0.0649
10087TIP3    H154456   2.878  -0.019  10.100  0.7235 -0.6378 -0.9501
10087TIP3    H254457   2.742   0.002  10.036  0.4525 -2.7574 -1.1365
10088TIP3   OH254458   6.087   3.736  10.299 -0.7007  0.3740  0.2502
10088TIP3    H154459   6.133   3.653  10.314 -1.7900 -0.5604 -1.2750
10088TIP3    H254460   6.157   3.801  10.291  0.1564 -0.1054  2.6712
10089TIP3   OH254461   3.075   1.711  10.508 -0.3019 -0.4323  0.1048
10089TIP3    H154462   3.072   1.701  10.603 -0.4275  0.9618  0.2636
10089TIP3    H254463   3.089   1.622  10.475 -2.8877 -1.3935  1.2868
10090TIP3   OH254464   3.021   5.788  12.321  0.2811 -0.6322 -0.1863
10090TIP3    H154465   3.069   5.755  12.397  0.7790  0.4289 -0.0098
10090TIP3    H254466   3.083   5.780  12.249  0.8893  1.0231  0.1002
10091TIP3   OH254467   5.935   6.558   9.626  0.0913  0.0117  0.6933
10091TIP3    H154468   5.942   6.507   9.707 -1.8062 -0.6180  0.5157
10091TIP3    H254469   5.900   6.643   9.654 -1.1486 -0.4118  0.5192
10092TIP3   OH254470   6.283   3.142   8.946  0.8278 -0.2837  0.0899
10092TIP3    H154471   6.264   3.069   9.005  0.6559 -0.7761 -0.5685
10092TIP3    H254472   6.254   3.219   8.994  1.1661 -0.6236  0.8619
10093TIP3   OH254473   0.063   4.221   9.581  0.2380 -0.5158  0.1703
10093TIP3    H154474   0.011   4.207   9.502 -0.6617 -1.3556  0.8899
10093TIP3    H254475   0.147   4.179   9.562 -0.5832 -2.3055  0.2965
10094TIP3   OH254476   6.288   1.339  10.736 -0.0199  0.1277 -0.5270
10094TIP3    H154477   6.268   1.350  10.829 -1.9153  0.4866 -0.9430
10094TIP3    H254478   6.374   1.297  10.736  0.8442  1.7058  1.3427
10095TIP3   OH254479   5.140   3.633   9.984  0.8782 -0.0084 -0.3962
10095TIP3    H154480   5.150   3.619   9.890 -0.2844  0.0216 -0.5416
10095TIP3    H254481   5.194   3.565  10.025 -2.7647 -3.6583 -1.0876
10096TIP3   OH254482   1.838   1.507   9.338  0.4442 -0.4542 -0.3244
10096TIP3    H154483   1.801   1.594   9.320 -0.0899 -0.7867 -0.8426
10096TIP3    H254484   1.814   1.489   9.429  0.8138  0.0638 -0.1156
10097TIP3   OH254485   2.265   5.415  11.342 -0.1021  0.2426  0.1574
10097TIP3    H154486   2.242   5.409  11.435  1.1342  0.8652  0.5248
10097TIP3    H254487   2.306   5.501  11.333  1.9769 -0.7341 -0.4340
10098TIP3   OH254488   3.508   6.534  10.358 -0.0608 -0.3070 -0.0852
10098TIP3    H154489   3.483   6.614  10.405  3.2126  0.1311  1.2025
10098TIP3    H254490   3.465   6.542  10.273 -0.8729  2.2034  0.4708
10099TIP3   OH254491   6.260   4.891  10.797  0.0934  0.5716 -0.3448
10099TIP3    H154492   6.330   4.825  10.794 -2.7965 -2.7812 -1.4418
10099TIP3    H254493   6.265   4.935  10.712  2.1688  2.0518  0.4622
10100TIP3   OH254494   1.525   5.640  10.574 -0.2808 -0.2481  0.0887
10100TIP3    H154495   1.514   5.636  10.479 -0.5741  0.7466  0.0708
10100TIP3    H254496   1.607   5.689  10.587 -1.6597  2.1774  0.3415
10101TIP3   OH254497   5.590   2.657   8.401  0.2816  0.2062  0.1042
10101TIP3    H154498   5.609   2.651   8.495  1.4201  1.2686 -0.0321
10101TIP3    H254499   5.676   2.663   8.360 -0.2023 -0.2965 -1.0280
10102TIP3   OH254500   3.827   3.110   9.848 -0.0292  0.0142 -0.1788
10102TIP3    H154501   3.735   3.137   9.857  0.2290  1.6361 -1.9339
10102TIP3    H254502   3.856   3.097   9.938 -1.8804 -0.2401  0.4403
10103TIP3   OH254503   2.242   5.423  10.604 -0.3126 -0.0266 -0.1132
10103TIP3    H154504   2.190   5.354  10.646 -1.1450  1.3796  1.2959
10103TIP3    H254505   2.227   5.500  10.658  1.2839  1.0620 -1.1395
10104TIP3   OH254506   5.500   5.918  11.566  0.2517 -0.1881 -0.2789
10104TIP3    H154507   5.468   5.926  11.655  1.9857  2.1889  0.2181
10104TIP3    H254508   5.437   5.860  11.522 -1.1574 -0.6290  2.1892
10105TIP3   OH254509   0.510   0.104  10.571  0.5104 -0.6784  0.0751
10105TIP3    H154510   0.591   0.145  10.601  0.0497  0.2031  0.1235
10105TIP3    H254511   0.504   0.023  10.623  0.8806 -0.2952  0.7328
10106TIP3   OH254512   6.164   1.784  11.128  0.1506  0.6248  0.3286
10106TIP3    H154513   6.070   1.774  11.145 -0.2141 -0.1283 -1.7797
10106TIP3    H254514   6.188   1.866  11.170 -1.6045  1.1677  0.3479
10107TIP3   OH254515   1.417   4.094  10.182 -0.2026  0.7187 -0.3826
10107TIP3    H154516   1.446   4.185  10.193  1.2315  0.1823  0.6825
10107TIP3    H254517   1.472   4.060  10.112 -0.3844  0.5352 -0.4361
10108TIP3   OH254518   1.672   4.829  11.807  0.0757 -0.2189  0.0765
10108TIP3    H154519   1.664   4.736  11.785 -0.6758 -0.6407  1.9402
10108TIP3    H254520   1.754   4.856  11.765  1.8495 -2.4797  1.8098
10109TIP3   OH254521   5.955   6.242   8.806  0.6281  0.2587  0.3283
10109TIP3    H154522   6.010   6.172   8.772  0.7589  1.1264 -1.4029
10109TIP3    H254523   5.887   6.198   8.857  1.0031 -1.0757 -0.2961
10110TIP3   OH254524   0.102   5.535   9.533 -0.0822 -0.3940 -0.0546
10110TIP3    H154525   0.125   5.448   9.564  0.8530 -0.2201 -0.2322
10110TIP3    H254526   0.166   5.594   9.573 -0.7203  0.2204  0.0900
10111TIP3   OH254527   2.506   2.775  11.709  0.7858 -0.4022  1.0512
10111TIP3    H154528   2.411   2.779  11.723  1.1362  1.1101  3.4689
10111TIP3    H254529   2.516   2.786  11.615 -1.4033  0.4954  0.8533
10112TIP3   OH254530   1.917   3.967  12.015 -0.1964 -0.1064 -0.0617
10112TIP3    H154531   1.970   3.900  12.058  1.3088  1.4810  0.7408
10112TIP3    H254532   1.846   3.985  12.076 -0.1335 -0.3862  0.0952
10113TIP3   OH254533   5.745   3.953  11.355 -0.3665 -0.5003  0.2781
10113TIP3    H154534   5.682   4.010  11.399  0.7096 -1.3285  3.1067
10113TIP3    H254535   5.698   3.870  11.343 -1.3442  0.3133 -2.2249
10114TIP3   OH254536   2.584   0.040  12.207  0.0104  0.2497  0.0235
10114TIP3    H154537   2.538  -0.044  12.199  1.1527 -0.2938 -1.1511
10114TIP3    H254538   2.515   0.102  12.232 -1.5316 -0.4256 -2.1542
10115TIP3   OH254539   5.088   4.576  11.457  0.1289  0.3119  0.2642
10115TIP3    H154540   5.060   4.553  11.546 -0.2029  1.5404  0.5034
10115TIP3    H254541   5.164   4.521  11.440 -0.2306 -0.4450  1.0391
10116TIP3   OH254542   6.107   5.724  10.151  0.3519  0.3650  0.4123
10116TIP3    H154543   6.103   5.721  10.246  0.2801  0.4847  0.4140
10116TIP3    H254544   6.018   5.702  10.123  0.2735  0.7097  0.3832
10117TIP3   OH254545   2.160   2.557   9.879 -0.3515 -0.1872 -0.1156
10117TIP3    H154546   2.162   2.572   9.974 -2.9702  1.8115 -0.2712
10117TIP3    H254547   2.155   2.645   9.841  3.1742 -0.7453 -2.3504
10118TIP3   OH254548   2.305   1.851   9.468  0.7341  0.1112 -0.4518
10118TIP3    H154549   2.226   1.836   9.519  1.5089 -2.2984  0.1471
10118TIP3    H254550   2.325   1.767   9.428  3.1829  0.5380 -0.2891
10119TIP3   OH254551   3.358   3.011   9.940  0.9711  0.2788  0.0640
10119TIP3    H154552   3.322   2.978   9.858  1.3854 -0.2169  0.0743
10119TIP3    H254553   3.324   2.952  10.007 -0.8205  1.7304  0.5039
10120TIP3   OH254554   6.163   3.943   8.864 -0.2528 -0.3291 -0.2154
10120TIP3    H154555   6.157   3.966   8.771  0.3376  1.4680  0.1453
10120TIP3    H254556   6.242   3.987   8.894 -1.2759  0.4662  1.4654
10121TIP3   OH254557   4.389   4.855   9.147  0.0117  0.8494 -0.4085
10121TIP3    H154558   4.415   4.812   9.066 -1.4002 -1.2957  0.2071
10121TIP3    H254559   4.371   4.946   9.122 -2.0099 -0.1229 -2.8664
10122TIP3   OH254560   2.166   4.868  11.851 -0.1551  0.3623 -0.1725
10122TIP3    H154561   2.226   4.882  11.777 -0.4699  0.9439 -0.3242
10122TIP3    H254562   2.108   4.944  11.849 -1.5265 -0.6725 -0.6245
10123TIP3   OH254563   1.967   0.271  11.690 -0.6959 -0.2173 -0.5887
10123TIP3    H154564   1.931   0.229  11.768  0.6531 -1.7417 -0.7383
10123TIP3    H254565   1.892   0.282  11.632 -1.7673  1.1347  0.9562
10124TIP3   OH254566   5.779   3.195  11.202  0.1128 -0.1330  0.2926
10124TIP3    H154567   5.836   3.166  11.130  0.7585  0.3528  0.5992
10124TIP3    H254568   5.746   3.114  11.241 -0.5803 -0.3985 -0.8115
10125TIP3   OH254569   3.799   0.770  10.940 -0.1968  0.2391  0.0565
10125TIP3    H154570   3.843   0.705  10.886 -1.7527 -1.9372  1.2352
10125TIP3    H254571   3.776   0.841  10.880 -1.7860 -2.0221 -2.1737
10126TIP3   OH254572   5.348   1.052  11.346 -0.3907  0.3732  0.3385
10126TIP3    H154573   5.386   1.030  11.431  1.4682  1.6480 -0.0766
10126TIP3    H254574   5.391   0.992  11.284  0.6864  1.5262 -0.0798
10127TIP3   OH254575   2.896   1.140  11.363 -0.5485  0.1438  0.1792
10127TIP3    H154576   2.965   1.097  11.414 -0.2224  0.8463  0.3459
10127TIP3    H254577   2.815   1.110  11.403 -0.5545 -3.0214 -1.8036
10128TIP3   OH254578   6.520   2.512   8.927 -0.6712  0.2275  0.2007
10128TIP3    H154579   6.508   2.601   8.959 -0.7321  0.7907 -1.2913
10128TIP3    H254580   6.593   2.477   8.977  1.9580  2.4943 -1.7781
10129TIP3   OH254581   5.002   5.621   8.647  0.1212 -0.2697 -0.0317
10129TIP3    H154582   4.989   5.526   8.653 -0.0029 -0.2697 -0.2896
10129TIP3    H254583   4.968   5.656   8.729  1.7247 -0.6152  0.8213
10130TIP3   OH254584   6.073   4.027  11.032 -0.1403 -0.2498 -0.6979
10130TIP3    H154585   5.978   4.016  11.024 -0.5447  1.5328  0.8865
10130TIP3    H254586   6.106   3.939  11.048 -1.8158 -0.6510  0.8829
10131TIP3   OH254587   3.059   0.391  10.529 -0.1728  0.4733  0.3666
10131TIP3    H154588   3.139   0.425  10.569  1.0005 -0.8161 -0.7768
10131TIP3    H254589   3.032   0.461  10.468 -0.1919  1.1085  1.0888
10132TIP3   OH254590   2.762   2.132  10.259 -0.2572  1.0013  0.8066
10132TIP3    H154591   2.765   2.206  10.319 -0.0310 -0.5177  2.7973
10132TIP3    H254592   2.758   2.055  10.316 -0.9587 -0.5167 -1.1620
10133TIP3   OH254593   1.869   3.792  10.999  0.5917  0.2981  0.5413
10133TIP3    H154594   1.961   3.780  10.979  0.2726  1.0972 -1.6743
10133TIP3    H254595   1.826   3.800  10.914 -1.2495  1.8337  1.5251
10134TIP3   OH254596   2.102   4.575  10.518 -0.2562  0.3788  0.1475
10134TIP3    H154597   2.104   4.656  10.468  0.6820 -0.7998 -1.8216
10134TIP3    H254598   2.194   4.556  10.537 -0.5383  0.3151  1.5555
10135TIP3   OH254599   3.784   1.872  11.160  0.1335 -0.3531  0.3143
10135TIP3    H154600   3.826   1.957  11.171  1.4201 -0.8984 -0.1866
10135TIP3    H254601   3.771   1.840  11.250  3.7502 -1.5431  0.5617
10136TIP3   OH254602   1.831   0.114   8.701  0.0343  0.4642  0.1494
10136TIP3    H154603   1.775   0.129   8.778 -0.4202  0.3278 -0.1525
10136TIP3    H254604   1.847   0.202   8.667  0.0283  0.5063  0.2533
10137TIP3   OH254605   2.688   4.657  10.026 -0.2029 -0.2520 -0.0726
10137TIP3    H154606   2.641   4.697  10.100  0.1112 -1.4034  0.7728
10137TIP3    H254607   2.665   4.564  10.032  0.3892 -0.4594 -1.0158
10138TIP3   OH254608   2.736   2.893  11.769 -0.1251  0.0679 -0.3664
10138TIP3    H154609   2.646   2.866  11.751 -0.5504  0.9328  0.3928
10138TIP3    H254610   2.788   2.814  11.755 -1.0684 -0.5892 -0.2647
10139TIP3   OH254611   5.862   1.439  10.856  0.5989 -0.2040  0.2050
10139TIP3    H154612   5.888   1.523  10.895 -1.4316  0.7309 -0.2937
10139TIP3    H254613   5.884   1.447  10.764 -1.7141  0.8375 -0.3478
10140TIP3   OH254614   5.491   4.986  11.172 -0.0205  0.2742  0.5913
10140TIP3    H154615   5.462   4.903  11.210  0.1713 -0.5205 -0.9088
10140TIP3    H254616   5.457   5.053  11.231 -0.0158 -0.8698  1.9441
10141TIP3   OH254617   5.934   2.716  10.035  0.1493  0.3098 -0.0726
10141TIP3    H154618   5.953   2.809  10.018 -2.7668  0.8574 -0.9956
10141TIP3    H254619   5.924   2.678   9.948  0.5243 -0.6769  0.3102
10142TIP3   OH254620   2.162   4.116  12.298  0.1045  0.2031 -0.4132
10142TIP3    H154621   2.148   4.037  12.351 -0.7102  0.6258  0.0309
10142TIP3    H254622   2.244   4.100  12.252 -0.1540 -0.9935 -0.4901
10143TIP3   OH254623   1.459   0.897  11.661  0.2329 -0.5743  0.1959
10143TIP3    H154624   1.378   0.856  11.691 -1.3561  0.5259 -2.2937
10143TIP3    H254625   1.458   0.984  11.701 -1.4801  0.5926 -2.1449
10144TIP3   OH254626   4.106   2.174  10.511  0.0490 -0.5468  0.1833
10144TIP3    H154627   4.147   2.165  10.598  0.0635 -0.5603  0.1751
10144TIP3    H254628   4.071   2.263  10.511  2.6867  0.5829 -0.9214
10145TIP3   OH254629   5.091   0.250   9.327  0.3527  0.0740  0.5845
10145TIP3    H154630   5.068   0.227   9.237  2.7632 -0.0673 -0.0506
10145TIP3    H254631   5.145   0.177   9.357  0.1096  0.4345  1.9473
10146TIP3   OH254632   0.365   3.225  10.453 -0.3579  0.4605  0.1592
10146TIP3    H154633   0.286   3.264  10.492  0.2425  0.9723  0.8979
10146TIP3    H254634   0.411   3.185  10.527  0.0502  0.1190 -0.2755
10147TIP3   OH254635   4.749   3.611  12.092  0.3371  0.7016  0.3398
10147TIP3    H154636   4.685   3.562  12.144 -0.0513  1.7513  0.8872
10147TIP3    H254637   4.702   3.636  12.013  0.2695  0.9083  0.4442
10148TIP3   OH254638   4.584   3.301  10.542 -0.0139  0.1160 -0.0986
10148TIP3    H154639   4.525   3.373  10.567  0.6248  0.6011  0.0431
10148TIP3    H254640   4.537   3.254  10.474 -0.4843  0.6219 -0.1338
10149TIP3   OH254641   2.981   6.347   8.793 -0.3613  0.0398  0.0745
10149TIP3    H154642   3.022   6.427   8.824  0.6311 -0.7212  0.7935
10149TIP3    H254643   2.899   6.376   8.752 -0.8056  1.2615  1.7354
10150TIP3   OH254644   0.468   2.522  10.242 -0.6459  0.1101  0.9207
10150TIP3    H154645   0.523   2.564  10.308  1.0067 -0.0396 -0.3100
10150TIP3    H254646   0.479   2.575  10.164  0.1645 -1.6274 -0.2056
10151TIP3   OH254647   0.187   2.276   8.544 -0.0587  0.8381 -0.0144
10151TIP3    H154648   0.103   2.313   8.572 -1.1317 -0.6767 -1.0624
10151TIP3    H254649   0.177   2.182   8.556  0.4336  0.3469 -2.7610
10152TIP3   OH254650   2.973   5.342   9.163 -0.0463  0.3213  0.1523
10152TIP3    H154651   2.878   5.354   9.157  0.0313  0.9708  0.0803
10152TIP3    H254652   2.985   5.248   9.176 -0.6768  0.1800 -0.2579
10153TIP3   OH254653   0.850   2.607   9.291  1.0934  0.7927  0.0738
10153TIP3    H154654   0.770   2.630   9.245 -0.7966  0.7564  3.0903
10153TIP3    H254655   0.894   2.691   9.305  1.6904  0.8054 -1.6454
10154TIP3   OH254656   4.400   2.899  11.076 -0.2595  0.2417 -0.0815
10154TIP3    H154657   4.486   2.940  11.071 -0.4728  0.8653  1.0627
10154TIP3    H254658   4.400   2.853  11.160 -0.6585 -0.6666 -0.5647
10155TIP3   OH254659   0.959   5.130   8.742  0.2607  0.1817  0.6027
10155TIP3    H154660   0.900   5.076   8.688 -0.7573  0.7504  1.1250
10155TIP3    H254661   1.009   5.066   8.792 -0.6071 -0.3101  0.8804
10156TIP3   OH254662   0.692   5.647   9.005 -0.9387 -0.1756 -0.1947
10156TIP3    H154663   0.629   5.711   9.036 -2.0061 -1.2451 -0.0816
10156TIP3    H254664   0.765   5.699   8.971 -1.5967  1.0709  0.2492
10157TIP3   OH254665   4.355   4.990   9.522  0.1596  0.5866 -0.1988
10157TIP3    H154666   4.396   5.028   9.599 -0.0569  0.0658  0.1848
10157TIP3    H254667   4.332   5.064   9.467  2.1279  0.8751 -0.7117
10158TIP3   OH254668   2.273   6.029   9.733  0.6733 -0.4989  0.6997
10158TIP3    H154669   2.254   6.117   9.701  0.3939  0.3624  3.0213
10158TIP3    H254670   2.343   5.997   9.677 -1.1479  0.0148 -2.0628
10159TIP3   OH254671   1.145   6.378  10.605 -0.3450 -0.1490  0.4044
10159TIP3    H154672   1.098   6.447  10.556  0.6332  1.4544  1.6317
10159TIP3    H254673   1.180   6.321  10.537  1.9019  2.6096 -0.9872
10160TIP3   OH254674   0.859   2.879  11.925 -0.2771 -0.2502 -0.2332
10160TIP3    H154675   0.853   2.822  11.848 -1.6252 -0.2817 -0.1253
10160TIP3    H254676   0.830   2.965  11.895  1.3593  0.3232 -0.2918
10161TIP3   OH254677   2.376   2.550  10.999 -0.1900 -0.0322 -0.1782
10161TIP3    H154678   2.427   2.544  10.918  3.2094  0.5008  1.7479
10161TIP3    H254679   2.418   2.620  11.049 -1.9017 -0.6057  2.2358
10162TIP3   OH254680   0.351   3.988   8.642  0.0188 -0.1040  0.0223
10162TIP3    H154681   0.405   3.913   8.619 -0.1331 -0.1883 -0.0603
10162TIP3    H254682   0.387   4.060   8.590  0.9297  0.1687  0.9888
10163TIP3   OH254683   3.953   0.465   9.585  0.5555 -0.1465 -0.1508
10163TIP3    H154684   4.045   0.490   9.572  1.9431 -2.9673  2.7886
10163TIP3    H254685   3.923   0.520   9.657  1.2080 -1.5965  1.3002
10164TIP3   OH254686   3.768   0.120  10.383  0.2157  0.1035 -0.2286
10164TIP3    H154687   3.785   0.031  10.413 -2.2757 -0.8329 -1.3156
10164TIP3    H254688   3.837   0.137  10.319  1.3597 -0.5862  0.7756
10165TIP3   OH254689   3.040   1.083   9.819 -0.3062 -0.2397  0.1484
10165TIP3    H154690   3.073   0.997   9.846 -0.2741 -0.5861 -0.9289
10165TIP3    H254691   2.959   1.063   9.773 -1.6812  0.5403  2.1201
10166TIP3   OH254692   2.530   6.082  11.255 -0.3724 -0.5187 -0.1087
10166TIP3    H154693   2.553   6.030  11.178  1.4803 -0.2099  0.1898
10166TIP3    H254694   2.441   6.056  11.276 -0.4760 -1.5025 -1.6383
10167TIP3   OH254695   2.713   6.602  11.280  0.3542 -0.4792 -0.4903
10167TIP3    H154696   2.807   6.594  11.263  0.0370 -0.9183 -2.3858
10167TIP3    H254697   2.681   6.512  11.275 -0.2210 -0.2911 -0.2275
10168TIP3   OH254698   2.725   0.483   9.804 -0.2170 -0.5742 -0.1836
10168TIP3    H154699   2.666   0.529   9.744 -1.9086 -2.2464  0.1156
10168TIP3    H254700   2.731   0.394   9.767  1.2382 -0.7429  0.4188
10169TIP3   OH254701   3.167   3.253  11.089  0.0664  0.4922 -0.8124
10169TIP3    H154702   3.100   3.186  11.105  0.4805 -0.0512 -1.2852
10169TIP3    H254703   3.181   3.294  11.174  0.7920 -0.9535 -0.1956
10170TIP3   OH254704   0.960   4.312  11.028  0.1635 -0.2047  0.0038
10170TIP3    H154705   0.913   4.373  10.971 -0.9586 -1.9961 -1.0761
10170TIP3    H254706   1.019   4.368  11.078 -0.7669  1.7598 -0.9532
10171TIP3   OH254707   1.576   6.385  10.478  0.7332  0.5527  0.4134
10171TIP3    H154708   1.547   6.471  10.508 -1.5028  0.4417 -1.1502
10171TIP3    H254709   1.545   6.380  10.388  0.7646 -1.9096  0.4773
10172TIP3   OH254710   3.619   5.164   9.163 -0.4681  0.1576  0.5611
10172TIP3    H154711   3.646   5.154   9.254 -0.7538  0.1468  0.6481
10172TIP3    H254712   3.616   5.074   9.129  1.3338  0.2695  0.0247
10173TIP3   OH254713   5.731   2.494   9.354  0.4548 -0.0411 -0.0873
10173TIP3    H154714   5.675   2.535   9.420 -2.5266  0.4454 -2.6786
10173TIP3    H254715   5.762   2.566   9.299 -0.1016 -0.6808 -1.2970
10174TIP3   OH254716   0.168   0.139  10.364  0.4515  0.1791  0.5191
10174TIP3    H154717   0.125   0.075  10.307  1.0793 -1.3165  1.6597
10174TIP3    H254718   0.105   0.157  10.433 -0.2967  1.9723 -0.5425
10175TIP3   OH254719   6.242   6.539  10.625 -0.5013 -0.1305 -0.0362
10175TIP3    H154720   6.165   6.486  10.606 -0.5627 -0.3812  0.8580
10175TIP3    H254721   6.209   6.629  10.624 -0.8033 -0.2331  0.2974
10176TIP3   OH254722   1.505   6.260  11.166  0.1331  0.0300 -0.8940
10176TIP3    H154723   1.415   6.284  11.143 -0.0241 -0.2614 -0.6079
10176TIP3    H254724   1.510   6.273  11.261  0.1769 -0.6183 -0.8000
10177TIP3   OH254725   5.202   5.285  10.708 -0.0355 -0.1735  0.2096
10177TIP3    H154726   5.276   5.325  10.663 -1.8098  1.0069 -1.8292
10177TIP3    H254727   5.236   5.200  10.739  2.4257  0.7736  0.3621
10178TIP3   OH254728   4.991   4.724  10.059  0.3344 -0.5267 -0.5652
10178TIP3    H154729   5.014   4.634  10.035 -0.0238 -0.2934 -1.8657
10178TIP3    H254730   4.918   4.746  10.001  1.6565  1.2640 -1.6376
10179TIP3   OH254731   0.896   6.518  10.074 -0.7765  0.1364 -0.1086
10179TIP3    H154732   0.914   6.612  10.067 -3.6223  0.6596 -1.7427
10179TIP3    H254733   0.817   6.512  10.128 -0.5387 -1.3500  0.1155
10180TIP3   OH254734   0.185   4.669  10.266 -0.1187  0.4020 -0.1206
10180TIP3    H154735   0.257   4.732  10.256  0.1698  0.1811  0.4941
10180TIP3    H254736   0.169   4.637  10.177  0.5633  0.4414 -0.2663
10181TIP3   OH254737   4.755   5.275  11.264  0.5972  0.0352  0.4132
10181TIP3    H154738   4.710   5.355  11.238  1.1034  0.5430  1.0628
10181TIP3    H254739   4.847   5.300  11.269  0.9124 -0.8788 -0.4577
10182TIP3   OH254740   4.968   4.378  11.127 -0.1425 -0.1309  0.1153
10182TIP3    H154741   4.890   4.331  11.155 -1.0782  2.0030  1.3383
10182TIP3    H254742   4.959   4.384  11.031 -0.4689 -1.5483  0.0399
10183TIP3   OH254743   5.822   3.225   9.709  0.5914 -0.3531  0.1498
10183TIP3    H154744   5.869   3.142   9.697 -0.3534 -0.5659 -2.8115
10183TIP3    H254745   5.753   3.205   9.771  1.0480 -1.4952  0.3092
10184TIP3   OH254746   6.282   5.918   9.028  0.1888 -0.1036 -1.0772
10184TIP3    H154747   6.321   5.906   9.114 -0.3365  2.4432 -0.4006
10184TIP3    H254748   6.198   5.871   9.033  0.5655 -0.7277 -0.5299
10185TIP3   OH254749   6.672   2.108   9.870 -0.3128 -0.3576 -0.0191
10185TIP3    H154750   6.626   2.168   9.928  1.6459  1.1334  0.1135
10185TIP3    H254751   6.634   2.022   9.889 -3.6640  0.8484 -0.6797
10186TIP3   OH254752   0.489   6.278   9.736  0.0953 -0.2129 -0.4455
10186TIP3    H154753   0.447   6.274   9.822  1.0778 -0.0177  0.0573
10186TIP3    H254754   0.540   6.359   9.738  1.4555 -1.0412 -0.5772
10187TIP3   OH254755   5.805   0.727   9.942  0.2237  0.3201  0.0266
10187TIP3    H154756   5.797   0.820   9.921  1.7029  0.1782 -1.4028
10187TIP3    H254757   5.783   0.683   9.860  1.0965 -0.5118  0.2255
10188TIP3   OH254758   1.487   4.824   9.099 -0.4336 -0.5420  0.3038
10188TIP3    H154759   1.545   4.826   9.023 -1.4306 -1.0988 -0.4921
10188TIP3    H254760   1.533   4.770   9.164 -0.2544 -1.3210 -0.4648
10189TIP3   OH254761   5.404   3.317   9.326 -0.4080  0.5119  0.1146
10189TIP3    H154762   5.313   3.328   9.298  0.1454 -1.8080 -3.2075
10189TIP3    H254763   5.446   3.401   9.308 -0.9733  0.2617 -2.8907
10190TIP3   OH254764   2.346   0.443   9.143  0.3275  0.3370 -0.9405
10190TIP3    H154765   2.265   0.398   9.167  1.3469 -0.7265  0.7201
10190TIP3    H254766   2.327   0.536   9.156 -1.0137  0.2299 -1.9130
10191TIP3   OH254767   5.152   2.766  11.525 -0.7729  0.6650 -0.6722
10191TIP3    H154768   5.116   2.707  11.592  0.8330  0.1803 -0.1931
10191TIP3    H254769   5.085   2.834  11.514 -0.6250  1.4049  2.2517
10192TIP3   OH254770   1.914   5.377  10.954  0.2267 -0.3810 -0.3344
10192TIP3    H154771   1.931   5.300  11.008 -0.7525 -0.0559  0.4757
10192TIP3    H254772   1.821   5.397  10.969  0.4256  0.8647 -0.6427
10193TIP3   OH254773   2.420   3.568  10.349 -0.0799 -0.1805 -0.0223
10193TIP3    H154774   2.368   3.495  10.383 -0.0532 -0.9347 -1.5334
10193TIP3    H254775   2.364   3.644  10.361  0.6284 -0.0643  3.3251
10194TIP3   OH254776   3.609   2.139   8.622 -0.1090  0.7067  0.2477
10194TIP3    H154777   3.701   2.136   8.595  0.2037 -0.5696  1.3611
10194TIP3    H254778   3.564   2.185   8.551  1.2907  0.8232 -0.5855
10195TIP3   OH254779   3.209   5.813  12.120  0.1687 -0.0396 -0.7847
10195TIP3    H154780   3.180   5.841  12.034  0.5557  0.9069 -0.6241
10195TIP3    H254781   3.305   5.812  12.114  0.2273  0.6883 -0.1831
10196TIP3   OH254782   5.674   3.633  10.716  0.2739 -0.1728  0.5307
10196TIP3    H154783   5.764   3.656  10.741  0.7612  0.1713 -1.3883
10196TIP3    H254784   5.626   3.716  10.722  0.6778  0.1753 -0.7903
10197TIP3   OH254785   1.983   6.461  11.480 -0.3097  0.2169  0.2521
10197TIP3    H154786   2.000   6.401  11.552  3.3664  0.7739  0.0599
10197TIP3    H254787   1.921   6.525  11.515  1.2010  0.3409  2.9445
10198TIP3   OH254788   1.315   6.204   9.324  0.2517 -0.0337 -0.1636
10198TIP3    H154789   1.239   6.168   9.370  0.3656  0.0139  0.0648
10198TIP3    H254790   1.380   6.134   9.329 -0.3081 -0.7123 -1.7600
10199TIP3   OH254791   0.163   5.626  10.280  0.1158  0.2265  0.4456
10199TIP3    H154792   0.120   5.549  10.318  0.3856  0.2223  0.7564
10199TIP3    H254793   0.157   5.613  10.186 -0.5336  0.2149  0.4885
10200TIP3   OH254794   3.869   4.683   8.967  0.0467 -0.0645  0.8727
10200TIP3    H154795   3.829   4.638   8.893  1.3619 -1.1772  0.8095
10200TIP3    H254796   3.829   4.770   8.967  1.4260  0.6807 -2.3346
10201TIP3   OH254797   0.166   1.778  10.911  0.3307 -0.2042 -0.3740
10201TIP3    H154798   0.190   1.854  10.964 -0.7058 -0.9585  1.2599
10201TIP3    H254799   0.248   1.734  10.893  0.5569 -1.3033  2.8376
10202TIP3   OH254800   1.568   5.984  11.117 -0.4868  0.4902 -0.0229
10202TIP3    H154801   1.576   6.070  11.159 -0.0503  1.2653 -1.6239
10202TIP3    H254802   1.522   6.000  11.035 -1.3517 -0.9958  0.1214
10203TIP3   OH254803   0.883   0.311   9.047  0.2713 -0.1600 -0.5922
10203TIP3    H154804   0.872   0.216   9.045 -0.4111 -0.2636  2.5869
10203TIP3    H254805   0.978   0.324   9.052  0.4362 -0.5649 -2.0791
10204TIP3   OH254806   3.770   4.817  12.257 -0.0571 -0.1311 -0.0039
10204TIP3    H154807   3.713   4.851  12.325 -0.3423 -0.7242  0.0612
10204TIP3    H254808   3.822   4.749  12.300  2.4387  1.9777  0.5578
10205TIP3   OH254809   0.877   0.209   9.449  0.1380  0.3349 -0.1918
10205TIP3    H154810   0.872   0.119   9.482 -1.0468  1.0675  1.8204
10205TIP3    H254811   0.805   0.216   9.386  1.0101 -0.4421 -1.3174
10206TIP3   OH254812   2.193   3.441  11.233 -0.5938 -0.1142 -0.4433
10206TIP3    H154813   2.283   3.424  11.258 -0.0085  1.4736 -1.3259
10206TIP3    H254814   2.164   3.361  11.190  0.2121 -0.8213  0.2967
10207TIP3   OH254815   2.248   0.598  11.140  0.6075 -0.0070  0.3326
10207TIP3    H154816   2.208   0.511  11.136 -0.5623  0.5391 -0.3721
10207TIP3    H254817   2.243   0.630  11.050  2.8955  0.0039  0.1462
10208TIP3   OH254818   5.534   6.676   8.510  0.1848 -0.0909 -1.0245
10208TIP3    H154819   5.458   6.729   8.535 -0.1343 -0.1395 -1.8581
10208TIP3    H254820   5.501   6.617   8.442  1.0615  0.1427 -1.6638
10209TIP3   OH254821   1.477   6.036   9.999  0.0753 -0.1481  0.7173
10209TIP3    H154822   1.513   6.122   9.980 -0.6499  0.2729  1.1736
10209TIP3    H254823   1.387   6.054  10.027  0.4443 -0.8680  2.5640
10210TIP3   OH254824   5.259   5.104   9.348 -0.1999  0.1351  0.0180
10210TIP3    H154825   5.333   5.101   9.287  0.1482  0.8881  0.3977
10210TIP3    H254826   5.298   5.087   9.434 -0.0410  2.8911  0.5697
10211TIP3   OH254827   6.497   5.259  10.457  0.1339  0.3639 -1.1089
10211TIP3    H154828   6.415   5.235  10.415 -0.2389 -2.0254  0.7331
10211TIP3    H254829   6.471   5.285  10.546  1.3757 -2.3221  0.1728
10212TIP3   OH254830   6.531   5.946  10.969 -0.2700  0.6725 -0.2408
10212TIP3    H154831   6.480   5.888  11.025 -0.7014  0.7724 -0.5358
10212TIP3    H254832   6.487   6.031  10.975  0.5776  1.0841  0.5009
10213TIP3   OH254833   2.148   5.617  10.773  0.3389  0.0931 -0.0238
10213TIP3    H154834   2.054   5.610  10.790  0.3220  0.9393  0.2674
10213TIP3    H254835   2.161   5.707  10.744  0.8346 -0.4471 -1.6310
10214TIP3   OH254836   1.483   0.947  10.963  0.7026 -0.2829  0.2914
10214TIP3    H154837   1.557   0.958  11.022  1.3844  1.0895 -0.7664
10214TIP3    H254838   1.522   0.933  10.877 -0.2541 -0.1463 -0.1822
10215TIP3   OH254839   4.553   6.087  11.998 -0.3207  0.4153 -0.5994
10215TIP3    H154840   4.584   6.169  12.036  1.7467 -0.0720 -1.1225
10215TIP3    H254841   4.458   6.093  12.003 -0.2185  2.6916 -0.2985
10216TIP3   OH254842   3.147   3.300   9.462  0.3522 -0.2828 -0.1863
10216TIP3    H154843   3.118   3.363   9.528 -1.3128  0.3876 -1.4964
10216TIP3    H254844   3.149   3.349   9.380  5.1828 -0.3004 -0.3733
10217TIP3   OH254845   4.888   5.050  10.193  0.1895  0.6772 -0.1431
10217TIP3    H154846   4.948   5.090  10.256 -1.0287 -0.1433  1.6566
10217TIP3    H254847   4.911   4.957  10.193  0.4973  0.7359 -1.3356
10218TIP3   OH254848   1.567   2.844   9.592  0.0925 -0.0776  0.2224
10218TIP3    H154849   1.484   2.891   9.605 -0.5341 -1.1699  0.3272
10218TIP3    H254850   1.542   2.765   9.544  1.2011 -0.0575 -0.4332
10219TIP3   OH254851   3.853   3.377   9.662  0.2585  0.0545 -0.2189
10219TIP3    H154852   3.879   3.407   9.750  1.7132 -0.6456 -0.3752
10219TIP3    H254853   3.936   3.349   9.621 -0.5258 -0.5230 -1.4655
10220TIP3   OH254854   6.440   3.942  11.188 -0.5747 -0.0252  0.0718
10220TIP3    H154855   6.497   4.019  11.185  2.4458 -2.0847 -0.5963
10220TIP3    H254856   6.424   3.920  11.097 -3.0183  0.8008  0.2431
10221TIP3   OH254857   5.216   4.035   8.806  0.2005  0.2806  0.9106
10221TIP3    H154858   5.239   3.958   8.754 -0.7583 -0.1804  1.1670
10221TIP3    H254859   5.281   4.101   8.780  0.1541 -0.1530 -0.3799
10222TIP3   OH254860   1.520   5.390  11.386 -0.3773  0.2732 -0.4094
10222TIP3    H154861   1.585   5.429  11.445  1.8970 -0.1771 -2.4478
10222TIP3    H254862   1.546   5.298  11.378 -2.9918 -0.6865  0.8246
10223TIP3   OH254863   2.314   0.686  10.626 -0.5249 -0.7542 -0.1480
10223TIP3    H154864   2.341   0.595  10.613  1.2370 -0.3674  0.4658
10223TIP3    H254865   2.392   0.729  10.661 -1.3866  0.9528 -0.2191
10224TIP3   OH254866   5.231   4.963   8.761  0.2748 -0.1309 -0.1062
10224TIP3    H154867   5.175   4.946   8.837  0.3554 -1.1496 -0.2600
10224TIP3    H254868   5.238   5.058   8.757 -0.0956 -0.0497  0.8988
10225TIP3   OH254869   1.005   6.009  10.395 -0.1211  0.1960  0.1722
10225TIP3    H154870   0.956   5.986  10.316  2.4432  1.6119 -2.0081
10225TIP3    H254871   0.941   6.052  10.452 -1.6375  0.9973 -2.0244
10226TIP3   OH254872   0.523   4.807  10.628 -0.0175 -0.7605  0.1970
10226TIP3    H154873   0.457   4.871  10.656  0.6896 -0.8044  2.0811
10226TIP3    H254874   0.569   4.850  10.556 -3.3047 -1.4945 -2.6539
10227TIP3   OH254875   3.247   5.706  11.186  0.3818 -0.1031  0.1232
10227TIP3    H154876   3.272   5.616  11.206 -0.2936 -0.6148 -1.1853
10227TIP3    H254877   3.303   5.760  11.242  0.8088 -1.3294  0.9164
10228TIP3   OH254878   3.543   5.878   9.553 -0.0762  0.4949 -0.1442
10228TIP3    H154879   3.595   5.958   9.552 -0.5841  1.0492  3.5428
10228TIP3    H254880   3.565   5.836   9.636 -3.4061 -0.6688  0.3212
10229TIP3   OH254881   1.447   3.024  10.232  0.3980 -0.0888  0.1017
10229TIP3    H154882   1.379   2.957  10.242  0.8711 -0.6562 -0.4143
10229TIP3    H254883   1.433   3.083  10.306 -0.1820 -0.6214  0.4286
10230TIP3   OH254884   4.336   2.724   9.088  0.5121  0.3848 -0.3705
10230TIP3    H154885   4.343   2.650   9.149 -0.0392  0.0860 -0.6646
10230TIP3    H254886   4.336   2.801   9.144  2.1752  0.2366 -0.1093
10231TIP3   OH254887   3.900   2.705  10.029  0.1913  0.0294  0.0642
10231TIP3    H154888   3.818   2.751  10.010  0.3290  1.2294  2.0527
10231TIP3    H254889   3.945   2.762  10.091  2.4948 -0.6775 -0.8473
10232TIP3   OH254890   3.934   0.548  12.188  0.0664  0.2431 -0.2153
10232TIP3    H154891   3.903   0.458  12.174 -0.4068  0.3825 -0.0883
10232TIP3    H254892   3.855   0.602  12.179 -0.0187  0.4773  1.5989
10233TIP3   OH254893   0.710   2.328   8.922 -0.9438 -0.0493  0.0891
10233TIP3    H154894   0.735   2.416   8.951  0.9256 -0.1552 -1.0721
10233TIP3    H254895   0.648   2.298   8.988  1.7588  0.3691  3.0505
10234TIP3   OH254896   4.259   3.745  10.229  0.1549 -0.7414 -0.0711
10234TIP3    H154897   4.348   3.722  10.202  1.4297 -0.0528  3.1023
10234TIP3    H254898   4.269   3.825  10.281 -2.3727 -0.4576  0.1136
10235TIP3   OH254899   3.100   1.261  10.039 -0.3628  0.5867  0.1088
10235TIP3    H154900   3.175   1.236  10.093 -1.8503 -0.2726  1.9019
10235TIP3    H254901   3.087   1.186   9.980  0.2139  0.7712 -0.2620
10236TIP3   OH254902   4.272   4.539  11.504  0.0398  0.2585  0.4096
10236TIP3    H154903   4.305   4.519  11.416 -0.6992 -0.5980  0.3217
10236TIP3    H254904   4.241   4.455  11.538 -1.8684  0.9754  0.5596
10237TIP3   OH254905   4.174   5.020  11.982  0.4167  0.0583  0.5492
10237TIP3    H154906   4.253   4.979  11.946  0.3157 -1.2571  1.7605
10237TIP3    H254907   4.103   4.960  11.958 -0.1607  0.9579 -0.0587
10238TIP3   OH254908   3.929   2.380  10.054 -0.1500 -0.2421 -0.3568
10238TIP3    H154909   3.994   2.353  10.119 -1.2749 -1.8117  0.1745
10238TIP3    H254910   3.962   2.464  10.021  2.1504 -0.9805 -0.1495
10239TIP3   OH254911   5.477   0.092  10.534  0.3755 -0.3469  0.6100
10239TIP3    H154912   5.384   0.093  10.556 -0.0101  1.9837 -0.8417
10239TIP3    H254913   5.480   0.101  10.439  2.0926  0.4417  0.7041
10240TIP3   OH254914   0.428   0.865   9.443  0.7934 -0.1237  0.3462
10240TIP3    H154915   0.463   0.853   9.531 -2.2586 -0.2885  1.6574
10240TIP3    H254916   0.413   0.776   9.411 -0.1823 -0.0532  0.5906
10241TIP3   OH254917   0.726   0.236  10.122  0.0497 -0.1231  0.3297
10241TIP3    H154918   0.774   0.304  10.075  0.0877  0.2149  0.8522
10241TIP3    H254919   0.683   0.185  10.053  0.7703 -0.1370 -0.1124
10242TIP3   OH254920   5.978   2.106   9.756 -0.2155 -0.3303  0.2574
10242TIP3    H154921   6.050   2.079   9.699 -0.6876 -0.3086 -0.3676
10242TIP3    H254922   5.979   2.043   9.828 -0.4512 -1.2091 -0.4857
10243TIP3   OH254923   3.781   4.454  10.966  0.3104 -0.0964  0.3231
10243TIP3    H154924   3.769   4.396  11.041  0.9376 -1.9467 -0.9567
10243TIP3    H254925   3.697   4.499  10.956 -1.2407 -2.9338 -0.3873
10244TIP3   OH254926   2.959   4.573  11.239 -0.2489 -0.3162 -0.3772
10244TIP3    H154927   3.018   4.643  11.210 -0.5125  0.6940  1.3868
10244TIP3    H254928   2.944   4.521  11.160  1.9394  0.1463 -1.1716
10245TIP3   OH254929   6.512   3.021   8.868 -0.1264  0.5524  1.3125
10245TIP3    H154930   6.440   3.076   8.900 -0.0665  0.6429  1.2920
10245TIP3    H254931   6.591   3.072   8.887 -0.0297  0.2060  1.8490
10246TIP3   OH254932   4.156   6.206  11.465 -0.4012 -0.0899 -0.1401
10246TIP3    H154933   4.238   6.253  11.481 -0.8038  0.2729  0.9948
10246TIP3    H254934   4.181   6.127  11.418  0.6057  0.0165  0.2037
10247TIP3   OH254935   0.045   2.863  10.653 -0.0479  0.0516  0.4667
10247TIP3    H154936   0.098   2.905  10.586 -1.0763 -0.9716 -1.0701
10247TIP3    H254937   0.105   2.802  10.697  0.6037  0.6224  0.3794
10248TIP3   OH254938   2.831   3.943  11.564  0.5782  0.2513 -0.4460
10248TIP3    H154939   2.752   3.992  11.540  1.2542  1.4449 -0.3464
10248TIP3    H254940   2.804   3.890  11.639 -0.1819  0.4832 -0.5405
10249TIP3   OH254941   0.317   0.158   9.124 -0.1416  0.3147  0.1620
10249TIP3    H154942   0.371   0.227   9.161  0.8380 -1.1613  1.6308
10249TIP3    H254943   0.363   0.077   9.146 -2.9129 -1.0371  1.4650
10250TIP3   OH254944   1.254   5.637  11.239 -0.0707  0.7125  0.1814
10250TIP3    H154945   1.230   5.556  11.284  1.4734 -0.7020 -1.3918
10250TIP3    H254946   1.171   5.681  11.222 -0.8797 -0.1547  1.7573
10251TIP3   OH254947   0.113   1.390   9.090 -0.3029 -0.1261 -0.8100
10251TIP3    H154948   0.086   1.358   9.176  1.4138  0.2710 -0.0819
10251TIP3    H254949   0.130   1.312   9.038  0.5409 -0.3919 -0.1465
10252TIP3   OH254950   5.780   2.222  10.497 -0.5374 -0.3403 -0.2134
10252TIP3    H154951   5.862   2.173  10.501  0.7898  1.7455 -0.3974
10252TIP3    H254952   5.751   2.214  10.407 -0.3069 -0.7468 -0.2513
10253TIP3   OH254953   3.121   4.566   9.012  0.4878 -0.4480  0.0592
10253TIP3    H154954   3.061   4.491   9.019 -0.9236  0.6256 -0.0042
10253TIP3    H254955   3.123   4.586   8.919  1.5501 -0.9230 -0.0290
10254TIP3   OH254956   2.900   5.183  11.737 -0.3567  0.4477  0.0740
10254TIP3    H154957   2.888   5.182  11.832  0.6307 -1.2903  0.2223
10254TIP3    H254958   2.823   5.139  11.703  0.6951 -1.7426  0.3384
10255TIP3   OH254959   6.653   4.134   9.127 -0.0266 -0.0207 -0.0088
10255TIP3    H154960   6.744   4.108   9.145 -1.1603 -4.7279  0.2310
10255TIP3    H254961   6.650   4.146   9.032  0.8764  0.3381 -0.0017
10256TIP3   OH254962   5.870   3.663   9.589  0.3977  0.2155  0.8584
10256TIP3    H154963   5.837   3.666   9.678 -0.5572  0.2832  0.5084
10256TIP3    H254964   5.834   3.582   9.553  1.0416  0.0209  0.6298
10257TIP3   OH254965   4.152   0.922   8.902 -0.1149 -0.1623  0.2208
10257TIP3    H154966   4.116   0.899   8.988  0.0153  0.6465  0.4998
10257TIP3    H254967   4.156   0.838   8.854  1.2028 -0.8787  1.5037
10258TIP3   OH254968   0.620   5.749   9.890 -0.0891  0.0673  0.0934
10258TIP3    H154969   0.561   5.676   9.907 -0.0334  0.2005  0.9062
10258TIP3    H254970   0.669   5.760   9.972 -1.3082  2.1159  0.6277
10259TIP3   OH254971   0.393   5.364  10.217  0.0276 -0.3394 -0.2676
10259TIP3    H154972   0.321   5.348  10.157 -0.2832  0.4726 -0.1223
10259TIP3    H254973   0.372   5.311  10.294  0.2401 -1.0880 -0.7117
10260TIP3   OH254974   2.026   6.528   8.906 -0.2763  0.1329 -0.2311
10260TIP3    H154975   2.028   6.578   8.824  1.3354 -0.1556 -0.4029
10260TIP3    H254976   2.111   6.545   8.946 -0.1904 -1.4512  0.3142
10261TIP3   OH254977   1.778   3.296  11.204  0.5535  0.5497 -0.3256
10261TIP3    H154978   1.829   3.351  11.145  0.2232 -0.5468 -1.6912
10261TIP3    H254979   1.828   3.214  11.210  0.0265  0.2466  0.0426
10262TIP3   OH254980   4.750   3.444  12.461  0.0660 -0.3031  0.8783
10262TIP3    H154981   4.688   3.502  12.506 -1.0975 -0.3882 -0.5506
10262TIP3    H254982   4.701   3.363  12.447  0.7008 -0.5865  0.2760
10263TIP3   OH254983   3.212   3.094  10.425 -0.2192 -0.6910  0.2404
10263TIP3    H154984   3.248   3.011  10.396  3.0040  0.4657  0.4635
10263TIP3    H254985   3.196   3.082  10.519 -0.0978 -1.1601  0.2020
10264TIP3   OH254986   3.801   5.488   8.468  0.1417 -0.0790 -0.2168
10264TIP3    H154987   3.836   5.540   8.540  0.7346 -1.0787  0.2470
10264TIP3    H254988   3.713   5.522   8.455  0.3043  0.6424  0.4513
10265TIP3   OH254989   1.477   4.386   8.573  0.3087 -0.7253  0.1385
10265TIP3    H154990   1.471   4.290   8.579  0.0869 -0.6439  1.4674
10265TIP3    H254991   1.564   4.406   8.604 -0.4066 -0.3593  2.0167
10266TIP3   OH254992   6.584   5.786   8.977 -0.0724  0.5650 -0.4007
10266TIP3    H154993   6.592   5.873   9.017 -0.3053 -0.2340  1.5249
10266TIP3    H254994   6.669   5.770   8.937  0.6422  0.9163  0.9141
10267TIP3   OH254995   1.421   0.335   9.900  0.3265 -0.2661 -0.4462
10267TIP3    H154996   1.387   0.416   9.939  1.3800 -0.1602  0.3066
10267TIP3    H254997   1.404   0.268   9.966  0.2734 -0.4848 -0.6829
10268TIP3   OH254998   1.230   0.929  10.692 -0.2431  0.0313  0.0274
10268TIP3    H154999   1.315   0.971  10.676  0.4476 -1.5750 -0.7602
10268TIP3    H255000   1.197   0.908  10.605 -1.3212  0.3586  0.3410
10269TIP3   OH255001   2.698   1.319  10.416 -0.0147 -0.2724 -0.1040
10269TIP3    H155002   2.716   1.398  10.466 -1.5350  0.1822 -0.2272
10269TIP3    H255003   2.666   1.256  10.481 -2.1681  0.3783 -0.4649
10270TIP3   OH255004   4.663   2.643   9.215  0.6408  0.6298 -0.6662
10270TIP3    H155005   4.577   2.603   9.198  0.7317 -0.9912  2.1368
10270TIP3    H255006   4.643   2.736   9.230 -0.5903  0.3331 -0.3170
10271TIP3   OH255007   1.332   2.122  11.313 -0.3054 -0.1369 -0.0050
10271TIP3    H155008   1.385   2.144  11.389  0.7383  0.4914 -0.8856
10271TIP3    H255009   1.242   2.126  11.344  0.1233 -0.7023  1.3916
10272TIP3   OH255010   2.282   0.706   9.636 -0.6504 -0.6207 -0.5769
10272TIP3    H155011   2.290   0.769   9.564  1.2078 -1.1775 -0.9264
10272TIP3    H255012   2.259   0.759   9.712  1.0437  0.5660 -0.8226
10273TIP3   OH255013   3.863   5.940  11.216 -0.0104  0.7439  0.3479
10273TIP3    H155014   3.868   5.925  11.122  0.5802  2.0364  0.1479
10273TIP3    H255015   3.954   5.952  11.243 -0.1920  0.5986  1.0517
10274TIP3   OH255016   1.244   2.670   9.614  0.1600 -0.3055 -0.7460
10274TIP3    H155017   1.270   2.578   9.622 -1.4470 -0.6271  1.7262
10274TIP3    H255018   1.293   2.714   9.684 -1.5082  0.0779  0.2274
10275TIP3   OH255019   6.148   2.049   9.310 -0.3236  0.2922  0.0179
10275TIP3    H155020   6.094   2.113   9.264  0.4563  0.1927 -1.0594
10275TIP3    H255021   6.222   2.099   9.343 -0.6526  0.2787  0.7922
10276TIP3   OH255022   2.544   5.901  10.719  0.4438 -0.0849 -0.5540
10276TIP3    H155023   2.619   5.903  10.659  0.9507  0.0222  0.0715
10276TIP3    H255024   2.493   5.825  10.691  2.7920 -2.5538  1.3680
10277TIP3   OH255025   6.507   5.739   8.566  0.0213 -0.4773 -0.3289
10277TIP3    H155026   6.574   5.805   8.584 -0.7235  0.3394 -0.5042
10277TIP3    H255027   6.427   5.774   8.606 -0.4601 -1.1048 -0.7229
10278TIP3   OH255028   1.406   0.422   9.304  0.2931  0.1185  0.0797
10278TIP3    H155029   1.446   0.386   9.383 -0.4040 -0.3535  0.2323
10278TIP3    H255030   1.443   0.369   9.233  1.7269  1.2307 -0.0440
10279TIP3   OH255031   0.084   4.639   8.449  0.5223  0.3874  0.4948
10279TIP3    H155032   0.013   4.592   8.404  1.2293 -0.7872  0.5562
10279TIP3    H255033   0.061   4.634   8.541 -0.3072  1.7440  0.3909
10280TIP3   OH255034   3.463   4.247  10.922 -0.0097  0.2871 -0.0623
10280TIP3    H155035   3.424   4.267  11.007 -0.3300 -1.9155  0.3812
10280TIP3    H255036   3.389   4.225  10.866  0.3114 -4.1812  0.8573
10281TIP3   OH255037   1.814   2.448   9.838 -0.5241 -0.3065  0.2889
10281TIP3    H155038   1.758   2.523   9.858 -1.0384 -0.2175 -1.3032
10281TIP3    H255039   1.875   2.480   9.771  1.0469 -0.5902  1.5279
10282TIP3   OH255040   2.279   3.705  11.199 -0.1725  0.0649  0.1162
10282TIP3    H155041   2.208   3.760  11.234 -0.0560  0.5695 -0.4374
10282TIP3    H255042   2.257   3.616  11.229 -0.9107  0.2537  0.1497
10283TIP3   OH255043   1.382   6.029  10.309  0.1023  0.1181  0.6424
10283TIP3    H155044   1.387   6.031  10.404 -1.5707 -1.7355  0.8201
10283TIP3    H255045   1.336   6.110  10.286  1.4765  1.1116  1.2916
10284TIP3   OH255046   2.708   1.112  10.637 -0.6961  0.4258  0.2038
10284TIP3    H155047   2.760   1.037  10.608  0.6586  1.1354  0.7237
10284TIP3    H255048   2.624   1.074  10.665 -0.8881 -0.6163 -1.6557
10285TIP3   OH255049   6.429   0.365   8.949  0.0561  0.2901  0.4978
10285TIP3    H155050   6.339   0.333   8.950 -0.2429  1.0168 -0.9024
10285TIP3    H255051   6.427   0.441   8.890  1.8189 -0.4283 -0.5562
10286TIP3   OH255052   1.622   5.098   9.728  0.1866 -0.1294  0.0721
10286TIP3    H155053   1.702   5.112   9.678  0.1392  2.8311  0.6186
10286TIP3    H255054   1.649   5.098   9.819 -0.4935  2.9038  0.3906
10287TIP3   OH255055   3.443   3.599  10.281  0.1907  0.0805  0.0104
10287TIP3    H155056   3.531   3.632  10.263  1.5509 -3.0737  0.2355
10287TIP3    H255057   3.446   3.568  10.372 -1.4505  0.6436  0.3085
10288TIP3   OH255058   5.671   3.222  10.041 -0.6222  0.1522  0.1365
10288TIP3    H155059   5.638   3.311  10.028  0.0941  0.6227  1.4067
10288TIP3    H255060   5.604   3.180  10.095  0.5712  0.9978  2.4088
10289TIP3   OH255061   3.459   1.492   8.628 -0.1937 -0.1451  0.0114
10289TIP3    H155062   3.453   1.549   8.552 -1.2963  1.7249  1.4331
10289TIP3    H255063   3.530   1.529   8.681 -0.9039 -0.0722  0.9415
10290TIP3   OH255064   4.562   6.539   9.681  0.0841  0.5464  0.0977
10290TIP3    H155065   4.574   6.630   9.654  0.7793  0.4858  0.1679
10290TIP3    H255066   4.644   6.517   9.726 -0.1521 -0.0551  0.2429
10291TIP3   OH255067   3.639   1.025  10.809 -0.2534  0.1433  0.0940
10291TIP3    H155068   3.679   1.031  10.896 -0.1866 -1.2719  0.1794
10291TIP3    H255069   3.714   1.018  10.749 -0.3060 -1.5139  0.1710
10292TIP3   OH255070   2.658   1.812  10.720  0.1115  0.0455 -0.1167
10292TIP3    H155071   2.730   1.804  10.783  0.5238  1.5031 -0.3519
10292TIP3    H255072   2.651   1.726  10.680  0.6049 -0.5859  1.1129
10293TIP3   OH255073   3.209   3.366   9.023 -0.4758  0.5458  0.4365
10293TIP3    H155074   3.206   3.389   9.116 -2.2592 -0.8662  0.7922
10293TIP3    H255075   3.125   3.396   8.989  0.8499  2.6325 -1.1810
10294TIP3   OH255076   3.569   3.823  10.684 -0.1300  0.6319 -0.7036
10294TIP3    H155077   3.651   3.816  10.635 -0.2865 -0.9853 -0.7654
10294TIP3    H255078   3.526   3.900  10.646 -0.6028 -0.9623 -3.7122
10295TIP3   OH255079   5.363   4.999  10.058  0.1680 -0.0228  0.5002
10295TIP3    H155080   5.360   5.067  10.126  0.8280 -0.5021  1.0291
10295TIP3    H255081   5.344   4.918  10.104  0.5894 -0.3502  0.1074
10296TIP3   OH255082   2.680   2.659  11.073  0.1070  0.1317 -0.3445
10296TIP3    H155083   2.657   2.608  11.150 -0.4493  0.6777 -0.1378
10296TIP3    H255084   2.710   2.595  11.009  0.6846 -0.3172  0.3614
10297TIP3   OH255085   3.940   1.050  11.813 -0.3715  0.4661  0.4183
10297TIP3    H155086   3.916   1.139  11.788  1.3546  1.4167  1.9370
10297TIP3    H255087   3.985   1.015  11.736  0.6917  1.6458  0.4640
10298TIP3   OH255088   2.666   0.648  10.550 -0.1174 -0.0940  0.4954
10298TIP3    H155089   2.648   0.561  10.584  1.1442 -1.8750 -2.8774
10298TIP3    H255090   2.754   0.642  10.511 -1.0848  1.7583 -2.3352
10299TIP3   OH255091   0.429   6.309   8.361  0.2245 -0.0239  0.3359
10299TIP3    H155092   0.429   6.298   8.456 -2.0975  0.4864  0.4759
10299TIP3    H255093   0.420   6.220   8.326  2.0494 -0.3110  0.5055
10300TIP3   OH255094   4.505   5.735  11.460 -0.2952  0.4865 -0.1459
10300TIP3    H155095   4.486   5.766  11.372  1.4719 -0.3872 -0.8602
10300TIP3    H255096   4.418   5.718  11.498 -1.0690 -0.5980 -2.2368
10301TIP3   OH255097   0.772   6.278   9.858 -0.3400  0.1859  0.4739
10301TIP3    H155098   0.706   6.243   9.918 -1.1235 -0.1813 -0.5703
10301TIP3    H255099   0.737   6.362   9.829  0.6631  0.9954  1.5344
10302TIP3   OH255100   1.891   1.582   9.949 -0.3098 -0.2774 -0.0107
10302TIP3    H155101   1.897   1.495   9.987  0.1499 -0.5893 -0.7849
10302TIP3    H255102   1.936   1.575   9.865 -0.8094  0.5463 -0.3566
10303TIP3   OH255103   0.478   4.639  11.989  0.6806 -0.5000 -0.2183
10303TIP3    H155104   0.422   4.713  11.966  0.2360 -0.8045 -0.1278
10303TIP3    H255105   0.434   4.562  11.951  2.3630 -0.4752 -2.4483
10304TIP3   OH255106   2.814   2.723  10.785 -0.1837  0.3652 -0.2234
10304TIP3    H155107   2.879   2.794  10.784 -1.4388  1.5436 -0.6052
10304TIP3    H255108   2.731   2.767  10.800 -1.0227 -1.0207 -0.6636
10305TIP3   OH255109   1.410   5.932  11.626  0.1713  0.1716 -0.2543
10305TIP3    H155110   1.384   5.922  11.718 -0.2959  1.3616 -0.2389
10305TIP3    H255111   1.331   5.960  11.581 -0.4212 -3.2037 -1.6552
10306TIP3   OH255112   3.203   1.117   8.858  0.2483 -0.5576 -0.3945
10306TIP3    H155113   3.203   1.189   8.794 -0.9109  0.1608  0.3886
10306TIP3    H255114   3.155   1.047   8.814  1.1759 -0.7965 -1.0685
10307TIP3   OH255115   3.198   0.723   8.790  0.2839 -0.3363  0.4301
10307TIP3    H155116   3.270   0.756   8.844 -0.1057 -0.1934  0.8663
10307TIP3    H255117   3.240   0.663   8.729  0.9536  0.6674 -0.1274
10308TIP3   OH255118   5.478   0.634  11.444  0.0397  0.1992  0.0962
10308TIP3    H155119   5.516   0.701  11.502  0.7645  1.2011 -1.4728
10308TIP3    H255120   5.522   0.553  11.469  1.3121  0.8616  0.0606
10309TIP3   OH255121   4.175   2.173   8.250  0.1853  0.0262 -0.2838
10309TIP3    H155122   4.217   2.174   8.164 -1.1606 -1.6461 -1.0446
10309TIP3    H255123   4.163   2.080   8.269 -2.1260  0.3918  0.3557
10310TIP3   OH255124   3.437   4.068  10.602 -0.6019 -0.2595  0.1716
10310TIP3    H155125   3.456   4.064  10.508  0.3114 -0.2614  0.3477
10310TIP3    H255126   3.341   4.062  10.608 -0.6770 -0.0193 -0.7660
10311TIP3   OH255127   3.370   4.805  12.018 -0.2595 -0.2755  0.0348
10311TIP3    H155128   3.303   4.744  11.986 -1.7951  0.8796  0.9057
10311TIP3    H255129   3.400   4.767  12.100 -0.1789 -0.5636 -0.1254
10312TIP3   OH255130   2.093   4.741  12.384 -0.6812  0.7479  0.3029
10312TIP3    H155131   2.026   4.730  12.451  1.0368 -0.9908  1.8292
10312TIP3    H255132   2.165   4.787  12.428  0.5661 -0.6008 -0.2550
10313TIP3   OH255133   6.233   4.692   8.714 -0.0107  0.1788  0.3813
10313TIP3    H155134   6.328   4.678   8.717 -0.1572 -0.7772  2.0481
10313TIP3    H255135   6.212   4.732   8.798 -0.8619  2.2930 -0.7645
10314TIP3   OH255136   0.213   2.946  12.118  0.1052  0.0689 -0.6269
10314TIP3    H155137   0.185   3.024  12.070  1.1091  1.6114  1.1594
10314TIP3    H255138   0.164   2.949  12.200  2.8089  1.0151  1.1108
10315TIP3   OH255139   3.578   2.770  11.422  0.5595 -0.4458  0.1243
10315TIP3    H155140   3.598   2.777  11.515  1.1353 -1.1010  0.0519
10315TIP3    H255141   3.661   2.786  11.378  0.4545 -0.9271 -0.2514
10316TIP3   OH255142   2.759   2.889   9.763 -0.0379  0.0708  0.2587
10316TIP3    H155143   2.694   2.896   9.833  0.6533 -1.3014  1.0893
10316TIP3    H255144   2.843   2.896   9.808  0.4114  0.1802 -0.5794
10317TIP3   OH255145   4.823   3.426   8.959 -0.3909 -0.4201  0.3941
10317TIP3    H155146   4.912   3.393   8.959 -0.3667 -0.4143 -0.9252
10317TIP3    H255147   4.810   3.460   8.871 -1.5729 -0.0724  0.6809
10318TIP3   OH255148   4.820   5.819  11.382 -0.3161  0.0302  0.0937
10318TIP3    H155149   4.798   5.730  11.408  0.6640 -0.3851 -0.4175
10318TIP3    H255150   4.824   5.869  11.463  0.3458 -0.6887  0.5167
10319TIP3   OH255151   2.437   0.201   8.768  0.1970  0.4385  0.0827
10319TIP3    H155152   2.498   0.264   8.805 -0.9208  1.4101  0.3154
10319TIP3    H255153   2.354   0.247   8.764 -0.5369 -0.8609 -0.2178
10320TIP3   OH255154   1.880   6.018   9.087 -0.0541  0.3612 -0.0385
10320TIP3    H155155   1.840   5.977   9.164  1.2374  1.1785  1.1151
10320TIP3    H255156   1.808   6.067   9.047 -0.0288  3.1138  2.8928
10321TIP3   OH255157   4.894   1.718   9.417  0.2366 -0.7386  0.1555
10321TIP3    H155158   4.968   1.662   9.394  1.6397 -0.0360  2.6337
10321TIP3    H255159   4.821   1.656   9.430  1.1582 -1.7776  0.5867
10322TIP3   OH255160   3.489   5.418  10.815  0.1542 -0.4581  0.4032
10322TIP3    H155161   3.503   5.388  10.725 -1.9017  1.3501 -0.6102
10322TIP3    H255162   3.449   5.343  10.859  0.4730 -1.1144 -0.3979
10323TIP3   OH255163   3.177   3.627  12.280  0.2858 -0.0741 -0.0222
10323TIP3    H155164   3.206   3.654  12.367  0.5677  0.0111 -0.1403
10323TIP3    H255165   3.192   3.533  12.278  0.7384 -0.0029 -0.1484
10324TIP3   OH255166   0.758   5.788   9.338 -0.3151 -0.3528 -0.4250
10324TIP3    H155167   0.834   5.760   9.288  0.7996  1.7416 -0.0371
10324TIP3    H255168   0.724   5.708   9.377  0.8479 -1.5364 -1.7324
10325TIP3   OH255169   3.515   3.579   9.034  0.2841  0.0975 -0.2351
10325TIP3    H155170   3.478   3.497   9.068 -0.0552 -0.0783 -1.0059
10325TIP3    H255171   3.536   3.559   8.942  3.4705 -0.1981  0.4587
10326TIP3   OH255172   5.552   0.883  10.655 -0.5250 -0.2090  0.2948
10326TIP3    H155173   5.473   0.841  10.619 -0.6732 -0.0256  0.4060
10326TIP3    H255174   5.548   0.973  10.623  1.2860 -0.9498 -2.4283
10327TIP3   OH255175   1.118   0.514  11.536 -0.0733  0.1013  0.1139
10327TIP3    H155176   1.138   0.426  11.568 -0.3461  0.6245  1.8243
10327TIP3    H255177   1.023   0.518  11.534 -0.1031 -0.4851 -2.5273
10328TIP3   OH255178   4.190   0.705  10.673  0.5289  0.6635 -0.3362
10328TIP3    H155179   4.191   0.744  10.585 -0.0482  0.1904 -0.5589
10328TIP3    H255180   4.133   0.629  10.665 -0.8024  1.4925  0.8244
10329TIP3   OH255181   5.173   1.191  11.175 -0.6851 -0.5426  0.3078
10329TIP3    H155182   5.242   1.255  11.157 -0.2011 -0.6344  1.7225
10329TIP3    H255183   5.217   1.122  11.224 -1.1179 -2.1890 -1.5211
10330TIP3   OH255184   2.050   3.799  12.171 -0.0341  0.6252 -0.2743
10330TIP3    H155185   2.004   3.716  12.185  0.6411  0.2172 -0.3977
10330TIP3    H255186   2.097   3.814  12.253 -1.1697  1.5660  0.2350
10331TIP3   OH255187   3.900   1.590   8.479 -0.2906  0.2709  0.0900
10331TIP3    H155188   3.987   1.574   8.442  0.6156  0.3222  2.0905
10331TIP3    H255189   3.904   1.680   8.512 -0.5682 -0.2134  1.5237
10332TIP3   OH255190   0.604   5.005  10.475 -0.5339  0.0960  0.7925
10332TIP3    H155191   0.650   5.050  10.404 -1.0027  0.4251  0.6947
10332TIP3    H255192   0.519   4.981  10.437 -0.8531  0.4236  1.2859
10333TIP3   OH255193   3.739   4.664   8.371 -0.0857  0.0718  0.8047
10333TIP3    H155194   3.712   4.595   8.311  0.4944 -0.2420  0.9026
10333TIP3    H255195   3.829   4.641   8.396  0.8277  1.8218 -0.6065
10334TIP3   OH255196   2.456   5.928   9.540 -0.1463  0.4340  0.3574
10334TIP3    H155197   2.456   5.867   9.467  0.7466 -0.0198  0.7240
10334TIP3    H255198   2.508   6.002   9.510  0.0990  0.3113  0.4770
10335TIP3   OH255199   5.295   6.668  11.590  0.0730  0.9664  0.3323
10335TIP3    H155200   5.375   6.718  11.569  1.3802 -0.2592  2.0518
10335TIP3    H255201   5.284   6.680  11.684 -0.5228 -0.6382  0.4949
10336TIP3   OH255202   2.506   0.758   8.886  0.5618  0.0226  0.8067
10336TIP3    H155203   2.569   0.718   8.946 -0.5896 -1.6644  0.9501
10336TIP3    H255204   2.436   0.693   8.877 -0.7709  1.4948  0.0050
10337TIP3   OH255205   3.521   0.186  10.287 -0.4747  0.1441 -0.1668
10337TIP3    H155206   3.611   0.161  10.309 -0.5110  0.2851  0.1516
10337TIP3    H255207   3.488   0.227  10.367 -1.1616 -0.8370  0.0640
10338TIP3   OH255208   0.163   2.978   8.615  0.1979  0.0768 -0.3105
10338TIP3    H155209   0.074   3.012   8.617 -0.0022 -0.4741  0.6598
10338TIP3    H255210   0.163   2.914   8.544 -0.6937 -1.2357  0.8223
10339TIP3   OH255211   6.033   3.132  10.954 -0.2363  0.2203 -0.0952
10339TIP3    H155212   6.005   3.111  10.865 -0.0911  0.3268 -0.1672
10339TIP3    H255213   6.014   3.053  11.005 -0.5074  0.2326 -0.1767
10340TIP3   OH255214   4.836   5.397  10.395  0.3652 -0.1183 -0.4153
10340TIP3    H155215   4.904   5.458  10.422 -1.0080  1.1600  0.3058
10340TIP3    H255216   4.847   5.321  10.451  0.8392  0.3119  0.0817
10341TIP3   OH255217   3.328   4.490  10.559 -0.5607 -0.0175 -0.0904
10341TIP3    H155218   3.336   4.574  10.604 -2.0386  0.8577 -1.3679
10341TIP3    H255219   3.415   4.476  10.520  0.0975  0.2306  1.2254
10342TIP3   OH255220   0.075   4.282  11.011  0.3227 -0.5770  0.4755
10342TIP3    H155221   0.148   4.280  10.950 -0.0553  0.9596 -0.0625
10342TIP3    H255222  -0.003   4.278  10.955 -0.0277  1.0644  0.8094
10343TIP3   OH255223   2.785   2.922  10.294 -0.3145 -0.2781 -0.0752
10343TIP3    H155224   2.727   2.906  10.220 -0.6554 -2.2386  0.5499
10343TIP3    H255225   2.873   2.904  10.260 -0.5244 -1.7941  0.1009
10344TIP3   OH255226   3.466   4.198  11.396 -0.6227  0.2045  0.3095
10344TIP3    H155227   3.465   4.103  11.402  1.1339  0.1354  0.0104
10344TIP3    H255228   3.435   4.228  11.481  1.4743 -0.6788  1.4598
10345TIP3   OH255229   0.715   0.135  11.807  0.3542  0.2379 -0.1250
10345TIP3    H155230   0.726   0.072  11.878 -0.7494  1.2204  0.9686
10345TIP3    H255231   0.798   0.182  11.804 -0.0652  1.1791  1.5677
10346TIP3   OH255232   5.658   4.321  11.363 -0.3911 -0.1703 -0.5272
10346TIP3    H155233   5.726   4.291  11.303  0.4589 -0.7743  0.6973
10346TIP3    H255234   5.702   4.380  11.423 -1.0999  0.0055 -0.1649
10347TIP3   OH255235   3.721   4.165   9.246 -0.0691 -0.2676  0.1255
10347TIP3    H155236   3.655   4.208   9.301  0.1080  1.3785 -0.8638
10347TIP3    H255237   3.793   4.145   9.305  0.1347  1.4970  0.5287
10348TIP3   OH255238   0.802   2.701   8.596  0.2949  0.0535 -0.1524
10348TIP3    H155239   0.824   2.773   8.537  2.2939 -0.4953 -0.1489
10348TIP3    H255240   0.776   2.629   8.538  0.0898  0.2012 -0.2443
10349TIP3   OH255241   3.591   2.965   8.917  0.2191 -0.6189 -0.0876
10349TIP3    H155242   3.635   3.050   8.922  0.6026 -0.8694  1.1008
10349TIP3    H255243   3.521   2.978   8.853 -0.0536  0.7366  0.4434
10350TIP3   OH255244   1.818   2.062  11.064 -0.5438  0.6144  0.3018
10350TIP3    H155245   1.790   2.103  10.982 -1.2637 -0.3924  0.0299
10350TIP3    H255246   1.756   2.095  11.129  0.2874  1.7487  0.5397
10351TIP3   OH255247   3.572   4.112   8.667  0.9940  0.4661  0.3803
10351TIP3    H155248   3.555   4.072   8.753  0.8842 -0.0903  0.1061
10351TIP3    H255249   3.487   4.146   8.640  0.4777 -1.4238 -0.5374
10352TIP3   OH255250   1.026   5.075  10.191  0.5052 -0.1844  0.3079
10352TIP3    H155251   0.985   5.128  10.260 -0.1475 -0.0100 -0.2104
10352TIP3    H255252   1.103   5.127  10.165  1.3172 -0.7039  1.5541
10353TIP3   OH255253   3.001   5.559   8.729 -0.0588  0.0500  0.6183
10353TIP3    H155254   3.036   5.544   8.817  1.5352  1.6673  0.3232
10353TIP3    H255255   2.997   5.472   8.690  4.2377 -0.3102  0.5525
10354TIP3   OH255256   4.566   0.495  11.270  0.3769 -0.1053  0.1695
10354TIP3    H155257   4.471   0.507  11.267  0.4108  0.5613  1.1915
10354TIP3    H255258   4.596   0.558  11.335  1.4396 -0.8458  0.4239
10355TIP3   OH255259   5.787   4.971   8.757 -0.7817  0.2525  0.1114
10355TIP3    H155260   5.735   4.897   8.724  1.6139 -1.1345 -0.8438
10355TIP3    H255261   5.823   4.939   8.840  1.1512 -0.1822 -0.8281
10356TIP3   OH255262   2.865   5.954   9.999 -0.0725 -0.1725 -0.1674
10356TIP3    H155263   2.949   5.979  10.039  0.1455 -0.9239 -0.1257
10356TIP3    H255264   2.800   5.975  10.066 -0.5319  4.6396 -1.7986
10357TIP3   OH255265   2.109   4.917   8.662 -0.3750 -0.8338 -0.0396
10357TIP3    H155266   2.143   4.926   8.573  1.4591  3.9190  0.8113
10357TIP3    H255267   2.186   4.896   8.715 -0.1880  1.8164  0.9185
10358TIP3   OH255268   1.040   4.692   8.814  0.4637 -0.1889  0.0522
10358TIP3    H155269   1.093   4.738   8.878 -0.7651 -0.0106  0.9887
10358TIP3    H255270   1.102   4.663   8.747  1.4711  1.5791  0.1525
10359TIP3   OH255271   6.562   3.028  11.821 -0.5242 -0.3148 -0.3329
10359TIP3    H155272   6.481   3.078  11.814 -0.2626  0.2187  0.2714
10359TIP3    H255273   6.631   3.095  11.830 -0.1945 -0.7716  0.7294
10360TIP3   OH255274   5.505   1.585  11.201 -0.0577  0.4223  0.4730
10360TIP3    H155275   5.531   1.631  11.281  0.0624  1.2219 -0.0113
10360TIP3    H255276   5.522   1.648  11.131 -1.4509  0.2486 -0.0582
10361TIP3   OH255277   1.584   6.206  11.936  0.1252  0.1536  0.0577
10361TIP3    H155278   1.663   6.154  11.926  1.2145  1.9255 -1.1171
10361TIP3    H255279   1.593   6.276  11.872 -1.9835  0.9334  0.5279
10362TIP3   OH255280   0.048   3.812  11.194  0.1006 -0.0508 -0.2474
10362TIP3    H155281   0.025   3.904  11.181 -0.2385  0.3138  2.4145
10362TIP3    H255282   0.085   3.785  11.110 -0.7280  2.2033 -1.4311
10363TIP3   OH255283   2.146   3.590  11.465  0.1632 -0.3990 -0.0139
10363TIP3    H155284   2.124   3.531  11.394  0.1267  0.2891 -0.5869
10363TIP3    H255285   2.107   3.549  11.543 -3.5169  0.8068 -0.9738
10364TIP3   OH255286   3.108   4.578  10.938  0.4796 -0.5232 -0.6937
10364TIP3    H155287   3.097   4.492  10.898  0.2840 -1.2921  0.9021
10364TIP3    H255288   3.188   4.570  10.990 -0.4585 -0.3513  0.8500
10365TIP3   OH255289   0.842   3.290  10.032  0.0302 -0.6959 -0.8142
10365TIP3    H155290   0.835   3.384  10.019  0.6132 -0.5199  0.0605
10365TIP3    H255291   0.919   3.279  10.088  0.7108 -1.7739 -1.8877
10366TIP3   OH255292   5.468   3.583  10.550 -0.1216  0.2655  0.2808
10366TIP3    H155293   5.527   3.577  10.625  0.2366  1.1265  0.0910
10366TIP3    H255294   5.524   3.561  10.475 -0.3430 -0.0830  0.2210
10367TIP3   OH255295   6.690   6.055   9.555  0.1902 -0.2148 -0.1924
10367TIP3    H155296   6.709   6.065   9.648 -2.5738 -0.7598  0.5169
10367TIP3    H255297   6.772   6.024   9.517  2.0007  1.9788  1.6358
10368TIP3   OH255298   1.256   4.107   9.692  0.3233 -0.1866  0.2323
10368TIP3    H155299   1.219   4.028   9.732  2.1090 -0.5704  1.2135
10368TIP3    H255300   1.192   4.132   9.625 -0.8261 -1.8109  0.6677
10369TIP3   OH255301   1.695   0.254   9.853 -0.0520  0.2411  0.4905
10369TIP3    H155302   1.601   0.270   9.867 -0.8297  0.0661 -3.4025
10369TIP3    H255303   1.726   0.332   9.807  1.0057 -0.8509 -0.7297
10370TIP3   OH255304   2.156   5.002   9.032 -0.2568 -0.1425  0.7935
10370TIP3    H155305   2.202   5.020   9.114  0.1063  3.0983  0.0476
10370TIP3    H255306   2.064   4.996   9.056 -0.0902  0.1456  1.5174
10371TIP3   OH255307   3.990   3.618  10.655  0.1031 -0.2346 -0.3012
10371TIP3    H155308   4.008   3.595  10.746 -0.8304 -1.1121 -0.3220
10371TIP3    H255309   4.025   3.544  10.605  0.7809  0.3320 -0.6778
10372TIP3   OH255310   4.715   6.413  11.099 -0.0701 -0.4855 -0.3190
10372TIP3    H155311   4.691   6.367  11.180 -0.1495 -1.5812 -0.9407
10372TIP3    H255312   4.715   6.345  11.032  1.0034  0.2146 -1.0638
10373TIP3   OH255313   3.385   1.163  11.231  0.3173 -0.1569  0.2792
10373TIP3    H155314   3.430   1.199  11.155  2.6533 -1.7730  0.8068
10373TIP3    H255315   3.381   1.235  11.293  2.3301  0.0107  0.2580
10374TIP3   OH255316   1.127   0.590   9.155 -0.2946 -0.3490 -0.0907
10374TIP3    H155317   1.145   0.496   9.154 -0.6826 -0.4288  0.1776
10374TIP3    H255318   1.184   0.626   9.087  1.8560 -0.4205  1.5636
10375TIP3   OH255319   5.290   2.844   8.993  0.6777 -0.0852 -0.5279
10375TIP3    H155320   5.236   2.923   8.991  0.1917 -0.3922 -0.0629
10375TIP3    H255321   5.268   2.802   9.077  2.3037  0.2324  0.0934
10376TIP3   OH255322   5.097   0.768   8.726  0.0716  0.4779 -0.0454
10376TIP3    H155323   5.032   0.735   8.664 -0.0605  1.5350 -0.4836
10376TIP3    H255324   5.073   0.859   8.740  0.5876  0.4784  0.9442
10377TIP3   OH255325   4.999   4.406   9.980  0.3730 -0.1189 -0.3110
10377TIP3    H155326   4.977   4.370   9.895 -0.0707 -1.3617  0.3044
10377TIP3    H255327   4.972   4.338  10.043  1.9893  0.1336  0.7302
10378TIP3   OH255328   2.045   6.147   9.488 -0.5265 -0.1678  0.1712
10378TIP3    H155329   2.067   6.201   9.412  0.3745 -1.0294 -0.1961
10378TIP3    H255330   2.037   6.058   9.454  1.9736 -0.9598  1.3291
10379TIP3   OH255331   6.053   0.192   9.749 -0.0321 -0.0547 -0.4908
10379TIP3    H155332   6.145   0.175   9.769  0.6906  1.9077 -1.7296
10379TIP3    H255333   6.049   0.195   9.653 -1.5706 -0.8680 -0.4916
10380TIP3   OH255334   1.339   6.493   9.734 -0.3304 -0.0646  0.2774
10380TIP3    H155335   1.415   6.435   9.730 -0.6329 -0.6100  1.7687
10380TIP3    H255336   1.375   6.581   9.743  0.1350 -0.3155  0.9000
10381TIP3   OH255337   0.012   5.383  10.828  0.1389 -0.6854 -0.9431
10381TIP3    H155338   0.053   5.382  10.914  0.9033 -0.9596 -1.3096
10381TIP3    H255339   0.035   5.469  10.791 -1.4883  0.0863 -0.2691
10382TIP3   OH255340   3.734   6.058  11.592 -0.0817  0.1122 -0.3513
10382TIP3    H155341   3.654   6.064  11.643 -0.0079 -0.7836 -0.1106
10382TIP3    H255342   3.749   6.147  11.560 -0.0054  0.7535  1.3610
10383TIP3   OH255343   6.322   0.835  10.926  0.5035  0.5224 -0.3831
10383TIP3    H155344   6.240   0.834  10.976  0.4740 -0.6358 -0.4322
10383TIP3    H255345   6.390   0.839  10.993  0.4239  0.9034 -0.3231
10384TIP3   OH255346   6.418   5.749  10.454 -0.3678 -0.1820 -0.1842
10384TIP3    H155347   6.451   5.676  10.402 -0.9804 -0.0199 -0.8220
10384TIP3    H255348   6.397   5.711  10.539 -0.1354 -0.6229 -0.3238
10385TIP3   OH255349   3.200   2.826  10.094 -0.3777 -0.0639 -0.0699
10385TIP3    H155350   3.144   2.752  10.070 -1.8426  0.7109  0.8179
10385TIP3    H255351   3.230   2.805  10.183  0.2084 -0.1725 -0.2949
10386TIP3   OH255352   1.180   4.911  10.334  0.4020 -0.0603 -0.0342
10386TIP3    H155353   1.119   4.959  10.279 -0.4537 -1.0619  0.0205
10386TIP3    H255354   1.186   4.824  10.294  0.6283 -0.4468  0.8120
10387TIP3   OH255355   1.746   1.885  10.767  0.6127 -0.0214 -0.1671
10387TIP3    H155356   1.661   1.844  10.751 -0.6785  1.4827  2.2102
10387TIP3    H255357   1.736   1.975  10.735  0.5817  0.7509  1.9107
10388TIP3   OH255358   0.731   4.828   9.631  0.0405 -0.0497  0.0969
10388TIP3    H155359   0.777   4.906   9.599 -0.0134 -0.2806 -0.5701
10388TIP3    H255360   0.645   4.832   9.590 -0.3468  0.0980  0.9155
10389TIP3   OH255361   3.511   1.282   9.220 -0.0693 -0.5735  0.5331
10389TIP3    H155362   3.416   1.277   9.234  0.0514 -1.6128  1.1078
10389TIP3    H255363   3.531   1.204   9.168  0.1765  0.8041 -1.5856
10390TIP3   OH255364   4.209   5.545  10.860 -0.6183  0.1054 -0.1571
10390TIP3    H155365   4.142   5.551  10.792 -0.6982 -1.9878 -0.3114
10390TIP3    H255366   4.278   5.605  10.830 -1.1387  0.0695 -1.5178
10391TIP3   OH255367   4.787   3.469  11.137  0.2726 -0.1579  0.1279
10391TIP3    H155368   4.743   3.540  11.091  1.4237  0.2755 -0.3381
10391TIP3    H255369   4.754   3.474  11.227 -3.1417 -1.9143 -0.8322
10392TIP3   OH255370   4.077   2.971   9.601  0.0427  0.2621  0.0240
10392TIP3    H155371   3.983   2.952   9.596  0.2378 -0.5463 -4.6999
10392TIP3    H255372   4.093   3.031   9.528  3.2694  0.0635  0.4301
10393TIP3   OH255373   3.751   5.404   9.093 -0.1412 -0.3247 -0.2464
10393TIP3    H155374   3.716   5.319   9.119  1.1877 -1.1804 -1.0762
10393TIP3    H255375   3.676   5.453   9.061 -0.8470 -1.4275 -0.3166
10394TIP3   OH255376   0.524   5.819  11.769 -0.0050 -0.0397 -0.4190
10394TIP3    H155377   0.562   5.764  11.837 -0.9865 -0.0930  0.1048
10394TIP3    H255378   0.597   5.837  11.709  0.6524 -0.7534  0.1446
10395TIP3   OH255379   3.594   2.106  10.971  0.0156  0.2737  0.3930
10395TIP3    H155380   3.569   2.069  11.056  0.5839  1.5504  1.1477
10395TIP3    H255381   3.522   2.166  10.949  0.7419  1.3654  0.9089
10396TIP3   OH255382   5.334   5.731  11.350  0.2648 -0.3875 -0.0574
10396TIP3    H155383   5.418   5.699  11.382  0.4848 -2.7305 -2.5741
10396TIP3    H255384   5.269   5.687  11.406  0.6423  0.8071  1.3755
10397TIP3   OH255385   1.589   4.749   8.632 -0.1165 -0.0012  0.1821
10397TIP3    H155386   1.569   4.678   8.693 -0.6769  1.1603  1.4024
10397TIP3    H255387   1.509   4.802   8.629  0.8131  1.5080  0.6205
10398TIP3   OH255388   5.447   5.625   9.973 -0.3282  0.1928 -0.1162
10398TIP3    H155389   5.521   5.641   9.915 -0.4522  0.0816 -0.3048
10398TIP3    H255390   5.479   5.559  10.035  0.7674  2.3004  1.7303
10399TIP3   OH255391   1.505   5.647   9.097  0.0666  0.2382 -0.0035
10399TIP3    H155392   1.550   5.584   9.153 -0.2553  0.6313  0.7006
10399TIP3    H255393   1.548   5.637   9.011 -0.3197 -1.3086 -0.0543
10400TIP3   OH255394   3.103   4.591   8.716 -0.2673 -0.0686  0.3146
10400TIP3    H155395   3.025   4.642   8.692  0.4520  0.3924 -1.1765
10400TIP3    H255396   3.141   4.566   8.632  0.9674 -0.6670  1.0299
10401TIP3   OH255397   0.002   3.495   9.769 -0.2000  0.0733 -0.0072
10401TIP3    H155398  -0.031   3.435   9.702  0.3898 -0.7326  0.4072
10401TIP3    H255399   0.032   3.571   9.720  0.9548 -0.8232 -0.7485
10402TIP3   OH255400   6.496   3.648  10.793  0.2110  0.0486  0.5475
10402TIP3    H155401   6.422   3.595  10.763  1.1519 -2.1567  1.8654
10402TIP3    H255402   6.511   3.620  10.883  1.3865  1.9131  0.9930
10403TIP3   OH255403   0.705   4.814   8.290  0.2331 -0.1714 -0.0565
10403TIP3    H155404   0.673   4.763   8.364  0.4513 -2.1657 -1.2556
10403TIP3    H255405   0.781   4.766   8.258 -0.1672  0.2991 -1.8731
10404TIP3   OH255406   2.742   5.548  10.595 -0.4537 -0.8466  0.4503
10404TIP3    H155407   2.745   5.453  10.580 -1.3026 -0.6099 -1.4517
10404TIP3    H255408   2.727   5.585  10.509 -2.3658  0.9147  1.4645
10405TIP3   OH255409   1.273   0.710  11.713  0.2247  0.6204  0.1388
10405TIP3    H155410   1.325   0.631  11.731 -2.3470 -1.0590  0.6666
10405TIP3    H255411   1.196   0.678  11.666 -0.5022  2.9691 -0.3813
10406TIP3   OH255412   0.860   5.070  10.719  0.0062  0.0958 -0.3884
10406TIP3    H155413   0.950   5.044  10.701 -0.2789 -2.1285  0.9921
10406TIP3    H255414   0.855   5.074  10.815 -1.2165  0.7417 -0.4562
10407TIP3   OH255415   3.761   0.965  12.080 -0.7768  0.0347 -0.1401
10407TIP3    H155416   3.714   1.020  12.018 -1.1446  0.0570  0.1511
10407TIP3    H255417   3.718   0.982  12.164 -0.3701 -0.0905  0.0951
10408TIP3   OH255418   5.705   2.915   8.967  0.3373  1.1752 -0.3304
10408TIP3    H155419   5.728   2.886   9.055 -1.5729 -0.2067 -0.2354
10408TIP3    H255420   5.777   2.883   8.912  1.4495  1.8870  0.6657
10409TIP3   OH255421   2.453   1.145  10.499  0.1731 -0.7405  0.5475
10409TIP3    H155422   2.468   1.052  10.514 -0.8836 -1.2114 -1.0571
10409TIP3    H255423   2.455   1.155  10.403  0.7047  0.9743  0.6922
10410TIP3   OH255424   2.083   5.186  11.312 -0.1241  0.3951 -0.1541
10410TIP3    H155425   2.025   5.156  11.382 -2.4325  0.1884 -2.0240
10410TIP3    H255426   2.101   5.277  11.333 -1.3382  0.5265  0.3874
10411TIP3   OH255427   2.136   3.884  12.434 -0.0530  0.2207 -0.0645
10411TIP3    H155428   2.059   3.928  12.472  0.2219 -0.4700  1.3486
10411TIP3    H255429   2.136   3.798  12.474  1.7822  0.3973  0.3907
10412TIP3   OH255430   2.428   5.346  10.424  0.5354  0.5571 -0.4210
10412TIP3    H155431   2.382   5.322  10.344 -0.0458 -0.3758  0.1625
10412TIP3    H255432   2.358   5.367  10.486  0.9822  1.3791 -0.1883
10413TIP3   OH255433   5.691   3.921   9.127  0.0911  0.1894  0.7303
10413TIP3    H155434   5.783   3.949   9.126 -0.3152  1.6717 -1.5632
10413TIP3    H255435   5.648   3.983   9.187  0.7234 -1.2371  2.7514
10414TIP3   OH255436   5.146   3.437  10.727  0.2325 -0.1256  0.3109
10414TIP3    H155437   5.221   3.488  10.756  0.5156 -1.4274  2.0608
10414TIP3    H255438   5.077   3.459  10.790  0.0860 -1.1677  0.5349
10415TIP3   OH255439   5.505   5.914   9.249 -0.6698  0.4521 -0.8478
10415TIP3    H155440   5.584   5.951   9.209 -2.0690  2.1617 -2.2119
10415TIP3    H255441   5.517   5.926   9.343  1.0286 -0.0774 -0.9702
10416TIP3   OH255442   3.120   4.534   9.898  0.2302  0.7026  0.4189
10416TIP3    H155443   3.062   4.551   9.824 -1.6793 -0.4895  1.5392
10416TIP3    H255444   3.067   4.556   9.975  1.5939  0.4168  1.4683
10417TIP3   OH255445   3.964   1.639   9.595 -0.2476  0.6272 -0.9696
10417TIP3    H155446   3.892   1.645   9.658  0.3428  1.9312 -0.3838
10417TIP3    H255447   3.930   1.684   9.517 -0.5080  0.1383 -1.1448
10418TIP3   OH255448   4.702   6.053  11.193  0.0982 -0.7705 -0.5925
10418TIP3    H155449   4.718   5.971  11.240  0.8568 -1.3496 -1.7926
10418TIP3    H255450   4.789   6.090  11.179 -0.3142  0.9908  1.1542
10419TIP3   OH255451   2.817   5.600  12.355  0.6988 -0.6923 -0.1742
10419TIP3    H155452   2.836   5.579  12.446  2.5529 -2.0369 -0.8145
10419TIP3    H255453   2.862   5.683  12.340 -0.1481 -0.1434  0.3000
10420TIP3   OH255454   0.713   4.089   8.468 -0.2387  0.1495 -0.3064
10420TIP3    H155455   0.703   4.002   8.430  1.6295  0.2901 -1.1819
10420TIP3    H255456   0.792   4.084   8.521 -0.8939  0.9443  0.8117
10421TIP3   OH255457   3.013   1.750  11.149  0.0068 -0.2851 -0.2601
10421TIP3    H155458   2.990   1.818  11.211  0.1279 -0.3374 -0.1580
10421TIP3    H255459   3.077   1.790  11.091 -0.1691 -0.2101 -0.4031
10422TIP3   OH255460   6.484   3.297  10.158 -0.0386 -0.4175 -0.1295
10422TIP3    H155461   6.557   3.351  10.127  0.0156  0.0244  0.7210
10422TIP3    H255462   6.506   3.278  10.250 -0.3989 -1.3124 -0.2200
10423TIP3   OH255463   1.325   1.352   9.120 -0.5012 -0.1352  0.3061
10423TIP3    H155464   1.337   1.447   9.112 -0.3429 -0.1203  0.6883
10423TIP3    H255465   1.299   1.339   9.211 -0.9042 -0.4234  0.1485
10424TIP3   OH255466   0.273   5.798  11.302  0.2749  0.5105 -0.8903
10424TIP3    H155467   0.236   5.821  11.217  0.5229 -0.1948 -1.1932
10424TIP3    H255468   0.311   5.711  11.289 -0.9541 -0.2487  0.3207
10425TIP3   OH255469   0.234   5.952   8.843  0.3787  0.2397 -0.6214
10425TIP3    H155470   0.261   5.974   8.753  0.6972 -0.3957 -0.6879
10425TIP3    H255471   0.234   6.036   8.889 -0.1198  0.6251 -1.3004
10426TIP3   OH255472   5.226   5.255   9.073  0.2867 -0.1579  0.1862
10426TIP3    H155473   5.233   5.350   9.076  1.2591 -0.2349  0.5094
10426TIP3    H255474   5.307   5.223   9.113 -0.0574 -1.1213  0.1424
10427TIP3   OH255475   3.771   3.519  11.859 -0.2916 -0.3320  0.2439
10427TIP3    H155476   3.770   3.584  11.789 -0.1407 -1.1545 -0.5276
10427TIP3    H255477   3.848   3.540  11.911  0.7850 -0.9890 -1.0559
10428TIP3   OH255478   3.613   0.848  10.436  0.1056  0.0615 -0.0735
10428TIP3    H155479   3.530   0.895  10.432 -0.4250 -0.7716  0.7708
10428TIP3    H255480   3.590   0.756  10.430  1.0446 -0.1504 -0.6365
10429TIP3   OH255481   4.724   0.106  10.229  0.5996 -0.1647 -0.1065
10429TIP3    H155482   4.630   0.090  10.228 -0.1505  3.3165 -2.4517
10429TIP3    H255483   4.753   0.090  10.139  1.9269  0.2978  0.2000
10430TIP3   OH255484   1.564   4.466   9.722  0.4839  0.0018  0.1992
10430TIP3    H155485   1.554   4.561   9.713  0.8128 -0.1837 -2.9142
10430TIP3    H255486   1.475   4.432   9.714  0.5695 -0.0646 -0.4469
10431TIP3   OH255487   4.792   0.877   9.924 -0.1677  0.3982  0.4314
10431TIP3    H155488   4.757   0.858   9.837  0.8828  1.1085 -0.1793
10431TIP3    H255489   4.807   0.972   9.923 -1.2801  0.6107  1.8348
10432TIP3   OH255490   3.939   1.950   8.921 -0.0272  0.3353 -0.2324
10432TIP3    H155491   4.032   1.946   8.942  1.3917 -1.0798 -5.4315
10432TIP3    H255492   3.927   2.034   8.877 -0.8951 -0.0490 -0.7616
10433TIP3   OH255493   6.014   0.722   9.657  0.2429  0.1647  0.0488
10433TIP3    H155494   5.940   0.717   9.596  0.5976 -1.0144 -0.3184
10433TIP3    H255495   6.086   0.681   9.609  0.8327  0.2843  0.8286
10434TIP3   OH255496   4.612   0.451  10.010 -0.3368 -0.7334 -0.1615
10434TIP3    H155497   4.626   0.454   9.915 -1.1320 -1.6959 -0.3247
10434TIP3    H255498   4.577   0.537  10.032 -1.2000 -0.8771 -0.9233
10435TIP3   OH255499   4.113   0.416   9.837 -0.3612  0.4888  0.0703
10435TIP3    H155500   4.126   0.345   9.901  1.2572  1.1537  0.5144
10435TIP3    H255501   4.071   0.373   9.763 -3.0623 -0.1766  1.8168
10436TIP3   OH255502   1.137   4.854   8.375  0.0261  0.0332  0.8478
10436TIP3    H155503   1.049   4.824   8.353  0.0529  0.2354  0.4561
10436TIP3    H255504   1.184   4.775   8.401 -0.1884 -0.1170  0.7769
10437TIP3   OH255505   2.993   6.627  10.258  0.1107  0.0258  0.3444
10437TIP3    H155506   3.022   6.703  10.308 -1.2223  1.0252 -0.3384
10437TIP3    H255507   2.954   6.568  10.322  0.2668  0.3673  0.7522
10438TIP3   OH255508   2.336   3.139  11.268 -0.0880 -1.0020  0.0406
10438TIP3    H155509   2.409   3.103  11.219 -0.3585 -0.4311 -0.7987
10438TIP3    H255510   2.367   3.225  11.297 -0.4389 -0.7288 -0.3768
10439TIP3   OH255511   5.856   1.383  10.161  0.6542 -0.3684  0.4825
10439TIP3    H155512   5.811   1.345  10.086  1.2215  2.1297 -1.2529
10439TIP3    H255513   5.919   1.317  10.188 -1.1444 -2.2560  0.3021
   6.68976   6.68976  30.00000
