Title
55513
    1DOPE     N    1   4.115   4.147  16.955
    1DOPE   HN1    2   4.166   4.102  17.034
    1DOPE   HN2    3   4.077   4.238  16.988
    1DOPE   HN3    4   4.039   4.083  16.926
    1DOPE   C12    5   4.215   4.166  16.843
    1DOPE  H12A    6   4.303   4.219  16.885
    1DOPE  H12B    7   4.168   4.229  16.764
    1DOPE   C11    8   4.259   4.029  16.784
    1DOPE  H11A    9   4.353   4.042  16.726
    1DOPE  H11B   10   4.182   3.996  16.712
    1DOPE     P   11   4.381   3.939  16.998
    1DOPE   O13   12   4.446   3.808  17.021
    1DOPE   O14   13   4.307   3.999  17.113
    1DOPE   O11   14   4.479   4.047  16.941
    1DOPE   O12   15   4.274   3.927  16.883
    1DOPE    C1   16   4.619   4.053  16.969
    1DOPE    HA   17   4.655   3.967  17.029
    1DOPE    HB   18   4.640   4.145  17.027
    1DOPE    C2   19   4.706   4.060  16.839
    1DOPE    HS   20   4.809   4.083  16.873
    1DOPE   O21   21   4.656   4.166  16.755
    1DOPE   C21   22   4.737   4.199  16.655
    1DOPE   O22   23   4.846   4.151  16.633
    1DOPE   C22   24   4.671   4.312  16.574
    1DOPE   H2R   25   4.621   4.379  16.647
    1DOPE   H2S   26   4.594   4.266  16.508
    1DOPE    C3   27   4.712   3.922  16.766
    1DOPE    HX   28   4.744   3.850  16.843
    1DOPE    HY   29   4.790   3.925  16.687
    1DOPE   O31   30   4.584   3.884  16.708
    1DOPE   C31   31   4.581   3.758  16.668
    1DOPE   O32   32   4.674   3.679  16.677
    1DOPE   C32   33   4.443   3.722  16.614
    1DOPE   H2X   34   4.434   3.612  16.624
    1DOPE   H2Y   35   4.366   3.769  16.679
    1DOPE   C23   36   4.773   4.395  16.492
    1DOPE   H3R   37   4.860   4.421  16.556
    1DOPE   H3S   38   4.725   4.490  16.461
    1DOPE   C24   39   4.825   4.325  16.365
    1DOPE   H4R   40   4.866   4.225  16.391
    1DOPE   H4S   41   4.909   4.385  16.324
    1DOPE   C25   42   4.718   4.310  16.255
    1DOPE   H5R   43   4.679   4.411  16.232
    1DOPE   H5S   44   4.634   4.248  16.292
    1DOPE   C26   45   4.772   4.249  16.124
    1DOPE   H6R   46   4.863   4.306  16.095
    1DOPE   H6S   47   4.697   4.262  16.044
    1DOPE   C27   48   4.809   4.099  16.133
    1DOPE   H7R   49   4.874   4.084  16.222
    1DOPE   H7S   50   4.868   4.072  16.043
    1DOPE   C28   51   4.685   4.007  16.139
    1DOPE   H8R   52   4.630   4.017  16.044
    1DOPE   H8S   53   4.618   4.045  16.219
    1DOPE   C29   54   4.722   3.864  16.169
    1DOPE   H9R   55   4.751   3.847  16.274
    1DOPE  C210   56   4.724   3.760  16.084
    1DOPE  H10R   57   4.754   3.662  16.123
    1DOPE  C211   58   4.691   3.761  15.937
    1DOPE  H11R   59   4.676   3.864  15.899
    1DOPE  H11S   60   4.595   3.707  15.920
    1DOPE  C212   61   4.800   3.695  15.850
    1DOPE  H12R   62   4.895   3.752  15.860
    1DOPE  H12S   63   4.767   3.704  15.744
    1DOPE  C213   64   4.826   3.546  15.880
    1DOPE  H13R   65   4.727   3.496  15.891
    1DOPE  H13S   66   4.881   3.536  15.976
    1DOPE  C214   67   4.903   3.474  15.769
    1DOPE  H14R   68   4.854   3.498  15.672
    1DOPE  H14S   69   4.895   3.364  15.782
    1DOPE  C215   70   5.052   3.511  15.762
    1DOPE  H15R   71   5.107   3.448  15.835
    1DOPE  H15S   72   5.065   3.617  15.793
    1DOPE  C216   73   5.112   3.495  15.622
    1DOPE  H16R   74   5.058   3.564  15.554
    1DOPE  H16S   75   5.096   3.391  15.586
    1DOPE  C217   76   5.261   3.530  15.613
    1DOPE  H17R   77   5.321   3.444  15.651
    1DOPE  H17S   78   5.280   3.616  15.679
    1DOPE  C218   79   5.307   3.567  15.471
    1DOPE  H18R   80   5.250   3.655  15.435
    1DOPE  H18S   81   5.290   3.484  15.400
    1DOPE  H18T   82   5.415   3.593  15.471
    1DOPE   C33   83   4.423   3.761  16.466
    1DOPE   H3X   84   4.333   3.708  16.429
    1DOPE   H3Y   85   4.509   3.727  16.404
    1DOPE   C34   86   4.400   3.912  16.447
    1DOPE   H4X   87   4.320   3.945  16.517
    1DOPE   H4Y   88   4.493   3.967  16.472
    1DOPE   C35   89   4.356   3.948  16.304
    1DOPE   H5X   90   4.261   3.895  16.280
    1DOPE   H5Y   91   4.433   3.912  16.232
    1DOPE   C36   92   4.336   4.099  16.285
    1DOPE   H6X   93   4.429   4.151  16.315
    1DOPE   H6Y   94   4.255   4.133  16.353
    1DOPE   C37   95   4.300   4.136  16.141
    1DOPE   H7X   96   4.383   4.106  16.073
    1DOPE   H7Y   97   4.210   4.078  16.111
    1DOPE   C38   98   4.269   4.286  16.121
    1DOPE   H8X   99   4.193   4.316  16.196
    1DOPE   H8Y  100   4.221   4.297  16.021
    1DOPE   C39  101   4.391   4.375  16.134
    1DOPE   H9X  102   4.445   4.364  16.229
    1DOPE  C310  103   4.438   4.463  16.043
    1DOPE  H10X  104   4.530   4.519  16.067
    1DOPE  C311  105   4.380   4.495  15.907
    1DOPE  H11X  106   4.280   4.448  15.893
    1DOPE  H11Y  107   4.365   4.604  15.897
    1DOPE  C312  108   4.469   4.447  15.790
    1DOPE  H12X  109   4.408   4.450  15.698
    1DOPE  H12Y  110   4.500   4.342  15.806
    1DOPE  C313  111   4.593   4.535  15.766
    1DOPE  H13X  112   4.560   4.640  15.752
    1DOPE  H13Y  113   4.660   4.532  15.854
    1DOPE  C314  114   4.670   4.491  15.640
    1DOPE  H14X  115   4.598   4.478  15.557
    1DOPE  H14Y  116   4.717   4.392  15.659
    1DOPE  C315  117   4.778   4.591  15.594
    1DOPE  H15X  118   4.730   4.688  15.569
    1DOPE  H15Y  119   4.822   4.551  15.499
    1DOPE  C316  120   4.893   4.612  15.694
    1DOPE  H16X  121   4.933   4.512  15.721
    1DOPE  H16Y  122   4.854   4.659  15.787
    1DOPE  C317  123   5.009   4.695  15.637
    1DOPE  H17X  124   5.029   4.663  15.533
    1DOPE  H17Y  125   4.978   4.801  15.634
    1DOPE  C318  126   5.139   4.683  15.717
    1DOPE  H18X  127   5.216   4.753  15.677
    1DOPE  H18Y  128   5.122   4.709  15.824
    1DOPE  H18Z  129   5.179   4.580  15.712
    2DOPE     N  130   5.140   4.859  16.911
    2DOPE   HN1  131   5.218   4.815  16.964
    2DOPE   HN2  132   5.161   4.848  16.810
    2DOPE   HN3  133   5.136   4.960  16.937
    2DOPE   C12  134   5.013   4.785  16.943
    2DOPE  H12A  135   4.930   4.833  16.887
    2DOPE  H12B  136   4.995   4.795  17.052
    2DOPE   C11  137   5.027   4.637  16.904
    2DOPE  H11A  138   5.038   4.628  16.794
    2DOPE  H11B  139   4.935   4.583  16.932
    2DOPE     P  140   5.243   4.483  16.912
    2DOPE   O13  141   5.186   4.347  16.913
    2DOPE   O14  142   5.370   4.507  16.986
    2DOPE   O11  143   5.258   4.540  16.764
    2DOPE   O12  144   5.137   4.582  16.975
    2DOPE    C1  145   5.368   4.627  16.735
    2DOPE    HA  146   5.464   4.585  16.771
    2DOPE    HB  147   5.353   4.724  16.787
    2DOPE    C2  148   5.388   4.660  16.583
    2DOPE    HS  149   5.439   4.759  16.576
    2DOPE   O21  150   5.265   4.663  16.509
    2DOPE   C21  151   5.168   4.741  16.549
    2DOPE   O22  152   5.172   4.821  16.642
    2DOPE   C22  153   5.045   4.715  16.461
    2DOPE   H2R  154   4.987   4.635  16.513
    2DOPE   H2S  155   5.078   4.675  16.363
    2DOPE    C3  156   5.482   4.556  16.515
    2DOPE    HX  157   5.569   4.539  16.582
    2DOPE    HY  158   5.524   4.602  16.422
    2DOPE   O31  159   5.417   4.429  16.492
    2DOPE   C31  160   5.370   4.412  16.367
    2DOPE   O32  161   5.394   4.485  16.273
    2DOPE   C32  162   5.281   4.288  16.364
    2DOPE   H2X  163   5.327   4.210  16.428
    2DOPE   H2Y  164   5.183   4.315  16.409
    2DOPE   C23  165   4.954   4.839  16.440
    2DOPE   H3R  166   4.948   4.898  16.535
    2DOPE   H3S  167   4.851   4.804  16.417
    2DOPE   C24  168   5.000   4.931  16.325
    2DOPE   H4R  169   5.110   4.942  16.326
    2DOPE   H4S  170   4.956   5.032  16.341
    2DOPE   C25  171   4.953   4.882  16.187
    2DOPE   H5R  172   4.843   4.872  16.187
    2DOPE   H5S  173   4.996   4.781  16.167
    2DOPE   C26  174   4.994   4.976  16.072
    2DOPE   H6R  175   5.105   4.981  16.070
    2DOPE   H6S  176   4.957   5.079  16.090
    2DOPE   C27  177   4.945   4.926  15.935
    2DOPE   H7R  178   4.954   4.816  15.934
    2DOPE   H7S  179   5.012   4.964  15.855
    2DOPE   C28  180   4.798   4.964  15.902
    2DOPE   H8R  181   4.741   4.973  15.996
    2DOPE   H8S  182   4.754   4.877  15.849
    2DOPE   C29  183   4.784   5.090  15.819
    2DOPE   H9R  184   4.789   5.183  15.876
    2DOPE  C210  185   4.770   5.096  15.685
    2DOPE  H10R  186   4.762   5.194  15.636
    2DOPE  C211  187   4.766   4.978  15.590
    2DOPE  H11R  188   4.731   4.887  15.644
    2DOPE  H11S  189   4.868   4.956  15.553
    2DOPE  C212  190   4.674   4.995  15.467
    2DOPE  H12R  191   4.582   5.050  15.498
    2DOPE  H12S  192   4.643   4.895  15.432
    2DOPE  C213  193   4.741   5.067  15.349
    2DOPE  H13R  194   4.789   5.160  15.386
    2DOPE  H13S  195   4.663   5.097  15.276
    2DOPE  C214  196   4.845   4.981  15.275
    2DOPE  H14R  197   4.794   4.891  15.234
    2DOPE  H14S  198   4.923   4.946  15.346
    2DOPE  C215  199   4.915   5.057  15.161
    2DOPE  H15R  200   4.963   5.147  15.204
    2DOPE  H15S  201   4.839   5.091  15.087
    2DOPE  C216  202   5.022   4.974  15.088
    2DOPE  H16R  203   5.094   4.933  15.162
    2DOPE  H16S  204   5.079   5.042  15.020
    2DOPE  C217  205   4.965   4.859  15.003
    2DOPE  H17R  206   4.891   4.901  14.932
    2DOPE  H17S  207   4.911   4.788  15.069
    2DOPE  C218  208   5.072   4.782  14.925
    2DOPE  H18R  209   5.025   4.704  14.863
    2DOPE  H18S  210   5.144   4.734  14.995
    2DOPE  H18T  211   5.128   4.851  14.858
    2DOPE   C33  212   5.259   4.229  16.222
    2DOPE   H3X  213   5.205   4.133  16.234
    2DOPE   H3Y  214   5.357   4.206  16.174
    2DOPE   C34  215   5.176   4.318  16.127
    2DOPE   H4X  216   5.082   4.347  16.178
    2DOPE   H4Y  217   5.233   4.411  16.104
    2DOPE   C35  218   5.143   4.247  15.995
    2DOPE   H5X  219   5.080   4.159  16.018
    2DOPE   H5Y  220   5.237   4.210  15.947
    2DOPE   C36  221   5.069   4.338  15.897
    2DOPE   H6X  222   5.140   4.414  15.856
    2DOPE   H6Y  223   4.992   4.395  15.953
    2DOPE   C37  224   4.999   4.263  15.782
    2DOPE   H7X  225   4.985   4.157  15.809
    2DOPE   H7Y  226   4.897   4.307  15.772
    2DOPE   C38  227   5.072   4.276  15.647
    2DOPE   H8X  228   5.166   4.218  15.652
    2DOPE   H8Y  229   5.100   4.383  15.632
    2DOPE   C39  230   4.986   4.227  15.533
    2DOPE   H9X  231   4.928   4.137  15.557
    2DOPE  C310  232   4.971   4.281  15.411
    2DOPE  H10X  233   4.904   4.232  15.339
    2DOPE  C311  234   5.037   4.406  15.356
    2DOPE  H11X  235   4.960   4.477  15.320
    2DOPE  H11Y  236   5.093   4.460  15.436
    2DOPE  C312  237   5.137   4.378  15.242
    2DOPE  H12X  238   5.221   4.317  15.280
    2DOPE  H12Y  239   5.179   4.475  15.209
    2DOPE  C313  240   5.077   4.308  15.118
    2DOPE  H13X  241   5.157   4.302  15.040
    2DOPE  H13Y  242   5.050   4.203  15.144
    2DOPE  C314  243   4.955   4.378  15.057
    2DOPE  H14X  244   4.976   4.487  15.045
    2DOPE  H14Y  245   4.870   4.368  15.128
    2DOPE  C315  246   4.913   4.319  14.921
    2DOPE  H15X  247   4.803   4.302  14.923
    2DOPE  H15Y  248   4.961   4.220  14.907
    2DOPE  C316  249   4.944   4.411  14.801
    2DOPE  H16X  250   4.889   4.506  14.815
    2DOPE  H16Y  251   4.904   4.363  14.708
    2DOPE  C317  252   5.093   4.443  14.780
    2DOPE  H17X  253   5.100   4.523  14.703
    2DOPE  H17Y  254   5.135   4.484  14.874
    2DOPE  C318  255   5.178   4.324  14.734
    2DOPE  H18X  256   5.284   4.355  14.722
    2DOPE  H18Y  257   5.173   4.241  14.807
    2DOPE  H18Z  258   5.142   4.287  14.636
    3DOPE     N  259   4.082   5.677  16.769
    3DOPE   HN1  260   4.161   5.670  16.836
    3DOPE   HN2  261   4.083   5.596  16.704
    3DOPE   HN3  262   4.102   5.762  16.713
    3DOPE   C12  263   3.950   5.690  16.841
    3DOPE  H12A  264   3.872   5.720  16.767
    3DOPE  H12B  265   3.960   5.771  16.917
    3DOPE   C11  266   3.911   5.558  16.908
    3DOPE  H11A  267   3.992   5.525  16.977
    3DOPE  H11B  268   3.899   5.479  16.831
    3DOPE     P  269   3.660   5.497  16.961
    3DOPE   O13  270   3.573   5.519  17.079
    3DOPE   O14  271   3.697   5.358  16.929
    3DOPE   O11  272   3.600   5.568  16.834
    3DOPE   O12  273   3.793   5.578  16.986
    3DOPE    C1  274   3.487   5.512  16.766
    3DOPE    HA  275   3.433   5.593  16.712
    3DOPE    HB  276   3.414   5.465  16.836
    3DOPE    C2  277   3.531   5.408  16.659
    3DOPE    HS  278   3.584   5.328  16.714
    3DOPE   O21  279   3.617   5.475  16.565
    3DOPE   C21  280   3.708   5.397  16.509
    3DOPE   O22  281   3.720   5.277  16.529
    3DOPE   C22  282   3.801   5.484  16.425
    3DOPE   H2R  283   3.837   5.566  16.491
    3DOPE   H2S  284   3.741   5.529  16.343
    3DOPE    C3  285   3.410   5.341  16.587
    3DOPE    HX  286   3.348   5.292  16.665
    3DOPE    HY  287   3.446   5.259  16.521
    3DOPE   O31  288   3.327   5.438  16.518
    3DOPE   C31  289   3.356   5.455  16.389
    3DOPE   O32  290   3.437   5.390  16.325
    3DOPE   C32  291   3.271   5.569  16.334
    3DOPE   H2X  292   3.166   5.533  16.330
    3DOPE   H2Y  293   3.277   5.655  16.405
    3DOPE   C23  294   3.921   5.405  16.368
    3DOPE   H3R  295   3.961   5.335  16.445
    3DOPE   H3S  296   4.003   5.475  16.342
    3DOPE   C24  297   3.883   5.327  16.242
    3DOPE   H4R  298   3.782   5.283  16.255
    3DOPE   H4S  299   3.953   5.242  16.228
    3DOPE   C25  300   3.888   5.414  16.116
    3DOPE   H5R  301   3.994   5.429  16.087
    3DOPE   H5S  302   3.844   5.514  16.137
    3DOPE   C26  303   3.812   5.353  15.997
    3DOPE   H6R  304   3.839   5.246  15.985
    3DOPE   H6S  305   3.844   5.407  15.905
    3DOPE   C27  306   3.660   5.368  16.010
    3DOPE   H7R  307   3.637   5.475  16.026
    3DOPE   H7S  308   3.625   5.312  16.100
    3DOPE   C28  309   3.584   5.318  15.885
    3DOPE   H8R  310   3.605   5.210  15.872
    3DOPE   H8S  311   3.626   5.370  15.796
    3DOPE   C29  312   3.436   5.341  15.900
    3DOPE   H9R  313   3.392   5.303  15.994
    3DOPE  C210  314   3.356   5.404  15.812
    3DOPE  H10R  315   3.249   5.415  15.834
    3DOPE  C211  316   3.400   5.463  15.680
    3DOPE  H11R  317   3.460   5.389  15.623
    3DOPE  H11S  318   3.467   5.550  15.699
    3DOPE  C212  319   3.283   5.511  15.591
    3DOPE  H12R  320   3.326   5.554  15.498
    3DOPE  H12S  321   3.229   5.593  15.643
    3DOPE  C213  322   3.181   5.402  15.551
    3DOPE  H13R  323   3.104   5.449  15.487
    3DOPE  H13S  324   3.130   5.363  15.642
    3DOPE  C214  325   3.242   5.284  15.475
    3DOPE  H14R  326   3.315   5.231  15.540
    3DOPE  H14S  327   3.298   5.322  15.386
    3DOPE  C215  328   3.136   5.184  15.427
    3DOPE  H15R  329   3.067   5.235  15.357
    3DOPE  H15S  330   3.076   5.151  15.515
    3DOPE  C216  331   3.196   5.060  15.360
    3DOPE  H16R  332   3.267   5.012  15.431
    3DOPE  H16S  333   3.255   5.091  15.271
    3DOPE  C217  334   3.092   4.955  15.317
    3DOPE  H17R  335   3.034   4.924  15.407
    3DOPE  H17S  336   3.146   4.866  15.280
    3DOPE  C218  337   2.995   5.002  15.208
    3DOPE  H18R  338   3.051   5.034  15.118
    3DOPE  H18S  339   2.935   5.088  15.244
    3DOPE  H18T  340   2.926   4.920  15.180
    3DOPE   C33  341   3.314   5.614  16.192
    3DOPE   H3X  342   3.239   5.686  16.152
    3DOPE   H3Y  343   3.317   5.527  16.124
    3DOPE   C34  344   3.451   5.684  16.192
    3DOPE   H4X  345   3.449   5.774  16.258
    3DOPE   H4Y  346   3.528   5.614  16.232
    3DOPE   C35  347   3.496   5.725  16.051
    3DOPE   H5X  348   3.429   5.805  16.012
    3DOPE   H5Y  349   3.487   5.638  15.983
    3DOPE   C36  350   3.641   5.774  16.048
    3DOPE   H6X  351   3.707   5.697  16.094
    3DOPE   H6Y  352   3.650   5.867  16.108
    3DOPE   C37  353   3.691   5.801  15.905
    3DOPE   H7X  354   3.687   5.707  15.846
    3DOPE   H7Y  355   3.620   5.872  15.857
    3DOPE   C38  356   3.833   5.862  15.900
    3DOPE   H8X  357   3.838   5.947  15.971
    3DOPE   H8Y  358   3.847   5.906  15.799
    3DOPE   C39  359   3.942   5.762  15.928
    3DOPE   H9X  360   3.974   5.756  16.033
    3DOPE  C310  361   4.000   5.681  15.838
    3DOPE  H10X  362   4.078   5.611  15.871
    3DOPE  C311  363   3.967   5.673  15.690
    3DOPE  H11X  364   3.901   5.757  15.659
    3DOPE  H11Y  365   4.060   5.683  15.630
    3DOPE  C312  366   3.896   5.542  15.652
    3DOPE  H12X  367   3.852   5.554  15.551
    3DOPE  H12Y  368   3.812   5.523  15.722
    3DOPE  C313  369   3.991   5.420  15.650
    3DOPE  H13X  370   4.064   5.433  15.568
    3DOPE  H13Y  371   4.048   5.416  15.745
    3DOPE  C314  372   3.918   5.286  15.633
    3DOPE  H14X  373   3.854   5.269  15.722
    3DOPE  H14Y  374   3.994   5.204  15.632
    3DOPE  C315  375   3.829   5.272  15.508
    3DOPE  H15X  376   3.749   5.350  15.508
    3DOPE  H15Y  377   3.778   5.174  15.515
    3DOPE  C316  378   3.905   5.274  15.374
    3DOPE  H16X  379   3.856   5.203  15.305
    3DOPE  H16Y  380   4.009   5.238  15.390
    3DOPE  C317  381   3.908   5.412  15.305
    3DOPE  H17X  382   3.803   5.447  15.293
    3DOPE  H17Y  383   3.960   5.485  15.371
    3DOPE  C318  384   3.977   5.409  15.169
    3DOPE  H18X  385   4.083   5.379  15.180
    3DOPE  H18Y  386   3.927   5.337  15.101
    3DOPE  H18Z  387   3.973   5.510  15.122
    4DOPE     N  388   4.824   2.924  16.882
    4DOPE   HN1  389   4.870   3.017  16.883
    4DOPE   HN2  390   4.831   2.883  16.787
    4DOPE   HN3  391   4.723   2.938  16.902
    4DOPE   C12  392   4.884   2.833  16.987
    4DOPE  H12A  393   4.833   2.735  16.978
    4DOPE  H12B  394   4.861   2.878  17.086
    4DOPE   C11  395   5.036   2.818  16.970
    4DOPE  H11A  396   5.083   2.918  16.957
    4DOPE  H11B  397   5.060   2.758  16.879
    4DOPE     P  398   5.058   2.612  17.131
    4DOPE   O13  399   4.924   2.619  17.193
    4DOPE   O14  400   5.167   2.555  17.213
    4DOPE   O11  401   5.049   2.538  16.992
    4DOPE   O12  402   5.095   2.759  17.086
    4DOPE    C1  403   4.994   2.407  16.983
    4DOPE    HA  404   4.883   2.412  16.987
    4DOPE    HB  405   5.029   2.341  17.065
    4DOPE    C2  406   5.035   2.340  16.849
    4DOPE    HS  407   5.145   2.327  16.854
    4DOPE   O21  408   4.995   2.427  16.741
    4DOPE   C21  409   5.080   2.433  16.640
    4DOPE   O22  410   5.181   2.367  16.627
    4DOPE   C22  411   5.028   2.534  16.536
    4DOPE   H2R  412   4.967   2.610  16.588
    4DOPE   H2S  413   4.964   2.478  16.466
    4DOPE    C3  414   4.971   2.199  16.833
    4DOPE    HX  415   4.860   2.209  16.837
    4DOPE    HY  416   5.000   2.140  16.923
    4DOPE   O31  417   5.019   2.130  16.715
    4DOPE   C31  418   4.941   2.136  16.608
    4DOPE   O32  419   4.824   2.171  16.607
    4DOPE   C32  420   5.021   2.096  16.484
    4DOPE   H2X  421   5.125   2.132  16.497
    4DOPE   H2Y  422   5.021   1.986  16.477
    4DOPE   C23  423   5.144   2.602  16.459
    4DOPE   H3R  424   5.214   2.525  16.420
    4DOPE   H3S  425   5.201   2.668  16.527
    4DOPE   C24  426   5.093   2.684  16.339
    4DOPE   H4R  427   5.016   2.756  16.373
    4DOPE   H4S  428   5.047   2.615  16.265
    4DOPE   C25  429   5.206   2.762  16.270
    4DOPE   H5R  430   5.290   2.693  16.248
    4DOPE   H5S  431   5.244   2.840  16.339
    4DOPE   C26  432   5.160   2.828  16.140
    4DOPE   H6R  433   5.071   2.891  16.159
    4DOPE   H6S  434   5.131   2.749  16.068
    4DOPE   C27  435   5.270   2.915  16.076
    4DOPE   H7R  436   5.364   2.857  16.073
    4DOPE   H7S  437   5.288   3.004  16.139
    4DOPE   C28  438   5.238   2.959  15.931
    4DOPE   H8R  439   5.226   2.867  15.870
    4DOPE   H8S  440   5.326   3.012  15.891
    4DOPE   C29  441   5.117   3.048  15.920
    4DOPE   H9R  442   5.133   3.151  15.955
    4DOPE  C210  443   4.995   3.014  15.875
    4DOPE  H10R  444   4.917   3.091  15.869
    4DOPE  C211  445   4.952   2.878  15.825
    4DOPE  H11R  446   4.854   2.852  15.871
    4DOPE  H11S  447   5.022   2.798  15.856
    4DOPE  C212  448   4.936   2.872  15.672
    4DOPE  H12R  449   4.871   2.955  15.638
    4DOPE  H12S  450   4.885   2.777  15.645
    4DOPE  C213  451   5.070   2.878  15.597
    4DOPE  H13R  452   5.132   2.789  15.623
    4DOPE  H13S  453   5.126   2.968  15.631
    4DOPE  C214  454   5.055   2.888  15.444
    4DOPE  H14R  455   5.152   2.919  15.401
    4DOPE  H14S  456   4.981   2.968  15.422
    4DOPE  C215  457   5.009   2.758  15.376
    4DOPE  H15R  458   4.932   2.783  15.300
    4DOPE  H15S  459   4.962   2.691  15.451
    4DOPE  C216  460   5.122   2.683  15.305
    4DOPE  H16R  461   5.086   2.582  15.277
    4DOPE  H16S  462   5.208   2.670  15.374
    4DOPE  C217  463   5.169   2.751  15.176
    4DOPE  H17R  464   5.212   2.851  15.199
    4DOPE  H17S  465   5.081   2.768  15.110
    4DOPE  C218  466   5.274   2.669  15.099
    4DOPE  H18R  467   5.233   2.569  15.074
    4DOPE  H18S  468   5.365   2.656  15.161
    4DOPE  H18T  469   5.302   2.721  15.005
    4DOPE   C33  470   4.962   2.159  16.355
    4DOPE   H3X  471   4.953   2.268  16.369
    4DOPE   H3Y  472   4.860   2.119  16.336
    4DOPE   C34  473   5.050   2.132  16.232
    4DOPE   H4X  474   5.152   2.173  16.251
    4DOPE   H4Y  475   5.060   2.023  16.218
    4DOPE   C35  476   4.996   2.195  16.102
    4DOPE   H5X  477   4.895   2.154  16.080
    4DOPE   H5Y  478   5.063   2.163  16.019
    4DOPE   C36  479   4.989   2.348  16.104
    4DOPE   H6X  480   5.087   2.390  16.137
    4DOPE   H6Y  481   4.913   2.379  16.179
    4DOPE   C37  482   4.951   2.410  15.968
    4DOPE   H7X  483   4.864   2.355  15.927
    4DOPE   H7Y  484   4.919   2.515  15.985
    4DOPE   C38  485   5.067   2.411  15.867
    4DOPE   H8X  486   5.107   2.307  15.859
    4DOPE   H8Y  487   5.150   2.473  15.909
    4DOPE   C39  488   5.025   2.465  15.732
    4DOPE   H9X  489   4.980   2.566  15.736
    4DOPE  C310  490   5.038   2.405  15.612
    4DOPE  H10X  491   5.003   2.460  15.523
    4DOPE  C311  492   5.098   2.270  15.583
    4DOPE  H11X  493   5.146   2.226  15.673
    4DOPE  H11Y  494   5.020   2.199  15.550
    4DOPE  C312  495   5.207   2.278  15.474
    4DOPE  H12X  496   5.269   2.185  15.478
    4DOPE  H12Y  497   5.276   2.362  15.497
    4DOPE  C313  498   5.154   2.292  15.331
    4DOPE  H13X  499   5.077   2.372  15.327
    4DOPE  H13Y  500   5.238   2.324  15.265
    4DOPE  C314  501   5.096   2.162  15.274
    4DOPE  H14X  502   5.009   2.129  15.335
    4DOPE  H14Y  503   5.174   2.083  15.281
    4DOPE  C315  504   5.053   2.175  15.127
    4DOPE  H15X  505   5.037   2.073  15.085
    4DOPE  H15Y  506   5.136   2.221  15.069
    4DOPE  C316  507   4.925   2.257  15.108
    4DOPE  H16X  508   4.946   2.344  15.042
    4DOPE  H16Y  509   4.891   2.297  15.206
    4DOPE  C317  510   4.811   2.174  15.046
    4DOPE  H17X  511   4.845   2.136  14.947
    4DOPE  H17Y  512   4.794   2.085  15.111
    4DOPE  C318  513   4.680   2.251  15.030
    4DOPE  H18X  514   4.602   2.187  14.984
    4DOPE  H18Y  515   4.643   2.286  15.128
    4DOPE  H18Z  516   4.695   2.340  14.964
    5DOPE     N  517   1.837   4.819  16.959
    5DOPE   HN1  518   1.767   4.774  16.896
    5DOPE   HN2  519   1.785   4.870  17.034
    5DOPE   HN3  520   1.889   4.892  16.907
    5DOPE   C12  521   1.924   4.716  17.024
    5DOPE  H12A  522   1.880   4.693  17.124
    5DOPE  H12B  523   2.024   4.762  17.039
    5DOPE   C11  524   1.932   4.586  16.942
    5DOPE  H11A  525   1.985   4.602  16.846
    5DOPE  H11B  526   1.829   4.553  16.916
    5DOPE     P  527   2.140   4.497  17.073
    5DOPE   O13  528   2.208   4.366  17.074
    5DOPE   O14  529   2.121   4.564  17.203
    5DOPE   O11  530   2.210   4.597  16.971
    5DOPE   O12  531   1.994   4.480  17.013
    5DOPE    C1  532   2.283   4.543  16.859
    5DOPE    HA  533   2.237   4.449  16.821
    5DOPE    HB  534   2.387   4.519  16.890
    5DOPE    C2  535   2.287   4.641  16.738
    5DOPE    HS  536   2.346   4.730  16.770
    5DOPE   O21  537   2.152   4.681  16.710
    5DOPE   C21  538   2.127   4.755  16.605
    5DOPE   O22  539   2.208   4.811  16.534
    5DOPE   C22  540   1.975   4.768  16.591
    5DOPE   H2R  541   1.952   4.876  16.597
    5DOPE   H2S  542   1.926   4.718  16.678
    5DOPE    C3  543   2.359   4.575  16.617
    5DOPE    HX  544   2.456   4.533  16.652
    5DOPE    HY  545   2.383   4.653  16.542
    5DOPE   O31  546   2.277   4.469  16.563
    5DOPE   C31  547   2.303   4.439  16.436
    5DOPE   O32  548   2.391   4.490  16.369
    5DOPE   C32  549   2.204   4.331  16.391
    5DOPE   H2X  550   2.249   4.234  16.419
    5DOPE   H2Y  551   2.109   4.344  16.446
    5DOPE   C23  552   1.917   4.708  16.461
    5DOPE   H3R  553   1.940   4.599  16.457
    5DOPE   H3S  554   1.965   4.755  16.372
    5DOPE   C24  555   1.765   4.728  16.453
    5DOPE   H4R  556   1.743   4.835  16.435
    5DOPE   H4S  557   1.721   4.700  16.551
    5DOPE   C25  558   1.696   4.641  16.346
    5DOPE   H5R  559   1.586   4.657  16.352
    5DOPE   H5S  560   1.715   4.534  16.370
    5DOPE   C26  561   1.741   4.667  16.202
    5DOPE   H6R  562   1.694   4.590  16.137
    5DOPE   H6S  563   1.851   4.653  16.194
    5DOPE   C27  564   1.704   4.805  16.147
    5DOPE   H7R  565   1.750   4.882  16.213
    5DOPE   H7S  566   1.594   4.819  16.150
    5DOPE   C28  567   1.756   4.830  16.004
    5DOPE   H8R  568   1.865   4.807  16.001
    5DOPE   H8S  569   1.747   4.938  15.981
    5DOPE   C29  570   1.680   4.752  15.899
    5DOPE   H9R  571   1.589   4.801  15.862
    5DOPE  C210  572   1.712   4.631  15.849
    5DOPE  H10R  573   1.645   4.586  15.774
    5DOPE  C211  574   1.831   4.545  15.886
    5DOPE  H11R  575   1.797   4.456  15.942
    5DOPE  H11S  576   1.902   4.599  15.953
    5DOPE  C212  577   1.912   4.495  15.765
    5DOPE  H12R  578   1.991   4.426  15.802
    5DOPE  H12S  579   1.964   4.580  15.716
    5DOPE  C213  580   1.830   4.420  15.659
    5DOPE  H13R  581   1.763   4.493  15.609
    5DOPE  H13S  582   1.766   4.343  15.709
    5DOPE  C214  583   1.918   4.350  15.554
    5DOPE  H14R  584   1.972   4.267  15.603
    5DOPE  H14S  585   1.995   4.422  15.518
    5DOPE  C215  586   1.839   4.296  15.434
    5DOPE  H15R  587   1.769   4.217  15.469
    5DOPE  H15S  588   1.911   4.247  15.364
    5DOPE  C216  589   1.759   4.401  15.355
    5DOPE  H16R  590   1.676   4.437  15.420
    5DOPE  H16S  591   1.712   4.353  15.267
    5DOPE  C217  592   1.841   4.522  15.308
    5DOPE  H17R  593   1.896   4.567  15.393
    5DOPE  H17S  594   1.770   4.601  15.273
    5DOPE  C218  595   1.938   4.492  15.194
    5DOPE  H18R  596   1.995   4.583  15.166
    5DOPE  H18S  597   1.883   4.455  15.104
    5DOPE  H18T  598   2.010   4.413  15.225
    5DOPE   C33  599   2.177   4.331  16.238
    5DOPE   H3X  600   2.126   4.235  16.216
    5DOPE   H3Y  601   2.273   4.328  16.182
    5DOPE   C34  602   2.084   4.443  16.189
    5DOPE   H4X  603   2.036   4.408  16.096
    5DOPE   H4Y  604   2.003   4.460  16.263
    5DOPE   C35  605   2.153   4.578  16.156
    5DOPE   H5X  606   2.188   4.625  16.251
    5DOPE   H5Y  607   2.078   4.645  16.111
    5DOPE   C36  608   2.273   4.569  16.060
    5DOPE   H6X  609   2.358   4.520  16.114
    5DOPE   H6Y  610   2.307   4.671  16.034
    5DOPE   C37  611   2.246   4.489  15.931
    5DOPE   H7X  612   2.208   4.389  15.960
    5DOPE   H7Y  613   2.166   4.539  15.872
    5DOPE   C38  614   2.372   4.466  15.846
    5DOPE   H8X  615   2.357   4.370  15.792
    5DOPE   H8Y  616   2.458   4.451  15.915
    5DOPE   C39  617   2.400   4.578  15.749
    5DOPE   H9X  618   2.384   4.679  15.787
    5DOPE  C310  619   2.443   4.561  15.622
    5DOPE  H10X  620   2.458   4.650  15.559
    5DOPE  C311  621   2.471   4.429  15.554
    5DOPE  H11X  622   2.555   4.440  15.482
    5DOPE  H11Y  623   2.505   4.354  15.629
    5DOPE  C312  624   2.349   4.369  15.481
    5DOPE  H12X  625   2.267   4.352  15.555
    5DOPE  H12Y  626   2.378   4.270  15.441
    5DOPE  C313  627   2.294   4.454  15.365
    5DOPE  H13X  628   2.206   4.401  15.322
    5DOPE  H13Y  629   2.257   4.551  15.404
    5DOPE  C314  630   2.396   4.480  15.253
    5DOPE  H14X  631   2.434   4.383  15.214
    5DOPE  H14Y  632   2.482   4.535  15.295
    5DOPE  C315  633   2.338   4.562  15.137
    5DOPE  H15X  634   2.289   4.653  15.179
    5DOPE  H15Y  635   2.260   4.503  15.085
    5DOPE  C316  636   2.447   4.605  15.037
    5DOPE  H16X  637   2.483   4.517  14.981
    5DOPE  H16Y  638   2.533   4.646  15.095
    5DOPE  C317  639   2.401   4.713  14.938
    5DOPE  H17X  640   2.365   4.802  14.995
    5DOPE  H17Y  641   2.489   4.747  14.879
    5DOPE  C318  642   2.291   4.668  14.842
    5DOPE  H18X  643   2.198   4.643  14.897
    5DOPE  H18Y  644   2.267   4.748  14.768
    5DOPE  H18Z  645   2.323   4.578  14.786
    6DOPE     N  646   2.012   5.819  17.013
    6DOPE   HN1  647   1.948   5.739  17.033
    6DOPE   HN2  648   2.014   5.884  17.095
    6DOPE   HN3  649   1.977   5.875  16.933
    6DOPE   C12  650   2.151   5.765  16.990
    6DOPE  H12A  651   2.192   5.735  17.089
    6DOPE  H12B  652   2.213   5.847  16.948
    6DOPE   C11  653   2.150   5.642  16.897
    6DOPE  H11A  654   2.257   5.616  16.877
    6DOPE  H11B  655   2.103   5.667  16.800
    6DOPE     P  656   2.118   5.384  16.918
    6DOPE   O13  657   2.250   5.352  16.978
    6DOPE   O14  658   2.105   5.370  16.772
    6DOPE   O11  659   2.008   5.293  16.989
    6DOPE   O12  660   2.080   5.534  16.959
    6DOPE    C1  661   1.876   5.344  17.013
    6DOPE    HA  662   1.870   5.455  17.006
    6DOPE    HB  663   1.845   5.320  17.116
    6DOPE    C2  664   1.767   5.288  16.916
    6DOPE    HS  665   1.728   5.193  16.960
    6DOPE   O21  666   1.816   5.267  16.782
    6DOPE   C21  667   1.852   5.147  16.746
    6DOPE   O22  668   1.858   5.047  16.817
    6DOPE   C22  669   1.860   5.141  16.592
    6DOPE   H2R  670   1.793   5.219  16.549
    6DOPE   H2S  671   1.819   5.041  16.564
    6DOPE    C3  672   1.649   5.389  16.908
    6DOPE    HX  673   1.614   5.409  17.011
    6DOPE    HY  674   1.564   5.344  16.853
    6DOPE   O31  675   1.694   5.513  16.849
    6DOPE   C31  676   1.690   5.514  16.716
    6DOPE   O32  677   1.625   5.438  16.646
    6DOPE   C32  678   1.782   5.626  16.667
    6DOPE   H2X  679   1.747   5.720  16.715
    6DOPE   H2Y  680   1.885   5.604  16.703
    6DOPE   C23  681   2.002   5.156  16.534
    6DOPE   H3R  682   2.079   5.120  16.606
    6DOPE   H3S  683   2.022   5.264  16.520
    6DOPE   C24  684   2.026   5.080  16.401
    6DOPE   H4R  685   2.046   4.973  16.424
    6DOPE   H4S  686   2.120   5.119  16.355
    6DOPE   C25  687   1.914   5.085  16.296
    6DOPE   H5R  688   1.819   5.048  16.341
    6DOPE   H5S  689   1.940   5.016  16.213
    6DOPE   C26  690   1.891   5.224  16.237
    6DOPE   H6R  691   1.984   5.257  16.185
    6DOPE   H6S  692   1.872   5.294  16.321
    6DOPE   C27  693   1.774   5.235  16.139
    6DOPE   H7R  694   1.683   5.191  16.187
    6DOPE   H7S  695   1.797   5.175  16.048
    6DOPE   C28  696   1.749   5.382  16.102
    6DOPE   H8R  697   1.846   5.425  16.069
    6DOPE   H8S  698   1.720   5.437  16.194
    6DOPE   C29  699   1.641   5.400  15.998
    6DOPE   H9R  700   1.539   5.379  16.033
    6DOPE  C210  701   1.658   5.440  15.870
    6DOPE  H10R  702   1.569   5.448  15.806
    6DOPE  C211  703   1.788   5.475  15.801
    6DOPE  H11R  704   1.876   5.443  15.861
    6DOPE  H11S  705   1.796   5.585  15.788
    6DOPE  C212  706   1.800   5.409  15.663
    6DOPE  H12R  707   1.782   5.299  15.671
    6DOPE  H12S  708   1.904   5.422  15.626
    6DOPE  C213  709   1.705   5.469  15.558
    6DOPE  H13R  710   1.731   5.576  15.544
    6DOPE  H13S  711   1.601   5.464  15.596
    6DOPE  C214  712   1.710   5.398  15.423
    6DOPE  H14R  713   1.688   5.290  15.438
    6DOPE  H14S  714   1.811   5.407  15.379
    6DOPE  C215  715   1.607   5.457  15.326
    6DOPE  H15R  716   1.629   5.565  15.310
    6DOPE  H15S  717   1.506   5.451  15.372
    6DOPE  C216  718   1.603   5.387  15.189
    6DOPE  H16R  719   1.702   5.394  15.140
    6DOPE  H16S  720   1.530   5.442  15.124
    6DOPE  C217  721   1.559   5.240  15.196
    6DOPE  H17R  722   1.469   5.232  15.261
    6DOPE  H17S  723   1.639   5.180  15.243
    6DOPE  C218  724   1.526   5.182  15.059
    6DOPE  H18R  725   1.488   5.078  15.067
    6DOPE  H18S  726   1.616   5.182  14.994
    6DOPE  H18T  727   1.447   5.243  15.008
    6DOPE   C33  728   1.780   5.643  16.514
    6DOPE   H3X  729   1.816   5.746  16.490
    6DOPE   H3Y  730   1.676   5.636  16.476
    6DOPE   C34  731   1.866   5.542  16.438
    6DOPE   H4X  732   1.829   5.439  16.460
    6DOPE   H4Y  733   1.851   5.560  16.329
    6DOPE   C35  734   2.017   5.547  16.465
    6DOPE   H5X  735   2.041   5.492  16.559
    6DOPE   H5Y  736   2.050   5.652  16.479
    6DOPE   C36  737   2.099   5.489  16.348
    6DOPE   H6X  738   2.069   5.539  16.254
    6DOPE   H6Y  739   2.074   5.381  16.338
    6DOPE   C37  740   2.251   5.501  16.364
    6DOPE   H7X  741   2.277   5.608  16.378
    6DOPE   H7Y  742   2.282   5.447  16.457
    6DOPE   C38  743   2.329   5.446  16.243
    6DOPE   H8X  744   2.437   5.462  16.261
    6DOPE   H8Y  745   2.302   5.508  16.154
    6DOPE   C39  746   2.302   5.299  16.219
    6DOPE   H9X  747   2.319   5.235  16.306
    6DOPE  C310  748   2.260   5.243  16.104
    6DOPE  H10X  749   2.245   5.134  16.101
    6DOPE  C311  750   2.230   5.316  15.976
    6DOPE  H11X  751   2.153   5.393  15.992
    6DOPE  H11Y  752   2.322   5.368  15.941
    6DOPE  C312  753   2.184   5.223  15.862
    6DOPE  H12X  754   2.258   5.141  15.846
    6DOPE  H12Y  755   2.180   5.283  15.768
    6DOPE  C313  756   2.044   5.163  15.884
    6DOPE  H13X  757   2.045   5.093  15.971
    6DOPE  H13Y  758   1.975   5.246  15.909
    6DOPE  C314  759   1.988   5.091  15.760
    6DOPE  H14X  760   1.999   5.158  15.672
    6DOPE  H14Y  761   1.879   5.073  15.774
    6DOPE  C315  762   2.055   4.955  15.732
    6DOPE  H15X  763   2.034   4.888  15.818
    6DOPE  H15Y  764   2.165   4.968  15.724
    6DOPE  C316  765   2.004   4.888  15.603
    6DOPE  H16X  766   1.893   4.887  15.603
    6DOPE  H16Y  767   2.038   4.782  15.603
    6DOPE  C317  768   2.056   4.954  15.474
    6DOPE  H17X  769   2.022   5.060  15.472
    6DOPE  H17Y  770   2.167   4.954  15.477
    6DOPE  C318  771   2.009   4.884  15.347
    6DOPE  H18X  772   1.898   4.886  15.340
    6DOPE  H18Y  773   2.050   4.934  15.257
    6DOPE  H18Z  774   2.041   4.778  15.346
    7DOPE     N  775   5.404   6.367  17.238
    7DOPE   HN1  776   5.492   6.323  17.205
    7DOPE   HN2  777   5.420   6.468  17.260
    7DOPE   HN3  778   5.374   6.317  17.323
    7DOPE   C12  779   5.297   6.349  17.135
    7DOPE  H12A  780   5.200   6.376  17.182
    7DOPE  H12B  781   5.295   6.242  17.107
    7DOPE   C11  782   5.321   6.434  17.010
    7DOPE  H11A  783   5.425   6.419  16.973
    7DOPE  H11B  784   5.309   6.543  17.032
    7DOPE     P  785   5.080   6.430  16.907
    7DOPE   O13  786   5.065   6.576  16.928
    7DOPE   O14  787   5.012   6.345  17.008
    7DOPE   O11  788   5.032   6.389  16.763
    7DOPE   O12  789   5.233   6.392  16.906
    7DOPE    C1  790   5.048   6.253  16.719
    7DOPE    HA  791   4.952   6.200  16.736
    7DOPE    HB  792   5.127   6.198  16.774
    7DOPE    C2  793   5.082   6.241  16.568
    7DOPE    HS  794   5.058   6.135  16.542
    7DOPE   O21  795   5.223   6.267  16.549
    7DOPE   C21  796   5.276   6.205  16.444
    7DOPE   O22  797   5.220   6.121  16.377
    7DOPE   C22  798   5.419   6.257  16.424
    7DOPE   H2R  799   5.474   6.236  16.519
    7DOPE   H2S  800   5.414   6.367  16.410
    7DOPE    C3  801   4.995   6.332  16.476
    7DOPE    HX  802   4.892   6.330  16.516
    7DOPE    HY  803   4.991   6.285  16.375
    7DOPE   O31  804   5.040   6.470  16.471
    7DOPE   C31  805   5.120   6.501  16.369
    7DOPE   O32  806   5.146   6.427  16.276
    7DOPE   C32  807   5.181   6.640  16.390
    7DOPE   H2X  808   5.153   6.678  16.490
    7DOPE   H2Y  809   5.291   6.626  16.388
    7DOPE   C23  810   5.494   6.191  16.306
    7DOPE   H3R  811   5.488   6.081  16.313
    7DOPE   H3S  812   5.602   6.218  16.314
    7DOPE   C24  813   5.444   6.237  16.169
    7DOPE   H4R  814   5.451   6.347  16.160
    7DOPE   H4S  815   5.336   6.209  16.159
    7DOPE   C25  816   5.522   6.171  16.054
    7DOPE   H5R  817   5.522   6.061  16.070
    7DOPE   H5S  818   5.627   6.205  16.056
    7DOPE   C26  819   5.460   6.199  15.916
    7DOPE   H6R  820   5.471   6.306  15.890
    7DOPE   H6S  821   5.351   6.178  15.923
    7DOPE   C27  822   5.518   6.111  15.804
    7DOPE   H7R  823   5.459   6.125  15.711
    7DOPE   H7S  824   5.506   6.004  15.834
    7DOPE   C28  825   5.667   6.135  15.773
    7DOPE   H8R  826   5.702   6.050  15.711
    7DOPE   H8S  827   5.725   6.131  15.867
    7DOPE   C29  828   5.689   6.266  15.702
    7DOPE   H9R  829   5.681   6.355  15.766
    7DOPE  C210  830   5.717   6.282  15.571
    7DOPE  H10R  831   5.730   6.384  15.532
    7DOPE  C211  832   5.731   6.172  15.469
    7DOPE  H11R  833   5.789   6.087  15.510
    7DOPE  H11S  834   5.790   6.210  15.383
    7DOPE  C212  835   5.597   6.117  15.414
    7DOPE  H12R  836   5.544   6.060  15.494
    7DOPE  H12S  837   5.621   6.044  15.334
    7DOPE  C213  838   5.503   6.224  15.358
    7DOPE  H13R  839   5.563   6.305  15.312
    7DOPE  H13S  840   5.448   6.270  15.444
    7DOPE  C214  841   5.401   6.174  15.254
    7DOPE  H14R  842   5.315   6.244  15.256
    7DOPE  H14S  843   5.363   6.073  15.281
    7DOPE  C215  844   5.457   6.174  15.111
    7DOPE  H15R  845   5.521   6.085  15.093
    7DOPE  H15S  846   5.522   6.264  15.100
    7DOPE  C216  847   5.350   6.183  15.001
    7DOPE  H16R  848   5.273   6.256  15.035
    7DOPE  H16S  849   5.300   6.085  14.987
    7DOPE  C217  850   5.405   6.234  14.866
    7DOPE  H17R  851   5.466   6.325  14.884
    7DOPE  H17S  852   5.319   6.264  14.803
    7DOPE  C218  853   5.490   6.132  14.790
    7DOPE  H18R  854   5.532   6.178  14.698
    7DOPE  H18S  855   5.428   6.045  14.760
    7DOPE  H18T  856   5.574   6.096  14.852
    7DOPE   C33  857   5.143   6.744  16.281
    7DOPE   H3X  858   5.203   6.836  16.298
    7DOPE   H3Y  859   5.036   6.772  16.291
    7DOPE   C34  860   5.168   6.696  16.137
    7DOPE   H4X  861   5.263   6.639  16.132
    7DOPE   H4Y  862   5.086   6.626  16.109
    7DOPE   C35  863   5.173   6.810  16.034
    7DOPE   H5X  864   5.275   6.855  16.036
    7DOPE   H5Y  865   5.100   6.889  16.060
    7DOPE   C36  866   5.141   6.760  15.892
    7DOPE   H6X  867   5.032   6.741  15.887
    7DOPE   H6Y  868   5.194   6.664  15.873
    7DOPE   C37  869   5.181   6.860  15.781
    7DOPE   H7X  870   5.182   6.962  15.825
    7DOPE   H7Y  871   5.284   6.838  15.746
    7DOPE   C38  872   5.084   6.861  15.660
    7DOPE   H8X  873   5.121   6.937  15.588
    7DOPE   H8Y  874   4.985   6.896  15.696
    7DOPE   C39  875   5.068   6.725  15.596
    7DOPE   H9X  876   5.060   6.642  15.667
    7DOPE  C310  877   5.062   6.697  15.465
    7DOPE  H10X  878   5.049   6.592  15.435
    7DOPE  C311  879   5.068   6.792  15.348
    7DOPE  H11X  880   5.100   6.894  15.379
    7DOPE  H11Y  881   5.145   6.758  15.275
    7DOPE  C312  882   4.932   6.806  15.275
    7DOPE  H12X  883   4.946   6.870  15.186
    7DOPE  H12Y  884   4.862   6.858  15.344
    7DOPE  C313  885   4.865   6.674  15.232
    7DOPE  H13X  886   4.845   6.613  15.323
    7DOPE  H13Y  887   4.766   6.696  15.187
    7DOPE  C314  888   4.947   6.591  15.133
    7DOPE  H14X  889   5.053   6.592  15.164
    7DOPE  H14Y  890   4.942   6.637  15.031
    7DOPE  C315  891   4.901   6.444  15.127
    7DOPE  H15X  892   4.797   6.438  15.089
    7DOPE  H15Y  893   4.901   6.403  15.230
    7DOPE  C316  894   4.994   6.358  15.041
    7DOPE  H16X  895   5.097   6.371  15.080
    7DOPE  H16Y  896   4.993   6.394  14.936
    7DOPE  C317  897   4.959   6.209  15.045
    7DOPE  H17X  898   5.051   6.149  15.028
    7DOPE  H17Y  899   4.922   6.185  15.148
    7DOPE  C318  900   4.854   6.165  14.942
    7DOPE  H18X  901   4.895   6.174  14.839
    7DOPE  H18Y  902   4.824   6.060  14.959
    7DOPE  H18Z  903   4.764   6.230  14.948
    8DOPE     N  904   5.992   6.160  17.113
    8DOPE   HN1  905   5.925   6.157  17.192
    8DOPE   HN2  906   5.986   6.065  17.069
    8DOPE   HN3  907   6.088   6.176  17.149
    8DOPE   C12  908   5.954   6.259  17.006
    8DOPE  H12A  909   6.046   6.290  16.953
    8DOPE  H12B  910   5.908   6.348  17.056
    8DOPE   C11  911   5.856   6.197  16.904
    8DOPE  H11A  912   5.833   6.275  16.828
    8DOPE  H11B  913   5.760   6.171  16.952
    8DOPE     P  914   5.882   5.937  16.873
    8DOPE   O13  915   5.744   5.907  16.830
    8DOPE   O14  916   5.911   5.924  17.018
    8DOPE   O11  917   5.992   5.857  16.793
    8DOPE   O12  918   5.917   6.087  16.838
    8DOPE    C1  919   6.128   5.870  16.838
    8DOPE    HA  920   6.140   5.822  16.937
    8DOPE    HB  921   6.157   5.977  16.848
    8DOPE    C2  922   6.232   5.802  16.744
    8DOPE    HS  923   6.331   5.808  16.795
    8DOPE   O21  924   6.238   5.869  16.617
    8DOPE   C21  925   6.303   5.983  16.614
    8DOPE   O22  926   6.355   6.040  16.709
    8DOPE   C22  927   6.306   6.037  16.471
    8DOPE   H2R  928   6.383   6.117  16.467
    8DOPE   H2S  929   6.207   6.082  16.449
    8DOPE    C3  930   6.204   5.650  16.723
    8DOPE    HX  931   6.188   5.605  16.824
    8DOPE    HY  932   6.295   5.602  16.682
    8DOPE   O31  933   6.086   5.623  16.643
    8DOPE   C31  934   6.109   5.611  16.513
    8DOPE   O32  935   6.219   5.603  16.460
    8DOPE   C32  936   5.977   5.601  16.436
    8DOPE   H2X  937   5.972   5.498  16.395
    8DOPE   H2Y  938   5.891   5.615  16.506
    8DOPE   C23  939   6.340   5.928  16.367
    8DOPE   H3R  940   6.263   5.848  16.372
    8DOPE   H3S  941   6.438   5.881  16.389
    8DOPE   C24  942   6.342   5.982  16.223
    8DOPE   H4R  943   6.434   6.042  16.205
    8DOPE   H4S  944   6.255   6.050  16.210
    8DOPE   C25  945   6.329   5.870  16.119
    8DOPE   H5R  946   6.301   5.913  16.020
    8DOPE   H5S  947   6.245   5.803  16.150
    8DOPE   C26  948   6.456   5.786  16.103
    8DOPE   H6R  949   6.506   5.777  16.201
    8DOPE   H6S  950   6.526   5.839  16.035
    8DOPE   C27  951   6.428   5.644  16.051
    8DOPE   H7R  952   6.359   5.595  16.122
    8DOPE   H7S  953   6.524   5.587  16.052
    8DOPE   C28  954   6.369   5.641  15.909
    8DOPE   H8R  955   6.446   5.675  15.837
    8DOPE   H8S  956   6.285   5.714  15.903
    8DOPE   C29  957   6.321   5.503  15.872
    8DOPE   H9R  958   6.399   5.433  15.839
    8DOPE  C210  959   6.194   5.458  15.879
    8DOPE  H10R  960   6.172   5.355  15.848
    8DOPE  C211  961   6.074   5.537  15.925
    8DOPE  H11R  962   6.104   5.624  15.988
    8DOPE  H11S  963   6.010   5.473  15.989
    8DOPE  C212  964   5.989   5.590  15.807
    8DOPE  H12R  965   6.048   5.665  15.749
    8DOPE  H12S  966   5.901   5.643  15.850
    8DOPE  C213  967   5.940   5.479  15.713
    8DOPE  H13R  968   5.905   5.394  15.776
    8DOPE  H13S  969   6.024   5.443  15.651
    8DOPE  C214  970   5.823   5.521  15.622
    8DOPE  H14R  971   5.739   5.556  15.685
    8DOPE  H14S  972   5.790   5.431  15.567
    8DOPE  C215  973   5.859   5.630  15.520
    8DOPE  H15R  974   5.941   5.593  15.455
    8DOPE  H15S  975   5.898   5.719  15.574
    8DOPE  C216  976   5.741   5.675  15.432
    8DOPE  H16R  977   5.779   5.753  15.363
    8DOPE  H16S  978   5.663   5.724  15.495
    8DOPE  C217  979   5.676   5.563  15.349
    8DOPE  H17R  980   5.752   5.485  15.329
    8DOPE  H17S  981   5.646   5.605  15.251
    8DOPE  C218  982   5.552   5.500  15.413
    8DOPE  H18R  983   5.471   5.575  15.423
    8DOPE  H18S  984   5.575   5.461  15.515
    8DOPE  H18T  985   5.515   5.415  15.352
    8DOPE   C33  986   5.969   5.704  16.320
    8DOPE   H3X  987   5.904   5.664  16.240
    8DOPE   H3Y  988   6.070   5.717  16.275
    8DOPE   C34  989   5.913   5.839  16.365
    8DOPE   H4X  990   5.802   5.833  16.369
    8DOPE   H4Y  991   5.948   5.861  16.468
    8DOPE   C35  992   5.955   5.957  16.275
    8DOPE   H5X  993   6.062   5.979  16.295
    8DOPE   H5Y  994   5.896   6.047  16.304
    8DOPE   C36  995   5.939   5.934  16.124
    8DOPE   H6X  996   5.835   5.906  16.100
    8DOPE   H6Y  997   6.005   5.849  16.093
    8DOPE   C37  998   5.980   6.058  16.042
    8DOPE   H7X  999   5.905   6.137  16.059
    8DOPE   H7Y 1000   6.078   6.095  16.080
    8DOPE   C38 1001   5.994   6.028  15.891
    8DOPE   H8X 1002   5.898   5.984  15.855
    8DOPE   H8Y 1003   6.072   5.950  15.879
    8DOPE   C39 1004   6.026   6.154  15.814
    8DOPE   H9X 1005   5.963   6.241  15.839
    8DOPE  C310 1006   6.120   6.168  15.719
    8DOPE  H10X 1007   6.134   6.266  15.671
    8DOPE  C311 1008   6.212   6.060  15.670
    8DOPE  H11X 1009   6.165   5.960  15.682
    8DOPE  H11Y 1010   6.231   6.072  15.561
    8DOPE  C312 1011   6.348   6.057  15.744
    8DOPE  H12X 1012   6.329   6.053  15.853
    8DOPE  H12Y 1013   6.406   6.149  15.723
    8DOPE  C313 1014   6.430   5.933  15.705
    8DOPE  H13X 1015   6.508   5.914  15.782
    8DOPE  H13Y 1016   6.362   5.845  15.706
    8DOPE  C314 1017   6.498   5.944  15.568
    8DOPE  H14X 1018   6.596   5.994  15.582
    8DOPE  H14Y 1019   6.438   6.010  15.501
    8DOPE  C315 1020   6.520   5.809  15.497
    8DOPE  H15X 1021   6.573   5.740  15.567
    8DOPE  H15Y 1022   6.588   5.825  15.411
    8DOPE  C316 1023   6.391   5.741  15.447
    8DOPE  H16X 1024   6.328   5.714  15.535
    8DOPE  H16Y 1025   6.420   5.646  15.398
    8DOPE  C317 1026   6.308   5.824  15.349
    8DOPE  H17X 1027   6.218   5.765  15.321
    8DOPE  H17Y 1028   6.271   5.915  15.400
    8DOPE  C318 1029   6.382   5.864  15.221
    8DOPE  H18X 1030   6.420   5.774  15.168
    8DOPE  H18Y 1031   6.468   5.930  15.244
    8DOPE  H18Z 1032   6.314   5.919  15.152
    9DOPE     N 1033   1.389   5.089  16.687
    9DOPE   HN1 1034   1.452   5.078  16.605
    9DOPE   HN2 1035   1.292   5.110  16.658
    9DOPE   HN3 1036   1.422   5.168  16.746
    9DOPE   C12 1037   1.388   4.972  16.782
    9DOPE  H12A 1038   1.425   4.881  16.729
    9DOPE  H12B 1039   1.282   4.955  16.811
    9DOPE   C11 1040   1.471   5.005  16.907
    9DOPE  H11A 1041   1.577   4.981  16.886
    9DOPE  H11B 1042   1.440   4.940  16.992
    9DOPE     P 1043   1.345   5.207  17.023
    9DOPE   O13 1044   1.355   5.354  17.011
    9DOPE   O14 1045   1.340   5.147  17.158
    9DOPE   O11 1046   1.224   5.157  16.936
    9DOPE   O12 1047   1.465   5.143  16.941
    9DOPE    C1 1048   1.098   5.130  16.999
    9DOPE    HA 1049   1.060   5.219  17.053
    9DOPE    HB 1050   1.109   5.047  17.072
    9DOPE    C2 1051   0.989   5.086  16.897
    9DOPE    HS 1052   0.905   5.045  16.957
    9DOPE   O21 1053   1.044   4.984  16.810
    9DOPE   C21 1054   0.950   4.918  16.743
    9DOPE   O22 1055   0.830   4.928  16.763
    9DOPE   C22 1056   1.012   4.827  16.637
    9DOPE   H2R 1057   0.937   4.749  16.614
    9DOPE   H2S 1058   1.103   4.778  16.679
    9DOPE    C3 1059   0.932   5.209  16.816
    9DOPE    HX 1060   0.854   5.254  16.881
    9DOPE    HY 1061   0.878   5.173  16.725
    9DOPE   O31 1062   1.024   5.314  16.781
    9DOPE   C31 1063   1.115   5.288  16.690
    9DOPE   O32 1064   1.140   5.179  16.641
    9DOPE   C32 1065   1.189   5.416  16.650
    9DOPE   H2X 1066   1.114   5.496  16.635
    9DOPE   H2Y 1067   1.256   5.444  16.734
    9DOPE   C23 1068   1.046   4.905  16.508
    9DOPE   H3R 1069   1.132   4.973  16.525
    9DOPE   H3S 1070   0.959   4.969  16.480
    9DOPE   C24 1071   1.078   4.817  16.387
    9DOPE   H4R 1072   1.087   4.883  16.298
    9DOPE   H4S 1073   0.994   4.746  16.368
    9DOPE   C25 1074   1.208   4.737  16.402
    9DOPE   H5R 1075   1.197   4.668  16.488
    9DOPE   H5S 1076   1.292   4.807  16.425
    9DOPE   C26 1077   1.246   4.654  16.278
    9DOPE   H6R 1078   1.160   4.590  16.248
    9DOPE   H6S 1079   1.327   4.586  16.310
    9DOPE   C27 1080   1.300   4.735  16.158
    9DOPE   H7R 1081   1.379   4.674  16.109
    9DOPE   H7S 1082   1.349   4.827  16.196
    9DOPE   C28 1083   1.197   4.772  16.049
    9DOPE   H8R 1084   1.249   4.834  15.973
    9DOPE   H8S 1085   1.118   4.837  16.093
    9DOPE   C29 1086   1.133   4.652  15.984
    9DOPE   H9R 1087   1.038   4.619  16.030
    9DOPE  C210 1088   1.180   4.583  15.878
    9DOPE  H10R 1089   1.122   4.498  15.840
    9DOPE  C211 1090   1.308   4.611  15.803
    9DOPE  H11R 1091   1.366   4.516  15.792
    9DOPE  H11S 1092   1.374   4.682  15.858
    9DOPE  C212 1093   1.283   4.668  15.662
    9DOPE  H12R 1094   1.239   4.769  15.670
    9DOPE  H12S 1095   1.211   4.603  15.607
    9DOPE  C213 1096   1.413   4.676  15.579
    9DOPE  H13R 1097   1.451   4.573  15.562
    9DOPE  H13S 1098   1.490   4.732  15.636
    9DOPE  C214 1099   1.392   4.745  15.443
    9DOPE  H14R 1100   1.366   4.851  15.461
    9DOPE  H14S 1101   1.307   4.698  15.389
    9DOPE  C215 1102   1.518   4.737  15.354
    9DOPE  H15R 1103   1.532   4.632  15.322
    9DOPE  H15S 1104   1.607   4.766  15.414
    9DOPE  C216 1105   1.509   4.829  15.232
    9DOPE  H16R 1106   1.500   4.934  15.268
    9DOPE  H16S 1107   1.418   4.806  15.173
    9DOPE  C217 1108   1.633   4.820  15.140
    9DOPE  H17R 1109   1.724   4.821  15.203
    9DOPE  H17S 1110   1.637   4.911  15.077
    9DOPE  C218 1111   1.634   4.698  15.048
    9DOPE  H18R 1112   1.624   4.604  15.106
    9DOPE  H18S 1113   1.728   4.694  14.990
    9DOPE  H18T 1114   1.549   4.703  14.976
    9DOPE   C33 1115   1.272   5.394  16.521
    9DOPE   H3X 1116   1.344   5.311  16.533
    9DOPE   H3Y 1117   1.333   5.485  16.502
    9DOPE   C34 1118   1.184   5.369  16.397
    9DOPE   H4X 1119   1.114   5.284  16.414
    9DOPE   H4Y 1120   1.121   5.459  16.380
    9DOPE   C35 1121   1.264   5.338  16.269
    9DOPE   H5X 1122   1.360   5.393  16.270
    9DOPE   H5Y 1123   1.205   5.376  16.182
    9DOPE   C36 1124   1.287   5.188  16.249
    9DOPE   H6X 1125   1.188   5.138  16.240
    9DOPE   H6Y 1126   1.337   5.147  16.339
    9DOPE   C37 1127   1.372   5.152  16.126
    9DOPE   H7X 1128   1.474   5.195  16.142
    9DOPE   H7Y 1129   1.384   5.042  16.119
    9DOPE   C38 1130   1.320   5.206  15.991
    9DOPE   H8X 1131   1.398   5.183  15.914
    9DOPE   H8Y 1132   1.313   5.317  15.996
    9DOPE   C39 1133   1.188   5.147  15.949
    9DOPE   H9X 1134   1.136   5.088  16.026
    9DOPE  C310 1135   1.132   5.160  15.827
    9DOPE  H10X 1136   1.035   5.112  15.808
    9DOPE  C311 1137   1.189   5.236  15.710
    9DOPE  H11X 1138   1.128   5.327  15.691
    9DOPE  H11Y 1139   1.294   5.270  15.728
    9DOPE  C312 1140   1.188   5.149  15.582
    9DOPE  H12X 1141   1.084   5.120  15.558
    9DOPE  H12Y 1142   1.246   5.055  15.600
    9DOPE  C313 1143   1.248   5.219  15.459
    9DOPE  H13X 1144   1.356   5.238  15.475
    9DOPE  H13Y 1145   1.240   5.149  15.373
    9DOPE  C314 1146   1.179   5.351  15.422
    9DOPE  H14X 1147   1.216   5.431  15.489
    9DOPE  H14Y 1148   1.070   5.341  15.439
    9DOPE  C315 1149   1.202   5.391  15.276
    9DOPE  H15X 1150   1.146   5.320  15.211
    9DOPE  H15Y 1151   1.310   5.381  15.251
    9DOPE  C316 1152   1.158   5.534  15.245
    9DOPE  H16X 1153   1.233   5.605  15.287
    9DOPE  H16Y 1154   1.061   5.554  15.295
    9DOPE  C317 1155   1.141   5.561  15.094
    9DOPE  H17X 1156   1.055   5.501  15.058
    9DOPE  H17Y 1157   1.115   5.668  15.080
    9DOPE  C318 1158   1.264   5.528  15.009
    9DOPE  H18X 1159   1.353   5.584  15.045
    9DOPE  H18Y 1160   1.287   5.419  15.013
    9DOPE  H18Z 1161   1.246   5.555  14.902
   10DOPE     N 1162   2.269   6.715  17.051
   10DOPE   HN1 1163   2.187   6.701  17.114
   10DOPE   HN2 1164   2.351   6.669  17.096
   10DOPE   HN3 1165   2.286   6.817  17.041
   10DOPE   C12 1166   2.241   6.652  16.918
   10DOPE  H12A 1167   2.312   6.696  16.844
   10DOPE  H12B 1168   2.137   6.680  16.890
   10DOPE   C11 1169   2.256   6.499  16.923
   10DOPE  H11A 1170   2.363   6.473  16.937
   10DOPE  H11B 1171   2.225   6.459  16.825
   10DOPE     P 1172   2.110   6.305  17.017
   10DOPE   O13 1173   2.054   6.264  17.148
   10DOPE   O14 1174   2.205   6.211  16.953
   10DOPE   O11 1175   1.994   6.339  16.916
   10DOPE   O12 1176   2.180   6.446  17.033
   10DOPE    C1 1177   1.854   6.339  16.948
   10DOPE    HA 1178   1.817   6.444  16.949
   10DOPE    HB 1179   1.833   6.298  17.049
   10DOPE    C2 1180   1.765   6.258  16.847
   10DOPE    HS 1181   1.725   6.170  16.902
   10DOPE   O21 1182   1.847   6.213  16.736
   10DOPE   C21 1183   1.931   6.115  16.764
   10DOPE   O22 1184   1.915   6.027  16.847
   10DOPE   C22 1185   2.056   6.131  16.677
   10DOPE   H2R 1186   2.115   6.215  16.720
   10DOPE   H2S 1187   2.028   6.162  16.574
   10DOPE    C3 1188   1.637   6.337  16.795
   10DOPE    HX 1189   1.577   6.362  16.885
   10DOPE    HY 1190   1.580   6.263  16.735
   10DOPE   O31 1191   1.661   6.458  16.718
   10DOPE   C31 1192   1.555   6.504  16.648
   10DOPE   O32 1193   1.446   6.449  16.648
   10DOPE   C32 1194   1.583   6.635  16.570
   10DOPE   H2X 1195   1.486   6.688  16.562
   10DOPE   H2Y 1196   1.651   6.696  16.633
   10DOPE   C23 1197   2.144   6.005  16.671
   10DOPE   H3R 1198   2.173   5.974  16.774
   10DOPE   H3S 1199   2.238   6.033  16.619
   10DOPE   C24 1200   2.081   5.889  16.595
   10DOPE   H4R 1201   1.994   5.851  16.652
   10DOPE   H4S 1202   2.155   5.807  16.588
   10DOPE   C25 1203   2.032   5.923  16.453
   10DOPE   H5R 1204   1.953   6.002  16.455
   10DOPE   H5S 1205   1.983   5.833  16.410
   10DOPE   C26 1206   2.142   5.962  16.353
   10DOPE   H6R 1207   2.235   5.908  16.381
   10DOPE   H6S 1208   2.162   6.071  16.359
   10DOPE   C27 1209   2.106   5.920  16.209
   10DOPE   H7R 1210   2.098   5.809  16.208
   10DOPE   H7S 1211   2.190   5.947  16.140
   10DOPE   C28 1212   1.973   5.978  16.156
   10DOPE   H8R 1213   1.893   5.965  16.232
   10DOPE   H8S 1214   1.943   5.917  16.069
   10DOPE   C29 1215   1.985   6.123  16.117
   10DOPE   H9R 1216   2.056   6.182  16.177
   10DOPE  C210 1217   1.916   6.185  16.020
   10DOPE  H10R 1218   1.936   6.291  16.000
   10DOPE  C211 1219   1.812   6.121  15.931
   10DOPE  H11R 1220   1.745   6.199  15.889
   10DOPE  H11S 1221   1.747   6.053  15.991
   10DOPE  C212 1222   1.871   6.039  15.815
   10DOPE  H12R 1223   1.788   5.990  15.760
   10DOPE  H12S 1224   1.936   5.959  15.855
   10DOPE  C213 1225   1.953   6.122  15.714
   10DOPE  H13R 1226   2.027   6.185  15.769
   10DOPE  H13S 1227   1.885   6.191  15.659
   10DOPE  C214 1228   2.031   6.035  15.615
   10DOPE  H14R 1229   2.103   5.972  15.671
   10DOPE  H14S 1230   2.090   6.101  15.548
   10DOPE  C215 1231   1.942   5.944  15.529
   10DOPE  H15R 1232   1.864   6.005  15.479
   10DOPE  H15S 1233   1.891   5.870  15.594
   10DOPE  C216 1234   2.023   5.868  15.423
   10DOPE  H16R 1235   2.110   5.819  15.472
   10DOPE  H16S 1236   2.063   5.941  15.349
   10DOPE  C217 1237   1.942   5.760  15.348
   10DOPE  H17R 1238   1.911   5.682  15.421
   10DOPE  H17S 1239   2.009   5.711  15.274
   10DOPE  C218 1240   1.818   5.813  15.276
   10DOPE  H18R 1241   1.743   5.852  15.349
   10DOPE  H18S 1242   1.770   5.732  15.218
   10DOPE  H18T 1243   1.845   5.895  15.207
   10DOPE   C33 1244   1.641   6.615  16.427
   10DOPE   H3X 1245   1.574   6.544  16.374
   10DOPE   H3Y 1246   1.741   6.566  16.434
   10DOPE   C34 1247   1.661   6.731  16.328
   10DOPE   H4X 1248   1.609   6.706  16.233
   10DOPE   H4Y 1249   1.611   6.822  16.367
   10DOPE   C35 1250   1.808   6.763  16.289
   10DOPE   H5X 1251   1.863   6.796  16.380
   10DOPE   H5Y 1252   1.807   6.849  16.219
   10DOPE   C36 1253   1.894   6.653  16.223
   10DOPE   H6X 1254   1.841   6.613  16.133
   10DOPE   H6Y 1255   1.910   6.570  16.294
   10DOPE   C37 1256   2.033   6.705  16.182
   10DOPE   H7X 1257   2.018   6.784  16.104
   10DOPE   H7Y 1258   2.081   6.755  16.269
   10DOPE   C38 1259   2.129   6.599  16.123
   10DOPE   H8X 1260   2.208   6.653  16.067
   10DOPE   H8Y 1261   2.073   6.538  16.048
   10DOPE   C39 1262   2.197   6.511  16.226
   10DOPE   H9X 1263   2.194   6.549  16.329
   10DOPE  C310 1264   2.258   6.393  16.203
   10DOPE  H10X 1265   2.303   6.340  16.288
   10DOPE  C311 1266   2.270   6.325  16.069
   10DOPE  H11X 1267   2.274   6.215  16.082
   10DOPE  H11Y 1268   2.179   6.346  16.009
   10DOPE  C312 1269   2.394   6.369  15.987
   10DOPE  H12X 1270   2.485   6.323  16.032
   10DOPE  H12Y 1271   2.405   6.479  15.992
   10DOPE  C313 1272   2.385   6.329  15.839
   10DOPE  H13X 1273   2.483   6.350  15.790
   10DOPE  H13Y 1274   2.366   6.220  15.830
   10DOPE  C314 1275   2.276   6.407  15.763
   10DOPE  H14X 1276   2.293   6.515  15.778
   10DOPE  H14Y 1277   2.176   6.382  15.806
   10DOPE  C315 1278   2.271   6.377  15.613
   10DOPE  H15X 1279   2.257   6.268  15.597
   10DOPE  H15Y 1280   2.367   6.407  15.566
   10DOPE  C316 1281   2.155   6.453  15.546
   10DOPE  H16X 1282   2.167   6.561  15.569
   10DOPE  H16Y 1283   2.059   6.420  15.591
   10DOPE  C317 1284   2.148   6.437  15.394
   10DOPE  H17X 1285   2.069   6.506  15.356
   10DOPE  H17Y 1286   2.244   6.468  15.350
   10DOPE  C318 1287   2.114   6.295  15.346
   10DOPE  H18X 1288   2.195   6.224  15.375
   10DOPE  H18Y 1289   2.019   6.260  15.391
   10DOPE  H18Z 1290   2.103   6.293  15.236
   11DOPE     N 1291   1.726   3.124  17.204
   11DOPE   HN1 1292   1.683   3.076  17.285
   11DOPE   HN2 1293   1.818   3.162  17.234
   11DOPE   HN3 1294   1.664   3.202  17.175
   11DOPE   C12 1295   1.734   3.040  17.079
   11DOPE  H12A 1296   1.645   2.973  17.079
   11DOPE  H12B 1297   1.827   2.979  17.082
   11DOPE   C11 1298   1.727   3.134  16.958
   11DOPE  H11A 1299   1.714   3.072  16.866
   11DOPE  H11B 1300   1.823   3.189  16.947
   11DOPE     P 1301   1.543   3.292  16.856
   11DOPE   O13 1302   1.640   3.376  16.782
   11DOPE   O14 1303   1.425   3.361  16.914
   11DOPE   O11 1304   1.498   3.167  16.769
   11DOPE   O12 1305   1.621   3.227  16.978
   11DOPE    C1 1306   1.424   3.061  16.831
   11DOPE    HA 1307   1.342   3.100  16.896
   11DOPE    HB 1308   1.492   3.000  16.895
   11DOPE    C2 1309   1.358   2.958  16.732
   11DOPE    HS 1310   1.365   2.857  16.776
   11DOPE   O21 1311   1.421   2.961  16.603
   11DOPE   C21 1312   1.539   2.907  16.592
   11DOPE   O22 1313   1.607   2.858  16.680
   11DOPE   C22 1314   1.574   2.908  16.442
   11DOPE   H2R 1315   1.639   2.996  16.423
   11DOPE   H2S 1316   1.479   2.922  16.387
   11DOPE    C3 1317   1.207   2.986  16.708
   11DOPE    HX 1318   1.155   2.978  16.807
   11DOPE    HY 1319   1.165   2.905  16.644
   11DOPE   O31 1320   1.183   3.118  16.655
   11DOPE   C31 1321   1.185   3.128  16.522
   11DOPE   O32 1322   1.183   3.036  16.443
   11DOPE   C32 1323   1.181   3.277  16.484
   11DOPE   H2X 1324   1.078   3.312  16.502
   11DOPE   H2Y 1325   1.250   3.332  16.552
   11DOPE   C23 1326   1.640   2.778  16.393
   11DOPE   H3R 1327   1.603   2.692  16.452
   11DOPE   H3S 1328   1.750   2.783  16.409
   11DOPE   C24 1329   1.611   2.744  16.245
   11DOPE   H4R 1330   1.511   2.695  16.240
   11DOPE   H4S 1331   1.685   2.667  16.212
   11DOPE   C25 1332   1.611   2.862  16.147
   11DOPE   H5R 1333   1.670   2.833  16.058
   11DOPE   H5S 1334   1.660   2.950  16.193
   11DOPE   C26 1335   1.470   2.899  16.099
   11DOPE   H6R 1336   1.407   2.930  16.186
   11DOPE   H6S 1337   1.423   2.809  16.055
   11DOPE   C27 1338   1.470   3.012  15.995
   11DOPE   H7R 1339   1.523   2.978  15.904
   11DOPE   H7S 1340   1.526   3.098  16.037
   11DOPE   C28 1341   1.328   3.062  15.958
   11DOPE   H8R 1342   1.339   3.146  15.885
   11DOPE   H8S 1343   1.281   3.105  16.049
   11DOPE   C29 1344   1.241   2.953  15.902
   11DOPE   H9R 1345   1.170   2.909  15.973
   11DOPE  C210 1346   1.244   2.905  15.776
   11DOPE  H10R 1347   1.176   2.823  15.749
   11DOPE  C211 1348   1.337   2.949  15.666
   11DOPE  H11R 1349   1.387   3.046  15.690
   11DOPE  H11S 1350   1.279   2.967  15.573
   11DOPE  C212 1351   1.447   2.845  15.637
   11DOPE  H12R 1352   1.400   2.746  15.619
   11DOPE  H12S 1353   1.514   2.835  15.725
   11DOPE  C213 1354   1.530   2.881  15.513
   11DOPE  H13R 1355   1.574   2.983  15.526
   11DOPE  H13S 1356   1.462   2.886  15.426
   11DOPE  C214 1357   1.643   2.781  15.485
   11DOPE  H14R 1358   1.611   2.678  15.514
   11DOPE  H14S 1359   1.731   2.808  15.547
   11DOPE  C215 1360   1.682   2.778  15.336
   11DOPE  H15R 1361   1.784   2.736  15.325
   11DOPE  H15S 1362   1.684   2.883  15.299
   11DOPE  C216 1363   1.585   2.694  15.251
   11DOPE  H16R 1364   1.481   2.713  15.287
   11DOPE  H16S 1365   1.607   2.587  15.268
   11DOPE  C217 1366   1.590   2.726  15.101
   11DOPE  H17R 1367   1.552   2.830  15.086
   11DOPE  H17S 1368   1.519   2.658  15.049
   11DOPE  C218 1369   1.728   2.713  15.037
   11DOPE  H18R 1370   1.799   2.785  15.082
   11DOPE  H18S 1371   1.722   2.733  14.928
   11DOPE  H18T 1372   1.768   2.610  15.052
   11DOPE   C33 1373   1.221   3.303  16.337
   11DOPE   H3X 1374   1.168   3.232  16.270
   11DOPE   H3Y 1375   1.330   3.287  16.324
   11DOPE   C34 1376   1.184   3.446  16.292
   11DOPE   H4X 1377   1.073   3.455  16.299
   11DOPE   H4Y 1378   1.227   3.520  16.362
   11DOPE   C35 1379   1.228   3.478  16.149
   11DOPE   H5X 1380   1.162   3.557  16.107
   11DOPE   H5Y 1381   1.216   3.387  16.086
   11DOPE   C36 1382   1.374   3.528  16.141
   11DOPE   H6X 1383   1.433   3.466  16.211
   11DOPE   H6Y 1384   1.381   3.633  16.176
   11DOPE   C37 1385   1.439   3.513  16.002
   11DOPE   H7X 1386   1.549   3.516  16.018
   11DOPE   H7Y 1387   1.414   3.414  15.960
   11DOPE   C38 1388   1.409   3.624  15.899
   11DOPE   H8X 1389   1.473   3.605  15.810
   11DOPE   H8Y 1390   1.444   3.721  15.941
   11DOPE   C39 1391   1.265   3.635  15.858
   11DOPE   H9X 1392   1.210   3.716  15.906
   11DOPE  C310 1393   1.201   3.556  15.770
   11DOPE  H10X 1394   1.095   3.576  15.748
   11DOPE  C311 1395   1.260   3.440  15.694
   11DOPE  H11X 1396   1.356   3.406  15.737
   11DOPE  H11Y 1397   1.191   3.353  15.699
   11DOPE  C312 1398   1.283   3.477  15.547
   11DOPE  H12X 1399   1.363   3.553  15.540
   11DOPE  H12Y 1400   1.191   3.520  15.504
   11DOPE  C313 1401   1.321   3.356  15.461
   11DOPE  H13X 1402   1.411   3.305  15.503
   11DOPE  H13Y 1403   1.238   3.283  15.466
   11DOPE  C314 1404   1.347   3.395  15.315
   11DOPE  H14X 1405   1.456   3.413  15.302
   11DOPE  H14Y 1406   1.296   3.491  15.293
   11DOPE  C315 1407   1.299   3.292  15.213
   11DOPE  H15X 1408   1.338   3.191  15.238
   11DOPE  H15Y 1409   1.341   3.321  15.114
   11DOPE  C316 1410   1.145   3.286  15.202
   11DOPE  H16X 1411   1.108   3.390  15.190
   11DOPE  H16Y 1412   1.103   3.246  15.296
   11DOPE  C317 1413   1.093   3.203  15.084
   11DOPE  H17X 1414   1.125   3.097  15.097
   11DOPE  H17Y 1415   0.982   3.204  15.089
   11DOPE  C318 1416   1.137   3.253  14.946
   11DOPE  H18X 1417   1.121   3.362  14.937
   11DOPE  H18Y 1418   1.245   3.232  14.929
   11DOPE  H18Z 1419   1.079   3.202  14.866
   12DOPE     N 1420   3.276   7.298  16.911
   12DOPE   HN1 1421   3.198   7.361  16.882
   12DOPE   HN2 1422   3.337   7.275  16.830
   12DOPE   HN3 1423   3.234   7.210  16.947
   12DOPE   C12 1424   3.363   7.358  17.017
   12DOPE  H12A 1425   3.303   7.374  17.109
   12DOPE  H12B 1426   3.400   7.456  16.979
   12DOPE   C11 1427   3.481   7.264  17.042
   12DOPE  H11A 1428   3.444   7.170  17.090
   12DOPE  H11B 1429   3.551   7.310  17.114
   12DOPE     P 1430   3.689   7.281  16.883
   12DOPE   O13 1431   3.716   7.248  16.742
   12DOPE   O14 1432   3.781   7.231  16.987
   12DOPE   O11 1433   3.672   7.439  16.901
   12DOPE   O12 1434   3.542   7.230  16.917
   12DOPE    C1 1435   3.743   7.529  16.815
   12DOPE    HA 1436   3.813   7.477  16.746
   12DOPE    HB 1437   3.807   7.595  16.877
   12DOPE    C2 1438   3.651   7.621  16.727
   12DOPE    HS 1439   3.660   7.724  16.769
   12DOPE   O21 1440   3.514   7.577  16.739
   12DOPE   C21 1441   3.423   7.646  16.672
   12DOPE   O22 1442   3.440   7.754  16.618
   12DOPE   C22 1443   3.288   7.576  16.687
   12DOPE   H2R 1444   3.209   7.654  16.675
   12DOPE   H2S 1445   3.282   7.538  16.791
   12DOPE    C3 1446   3.702   7.625  16.579
   12DOPE    HX 1447   3.810   7.649  16.583
   12DOPE    HY 1448   3.653   7.707  16.523
   12DOPE   O31 1449   3.674   7.499  16.514
   12DOPE   C31 1450   3.771   7.443  16.444
   12DOPE   O32 1451   3.879   7.492  16.420
   12DOPE   C32 1452   3.722   7.306  16.397
   12DOPE   H2X 1453   3.727   7.238  16.485
   12DOPE   H2Y 1454   3.615   7.316  16.366
   12DOPE   C23 1455   3.260   7.461  16.587
   12DOPE   H3R 1456   3.236   7.505  16.488
   12DOPE   H3S 1457   3.169   7.407  16.622
   12DOPE   C24 1458   3.376   7.362  16.571
   12DOPE   H4R 1459   3.422   7.337  16.668
   12DOPE   H4S 1460   3.455   7.412  16.510
   12DOPE   C25 1461   3.337   7.231  16.499
   12DOPE   H5R 1462   3.277   7.168  16.569
   12DOPE   H5S 1463   3.430   7.175  16.475
   12DOPE   C26 1464   3.255   7.251  16.370
   12DOPE   H6R 1465   3.157   7.297  16.396
   12DOPE   H6S 1466   3.235   7.151  16.326
   12DOPE   C27 1467   3.321   7.339  16.263
   12DOPE   H7R 1468   3.413   7.288  16.226
   12DOPE   H7S 1469   3.353   7.436  16.308
   12DOPE   C28 1470   3.226   7.367  16.146
   12DOPE   H8R 1471   3.137   7.421  16.183
   12DOPE   H8S 1472   3.190   7.270  16.106
   12DOPE   C29 1473   3.296   7.449  16.040
   12DOPE   H9R 1474   3.313   7.554  16.068
   12DOPE  C210 1475   3.339   7.406  15.920
   12DOPE  H10R 1476   3.390   7.479  15.855
   12DOPE  C211 1477   3.328   7.267  15.863
   12DOPE  H11R 1478   3.285   7.194  15.935
   12DOPE  H11S 1479   3.429   7.230  15.837
   12DOPE  C212 1480   3.242   7.264  15.735
   12DOPE  H12R 1481   3.138   7.297  15.758
   12DOPE  H12S 1482   3.236   7.159  15.699
   12DOPE  C213 1483   3.300   7.351  15.623
   12DOPE  H13R 1484   3.405   7.321  15.604
   12DOPE  H13S 1485   3.301   7.457  15.656
   12DOPE  C214 1486   3.222   7.345  15.492
   12DOPE  H14R 1487   3.115   7.367  15.510
   12DOPE  H14S 1488   3.230   7.243  15.448
   12DOPE  C215 1489   3.279   7.448  15.393
   12DOPE  H15R 1490   3.387   7.428  15.380
   12DOPE  H15S 1491   3.269   7.549  15.438
   12DOPE  C216 1492   3.209   7.447  15.257
   12DOPE  H16R 1493   3.100   7.455  15.271
   12DOPE  H16S 1494   3.230   7.351  15.206
   12DOPE  C217 1495   3.257   7.563  15.168
   12DOPE  H17R 1496   3.225   7.659  15.214
   12DOPE  H17S 1497   3.204   7.555  15.070
   12DOPE  C218 1498   3.408   7.567  15.145
   12DOPE  H18R 1499   3.435   7.649  15.075
   12DOPE  H18S 1500   3.442   7.471  15.100
   12DOPE  H18T 1501   3.463   7.583  15.240
   12DOPE   C33 1502   3.805   7.247  16.281
   12DOPE   H3X 1503   3.913   7.253  16.307
   12DOPE   H3Y 1504   3.790   7.306  16.188
   12DOPE   C34 1505   3.771   7.099  16.254
   12DOPE   H4X 1506   3.845   7.057  16.183
   12DOPE   H4Y 1507   3.784   7.044  16.350
   12DOPE   C35 1508   3.629   7.075  16.202
   12DOPE   H5X 1509   3.556   7.133  16.263
   12DOPE   H5Y 1510   3.604   6.967  16.216
   12DOPE   C36 1511   3.608   7.104  16.052
   12DOPE   H6X 1512   3.640   7.208  16.028
   12DOPE   H6Y 1513   3.499   7.096  16.031
   12DOPE   C37 1514   3.682   7.004  15.962
   12DOPE   H7X 1515   3.791   7.022  15.970
   12DOPE   H7Y 1516   3.662   6.902  16.000
   12DOPE   C38 1517   3.639   7.013  15.815
   12DOPE   H8X 1518   3.661   7.115  15.778
   12DOPE   H8Y 1519   3.528   7.001  15.809
   12DOPE   C39 1520   3.705   6.906  15.732
   12DOPE   H9X 1521   3.670   6.803  15.751
   12DOPE  C310 1522   3.801   6.924  15.638
   12DOPE  H10X 1523   3.838   6.836  15.584
   12DOPE  C311 1524   3.861   7.056  15.597
   12DOPE  H11X 1525   3.846   7.135  15.673
   12DOPE  H11Y 1526   3.971   7.044  15.586
   12DOPE  C312 1527   3.805   7.107  15.463
   12DOPE  H12X 1528   3.826   7.033  15.382
   12DOPE  H12Y 1529   3.858   7.201  15.437
   12DOPE  C313 1530   3.654   7.137  15.467
   12DOPE  H13X 1531   3.598   7.042  15.479
   12DOPE  H13Y 1532   3.633   7.199  15.557
   12DOPE  C314 1533   3.602   7.212  15.344
   12DOPE  H14X 1534   3.654   7.309  15.335
   12DOPE  H14Y 1535   3.493   7.233  15.359
   12DOPE  C315 1536   3.618   7.135  15.212
   12DOPE  H15X 1537   3.566   7.037  15.220
   12DOPE  H15Y 1538   3.726   7.114  15.194
   12DOPE  C316 1539   3.562   7.212  15.092
   12DOPE  H16X 1540   3.613   7.311  15.086
   12DOPE  H16Y 1541   3.453   7.231  15.109
   12DOPE  C317 1542   3.580   7.139  14.959
   12DOPE  H17X 1543   3.689   7.120  14.943
   12DOPE  H17Y 1544   3.529   7.041  14.964
   12DOPE  C318 1545   3.526   7.218  14.839
   12DOPE  H18X 1546   3.542   7.162  14.745
   12DOPE  H18Y 1547   3.417   7.236  14.851
   12DOPE  H18Z 1548   3.576   7.316  14.831
   13DOPE     N 1549   2.852   1.311  17.226
   13DOPE   HN1 1550   2.813   1.407  17.214
   13DOPE   HN2 1551   2.896   1.306  17.320
   13DOPE   HN3 1552   2.923   1.304  17.150
   13DOPE   C12 1553   2.748   1.204  17.206
   13DOPE  H12A 1554   2.661   1.229  17.270
   13DOPE  H12B 1555   2.792   1.108  17.241
   13DOPE   C11 1556   2.705   1.189  17.058
   13DOPE  H11A 1557   2.654   1.282  17.025
   13DOPE  H11B 1558   2.629   1.109  17.053
   13DOPE     P 1559   2.888   1.263  16.886
   13DOPE   O13 1560   2.967   1.341  16.984
   13DOPE   O14 1561   2.786   1.335  16.807
   13DOPE   O11 1562   2.983   1.179  16.794
   13DOPE   O12 1563   2.816   1.152  16.974
   13DOPE    C1 1564   3.079   1.087  16.849
   13DOPE    HA 1565   3.050   1.051  16.950
   13DOPE    HB 1566   3.176   1.140  16.861
   13DOPE    C2 1567   3.099   0.962  16.758
   13DOPE    HS 1568   3.184   0.903  16.797
   13DOPE   O21 1569   3.124   1.001  16.622
   13DOPE   C21 1570   3.240   1.061  16.604
   13DOPE   O22 1571   3.332   1.065  16.685
   13DOPE   C22 1572   3.245   1.122  16.465
   13DOPE   H2R 1573   3.155   1.090  16.408
   13DOPE   H2S 1574   3.336   1.082  16.414
   13DOPE    C3 1575   2.976   0.866  16.761
   13DOPE    HX 1576   2.973   0.819  16.861
   13DOPE    HY 1577   2.993   0.784  16.687
   13DOPE   O31 1578   2.850   0.933  16.740
   13DOPE   C31 1579   2.809   0.945  16.614
   13DOPE   O32 1580   2.860   0.891  16.518
   13DOPE   C32 1581   2.681   1.029  16.611
   13DOPE   H2X 1582   2.598   0.961  16.638
   13DOPE   H2Y 1583   2.689   1.109  16.688
   13DOPE   C23 1584   3.251   1.276  16.471
   13DOPE   H3R 1585   3.255   1.313  16.366
   13DOPE   H3S 1586   3.344   1.311  16.521
   13DOPE   C24 1587   3.129   1.336  16.543
   13DOPE   H4R 1588   3.145   1.331  16.653
   13DOPE   H4S 1589   3.041   1.272  16.521
   13DOPE   C25 1590   3.094   1.480  16.503
   13DOPE   H5R 1591   3.176   1.549  16.530
   13DOPE   H5S 1592   3.003   1.508  16.561
   13DOPE   C26 1593   3.062   1.492  16.353
   13DOPE   H6R 1594   3.020   1.395  16.319
   13DOPE   H6S 1595   3.155   1.509  16.296
   13DOPE   C27 1596   2.958   1.600  16.320
   13DOPE   H7R 1597   2.993   1.700  16.353
   13DOPE   H7S 1598   2.866   1.575  16.377
   13DOPE   C28 1599   2.927   1.602  16.169
   13DOPE   H8R 1600   2.942   1.499  16.130
   13DOPE   H8S 1601   3.002   1.667  16.118
   13DOPE   C29 1602   2.787   1.647  16.136
   13DOPE   H9R 1603   2.733   1.698  16.217
   13DOPE  C210 1604   2.726   1.627  16.018
   13DOPE  H10R 1605   2.622   1.662  16.006
   13DOPE  C211 1606   2.784   1.558  15.898
   13DOPE  H11R 1607   2.734   1.460  15.882
   13DOPE  H11S 1608   2.893   1.537  15.909
   13DOPE  C212 1609   2.765   1.644  15.772
   13DOPE  H12R 1610   2.815   1.742  15.785
   13DOPE  H12S 1611   2.656   1.664  15.758
   13DOPE  C213 1612   2.818   1.579  15.643
   13DOPE  H13R 1613   2.777   1.476  15.635
   13DOPE  H13S 1614   2.928   1.572  15.647
   13DOPE  C214 1615   2.774   1.659  15.520
   13DOPE  H14R 1616   2.814   1.762  15.526
   13DOPE  H14S 1617   2.663   1.665  15.522
   13DOPE  C215 1618   2.814   1.596  15.385
   13DOPE  H15R 1619   2.778   1.491  15.381
   13DOPE  H15S 1620   2.925   1.595  15.377
   13DOPE  C216 1621   2.754   1.675  15.268
   13DOPE  H16R 1622   2.790   1.780  15.272
   13DOPE  H16S 1623   2.643   1.678  15.279
   13DOPE  C217 1624   2.786   1.615  15.131
   13DOPE  H17R 1625   2.749   1.510  15.127
   13DOPE  H17S 1626   2.897   1.611  15.120
   13DOPE  C218 1627   2.726   1.694  15.014
   13DOPE  H18R 1628   2.616   1.697  15.023
   13DOPE  H18S 1629   2.753   1.647  14.917
   13DOPE  H18T 1630   2.765   1.798  15.014
   13DOPE   C33 1631   2.654   1.093  16.473
   13DOPE   H3X 1632   2.549   1.131  16.472
   13DOPE   H3Y 1633   2.663   1.017  16.392
   13DOPE   C34 1634   2.747   1.211  16.444
   13DOPE   H4X 1635   2.739   1.283  16.529
   13DOPE   H4Y 1636   2.852   1.176  16.442
   13DOPE   C35 1637   2.714   1.286  16.314
   13DOPE   H5X 1638   2.780   1.375  16.308
   13DOPE   H5Y 1639   2.610   1.323  16.318
   13DOPE   C36 1640   2.733   1.204  16.185
   13DOPE   H6X 1641   2.711   1.270  16.098
   13DOPE   H6Y 1642   2.659   1.121  16.183
   13DOPE   C37 1643   2.874   1.146  16.169
   13DOPE   H7X 1644   2.948   1.228  16.188
   13DOPE   H7Y 1645   2.891   1.067  16.245
   13DOPE   C38 1646   2.902   1.090  16.028
   13DOPE   H8X 1647   3.008   1.057  16.024
   13DOPE   H8Y 1648   2.893   1.174  15.955
   13DOPE   C39 1649   2.812   0.974  15.994
   13DOPE   H9X 1650   2.815   0.892  16.067
   13DOPE  C310 1651   2.729   0.964  15.888
   13DOPE  H10X 1652   2.671   0.871  15.876
   13DOPE  C311 1653   2.708   1.064  15.777
   13DOPE  H11X 1654   2.599   1.085  15.765
   13DOPE  H11Y 1655   2.755   1.162  15.799
   13DOPE  C312 1656   2.763   1.013  15.644
   13DOPE  H12X 1657   2.719   0.914  15.619
   13DOPE  H12Y 1658   2.873   0.998  15.654
   13DOPE  C313 1659   2.736   1.109  15.527
   13DOPE  H13X 1660   2.626   1.116  15.512
   13DOPE  H13Y 1661   2.773   1.210  15.552
   13DOPE  C314 1662   2.800   1.064  15.395
   13DOPE  H14X 1663   2.758   1.123  15.311
   13DOPE  H14Y 1664   2.774   0.957  15.376
   13DOPE  C315 1665   2.953   1.080  15.394
   13DOPE  H15X 1666   2.996   1.028  15.482
   13DOPE  H15Y 1667   2.978   1.188  15.403
   13DOPE  C316 1668   3.019   1.023  15.268
   13DOPE  H16X 1669   2.980   1.076  15.178
   13DOPE  H16Y 1670   2.992   0.916  15.258
   13DOPE  C317 1671   3.172   1.036  15.273
   13DOPE  H17X 1672   3.199   1.143  15.280
   13DOPE  H17Y 1673   3.209   0.986  15.366
   13DOPE  C318 1674   3.241   0.973  15.152
   13DOPE  H18X 1675   3.351   0.984  15.160
   13DOPE  H18Y 1676   3.216   0.865  15.144
   13DOPE  H18Z 1677   3.207   1.024  15.059
   14DOPE     N 1678   7.349   4.882  17.182
   14DOPE   HN1 1679   7.340   4.778  17.178
   14DOPE   HN2 1680   7.317   4.917  17.274
   14DOPE   HN3 1681   7.290   4.921  17.106
   14DOPE   C12 1682   7.491   4.924  17.152
   14DOPE  H12A 1683   7.541   4.837  17.104
   14DOPE  H12B 1684   7.542   4.949  17.247
   14DOPE   C11 1685   7.491   5.042  17.054
   14DOPE  H11A 1686   7.594   5.061  17.018
   14DOPE  H11B 1687   7.453   5.133  17.105
   14DOPE     P 1688   7.383   5.097  16.818
   14DOPE   O13 1689   7.236   5.092  16.798
   14DOPE   O14 1690   7.473   5.048  16.713
   14DOPE   O11 1691   7.428   5.240  16.869
   14DOPE   O12 1692   7.406   5.007  16.946
   14DOPE    C1 1693   7.334   5.331  16.927
   14DOPE    HA 1694   7.380   5.374  17.019
   14DOPE    HB 1695   7.240   5.283  16.959
   14DOPE    C2 1696   7.296   5.452  16.835
   14DOPE    HS 1697   7.223   5.513  16.892
   14DOPE   O21 1698   7.242   5.407  16.710
   14DOPE   C21 1699   7.111   5.392  16.706
   14DOPE   O22 1700   7.037   5.393  16.803
   14DOPE   C22 1701   7.065   5.400  16.560
   14DOPE   H2R 1702   7.124   5.482  16.513
   14DOPE   H2S 1703   6.958   5.429  16.559
   14DOPE    C3 1704   7.415   5.548  16.805
   14DOPE    HX 1705   7.464   5.568  16.903
   14DOPE    HY 1706   7.373   5.645  16.771
   14DOPE   O31 1707   7.513   5.495  16.713
   14DOPE   C31 1708   7.487   5.521  16.584
   14DOPE   O32 1709   7.397   5.592  16.543
   14DOPE   C32 1710   7.596   5.459  16.496
   14DOPE   H2X 1711   7.645   5.544  16.443
   14DOPE   H2Y 1712   7.670   5.407  16.559
   14DOPE   C23 1713   7.085   5.271  16.477
   14DOPE   H3R 1714   7.004   5.199  16.499
   14DOPE   H3S 1715   7.181   5.222  16.505
   14DOPE   C24 1716   7.090   5.302  16.327
   14DOPE   H4R 1717   7.183   5.359  16.306
   14DOPE   H4S 1718   7.004   5.366  16.298
   14DOPE   C25 1719   7.090   5.175  16.240
   14DOPE   H5R 1720   6.986   5.136  16.231
   14DOPE   H5S 1721   7.149   5.097  16.293
   14DOPE   C26 1722   7.151   5.193  16.100
   14DOPE   H6R 1723   7.152   5.094  16.050
   14DOPE   H6S 1724   7.257   5.225  16.110
   14DOPE   C27 1725   7.077   5.293  16.009
   14DOPE   H7R 1726   7.139   5.385  16.002
   14DOPE   H7S 1727   6.981   5.323  16.057
   14DOPE   C28 1728   7.051   5.239  15.867
   14DOPE   H8R 1729   7.146   5.199  15.825
   14DOPE   H8S 1730   7.020   5.324  15.803
   14DOPE   C29 1731   6.942   5.135  15.869
   14DOPE   H9R 1732   6.860   5.158  15.939
   14DOPE  C210 1733   6.933   5.021  15.798
   14DOPE  H10R 1734   6.844   4.958  15.813
   14DOPE  C211 1735   7.031   4.965  15.697
   14DOPE  H11R 1736   7.075   4.872  15.738
   14DOPE  H11S 1737   7.116   5.035  15.678
   14DOPE  C212 1738   6.963   4.929  15.564
   14DOPE  H12R 1739   6.869   4.872  15.584
   14DOPE  H12S 1740   7.030   4.861  15.507
   14DOPE  C213 1741   6.932   5.048  15.472
   14DOPE  H13R 1742   6.867   5.121  15.525
   14DOPE  H13S 1743   6.875   5.010  15.385
   14DOPE  C214 1744   7.058   5.120  15.422
   14DOPE  H14R 1745   7.138   5.046  15.402
   14DOPE  H14S 1746   7.094   5.188  15.502
   14DOPE  C215 1747   7.033   5.201  15.293
   14DOPE  H15R 1748   7.116   5.275  15.281
   14DOPE  H15S 1749   6.939   5.258  15.303
   14DOPE  C216 1750   7.030   5.113  15.167
   14DOPE  H16R 1751   6.955   5.032  15.179
   14DOPE  H16S 1752   7.130   5.065  15.157
   14DOPE  C217 1753   6.999   5.191  15.038
   14DOPE  H17R 1754   7.029   5.128  14.951
   14DOPE  H17S 1755   7.061   5.283  15.035
   14DOPE  C218 1756   6.851   5.227  15.021
   14DOPE  H18R 1757   6.817   5.291  15.106
   14DOPE  H18S 1758   6.788   5.136  15.019
   14DOPE  H18T 1759   6.835   5.283  14.927
   14DOPE   C33 1760   7.538   5.362  16.391
   14DOPE   H3X 1761   7.613   5.348  16.310
   14DOPE   H3Y 1762   7.446   5.403  16.344
   14DOPE   C34 1763   7.507   5.225  16.453
   14DOPE   H4X 1764   7.598   5.183  16.501
   14DOPE   H4Y 1765   7.432   5.239  16.533
   14DOPE   C35 1766   7.451   5.122  16.354
   14DOPE   H5X 1767   7.364   5.166  16.302
   14DOPE   H5Y 1768   7.415   5.034  16.412
   14DOPE   C36 1769   7.552   5.072  16.249
   14DOPE   H6X 1770   7.638   5.023  16.300
   14DOPE   H6Y 1771   7.592   5.160  16.192
   14DOPE   C37 1772   7.488   4.974  16.150
   14DOPE   H7X 1773   7.444   4.890  16.209
   14DOPE   H7Y 1774   7.404   5.025  16.098
   14DOPE   C38 1775   7.584   4.914  16.045
   14DOPE   H8X 1776   7.526   4.843  15.982
   14DOPE   H8Y 1777   7.660   4.853  16.098
   14DOPE   C39 1778   7.651   5.018  15.960
   14DOPE   H9X 1779   7.753   5.044  15.992
   14DOPE  C310 1780   7.600   5.078  15.851
   14DOPE  H10X 1781   7.659   5.155  15.799
   14DOPE  C311 1782   7.464   5.052  15.792
   14DOPE  H11X 1783   7.449   4.943  15.774
   14DOPE  H11Y 1784   7.385   5.084  15.862
   14DOPE  C312 1785   7.442   5.125  15.658
   14DOPE  H12X 1786   7.455   5.235  15.673
   14DOPE  H12Y 1787   7.336   5.109  15.626
   14DOPE  C313 1788   7.534   5.078  15.544
   14DOPE  H13X 1789   7.640   5.092  15.574
   14DOPE  H13Y 1790   7.517   4.969  15.528
   14DOPE  C314 1791   7.509   5.154  15.413
   14DOPE  H14X 1792   7.515   5.263  15.434
   14DOPE  H14Y 1793   7.407   5.133  15.376
   14DOPE  C315 1794   7.611   5.122  15.302
   14DOPE  H15X 1795   7.714   5.142  15.339
   14DOPE  H15Y 1796   7.592   5.190  15.216
   14DOPE  C316 1797   7.604   4.976  15.252
   14DOPE  H16X 1798   7.502   4.956  15.213
   14DOPE  H16Y 1799   7.621   4.908  15.338
   14DOPE  C317 1800   7.708   4.943  15.143
   14DOPE  H17X 1801   7.809   4.965  15.183
   14DOPE  H17Y 1802   7.703   4.834  15.124
   14DOPE  C318 1803   7.688   5.017  15.011
   14DOPE  H18X 1804   7.699   5.127  15.025
   14DOPE  H18Y 1805   7.763   4.984  14.936
   14DOPE  H18Z 1806   7.586   4.997  14.970
   15DOPE     N 1807   1.189   2.112  16.977
   15DOPE   HN1 1808   1.132   2.072  17.055
   15DOPE   HN2 1809   1.205   2.212  17.001
   15DOPE   HN3 1810   1.137   2.107  16.887
   15DOPE   C12 1811   1.323   2.043  16.975
   15DOPE  H12A 1812   1.370   2.060  16.876
   15DOPE  H12B 1813   1.305   1.935  16.989
   15DOPE   C11 1814   1.415   2.097  17.088
   15DOPE  H11A 1815   1.492   2.020  17.108
   15DOPE  H11B 1816   1.359   2.111  17.182
   15DOPE     P 1817   1.410   2.351  17.013
   15DOPE   O13 1818   1.500   2.466  17.034
   15DOPE   O14 1819   1.276   2.348  17.076
   15DOPE   O11 1820   1.389   2.321  16.859
   15DOPE   O12 1821   1.484   2.217  17.051
   15DOPE    C1 1822   1.503   2.308  16.773
   15DOPE    HA 1823   1.485   2.225  16.701
   15DOPE    HB 1824   1.596   2.284  16.828
   15DOPE    C2 1825   1.528   2.437  16.690
   15DOPE    HS 1826   1.529   2.524  16.759
   15DOPE   O21 1827   1.426   2.447  16.589
   15DOPE   C21 1828   1.330   2.536  16.609
   15DOPE   O22 1829   1.320   2.610  16.705
   15DOPE   C22 1830   1.233   2.532  16.491
   15DOPE   H2R 1831   1.130   2.527  16.530
   15DOPE   H2S 1832   1.254   2.440  16.432
   15DOPE    C3 1833   1.667   2.432  16.621
   15DOPE    HX 1834   1.743   2.432  16.702
   15DOPE    HY 1835   1.684   2.525  16.563
   15DOPE   O31 1836   1.685   2.312  16.542
   15DOPE   C31 1837   1.651   2.323  16.413
   15DOPE   O32 1838   1.618   2.425  16.357
   15DOPE   C32 1839   1.667   2.187  16.345
   15DOPE   H2X 1840   1.772   2.179  16.311
   15DOPE   H2Y 1841   1.648   2.107  16.420
   15DOPE   C23 1842   1.249   2.658  16.401
   15DOPE   H3R 1843   1.356   2.687  16.397
   15DOPE   H3S 1844   1.195   2.743  16.447
   15DOPE   C24 1845   1.203   2.638  16.256
   15DOPE   H4R 1846   1.217   2.735  16.204
   15DOPE   H4S 1847   1.094   2.614  16.253
   15DOPE   C25 1848   1.283   2.530  16.180
   15DOPE   H5R 1849   1.244   2.429  16.204
   15DOPE   H5S 1850   1.387   2.532  16.217
   15DOPE   C26 1851   1.286   2.551  16.027
   15DOPE   H6R 1852   1.390   2.534  15.992
   15DOPE   H6S 1853   1.261   2.657  16.003
   15DOPE   C27 1854   1.195   2.455  15.949
   15DOPE   H7R 1855   1.233   2.352  15.966
   15DOPE   H7S 1856   1.205   2.476  15.840
   15DOPE   C28 1857   1.046   2.459  15.988
   15DOPE   H8R 1858   1.036   2.434  16.096
   15DOPE   H8S 1859   0.995   2.377  15.933
   15DOPE   C29 1860   0.985   2.594  15.959
   15DOPE   H9R 1861   1.036   2.678  16.008
   15DOPE  C210 1862   0.877   2.619  15.883
   15DOPE  H10R 1863   0.847   2.724  15.869
   15DOPE  C211 1864   0.792   2.519  15.809
   15DOPE  H11R 1865   0.685   2.539  15.832
   15DOPE  H11S 1866   0.812   2.415  15.841
   15DOPE  C212 1867   0.809   2.527  15.657
   15DOPE  H12R 1868   0.794   2.630  15.620
   15DOPE  H12S 1869   0.729   2.464  15.612
   15DOPE  C213 1870   0.944   2.474  15.605
   15DOPE  H13R 1871   0.966   2.376  15.653
   15DOPE  H13S 1872   1.026   2.544  15.633
   15DOPE  C214 1873   0.940   2.455  15.453
   15DOPE  H14R 1874   0.919   2.553  15.405
   15DOPE  H14S 1875   0.855   2.388  15.431
   15DOPE  C215 1876   1.066   2.394  15.390
   15DOPE  H15R 1877   1.036   2.356  15.290
   15DOPE  H15S 1878   1.101   2.307  15.449
   15DOPE  C216 1879   1.180   2.495  15.371
   15DOPE  H16R 1880   1.233   2.507  15.468
   15DOPE  H16S 1881   1.139   2.593  15.342
   15DOPE  C217 1882   1.280   2.451  15.262
   15DOPE  H17R 1883   1.306   2.344  15.278
   15DOPE  H17S 1884   1.373   2.510  15.276
   15DOPE  C218 1885   1.230   2.472  15.119
   15DOPE  H18R 1886   1.138   2.413  15.100
   15DOPE  H18S 1887   1.308   2.439  15.046
   15DOPE  H18T 1888   1.208   2.579  15.100
   15DOPE   C33 1889   1.572   2.168  16.224
   15DOPE   H3X 1890   1.583   2.254  16.155
   15DOPE   H3Y 1891   1.466   2.167  16.259
   15DOPE   C34 1892   1.602   2.039  16.146
   15DOPE   H4X 1893   1.707   2.045  16.110
   15DOPE   H4Y 1894   1.594   1.951  16.212
   15DOPE   C35 1895   1.511   2.019  16.023
   15DOPE   H5X 1896   1.557   1.943  15.957
   15DOPE   H5Y 1897   1.507   2.114  15.966
   15DOPE   C36 1898   1.369   1.972  16.059
   15DOPE   H6X 1899   1.322   2.043  16.130
   15DOPE   H6Y 1900   1.377   1.873  16.110
   15DOPE   C37 1901   1.278   1.956  15.936
   15DOPE   H7X 1902   1.332   1.899  15.858
   15DOPE   H7Y 1903   1.188   1.897  15.965
   15DOPE   C38 1904   1.231   2.092  15.880
   15DOPE   H8X 1905   1.321   2.156  15.865
   15DOPE   H8Y 1906   1.169   2.142  15.958
   15DOPE   C39 1907   1.153   2.084  15.751
   15DOPE   H9X 1908   1.043   2.082  15.761
   15DOPE  C310 1909   1.207   2.079  15.628
   15DOPE  H10X 1910   1.141   2.076  15.540
   15DOPE  C311 1911   1.355   2.080  15.597
   15DOPE  H11X 1912   1.411   2.025  15.676
   15DOPE  H11Y 1913   1.373   2.025  15.502
   15DOPE  C312 1914   1.417   2.221  15.586
   15DOPE  H12X 1915   1.393   2.278  15.678
   15DOPE  H12Y 1916   1.371   2.276  15.500
   15DOPE  C313 1917   1.570   2.218  15.570
   15DOPE  H13X 1918   1.612   2.319  15.589
   15DOPE  H13Y 1919   1.611   2.150  15.649
   15DOPE  C314 1920   1.618   2.169  15.432
   15DOPE  H14X 1921   1.554   2.085  15.399
   15DOPE  H14Y 1922   1.722   2.131  15.440
   15DOPE  C315 1923   1.616   2.280  15.326
   15DOPE  H15X 1924   1.704   2.347  15.340
   15DOPE  H15Y 1925   1.525   2.342  15.341
   15DOPE  C316 1926   1.614   2.225  15.183
   15DOPE  H16X 1927   1.523   2.163  15.170
   15DOPE  H16Y 1928   1.702   2.160  15.166
   15DOPE  C317 1929   1.613   2.337  15.077
   15DOPE  H17X 1930   1.531   2.408  15.101
   15DOPE  H17Y 1931   1.709   2.392  15.083
   15DOPE  C318 1932   1.593   2.285  14.934
   15DOPE  H18X 1933   1.595   2.369  14.862
   15DOPE  H18Y 1934   1.672   2.213  14.907
   15DOPE  H18Z 1935   1.494   2.234  14.925
   16DOPE     N 1936   0.459   3.981  17.176
   16DOPE   HN1 1937   0.517   4.011  17.095
   16DOPE   HN2 1938   0.363   4.020  17.165
   16DOPE   HN3 1939   0.503   4.007  17.267
   16DOPE   C12 1940   0.453   3.833  17.161
   16DOPE  H12A 1941   0.351   3.807  17.123
   16DOPE  H12B 1942   0.469   3.785  17.260
   16DOPE   C11 1943   0.558   3.791  17.059
   16DOPE  H11A 1944   0.539   3.684  17.035
   16DOPE  H11B 1945   0.660   3.798  17.103
   16DOPE     P 1946   0.571   3.813  16.802
   16DOPE   O13 1947   0.691   3.727  16.809
   16DOPE   O14 1948   0.561   3.919  16.700
   16DOPE   O11 1949   0.441   3.722  16.798
   16DOPE   O12 1950   0.552   3.878  16.945
   16DOPE    C1 1951   0.443   3.593  16.736
   16DOPE    HA 1952   0.367   3.531  16.786
   16DOPE    HB 1953   0.540   3.540  16.748
   16DOPE    C2 1954   0.407   3.599  16.585
   16DOPE    HS 1955   0.359   3.502  16.561
   16DOPE   O21 1956   0.527   3.618  16.509
   16DOPE   C21 1957   0.524   3.570  16.385
   16DOPE   O22 1958   0.436   3.500  16.339
   16DOPE   C22 1959   0.649   3.615  16.310
   16DOPE   H2R 1960   0.680   3.713  16.352
   16DOPE   H2S 1961   0.621   3.630  16.204
   16DOPE    C3 1962   0.304   3.713  16.557
   16DOPE    HX 1963   0.358   3.810  16.570
   16DOPE    HY 1964   0.225   3.711  16.634
   16DOPE   O31 1965   0.248   3.710  16.424
   16DOPE   C31 1966   0.159   3.614  16.403
   16DOPE   O32 1967   0.121   3.534  16.487
   16DOPE   C32 1968   0.109   3.615  16.258
   16DOPE   H2X 1969   0.129   3.512  16.219
   16DOPE   H2Y 1970   8.448   3.631  16.259
   16DOPE   C23 1971   0.765   3.513  16.323
   16DOPE   H3R 1972   0.778   3.487  16.431
   16DOPE   H3S 1973   0.860   3.562  16.291
   16DOPE   C24 1974   0.746   3.385  16.240
   16DOPE   H4R 1975   0.638   3.365  16.224
   16DOPE   H4S 1976   0.787   3.300  16.300
   16DOPE   C25 1977   0.822   3.384  16.105
   16DOPE   H5R 1978   0.807   3.286  16.056
   16DOPE   H5S 1979   0.930   3.394  16.126
   16DOPE   C26 1980   0.781   3.496  16.007
   16DOPE   H6R 1981   0.852   3.496  15.922
   16DOPE   H6S 1982   0.791   3.594  16.058
   16DOPE   C27 1983   0.638   3.480  15.952
   16DOPE   H7R 1984   0.584   3.576  15.958
   16DOPE   H7S 1985   0.583   3.408  16.016
   16DOPE   C28 1986   0.634   3.427  15.807
   16DOPE   H8R 1987   0.532   3.387  15.789
   16DOPE   H8S 1988   0.703   3.340  15.800
   16DOPE   C29 1989   0.663   3.534  15.704
   16DOPE   H9R 1990   0.597   3.621  15.712
   16DOPE  C210 1991   0.755   3.532  15.606
   16DOPE  H10R 1992   0.760   3.619  15.539
   16DOPE  C211 1993   0.854   3.424  15.573
   16DOPE  H11R 1994   0.860   3.347  15.653
   16DOPE  H11S 1995   0.956   3.468  15.564
   16DOPE  C212 1996   0.822   3.352  15.440
   16DOPE  H12R 1997   0.726   3.298  15.448
   16DOPE  H12S 1998   0.902   3.276  15.423
   16DOPE  C213 1999   0.819   3.445  15.316
   16DOPE  H13R 2000   0.873   3.395  15.232
   16DOPE  H13S 2001   0.874   3.538  15.340
   16DOPE  C214 2002   0.677   3.479  15.267
   16DOPE  H14R 2003   0.686   3.564  15.195
   16DOPE  H14S 2004   0.615   3.514  15.352
   16DOPE  C215 2005   0.608   3.362  15.195
   16DOPE  H15R 2006   0.596   3.278  15.267
   16DOPE  H15S 2007   0.675   3.326  15.113
   16DOPE  C216 2008   0.470   3.396  15.136
   16DOPE  H16R 2009   0.401   3.422  15.220
   16DOPE  H16S 2010   0.430   3.305  15.087
   16DOPE  C217 2011   0.469   3.511  15.033
   16DOPE  H17R 2012   0.491   3.606  15.086
   16DOPE  H17S 2013   0.366   3.519  14.993
   16DOPE  C218 2014   0.567   3.493  14.917
   16DOPE  H18R 2015   0.555   3.576  14.843
   16DOPE  H18S 2016   0.550   3.397  14.865
   16DOPE  H18T 2017   0.672   3.495  14.954
   16DOPE   C33 2018   0.179   3.717  16.164
   16DOPE   H3X 2019   0.161   3.686  16.059
   16DOPE   H3Y 2020   0.289   3.713  16.181
   16DOPE   C34 2021   0.127   3.860  16.181
   16DOPE   H4X 2022   0.017   3.860  16.165
   16DOPE   H4Y 2023   0.146   3.894  16.285
   16DOPE   C35 2024   0.190   3.962  16.085
   16DOPE   H5X 2025   0.139   4.059  16.102
   16DOPE   H5Y 2026   0.169   3.933  15.979
   16DOPE   C36 2027   0.341   3.984  16.104
   16DOPE   H6X 2028   0.369   3.963  16.210
   16DOPE   H6Y 2029   0.363   4.092  16.085
   16DOPE   C37 2030   0.428   3.903  16.008
   16DOPE   H7X 2031   0.417   3.794  16.029
   16DOPE   H7Y 2032   0.392   3.921  15.905
   16DOPE   C38 2033   0.577   3.941  16.018
   16DOPE   H8X 2034   0.612   3.923  16.122
   16DOPE   H8Y 2035   0.586   4.050  16.000
   16DOPE   C39 2036   0.664   3.865  15.920
   16DOPE   H9X 2037   0.724   3.785  15.965
   16DOPE  C310 2038   0.671   3.885  15.788
   16DOPE  H10X 2039   0.740   3.824  15.728
   16DOPE  C311 2040   0.594   3.988  15.709
   16DOPE  H11X 2041   0.544   4.060  15.777
   16DOPE  H11Y 2042   0.663   4.048  15.646
   16DOPE  C312 2043   0.485   3.924  15.621
   16DOPE  H12X 2044   0.414   4.004  15.589
   16DOPE  H12Y 2045   0.427   3.852  15.682
   16DOPE  C313 2046   0.537   3.855  15.494
   16DOPE  H13X 2047   0.624   3.789  15.520
   16DOPE  H13Y 2048   0.457   3.789  15.454
   16DOPE  C314 2049   0.577   3.954  15.385
   16DOPE  H14X 2050   0.660   4.018  15.421
   16DOPE  H14Y 2051   0.491   4.020  15.363
   16DOPE  C315 2052   0.620   3.886  15.254
   16DOPE  H15X 2053   0.538   3.820  15.219
   16DOPE  H15Y 2054   0.709   3.822  15.272
   16DOPE  C316 2055   0.652   3.988  15.144
   16DOPE  H16X 2056   0.736   4.053  15.177
   16DOPE  H16Y 2057   0.564   4.054  15.129
   16DOPE  C317 2058   0.689   3.924  15.010
   16DOPE  H17X 2059   0.778   3.859  15.026
   16DOPE  H17Y 2060   0.605   3.858  14.978
   16DOPE  C318 2061   0.720   4.025  14.900
   16DOPE  H18X 2062   0.745   3.973  14.805
   16DOPE  H18Y 2063   0.633   4.091  14.882
   16DOPE  H18Z 2064   0.807   4.088  14.929
   17DOPE     N 2065   3.048   7.871  17.126
   17DOPE   HN1 2066   2.969   7.822  17.080
   17DOPE   HN2 2067   3.080   7.816  17.208
   17DOPE   HN3 2068   3.023   7.967  17.156
   17DOPE   C12 2069   3.162   7.881  17.028
   17DOPE  H12A 2070   3.256   7.887  17.087
   17DOPE  H12B 2071   3.149   7.975  16.970
   17DOPE   C11 2072   3.164   7.761  16.933
   17DOPE  H11A 2073   3.257   7.770  16.874
   17DOPE  H11B 2074   3.080   7.770  16.860
   17DOPE     P 2075   3.039   7.540  17.004
   17DOPE   O13 2076   3.034   7.468  17.133
   17DOPE   O14 2077   3.049   7.454  16.885
   17DOPE   O11 2078   2.918   7.640  16.995
   17DOPE   O12 2079   3.164   7.637  17.004
   17DOPE    C1 2080   2.797   7.614  17.068
   17DOPE    HA 2081   2.800   7.666  17.166
   17DOPE    HB 2082   2.782   7.506  17.090
   17DOPE    C2 2083   2.669   7.663  16.992
   17DOPE    HS 2084   2.580   7.633  17.051
   17DOPE   O21 2085   2.663   7.606  16.859
   17DOPE   C21 2086   2.639   7.476  16.856
   17DOPE   O22 2087   2.602   7.409  16.952
   17DOPE   C22 2088   2.666   7.420  16.716
   17DOPE   H2R 2089   2.631   7.314  16.716
   17DOPE   H2S 2090   2.776   7.421  16.700
   17DOPE    C3 2091   2.665   7.818  16.980
   17DOPE    HX 2092   2.676   7.862  17.081
   17DOPE    HY 2093   2.564   7.843  16.943
   17DOPE   O31 2094   2.772   7.866  16.894
   17DOPE   C31 2095   2.733   7.943  16.793
   17DOPE   O32 2096   2.630   8.008  16.789
   17DOPE   C32 2097   2.837   7.934  16.680
   17DOPE   H2X 2098   2.899   8.026  16.684
   17DOPE   H2Y 2099   2.902   7.846  16.699
   17DOPE   C23 2100   2.596   7.499  16.602
   17DOPE   H3R 2101   2.631   7.604  16.604
   17DOPE   H3S 2102   2.486   7.499  16.617
   17DOPE   C24 2103   2.626   7.442  16.462
   17DOPE   H4R 2104   2.736   7.430  16.449
   17DOPE   H4S 2105   2.593   7.516  16.386
   17DOPE   C25 2106   2.556   7.308  16.432
   17DOPE   H5R 2107   2.446   7.318  16.448
   17DOPE   H5S 2108   2.593   7.233  16.504
   17DOPE   C26 2109   2.582   7.255  16.290
   17DOPE   H6R 2110   2.559   7.146  16.289
   17DOPE   H6S 2111   2.689   7.266  16.266
   17DOPE   C27 2112   2.497   7.321  16.178
   17DOPE   H7R 2113   2.516   7.430  16.177
   17DOPE   H7S 2114   2.390   7.304  16.200
   17DOPE   C28 2115   2.532   7.262  16.040
   17DOPE   H8R 2116   2.523   7.151  16.047
   17DOPE   H8S 2117   2.640   7.284  16.025
   17DOPE   C29 2118   2.449   7.311  15.924
   17DOPE   H9R 2119   2.340   7.310  15.941
   17DOPE  C210 2120   2.495   7.354  15.804
   17DOPE  H10R 2121   2.422   7.386  15.728
   17DOPE  C211 2122   2.639   7.363  15.760
   17DOPE  H11R 2123   2.708   7.329  15.840
   17DOPE  H11S 2124   2.665   7.470  15.741
   17DOPE  C212 2125   2.677   7.281  15.634
   17DOPE  H12R 2126   2.626   7.182  15.634
   17DOPE  H12S 2127   2.786   7.262  15.642
   17DOPE  C213 2128   2.654   7.353  15.500
   17DOPE  H13R 2129   2.678   7.461  15.513
   17DOPE  H13S 2130   2.548   7.345  15.468
   17DOPE  C214 2131   2.747   7.298  15.390
   17DOPE  H14R 2132   2.721   7.193  15.366
   17DOPE  H14S 2133   2.850   7.297  15.431
   17DOPE  C215 2134   2.750   7.382  15.261
   17DOPE  H15R 2135   2.851   7.374  15.217
   17DOPE  H15S 2136   2.734   7.490  15.286
   17DOPE  C216 2137   2.649   7.337  15.154
   17DOPE  H16R 2138   2.546   7.344  15.193
   17DOPE  H16S 2139   2.669   7.231  15.129
   17DOPE  C217 2140   2.662   7.421  15.026
   17DOPE  H17R 2141   2.770   7.428  15.000
   17DOPE  H17S 2142   2.627   7.524  15.046
   17DOPE  C218 2143   2.587   7.364  14.906
   17DOPE  H18R 2144   2.622   7.261  14.883
   17DOPE  H18S 2145   2.604   7.427  14.816
   17DOPE  H18T 2146   2.478   7.359  14.925
   17DOPE   C33 2147   2.772   7.918  16.540
   17DOPE   H3X 2148   2.720   8.013  16.514
   17DOPE   H3Y 2149   2.696   7.838  16.542
   17DOPE   C34 2150   2.875   7.884  16.431
   17DOPE   H4X 2151   2.959   7.955  16.438
   17DOPE   H4Y 2152   2.916   7.782  16.449
   17DOPE   C35 2153   2.818   7.891  16.288
   17DOPE   H5X 2154   2.767   7.990  16.275
   17DOPE   H5Y 2155   2.741   7.812  16.274
   17DOPE   C36 2156   2.927   7.878  16.181
   17DOPE   H6X 2157   2.976   7.779  16.189
   17DOPE   H6Y 2158   3.005   7.954  16.203
   17DOPE   C37 2159   2.879   7.902  16.037
   17DOPE   H7X 2160   2.817   7.995  16.035
   17DOPE   H7Y 2161   2.967   7.921  15.972
   17DOPE   C38 2162   2.797   7.787  15.974
   17DOPE   H8X 2163   2.754   7.824  15.879
   17DOPE   H8Y 2164   2.710   7.764  16.040
   17DOPE   C39 2165   2.879   7.662  15.952
   17DOPE   H9X 2166   2.911   7.612  16.045
   17DOPE  C310 2167   2.917   7.607  15.835
   17DOPE  H10X 2168   2.977   7.515  15.838
   17DOPE  C311 2169   2.887   7.655  15.695
   17DOPE  H11X 2170   2.824   7.580  15.643
   17DOPE  H11Y 2171   2.831   7.751  15.693
   17DOPE  C312 2172   3.016   7.671  15.612
   17DOPE  H12X 2173   3.082   7.584  15.628
   17DOPE  H12Y 2174   3.070   7.762  15.646
   17DOPE  C313 2175   2.991   7.682  15.460
   17DOPE  H13X 2176   3.090   7.684  15.410
   17DOPE  H13Y 2177   2.938   7.591  15.424
   17DOPE  C314 2178   2.913   7.807  15.416
   17DOPE  H14X 2179   2.942   7.892  15.482
   17DOPE  H14Y 2180   2.805   7.789  15.430
   17DOPE  C315 2181   2.942   7.848  15.271
   17DOPE  H15X 2182   3.049   7.878  15.264
   17DOPE  H15Y 2183   2.881   7.937  15.246
   17DOPE  C316 2184   2.916   7.738  15.167
   17DOPE  H16X 2185   2.809   7.709  15.169
   17DOPE  H16Y 2186   2.976   7.648  15.192
   17DOPE  C317 2187   2.954   7.783  15.025
   17DOPE  H17X 2188   2.889   7.868  14.996
   17DOPE  H17Y 2189   3.059   7.820  15.025
   17DOPE  C318 2190   2.941   7.672  14.920
   17DOPE  H18X 2191   3.011   7.589  14.943
   17DOPE  H18Y 2192   2.837   7.631  14.919
   17DOPE  H18Z 2193   2.964   7.711  14.819
   18DOPE     N 2194   8.314   3.408  17.228
   18DOPE   HN1 2195   8.255   3.493  17.244
   18DOPE   HN2 2196   8.334   3.362  17.319
   18DOPE   HN3 2197   8.404   3.437  17.186
   18DOPE   C12 2198   8.235   3.320  17.135
   18DOPE  H12A 2199   8.149   3.281  17.193
   18DOPE  H12B 2200   8.300   3.235  17.103
   18DOPE   C11 2201   8.184   3.403  17.017
   18DOPE  H11A 2202   8.104   3.348  16.963
   18DOPE  H11B 2203   8.268   3.421  16.946
   18DOPE     P 2204   8.092   3.645  16.975
   18DOPE   O13 2205   8.064   3.757  17.067
   18DOPE   O14 2206   7.986   3.597  16.885
   18DOPE   O11 2207   8.225   3.673  16.895
   18DOPE   O12 2208   8.134   3.525  17.068
   18DOPE    C1 2209   8.350   3.697  16.962
   18DOPE    HA 2210   8.365   3.626  17.046
   18DOPE    HB 2211   8.350   3.799  17.004
   18DOPE    C2 2212   0.024   3.679  16.866
   18DOPE    HS 2213   0.116   3.704  16.922
   18DOPE   O21 2214   0.013   3.763  16.750
   18DOPE   C21 2215   0.012   3.893  16.769
   18DOPE   O22 2216   0.040   3.951  16.873
   18DOPE   C22 2217   8.425   3.959  16.636
   18DOPE   H2R 2218   0.061   3.938  16.567
   18DOPE   H2S 2219   8.419   4.069  16.651
   18DOPE    C3 2220   0.039   3.532  16.814
   18DOPE    HX 2221   0.049   3.465  16.902
   18DOPE    HY 2222   0.133   3.528  16.755
   18DOPE   O31 2223   8.376   3.494  16.732
   18DOPE   C31 2224   8.379   3.373  16.679
   18DOPE   O32 2225   0.010   3.285  16.709
   18DOPE   C32 2226   8.257   3.359  16.588
   18DOPE   H2X 2227   8.173   3.324  16.654
   18DOPE   H2Y 2228   8.229   3.459  16.550
   18DOPE   C23 2229   8.294   3.906  16.573
   18DOPE   H3R 2230   8.207   3.962  16.615
   18DOPE   H3S 2231   8.278   3.799  16.598
   18DOPE   C24 2232   8.294   3.916  16.420
   18DOPE   H4R 2233   8.375   3.851  16.380
   18DOPE   H4S 2234   8.318   4.021  16.391
   18DOPE   C25 2235   8.161   3.875  16.356
   18DOPE   H5R 2236   8.080   3.938  16.399
   18DOPE   H5S 2237   8.137   3.770  16.381
   18DOPE   C26 2238   8.160   3.892  16.203
   18DOPE   H6R 2239   8.224   3.813  16.157
   18DOPE   H6S 2240   8.205   3.990  16.177
   18DOPE   C27 2241   8.019   3.886  16.143
   18DOPE   H7R 2242   7.959   3.971  16.182
   18DOPE   H7S 2243   7.970   3.792  16.178
   18DOPE   C28 2244   8.016   3.887  15.988
   18DOPE   H8R 2245   7.910   3.878  15.956
   18DOPE   H8S 2246   8.067   3.795  15.952
   18DOPE   C29 2247   8.076   4.012  15.929
   18DOPE   H9R 2248   8.036   4.106  15.970
   18DOPE  C210 2249   8.170   4.018  15.832
   18DOPE  H10R 2250   8.202   4.117  15.797
   18DOPE  C211 2251   8.236   3.902  15.762
   18DOPE  H11R 2252   8.240   3.812  15.827
   18DOPE  H11S 2253   8.342   3.928  15.740
   18DOPE  C212 2254   8.165   3.863  15.631
   18DOPE  H12R 2255   8.062   3.829  15.655
   18DOPE  H12S 2256   8.218   3.777  15.585
   18DOPE  C213 2257   8.156   3.976  15.525
   18DOPE  H13R 2258   8.104   4.062  15.571
   18DOPE  H13S 2259   8.093   3.941  15.441
   18DOPE  C214 2260   8.291   4.022  15.469
   18DOPE  H14R 2261   8.362   4.047  15.551
   18DOPE  H14S 2262   8.274   4.116  15.411
   18DOPE  C215 2263   8.355   3.920  15.374
   18DOPE  H15R 2264   8.280   3.893  15.296
   18DOPE  H15S 2265   8.380   3.827  15.429
   18DOPE  C216 2266   0.033   3.972  15.304
   18DOPE  H16R 2267   0.109   3.997  15.381
   18DOPE  H16S 2268   0.008   4.066  15.250
   18DOPE  C217 2269   0.094   3.873  15.204
   18DOPE  H17R 2270   0.118   3.779  15.257
   18DOPE  H17S 2271   0.189   3.915  15.166
   18DOPE  C218 2272   0.004   3.841  15.084
   18DOPE  H18R 2273   8.426   3.934  15.029
   18DOPE  H18S 2274   8.359   3.791  15.116
   18DOPE  H18T 2275   0.056   3.772  15.013
   18DOPE   C33 2276   8.273   3.260  16.469
   18DOPE   H3X 2277   8.171   3.234  16.434
   18DOPE   H3Y 2278   8.324   3.166  16.501
   18DOPE   C34 2279   8.346   3.323  16.349
   18DOPE   H4X 2280   8.304   3.424  16.331
   18DOPE   H4Y 2281   0.005   3.335  16.374
   18DOPE   C35 2282   8.331   3.241  16.220
   18DOPE   H5X 2283   8.223   3.229  16.197
   18DOPE   H5Y 2284   8.374   3.140  16.236
   18DOPE   C36 2285   8.399   3.307  16.099
   18DOPE   H6X 2286   0.060   3.316  16.120
   18DOPE   H6Y 2287   8.359   3.409  16.085
   18DOPE   C37 2288   8.380   3.226  15.969
   18DOPE   H7X 2289   8.414   3.122  15.987
   18DOPE   H7Y 2290   8.271   3.221  15.944
   18DOPE   C38 2291   0.010   3.282  15.849
   18DOPE   H8X 2292   0.006   3.206  15.768
   18DOPE   H8Y 2293   0.117   3.291  15.877
   18DOPE   C39 2294   8.407   3.416  15.800
   18DOPE   H9X 2295   8.432   3.501  15.866
   18DOPE  C310 2296   8.336   3.440  15.688
   18DOPE  H10X 2297   8.307   3.544  15.667
   18DOPE  C311 2298   8.290   3.340  15.585
   18DOPE  H11X 2299   8.348   3.352  15.491
   18DOPE  H11Y 2300   8.307   3.236  15.620
   18DOPE  C312 2301   8.139   3.353  15.552
   18DOPE  H12X 2302   8.081   3.350  15.647
   18DOPE  H12Y 2303   8.108   3.264  15.493
   18DOPE  C313 2304   8.101   3.479  15.473
   18DOPE  H13X 2305   7.991   3.493  15.479
   18DOPE  H13Y 2306   8.149   3.568  15.519
   18DOPE  C314 2307   8.140   3.472  15.324
   18DOPE  H14X 2308   8.072   3.401  15.272
   18DOPE  H14Y 2309   8.243   3.432  15.315
   18DOPE  C315 2310   8.136   3.609  15.253
   18DOPE  H15X 2311   8.159   3.593  15.145
   18DOPE  H15Y 2312   8.216   3.673  15.295
   18DOPE  C316 2313   8.002   3.681  15.265
   18DOPE  H16X 2314   7.983   3.707  15.371
   18DOPE  H16Y 2315   7.921   3.613  15.232
   18DOPE  C317 2316   7.995   3.810  15.181
   18DOPE  H17X 2317   8.081   3.875  15.207
   18DOPE  H17Y 2318   8.004   3.783  15.074
   18DOPE  C318 2319   7.866   3.889  15.203
   18DOPE  H18X 2320   7.777   3.827  15.177
   18DOPE  H18Y 2321   7.857   3.920  15.309
   18DOPE  H18Z 2322   7.864   3.980  15.139
   19DOPE     N 2323   8.321   4.750  17.087
   19DOPE   HN1 2324   8.254   4.686  17.135
   19DOPE   HN2 2325   8.418   4.725  17.115
   19DOPE   HN3 2326   8.302   4.849  17.115
   19DOPE   C12 2327   8.295   4.732  16.940
   19DOPE  H12A 2328   8.352   4.643  16.907
   19DOPE  H12B 2329   8.333   4.822  16.886
   19DOPE   C11 2330   8.145   4.711  16.918
   19DOPE  H11A 2331   8.125   4.693  16.810
   19DOPE  H11B 2332   8.090   4.805  16.943
   19DOPE     P 2333   8.101   4.455  16.948
   19DOPE   O13 2334   8.029   4.369  17.045
   19DOPE   O14 2335   8.244   4.425  16.924
   19DOPE   O11 2336   8.021   4.464  16.812
   19DOPE   O12 2337   8.095   4.605  17.001
   19DOPE    C1 2338   7.878   4.453  16.820
   19DOPE    HA 2339   7.835   4.529  16.889
   19DOPE    HB 2340   7.852   4.353  16.860
   19DOPE    C2 2341   7.803   4.466  16.683
   19DOPE    HS 2342   7.703   4.419  16.695
   19DOPE   O21 2343   7.876   4.404  16.576
   19DOPE   C21 2344   7.882   4.272  16.581
   19DOPE   O22 2345   7.835   4.202  16.668
   19DOPE   C22 2346   7.943   4.219  16.451
   19DOPE   H2R 2347   7.897   4.273  16.365
   19DOPE   H2S 2348   7.914   4.112  16.445
   19DOPE    C3 2349   7.775   4.615  16.645
   19DOPE    HX 2350   7.736   4.667  16.735
   19DOPE    HY 2351   7.694   4.618  16.570
   19DOPE   O31 2352   7.894   4.684  16.601
   19DOPE   C31 2353   7.917   4.674  16.469
   19DOPE   O32 2354   7.841   4.624  16.388
   19DOPE   C32 2355   8.053   4.734  16.438
   19DOPE   H2X 2356   8.061   4.832  16.489
   19DOPE   H2Y 2357   8.129   4.665  16.481
   19DOPE   C23 2358   8.097   4.229  16.443
   19DOPE   H3R 2359   8.131   4.157  16.366
   19DOPE   H3S 2360   8.145   4.200  16.539
   19DOPE   C24 2361   8.148   4.367  16.397
   19DOPE   H4R 2362   8.128   4.442  16.476
   19DOPE   H4S 2363   8.091   4.396  16.307
   19DOPE   C25 2364   8.299   4.365  16.365
   19DOPE   H5R 2365   8.321   4.276  16.301
   19DOPE   H5S 2366   8.355   4.352  16.460
   19DOPE   C26 2367   8.351   4.490  16.292
   19DOPE   H6R 2368   0.013   4.486  16.290
   19DOPE   H6S 2369   8.321   4.581  16.349
   19DOPE   C27 2370   8.300   4.501  16.147
   19DOPE   H7R 2371   8.189   4.509  16.148
   19DOPE   H7S 2372   8.325   4.408  16.092
   19DOPE   C28 2373   8.355   4.623  16.070
   19DOPE   H8R 2374   8.342   4.714  16.132
   19DOPE   H8S 2375   8.292   4.638  15.980
   19DOPE   C29 2376   0.052   4.607  16.031
   19DOPE   H9R 2377   0.124   4.635  16.110
   19DOPE  C210 2378   0.099   4.561  15.914
   19DOPE  H10R 2379   0.208   4.554  15.900
   19DOPE  C211 2380   0.017   4.516  15.795
   19DOPE  H11R 2381   8.360   4.551  15.799
   19DOPE  H11S 2382   0.013   4.405  15.794
   19DOPE  C212 2383   0.078   4.561  15.660
   19DOPE  H12R 2384   0.025   4.508  15.578
   19DOPE  H12S 2385   0.184   4.529  15.656
   19DOPE  C213 2386   0.071   4.713  15.635
   19DOPE  H13R 2387   0.140   4.737  15.551
   19DOPE  H13S 2388   0.107   4.767  15.724
   19DOPE  C214 2389   8.381   4.767  15.594
   19DOPE  H14R 2390   8.392   4.876  15.575
   19DOPE  H14S 2391   8.309   4.754  15.678
   19DOPE  C215 2392   8.323   4.701  15.467
   19DOPE  H15R 2393   8.261   4.614  15.497
   19DOPE  H15S 2394   8.407   4.663  15.404
   19DOPE  C216 2395   8.240   4.798  15.381
   19DOPE  H16R 2396   8.308   4.872  15.334
   19DOPE  H16S 2397   8.170   4.854  15.446
   19DOPE  C217 2398   8.160   4.726  15.272
   19DOPE  H17R 2399   8.086   4.659  15.322
   19DOPE  H17S 2400   8.228   4.661  15.213
   19DOPE  C218 2401   8.086   4.821  15.178
   19DOPE  H18R 2402   8.018   4.888  15.236
   19DOPE  H18S 2403   8.025   4.764  15.105
   19DOPE  H18T 2404   8.158   4.885  15.123
   19DOPE   C33 2405   8.076   4.750  16.286
   19DOPE   H3X 2406   8.055   4.656  16.232
   19DOPE   H3Y 2407   8.183   4.775  16.271
   19DOPE   C34 2408   7.992   4.864  16.227
   19DOPE   H4X 2409   7.885   4.836  16.221
   19DOPE   H4Y 2410   8.001   4.949  16.298
   19DOPE   C35 2411   8.041   4.912  16.090
   19DOPE   H5X 2412   8.152   4.921  16.092
   19DOPE   H5Y 2413   8.001   5.013  16.070
   19DOPE   C36 2414   7.998   4.822  15.973
   19DOPE   H6X 2415   7.887   4.820  15.968
   19DOPE   H6Y 2416   8.033   4.718  15.991
   19DOPE   C37 2417   8.055   4.871  15.839
   19DOPE   H7X 2418   8.034   4.980  15.828
   19DOPE   H7Y 2419   8.165   4.860  15.843
   19DOPE   C38 2420   8.001   4.795  15.717
   19DOPE   H8X 2421   8.014   4.686  15.735
   19DOPE   H8Y 2422   8.067   4.819  15.630
   19DOPE   C39 2423   7.859   4.832  15.682
   19DOPE   H9X 2424   7.847   4.935  15.646
   19DOPE  C310 2425   7.750   4.754  15.692
   19DOPE  H10X 2426   7.652   4.797  15.663
   19DOPE  C311 2427   7.744   4.611  15.740
   19DOPE  H11X 2428   7.840   4.577  15.783
   19DOPE  H11Y 2429   7.669   4.605  15.822
   19DOPE  C312 2430   7.701   4.512  15.630
   19DOPE  H12X 2431   7.604   4.544  15.586
   19DOPE  H12Y 2432   7.684   4.413  15.677
   19DOPE  C313 2433   7.802   4.494  15.515
   19DOPE  H13X 2434   7.755   4.426  15.441
   19DOPE  H13Y 2435   7.821   4.591  15.465
   19DOPE  C314 2436   7.936   4.432  15.559
   19DOPE  H14X 2437   7.923   4.387  15.660
   19DOPE  H14Y 2438   8.013   4.511  15.568
   19DOPE  C315 2439   7.985   4.321  15.464
   19DOPE  H15X 2440   7.906   4.243  15.458
   19DOPE  H15Y 2441   8.076   4.274  15.508
   19DOPE  C316 2442   8.018   4.369  15.322
   19DOPE  H16X 2443   8.110   4.431  15.326
   19DOPE  H16Y 2444   7.936   4.433  15.284
   19DOPE  C317 2445   8.039   4.252  15.225
   19DOPE  H17X 2446   8.118   4.185  15.264
   19DOPE  H17Y 2447   7.945   4.193  15.220
   19DOPE  C318 2448   8.076   4.298  15.083
   19DOPE  H18X 2449   7.997   4.364  15.042
   19DOPE  H18Y 2450   8.172   4.353  15.084
   19DOPE  H18Z 2451   8.087   4.210  15.016
   20DOPE     N 2452   7.003   7.546  17.017
   20DOPE   HN1 2453   7.098   7.583  17.037
   20DOPE   HN2 2454   7.002   7.442  17.021
   20DOPE   HN3 2455   6.976   7.576  16.921
   20DOPE   C12 2456   6.909   7.602  17.120
   20DOPE  H12A 2457   6.890   7.709  17.095
   20DOPE  H12B 2458   6.959   7.596  17.219
   20DOPE   C11 2459   6.777   7.523  17.123
   20DOPE  H11A 2460   6.709   7.568  17.199
   20DOPE  H11B 2461   6.799   7.420  17.158
   20DOPE     P 2462   6.651   7.396  16.934
   20DOPE   O13 2463   6.576   7.328  17.042
   20DOPE   O14 2464   6.762   7.319  16.873
   20DOPE   O11 2465   6.549   7.451  16.826
   20DOPE   O12 2466   6.713   7.528  16.995
   20DOPE    C1 2467   6.425   7.507  16.873
   20DOPE    HA 2468   6.440   7.574  16.960
   20DOPE    HB 2469   6.357   7.425  16.905
   20DOPE    C2 2470   6.350   7.592  16.764
   20DOPE    HS 2471   6.247   7.611  16.801
   20DOPE   O21 2472   6.345   7.522  16.638
   20DOPE   C21 2473   6.268   7.415  16.637
   20DOPE   O22 2474   6.182   7.388  16.720
   20DOPE   C22 2475   6.300   7.331  16.514
   20DOPE   H2R 2476   6.303   7.225  16.548
   20DOPE   H2S 2477   6.401   7.357  16.477
   20DOPE    C3 2478   6.416   7.731  16.741
   20DOPE    HX 2479   6.415   7.786  16.838
   20DOPE    HY 2480   6.353   7.785  16.668
   20DOPE   O31 2481   6.551   7.717  16.693
   20DOPE   C31 2482   6.610   7.825  16.649
   20DOPE   O32 2483   6.564   7.940  16.654
   20DOPE   C32 2484   6.748   7.790  16.593
   20DOPE   H2X 2485   6.793   7.886  16.557
   20DOPE   H2Y 2486   6.809   7.750  16.676
   20DOPE   C23 2487   6.195   7.344  16.401
   20DOPE   H3R 2488   6.095   7.310  16.437
   20DOPE   H3S 2489   6.225   7.274  16.319
   20DOPE   C24 2490   6.182   7.485  16.340
   20DOPE   H4R 2491   6.133   7.552  16.413
   20DOPE   H4S 2492   6.117   7.478  16.250
   20DOPE   C25 2493   6.316   7.547  16.298
   20DOPE   H5R 2494   6.376   7.471  16.244
   20DOPE   H5S 2495   6.373   7.576  16.390
   20DOPE   C26 2496   6.301   7.671  16.208
   20DOPE   H6R 2497   6.221   7.737  16.246
   20DOPE   H6S 2498   6.271   7.637  16.107
   20DOPE   C27 2499   6.433   7.751  16.198
   20DOPE   H7R 2500   6.517   7.679  16.192
   20DOPE   H7S 2501   6.447   7.809  16.292
   20DOPE   C28 2502   6.443   7.842  16.075
   20DOPE   H8R 2503   6.443   7.777  15.985
   20DOPE   H8S 2504   6.542   7.892  16.077
   20DOPE   C29 2505   6.335   7.947  16.068
   20DOPE   H9R 2506   6.328   8.013  16.155
   20DOPE  C210 2507   6.248   7.964  15.966
   20DOPE  H10R 2508   6.174   8.045  15.972
   20DOPE  C211 2509   6.243   7.881  15.840
   20DOPE  H11R 2510   6.142   7.889  15.794
   20DOPE  H11S 2511   6.259   7.773  15.862
   20DOPE  C212 2512   6.346   7.926  15.735
   20DOPE  H12R 2513   6.448   7.898  15.769
   20DOPE  H12S 2514   6.343   8.036  15.724
   20DOPE  C213 2515   6.320   7.865  15.596
   20DOPE  H13R 2516   6.401   7.898  15.528
   20DOPE  H13S 2517   6.225   7.905  15.556
   20DOPE  C214 2518   6.312   7.711  15.594
   20DOPE  H14R 2519   6.222   7.680  15.651
   20DOPE  H14S 2520   6.402   7.667  15.644
   20DOPE  C215 2521   6.301   7.656  15.451
   20DOPE  H15R 2522   6.229   7.718  15.395
   20DOPE  H15S 2523   6.260   7.553  15.454
   20DOPE  C216 2524   6.436   7.651  15.378
   20DOPE  H16R 2525   6.494   7.564  15.415
   20DOPE  H16S 2526   6.495   7.742  15.402
   20DOPE  C217 2527   6.423   7.643  15.225
   20DOPE  H17R 2528   6.352   7.562  15.199
   20DOPE  H17S 2529   6.522   7.615  15.183
   20DOPE  C218 2530   6.378   7.774  15.160
   20DOPE  H18R 2531   6.452   7.855  15.182
   20DOPE  H18S 2532   6.279   7.806  15.199
   20DOPE  H18T 2533   6.371   7.764  15.050
   20DOPE   C33 2534   6.746   7.689  16.476
   20DOPE   H3X 2535   6.843   7.697  16.422
   20DOPE   H3Y 2536   6.666   7.712  16.402
   20DOPE   C34 2537   6.734   7.543  16.522
   20DOPE   H4X 2538   6.804   7.527  16.607
   20DOPE   H4Y 2539   6.632   7.523  16.561
   20DOPE   C35 2540   6.769   7.440  16.413
   20DOPE   H5X 2541   6.774   7.339  16.461
   20DOPE   H5Y 2542   6.869   7.463  16.372
   20DOPE   C36 2543   6.667   7.432  16.299
   20DOPE   H6X 2544   6.661   7.531  16.247
   20DOPE   H6Y 2545   6.567   7.410  16.343
   20DOPE   C37 2546   6.700   7.324  16.195
   20DOPE   H7X 2547   6.787   7.355  16.134
   20DOPE   H7Y 2548   6.729   7.232  16.250
   20DOPE   C38 2549   6.581   7.286  16.103
   20DOPE   H8X 2550   6.496   7.255  16.168
   20DOPE   H8Y 2551   6.611   7.195  16.047
   20DOPE   C39 2552   6.536   7.396  16.010
   20DOPE   H9X 2553   6.504   7.488  16.061
   20DOPE  C310 2554   6.530   7.393  15.875
   20DOPE  H10X 2555   6.493   7.482  15.823
   20DOPE  C311 2556   6.569   7.279  15.784
   20DOPE  H11X 2557   6.642   7.316  15.709
   20DOPE  H11Y 2558   6.619   7.197  15.839
   20DOPE  C312 2559   6.450   7.217  15.707
   20DOPE  H12X 2560   6.377   7.171  15.778
   20DOPE  H12Y 2561   6.490   7.135  15.645
   20DOPE  C313 2562   6.376   7.316  15.615
   20DOPE  H13X 2563   6.300   7.371  15.675
   20DOPE  H13Y 2564   6.448   7.391  15.577
   20DOPE  C314 2565   6.307   7.250  15.494
   20DOPE  H14X 2566   6.238   7.323  15.449
   20DOPE  H14Y 2567   6.247   7.163  15.528
   20DOPE  C315 2568   6.408   7.206  15.386
   20DOPE  H15X 2569   6.466   7.119  15.422
   20DOPE  H15Y 2570   6.479   7.289  15.370
   20DOPE  C316 2571   6.344   7.172  15.250
   20DOPE  H16X 2572   6.425   7.152  15.177
   20DOPE  H16Y 2573   6.288   7.261  15.213
   20DOPE  C317 2574   6.250   7.051  15.253
   20DOPE  H17X 2575   6.304   6.965  15.297
   20DOPE  H17Y 2576   6.163   7.073  15.318
   20DOPE  C318 2577   6.200   7.011  15.114
   20DOPE  H18X 2578   6.144   7.095  15.067
   20DOPE  H18Y 2579   6.286   6.985  15.048
   20DOPE  H18Z 2580   6.133   6.923  15.120
   21DOPE     N 2581   3.705   8.051  16.850
   21DOPE   HN1 2582   3.736   8.054  16.751
   21DOPE   HN2 2583   3.751   7.971  16.898
   21DOPE   HN3 2584   3.603   8.036  16.857
   21DOPE   C12 2585   3.739   8.177  16.926
   21DOPE  H12A 2586   3.726   8.263  16.857
   21DOPE  H12B 2587   3.845   8.169  16.957
   21DOPE   C11 2588   3.648   8.193  17.050
   21DOPE  H11A 2589   3.700   8.264  17.118
   21DOPE  H11B 2590   3.637   8.098  17.105
   21DOPE     P 2591   3.397   8.168  16.965
   21DOPE   O13 2592   3.292   8.163  17.069
   21DOPE   O14 2593   3.448   8.039  16.914
   21DOPE   O11 2594   3.347   8.254  16.842
   21DOPE   O12 2595   3.521   8.251  17.017
   21DOPE    C1 2596   3.442   8.304  16.748
   21DOPE    HA 2597   3.491   8.221  16.693
   21DOPE    HB 2598   3.519   8.366  16.798
   21DOPE    C2 2599   3.374   8.395  16.642
   21DOPE    HS 2600   3.317   0.023  16.699
   21DOPE   O21 2601   3.289   8.314  16.558
   21DOPE   C21 2602   3.160   8.324  16.580
   21DOPE   O22 2603   3.105   8.408  16.649
   21DOPE   C22 2604   3.087   8.211  16.506
   21DOPE   H2R 2605   3.071   8.131  16.580
   21DOPE   H2S 2606   3.153   8.172  16.425
   21DOPE    C3 2607   3.476   0.026  16.555
   21DOPE    HX 2608   3.544   0.084  16.621
   21DOPE    HY 2609   3.417   0.101  16.498
   21DOPE   O31 2610   3.550   8.396  16.459
   21DOPE   C31 2611   3.666   8.344  16.496
   21DOPE   O32 2612   3.710   8.343  16.610
   21DOPE   C32 2613   3.741   8.288  16.376
   21DOPE   H2X 2614   3.849   8.312  16.391
   21DOPE   H2Y 2615   3.730   8.178  16.376
   21DOPE   C23 2616   2.951   8.257  16.448
   21DOPE   H3R 2617   2.893   8.312  16.526
   21DOPE   H3S 2618   2.891   8.168  16.420
   21DOPE   C24 2619   2.964   8.344  16.322
   21DOPE   H4R 2620   3.033   8.429  16.343
   21DOPE   H4S 2621   2.864   8.388  16.298
   21DOPE   C25 2622   3.014   8.268  16.199
   21DOPE   H5R 2623   2.945   8.183  16.178
   21DOPE   H5S 2624   3.115   8.226  16.218
   21DOPE   C26 2625   3.020   8.357  16.074
   21DOPE   H6R 2626   3.090   8.442  16.093
   21DOPE   H6S 2627   2.919   8.400  16.056
   21DOPE   C27 2628   3.064   8.282  15.947
   21DOPE   H7R 2629   3.053   8.350  15.860
   21DOPE   H7S 2630   2.995   8.197  15.930
   21DOPE   C28 2631   3.209   8.228  15.949
   21DOPE   H8R 2632   3.225   8.172  15.855
   21DOPE   H8S 2633   3.218   8.153  16.031
   21DOPE   C29 2634   3.314   8.335  15.965
   21DOPE   H9R 2635   3.347   8.352  16.069
   21DOPE  C210 2636   3.369   8.410  15.867
   21DOPE  H10R 2637   3.444   0.037  15.893
   21DOPE  C211 2638   3.334   8.401  15.720
   21DOPE  H11R 2639   3.287   8.304  15.695
   21DOPE  H11S 2640   3.426   8.409  15.658
   21DOPE  C212 2641   3.237   0.066  15.682
   21DOPE  H12R 2642   3.288   0.164  15.695
   21DOPE  H12S 2643   3.151   0.064  15.752
   21DOPE  C213 2644   3.178   0.059  15.540
   21DOPE  H13R 2645   3.259   0.074  15.465
   21DOPE  H13S 2646   3.106   0.143  15.528
   21DOPE  C214 2647   3.105   8.376  15.511
   21DOPE  H14R 2648   3.038   8.353  15.597
   21DOPE  H14S 2649   3.178   8.293  15.502
   21DOPE  C215 2650   3.020   8.381  15.383
   21DOPE  H15R 2651   3.086   8.400  15.296
   21DOPE  H15S 2652   2.949   0.018  15.391
   21DOPE  C216 2653   2.941   8.251  15.361
   21DOPE  H16R 2654   2.878   8.231  15.450
   21DOPE  H16S 2655   3.014   8.167  15.351
   21DOPE  C217 2656   2.851   8.253  15.237
   21DOPE  H17R 2657   2.805   8.152  15.225
   21DOPE  H17S 2658   2.914   8.270  15.147
   21DOPE  C218 2659   2.739   8.357  15.240
   21DOPE  H18R 2660   2.675   8.343  15.330
   21DOPE  H18S 2661   2.675   8.349  15.150
   21DOPE  H18T 2662   2.781   0.012  15.243
   21DOPE   C33 2663   3.697   8.345  16.238
   21DOPE   H3X 2664   3.692   0.008  16.244
   21DOPE   H3Y 2665   3.596   8.308  16.213
   21DOPE   C34 2666   3.795   8.310  16.125
   21DOPE   H4X 2667   3.756   8.352  16.030
   21DOPE   H4Y 2668   3.892   8.360  16.146
   21DOPE   C35 2669   3.823   8.159  16.107
   21DOPE   H5X 2670   3.874   8.121  16.198
   21DOPE   H5Y 2671   3.894   8.146  16.022
   21DOPE   C36 2672   3.698   8.073  16.080
   21DOPE   H6X 2673   3.627   8.083  16.165
   21DOPE   H6Y 2674   3.731   7.966  16.078
   21DOPE   C37 2675   3.627   8.106  15.948
   21DOPE   H7X 2676   3.595   8.213  15.952
   21DOPE   H7Y 2677   3.698   8.096  15.864
   21DOPE   C38 2678   3.502   8.020  15.922
   21DOPE   H8X 2679   3.446   8.069  15.839
   21DOPE   H8Y 2680   3.436   8.026  16.012
   21DOPE   C39 2681   3.534   7.876  15.890
   21DOPE   H9X 2682   3.612   7.831  15.952
   21DOPE  C310 2683   3.477   7.801  15.794
   21DOPE  H10X 2684   3.512   7.698  15.779
   21DOPE  C311 2685   3.368   7.844  15.698
   21DOPE  H11X 2686   3.292   7.764  15.690
   21DOPE  H11Y 2687   3.314   7.935  15.735
   21DOPE  C312 2688   3.422   7.874  15.557
   21DOPE  H12X 2689   3.472   7.783  15.516
   21DOPE  H12Y 2690   3.498   7.955  15.563
   21DOPE  C313 2691   3.311   7.917  15.460
   21DOPE  H13X 2692   3.231   7.841  15.464
   21DOPE  H13Y 2693   3.267   8.013  15.495
   21DOPE  C314 2694   3.358   7.931  15.314
   21DOPE  H14X 2695   3.270   7.954  15.251
   21DOPE  H14Y 2696   3.398   7.833  15.281
   21DOPE  C315 2697   3.465   8.039  15.290
   21DOPE  H15X 2698   3.491   8.038  15.182
   21DOPE  H15Y 2699   3.557   8.014  15.347
   21DOPE  C316 2700   3.419   8.180  15.328
   21DOPE  H16X 2701   3.403   8.186  15.438
   21DOPE  H16Y 2702   3.322   8.202  15.279
   21DOPE  C317 2703   3.521   8.288  15.287
   21DOPE  H17X 2704   3.618   8.265  15.335
   21DOPE  H17Y 2705   3.535   8.283  15.177
   21DOPE  C318 2706   3.477   8.429  15.326
   21DOPE  H18X 2707   3.381   0.006  15.278
   21DOPE  H18Y 2708   3.465   8.437  15.436
   21DOPE  H18Z 2709   3.553   0.056  15.294
   22DOPE     N 2710   8.111   5.344  16.967
   22DOPE   HN1 2711   8.027   5.288  16.992
   22DOPE   HN2 2712   8.091   5.401  16.882
   22DOPE   HN3 2713   8.191   5.281  16.947
   22DOPE   C12 2714   8.158   5.434  17.079
   22DOPE  H12A 2715   8.188   5.367  17.162
   22DOPE  H12B 2716   8.073   5.497  17.112
   22DOPE   C11 2717   8.279   5.520  17.035
   22DOPE  H11A 2718   8.345   5.539  17.122
   22DOPE  H11B 2719   8.240   5.619  17.004
   22DOPE     P 2720   8.446   5.339  16.938
   22DOPE   O13 2721   8.356   5.225  16.969
   22DOPE   O14 2722   0.106   5.368  17.034
   22DOPE   O11 2723   0.051   5.325  16.790
   22DOPE   O12 2724   8.352   5.465  16.925
   22DOPE    C1 2725   8.401   5.331  16.684
   22DOPE    HA 2726   8.357   5.432  16.676
   22DOPE    HB 2727   8.319   5.258  16.703
   22DOPE    C2 2728   0.014   5.294  16.546
   22DOPE    HS 2729   0.106   5.235  16.568
   22DOPE   O21 2730   0.043   5.415  16.472
   22DOPE   C21 2731   0.137   5.396  16.379
   22DOPE   O22 2732   0.207   5.296  16.370
   22DOPE   C22 2733   0.144   5.513  16.282
   22DOPE   H2R 2734   0.232   5.576  16.308
   22DOPE   H2S 2735   0.052   5.576  16.292
   22DOPE    C3 2736   8.365   5.202  16.465
   22DOPE    HX 2737   8.373   5.100  16.507
   22DOPE    HY 2738   8.402   5.198  16.360
   22DOPE   O31 2739   8.228   5.248  16.475
   22DOPE   C31 2740   8.147   5.201  16.379
   22DOPE   O32 2741   8.185   5.137  16.283
   22DOPE   C32 2742   8.002   5.234  16.415
   22DOPE   H2X 2743   7.971   5.159  16.492
   22DOPE   H2Y 2744   7.997   5.335  16.461
   22DOPE   C23 2745   0.158   5.461  16.137
   22DOPE   H3R 2746   0.071   5.397  16.112
   22DOPE   H3S 2747   0.249   5.399  16.129
   22DOPE   C24 2748   0.167   5.571  16.029
   22DOPE   H4R 2749   0.253   5.638  16.052
   22DOPE   H4S 2750   0.075   5.633  16.030
   22DOPE   C25 2751   0.187   5.508  15.890
   22DOPE   H5R 2752   0.101   5.443  15.868
   22DOPE   H5S 2753   0.278   5.444  15.894
   22DOPE   C26 2754   0.205   5.608  15.775
   22DOPE   H6R 2755   0.229   5.549  15.684
   22DOPE   H6S 2756   0.291   5.675  15.795
   22DOPE   C27 2757   0.080   5.692  15.744
   22DOPE   H7R 2758   0.081   5.785  15.806
   22DOPE   H7S 2759   8.439   5.634  15.774
   22DOPE   C28 2760   0.064   5.726  15.594
   22DOPE   H8R 2761   8.416   5.781  15.581
   22DOPE   H8S 2762   0.054   5.631  15.539
   22DOPE   C29 2763   0.178   5.807  15.537
   22DOPE   H9R 2764   0.265   5.821  15.603
   22DOPE  C210 2765   0.179   5.862  15.414
   22DOPE  H10R 2766   0.267   5.919  15.381
   22DOPE  C211 2767   0.067   5.851  15.313
   22DOPE  H11R 2768   8.430   5.915  15.346
   22DOPE  H11S 2769   0.029   5.747  15.307
   22DOPE  C212 2770   0.109   5.898  15.172
   22DOPE  H12R 2771   0.188   5.830  15.132
   22DOPE  H12S 2772   0.152   6.000  15.180
   22DOPE  C213 2773   8.440   5.904  15.073
   22DOPE  H13R 2774   0.026   5.956  14.981
   22DOPE  H13S 2775   8.359   5.965  15.117
   22DOPE  C214 2776   8.386   5.766  15.032
   22DOPE  H14R 2777   8.354   5.711  15.123
   22DOPE  H14S 2778   0.019   5.708  14.984
   22DOPE  C215 2779   8.266   5.773  14.936
   22DOPE  H15R 2780   8.238   5.669  14.908
   22DOPE  H15S 2781   8.295   5.826  14.842
   22DOPE  C216 2782   8.143   5.841  14.998
   22DOPE  H16R 2783   8.159   5.951  15.004
   22DOPE  H16S 2784   8.133   5.803  15.102
   22DOPE  C217 2785   8.010   5.812  14.925
   22DOPE  H17R 2786   7.927   5.851  14.987
   22DOPE  H17S 2787   7.998   5.702  14.919
   22DOPE  C218 2788   7.999   5.872  14.785
   22DOPE  H18R 2789   8.085   5.842  14.721
   22DOPE  H18S 2790   7.996   5.983  14.790
   22DOPE  H18T 2791   7.905   5.839  14.736
   22DOPE   C33 2792   7.904   5.226  16.296
   22DOPE   H3X 2793   7.800   5.231  16.335
   22DOPE   H3Y 2794   7.913   5.127  16.245
   22DOPE   C34 2795   7.922   5.336  16.191
   22DOPE   H4X 2796   7.893   5.434  16.235
   22DOPE   H4Y 2797   8.029   5.341  16.161
   22DOPE   C35 2798   7.837   5.310  16.066
   22DOPE   H5X 2799   7.731   5.300  16.096
   22DOPE   H5Y 2800   7.869   5.213  16.021
   22DOPE   C36 2801   7.847   5.420  15.959
   22DOPE   H6X 2802   7.822   5.517  16.007
   22DOPE   H6Y 2803   7.771   5.401  15.881
   22DOPE   C37 2804   7.985   5.433  15.892
   22DOPE   H7X 2805   7.981   5.519  15.822
   22DOPE   H7Y 2806   8.061   5.456  15.969
   22DOPE   C38 2807   8.032   5.309  15.812
   22DOPE   H8X 2808   8.047   5.225  15.883
   22DOPE   H8Y 2809   8.132   5.332  15.770
   22DOPE   C39 2810   7.939   5.266  15.701
   22DOPE   H9X 2811   7.877   5.178  15.724
   22DOPE  C310 2812   7.926   5.325  15.580
   22DOPE  H10X 2813   7.855   5.283  15.508
   22DOPE  C311 2814   8.002   5.446  15.531
   22DOPE  H11X 2815   7.932   5.517  15.483
   22DOPE  H11Y 2816   8.049   5.501  15.616
   22DOPE  C312 2817   8.115   5.413  15.432
   22DOPE  H12X 2818   8.187   5.344  15.480
   22DOPE  H12Y 2819   8.170   5.507  15.409
   22DOPE  C313 2820   8.066   5.353  15.299
   22DOPE  H13X 2821   8.021   5.253  15.315
   22DOPE  H13Y 2822   7.986   5.420  15.261
   22DOPE  C314 2823   8.175   5.345  15.190
   22DOPE  H14X 2824   8.241   5.433  15.196
   22DOPE  H14Y 2825   8.124   5.349  15.092
   22DOPE  C315 2826   8.258   5.215  15.190
   22DOPE  H15X 2827   8.320   5.214  15.098
   22DOPE  H15Y 2828   8.188   5.128  15.183
   22DOPE  C316 2829   8.352   5.193  15.310
   22DOPE  H16X 2830   8.409   5.099  15.292
   22DOPE  H16Y 2831   8.291   5.176  15.401
   22DOPE  C317 2832   0.004   5.306  15.336
   22DOPE  H17X 2833   8.397   5.399  15.361
   22DOPE  H17Y 2834   0.064   5.279  15.425
   22DOPE  C318 2835   0.099   5.335  15.219
   22DOPE  H18X 2836   0.172   5.414  15.247
   22DOPE  H18Y 2837   0.156   5.243  15.191
   22DOPE  H18Z 2838   0.043   5.369  15.130
   23DOPE     N 2839   5.262   8.171  17.242
   23DOPE   HN1 2840   5.212   8.171  17.333
   23DOPE   HN2 2841   5.363   8.159  17.263
   23DOPE   HN3 2842   5.248   8.262  17.194
   23DOPE   C12 2843   5.216   8.066  17.145
   23DOPE  H12A 2844   5.106   8.077  17.133
   23DOPE  H12B 2845   5.239   7.966  17.187
   23DOPE   C11 2846   5.287   8.089  17.010
   23DOPE  H11A 2847   5.248   8.018  16.934
   23DOPE  H11B 2848   5.395   8.066  17.022
   23DOPE     P 2849   5.149   8.269  16.882
   23DOPE   O13 2850   5.035   8.268  16.977
   23DOPE   O14 2851   5.141   8.181  16.764
   23DOPE   O11 2852   5.183   8.418  16.841
   23DOPE   O12 2853   5.275   8.226  16.968
   23DOPE    C1 2854   5.174   0.075  16.937
   23DOPE    HA 2855   5.198   0.040  17.040
   23DOPE    HB 2856   5.070   0.114  16.938
   23DOPE    C2 2857   5.271   0.194  16.906
   23DOPE    HS 2858   5.253   0.273  16.982
   23DOPE   O21 2859   5.248   0.244  16.774
   23DOPE   C21 2860   5.145   0.325  16.759
   23DOPE   O22 2861   5.077   0.372  16.849
   23DOPE   C22 2862   5.130   0.359  16.611
   23DOPE   H2R 2863   5.229   0.345  16.562
   23DOPE   H2S 2864   5.102   0.466  16.603
   23DOPE    C3 2865   5.421   0.154  16.920
   23DOPE    HX 2866   5.437   0.122  17.026
   23DOPE    HY 2867   5.484   0.244  16.904
   23DOPE   O31 2868   5.460   0.045  16.834
   23DOPE   C31 2869   5.494   0.078  16.710
   23DOPE   O32 2870   5.518   0.191  16.672
   23DOPE   C32 2871   5.513   8.400  16.627
   23DOPE   H2X 2872   5.622   8.384  16.617
   23DOPE   H2Y 2873   5.468   8.314  16.681
   23DOPE   C23 2874   5.025   0.271  16.541
   23DOPE   H3R 2875   4.923   0.297  16.577
   23DOPE   H3S 2876   5.043   0.164  16.567
   23DOPE   C24 2877   5.031   0.283  16.388
   23DOPE   H4R 2878   5.131   0.251  16.353
   23DOPE   H4S 2879   5.016   0.389  16.359
   23DOPE   C25 2880   4.924   0.196  16.320
   23DOPE   H5R 2881   4.824   0.239  16.340
   23DOPE   H5S 2882   4.927   0.095  16.365
   23DOPE   C26 2883   4.942   0.181  16.168
   23DOPE   H6R 2884   4.858   0.119  16.131
   23DOPE   H6S 2885   5.036   0.127  16.146
   23DOPE   C27 2886   4.943   0.315  16.091
   23DOPE   H7R 2887   5.038   0.368  16.114
   23DOPE   H7S 2888   4.859   0.378  16.128
   23DOPE   C28 2889   4.932   0.297  15.938
   23DOPE   H8R 2890   5.013   0.228  15.905
   23DOPE   H8S 2891   4.951   0.395  15.889
   23DOPE   C29 2892   4.794   0.247  15.899
   23DOPE   H9R 2893   4.713   0.319  15.919
   23DOPE  C210 2894   4.762   0.128  15.846
   23DOPE  H10R 2895   4.656   0.107  15.825
   23DOPE  C211 2896   4.855   0.013  15.814
   23DOPE  H11R 2897   4.844   8.383  15.891
   23DOPE  H11S 2898   4.962   0.044  15.815
   23DOPE  C212 2899   4.824   8.399  15.676
   23DOPE  H12R 2900   4.722   8.355  15.679
   23DOPE  H12S 2901   4.895   8.315  15.659
   23DOPE  C213 2902   4.832   0.047  15.556
   23DOPE  H13R 2903   4.761   0.131  15.572
   23DOPE  H13S 2904   4.798   8.441  15.465
   23DOPE  C214 2905   4.972   0.104  15.531
   23DOPE  H14R 2906   5.040   0.022  15.499
   23DOPE  H14S 2907   5.012   0.145  15.626
   23DOPE  C215 2908   4.975   0.217  15.427
   23DOPE  H15R 2909   5.078   0.256  15.419
   23DOPE  H15S 2910   4.910   0.300  15.464
   23DOPE  C216 2911   4.928   0.174  15.287
   23DOPE  H16R 2912   4.822   0.139  15.292
   23DOPE  H16S 2913   4.990   0.089  15.253
   23DOPE  C217 2914   4.936   0.287  15.183
   23DOPE  H17R 2915   4.909   0.245  15.084
   23DOPE  H17S 2916   5.041   0.322  15.176
   23DOPE  C218 2917   4.845   0.407  15.212
   23DOPE  H18R 2918   4.877   0.459  15.305
   23DOPE  H18S 2919   4.740   0.374  15.224
   23DOPE  H18T 2920   4.849   0.480  15.128
   23DOPE   C33 2921   5.450   8.411  16.486
   23DOPE   H3X 2922   5.494   8.331  16.422
   23DOPE   H3Y 2923   5.475   0.060  16.439
   23DOPE   C34 2924   5.298   8.390  16.488
   23DOPE   H4X 2925   5.275   8.291  16.532
   23DOPE   H4Y 2926   5.252   0.017  16.555
   23DOPE   C35 2927   5.231   8.400  16.350
   23DOPE   H5X 2928   5.247   0.053  16.309
   23DOPE   H5Y 2929   5.121   8.387  16.364
   23DOPE   C36 2930   5.280   8.296  16.247
   23DOPE   H6X 2931   5.275   8.195  16.293
   23DOPE   H6Y 2932   5.386   8.318  16.222
   23DOPE   C37 2933   5.195   8.298  16.119
   23DOPE   H7X 2934   5.091   8.271  16.146
   23DOPE   H7Y 2935   5.192   8.401  16.078
   23DOPE   C38 2936   5.244   8.200  16.010
   23DOPE   H8X 2937   5.167   8.197  15.930
   23DOPE   H8Y 2938   5.247   8.098  16.053
   23DOPE   C39 2939   5.378   8.236  15.951
   23DOPE   H9X 2940   5.462   8.173  15.984
   23DOPE  C310 2941   5.402   8.337  15.866
   23DOPE  H10X 2942   5.505   8.354  15.830
   23DOPE  C311 2943   5.300   8.434  15.811
   23DOPE  H11X 2944   5.197   8.391  15.814
   23DOPE  H11Y 2945   5.299   0.077  15.873
   23DOPE  C312 2946   5.329   0.028  15.665
   23DOPE  H12X 2947   5.429   0.075  15.659
   23DOPE  H12Y 2948   5.254   0.105  15.636
   23DOPE  C313 2949   5.320   8.362  15.563
   23DOPE  H13X 2950   5.395   8.284  15.589
   23DOPE  H13Y 2951   5.220   8.315  15.570
   23DOPE  C314 2952   5.345   8.410  15.420
   23DOPE  H14X 2953   5.443   0.014  15.418
   23DOPE  H14Y 2954   5.267   0.034  15.391
   23DOPE  C315 2955   5.350   8.296  15.316
   23DOPE  H15X 2956   5.424   8.220  15.348
   23DOPE  H15Y 2957   5.385   8.339  15.219
   23DOPE  C316 2958   5.214   8.228  15.293
   23DOPE  H16X 2959   5.141   8.303  15.256
   23DOPE  H16Y 2960   5.176   8.189  15.390
   23DOPE  C317 2961   5.220   8.110  15.194
   23DOPE  H17X 2962   5.290   8.034  15.234
   23DOPE  H17Y 2963   5.119   8.063  15.189
   23DOPE  C318 2964   5.263   8.148  15.052
   23DOPE  H18X 2965   5.367   8.187  15.051
   23DOPE  H18Y 2966   5.258   8.060  14.985
   23DOPE  H18Z 2967   5.196   8.227  15.011
   24DOPE     N 2968   7.561   7.023  17.142
   24DOPE   HN1 2969   7.540   6.967  17.228
   24DOPE   HN2 2970   7.635   6.974  17.086
   24DOPE   HN3 2971   7.597   7.116  17.172
   24DOPE   C12 2972   7.441   7.039  17.052
   24DOPE  H12A 2973   7.471   7.108  16.970
   24DOPE  H12B 2974   7.359   7.086  17.111
   24DOPE   C11 2975   7.397   6.904  16.992
   24DOPE  H11A 2976   7.331   6.922  16.904
   24DOPE  H11B 2977   7.335   6.850  17.068
   24DOPE     P 2978   7.620   6.866  16.857
   24DOPE   O13 2979   7.726   6.916  16.948
   24DOPE   O14 2980   7.561   6.962  16.762
   24DOPE   O11 2981   7.663   6.733  16.785
   24DOPE   O12 2982   7.505   6.818  16.956
   24DOPE    C1 2983   7.563   6.634  16.759
   24DOPE    HA 2984   7.480   6.676  16.699
   24DOPE    HB 2985   7.522   6.593  16.854
   24DOPE    C2 2986   7.622   6.513  16.680
   24DOPE    HS 2987   7.707   6.472  16.738
   24DOPE   O21 2988   7.662   6.556  16.548
   24DOPE   C21 2989   7.784   6.608  16.541
   24DOPE   O22 2990   7.870   6.602  16.627
   24DOPE   C22 2991   7.804   6.675  16.405
   24DOPE   H2R 2992   7.910   6.705  16.403
   24DOPE   H2S 2993   7.741   6.766  16.402
   24DOPE    C3 2994   7.517   6.399  16.666
   24DOPE    HX 2995   7.497   6.360  16.768
   24DOPE    HY 2996   7.563   6.317  16.607
   24DOPE   O31 2997   7.393   6.448  16.611
   24DOPE   C31 2998   7.364   6.409  16.488
   24DOPE   O32 2999   7.422   6.323  16.424
   24DOPE   C32 3000   7.242   6.487  16.438
   24DOPE   H2X 3001   7.200   6.432  16.351
   24DOPE   H2Y 3002   7.167   6.489  16.519
   24DOPE   C23 3003   7.776   6.585  16.281
   24DOPE   H3R 3004   7.807   6.480  16.300
   24DOPE   H3S 3005   7.838   6.623  16.198
   24DOPE   C24 3006   7.630   6.589  16.234
   24DOPE   H4R 3007   7.597   6.695  16.228
   24DOPE   H4S 3008   7.565   6.538  16.308
   24DOPE   C25 3009   7.611   6.526  16.095
   24DOPE   H5R 3010   7.631   6.416  16.101
   24DOPE   H5S 3011   7.686   6.570  16.026
   24DOPE   C26 3012   7.472   6.549  16.035
   24DOPE   H6R 3013   7.479   6.552  15.924
   24DOPE   H6S 3014   7.436   6.649  16.067
   24DOPE   C27 3015   7.369   6.442  16.074
   24DOPE   H7R 3016   7.269   6.489  16.087
   24DOPE   H7S 3017   7.397   6.400  16.173
   24DOPE   C28 3018   7.357   6.326  15.973
   24DOPE   H8R 3019   7.297   6.245  16.020
   24DOPE   H8S 3020   7.459   6.284  15.956
   24DOPE   C29 3021   7.289   6.369  15.845
   24DOPE   H9R 3022   7.192   6.417  15.860
   24DOPE  C210 3023   7.334   6.355  15.718
   24DOPE  H10R 3024   7.271   6.392  15.636
   24DOPE  C211 3025   7.463   6.291  15.672
   24DOPE  H11R 3026   7.533   6.275  15.757
   24DOPE  H11S 3027   7.516   6.360  15.602
   24DOPE  C212 3028   7.441   6.155  15.602
   24DOPE  H12R 3029   7.389   6.087  15.674
   24DOPE  H12S 3030   7.540   6.110  15.580
   24DOPE  C213 3031   7.359   6.161  15.472
   24DOPE  H13R 3032   7.266   6.220  15.489
   24DOPE  H13S 3033   7.326   6.058  15.446
   24DOPE  C214 3034   7.434   6.219  15.351
   24DOPE  H14R 3035   7.490   6.310  15.381
   24DOPE  H14S 3036   7.360   6.249  15.275
   24DOPE  C215 3037   7.530   6.118  15.286
   24DOPE  H15R 3038   7.471   6.027  15.258
   24DOPE  H15S 3039   7.608   6.087  15.359
   24DOPE  C216 3040   7.597   6.172  15.159
   24DOPE  H16R 3041   7.661   6.259  15.186
   24DOPE  H16S 3042   7.518   6.208  15.089
   24DOPE  C217 3043   7.683   6.067  15.087
   24DOPE  H17R 3044   7.621   5.977  15.069
   24DOPE  H17S 3045   7.766   6.037  15.154
   24DOPE  C218 3046   7.739   6.118  14.954
   24DOPE  H18R 3047   7.798   6.039  14.904
   24DOPE  H18S 3048   7.804   6.206  14.970
   24DOPE  H18T 3049   7.656   6.148  14.886
   24DOPE   C33 3050   7.280   6.630  16.396
   24DOPE   H3X 3051   7.344   6.627  16.305
   24DOPE   H3Y 3052   7.340   6.679  16.476
   24DOPE   C34 3053   7.158   6.719  16.368
   24DOPE   H4X 3054   7.092   6.671  16.293
   24DOPE   H4Y 3055   7.101   6.730  16.463
   24DOPE   C35 3056   7.199   6.859  16.318
   24DOPE   H5X 3057   7.285   6.894  16.379
   24DOPE   H5Y 3058   7.116   6.931  16.334
   24DOPE   C36 3059   7.237   6.861  16.169
   24DOPE   H6X 3060   7.150   6.895  16.110
   24DOPE   H6Y 3061   7.260   6.757  16.136
   24DOPE   C37 3062   7.359   6.949  16.139
   24DOPE   H7X 3063   7.340   7.052  16.176
   24DOPE   H7Y 3064   7.446   6.909  16.195
   24DOPE   C38 3065   7.392   6.954  15.988
   24DOPE   H8X 3066   7.305   6.999  15.935
   24DOPE   H8Y 3067   7.400   6.849  15.952
   24DOPE   C39 3068   7.517   7.033  15.958
   24DOPE   H9X 3069   7.510   7.140  15.984
   24DOPE  C310 3070   7.631   6.986  15.905
   24DOPE  H10X 3071   7.714   7.056  15.886
   24DOPE  C311 3072   7.659   6.843  15.864
   24DOPE  H11X 3073   7.765   6.818  15.881
   24DOPE  H11Y 3074   7.600   6.773  15.926
   24DOPE  C312 3075   7.624   6.815  15.716
   24DOPE  H12X 3076   7.519   6.845  15.696
   24DOPE  H12Y 3077   7.631   6.705  15.699
   24DOPE  C313 3078   7.718   6.885  15.616
   24DOPE  H13X 3079   7.714   6.995  15.632
   24DOPE  H13Y 3080   7.822   6.852  15.637
   24DOPE  C314 3081   7.683   6.854  15.470
   24DOPE  H14X 3082   7.584   6.898  15.445
   24DOPE  H14Y 3083   7.676   6.744  15.457
   24DOPE  C315 3084   7.789   6.908  15.373
   24DOPE  H15X 3085   7.886   6.861  15.399
   24DOPE  H15Y 3086   7.800   7.018  15.388
   24DOPE  C316 3087   7.759   6.880  15.225
   24DOPE  H16X 3088   7.677   6.948  15.192
   24DOPE  H16Y 3089   7.722   6.776  15.215
   24DOPE  C317 3090   7.882   6.899  15.136
   24DOPE  H17X 3091   7.930   6.997  15.161
   24DOPE  H17Y 3092   7.956   6.820  15.161
   24DOPE  C318 3093   7.853   6.896  14.986
   24DOPE  H18X 3094   7.782   6.978  14.958
   24DOPE  H18Y 3095   7.946   6.910  14.927
   24DOPE  H18Z 3096   7.807   6.799  14.956
   25DOPE     N 3097   8.330   6.645  16.831
   25DOPE   HN1 3098   8.354   6.546  16.853
   25DOPE   HN2 3099   8.227   6.655  16.836
   25DOPE   HN3 3100   8.363   6.667  16.735
   25DOPE   C12 3101   8.397   6.728  16.938
   25DOPE  H12A 3102   8.383   6.835  16.913
   25DOPE  H12B 3103   0.057   6.703  16.936
   25DOPE   C11 3104   8.339   6.696  17.077
   25DOPE  H11A 3105   8.236   6.739  17.086
   25DOPE  H11B 3106   8.401   6.749  17.152
   25DOPE     P 3107   8.220   6.460  17.084
   25DOPE   O13 3108   8.104   6.538  17.037
   25DOPE   O14 3109   8.206   6.377  17.206
   25DOPE   O11 3110   8.272   6.376  16.961
   25DOPE   O12 3111   8.343   6.557  17.104
   25DOPE    C1 3112   8.273   6.233  16.962
   25DOPE    HA 3113   8.189   6.195  16.900
   25DOPE    HB 3114   8.262   6.190  17.063
   25DOPE    C2 3115   8.404   6.174  16.902
   25DOPE    HS 3116   0.042   6.207  16.963
   25DOPE   O21 3117   8.422   6.210  16.765
   25DOPE   C21 3118   0.020   6.327  16.733
   25DOPE   O22 3119   0.050   6.419  16.808
   25DOPE   C22 3120   0.031   6.334  16.581
   25DOPE   H2R 3121   8.381   6.366  16.542
   25DOPE   H2S 3122   0.053   6.231  16.544
   25DOPE    C3 3123   8.397   6.018  16.907
   25DOPE    HX 3124   8.391   5.987  17.014
   25DOPE    HY 3125   0.043   5.976  16.867
   25DOPE   O31 3126   8.280   5.971  16.837
   25DOPE   C31 3127   8.295   5.954  16.706
   25DOPE   O32 3128   8.400   5.941  16.647
   25DOPE   C32 3129   8.157   5.960  16.640
   25DOPE   H2X 3130   8.110   5.860  16.655
   25DOPE   H2Y 3131   8.095   6.035  16.693
   25DOPE   C23 3132   0.141   6.429  16.530
   25DOPE   H3R 3133   0.241   6.388  16.558
   25DOPE   H3S 3134   0.132   6.529  16.578
   25DOPE   C24 3135   0.137   6.447  16.377
   25DOPE   H4R 3136   0.226   6.505  16.345
   25DOPE   H4S 3137   0.047   6.506  16.349
   25DOPE   C25 3138   0.134   6.315  16.300
   25DOPE   H5R 3139   0.036   6.263  16.315
   25DOPE   H5S 3140   0.212   6.247  16.341
   25DOPE   C26 3141   0.157   6.331  16.149
   25DOPE   H6R 3142   0.260   6.372  16.135
   25DOPE   H6S 3143   0.086   6.405  16.107
   25DOPE   C27 3144   0.145   6.198  16.074
   25DOPE   H7R 3145   0.037   6.175  16.057
   25DOPE   H7S 3146   0.184   6.117  16.139
   25DOPE   C28 3147   0.223   6.194  15.942
   25DOPE   H8R 3148   0.225   6.089  15.907
   25DOPE   H8S 3149   0.329   6.222  15.961
   25DOPE   C29 3150   0.164   6.287  15.838
   25DOPE   H9R 3151   0.182   6.394  15.856
   25DOPE  C210 3152   0.092   6.250  15.731
   25DOPE  H10R 3153   0.051   6.328  15.664
   25DOPE  C211 3154   0.056   6.109  15.693
   25DOPE  H11R 3155   0.131   6.036  15.730
   25DOPE  H11S 3156   0.055   6.097  15.582
   25DOPE  C212 3157   8.367   6.067  15.750
   25DOPE  H12R 3158   8.361   6.096  15.857
   25DOPE  H12S 3159   8.361   5.956  15.746
   25DOPE  C213 3160   8.247   6.124  15.673
   25DOPE  H13R 3161   8.262   6.232  15.654
   25DOPE  H13S 3162   8.156   6.114  15.737
   25DOPE  C214 3163   8.221   6.050  15.542
   25DOPE  H14R 3164   8.197   5.943  15.565
   25DOPE  H14S 3165   8.313   6.050  15.480
   25DOPE  C215 3166   8.107   6.112  15.459
   25DOPE  H15R 3167   8.133   6.218  15.441
   25DOPE  H15S 3168   8.012   6.110  15.518
   25DOPE  C216 3169   8.085   6.045  15.322
   25DOPE  H16R 3170   8.182   6.018  15.276
   25DOPE  H16S 3171   8.037   6.121  15.257
   25DOPE  C217 3172   7.991   5.923  15.324
   25DOPE  H17R 3173   7.959   5.904  15.220
   25DOPE  H17S 3174   7.900   5.948  15.382
   25DOPE  C218 3175   8.052   5.793  15.378
   25DOPE  H18R 3176   8.066   5.799  15.489
   25DOPE  H18S 3177   8.151   5.774  15.331
   25DOPE  H18T 3178   7.985   5.707  15.356
   25DOPE   C33 3179   8.162   5.994  16.489
   25DOPE   H3X 3180   8.061   5.979  16.447
   25DOPE   H3Y 3181   8.231   5.924  16.436
   25DOPE   C34 3182   8.205   6.139  16.462
   25DOPE   H4X 3183   8.153   6.206  16.533
   25DOPE   H4Y 3184   8.314   6.147  16.481
   25DOPE   C35 3185   8.176   6.188  16.319
   25DOPE   H5X 3186   8.071   6.165  16.292
   25DOPE   H5Y 3187   8.241   6.136  16.247
   25DOPE   C36 3188   8.195   6.340  16.306
   25DOPE   H6X 3189   8.300   6.366  16.331
   25DOPE   H6Y 3190   8.130   6.391  16.381
   25DOPE   C37 3191   8.162   6.397  16.167
   25DOPE   H7X 3192   8.214   6.338  16.090
   25DOPE   H7Y 3193   8.053   6.387  16.150
   25DOPE   C38 3194   8.206   6.545  16.155
   25DOPE   H8X 3195   8.317   6.549  16.158
   25DOPE   H8Y 3196   8.170   6.599  16.245
   25DOPE   C39 3197   8.152   6.614  16.032
   25DOPE   H9X 3198   8.060   6.671  16.048
   25DOPE  C310 3199   8.205   6.611  15.908
   25DOPE  H10X 3200   8.153   6.665  15.828
   25DOPE  C311 3201   8.329   6.537  15.865
   25DOPE  H11X 3202   8.390   6.504  15.951
   25DOPE  H11Y 3203   8.300   6.445  15.810
   25DOPE  C312 3204   8.421   6.620  15.771
   25DOPE  H12X 3205   0.058   6.556  15.743
   25DOPE  H12Y 3206   0.013   6.708  15.824
   25DOPE  C313 3207   8.350   6.665  15.642
   25DOPE  H13X 3208   8.268   6.594  15.618
   25DOPE  H13Y 3209   8.301   6.763  15.661
   25DOPE  C314 3210   8.441   6.679  15.519
   25DOPE  H14X 3211   0.079   6.745  15.544
   25DOPE  H14Y 3212   8.383   6.729  15.438
   25DOPE  C315 3213   0.045   6.546  15.461
   25DOPE  H15X 3214   0.118   6.500  15.531
   25DOPE  H15Y 3215   0.100   6.568  15.367
   25DOPE  C316 3216   8.382   6.444  15.430
   25DOPE  H16X 3217   8.304   6.491  15.367
   25DOPE  H16Y 3218   8.335   6.414  15.526
   25DOPE  C317 3219   8.433   6.317  15.361
   25DOPE  H17X 3220   0.082   6.288  15.404
   25DOPE  H17Y 3221   8.362   6.234  15.384
   25DOPE  C318 3222   8.441   6.328  15.209
   25DOPE  H18X 3223   0.035   6.235  15.165
   25DOPE  H18Y 3224   8.340   6.344  15.166
   25DOPE  H18Z 3225   0.056   6.414  15.180
   26DOPE     N 3226   0.637   7.001  16.857
   26DOPE   HN1 3227   0.676   7.091  16.890
   26DOPE   HN2 3228   0.673   6.929  16.923
   26DOPE   HN3 3229   0.671   6.985  16.760
   26DOPE   C12 3230   0.487   7.014  16.866
   26DOPE  H12A 3231   0.455   6.958  16.956
   26DOPE  H12B 3232   0.442   6.967  16.776
   26DOPE   C11 3233   0.446   7.162  16.879
   26DOPE  H11A 3234   0.335   7.166  16.882
   26DOPE  H11B 3235   0.478   7.219  16.790
   26DOPE     P 3236   0.622   7.311  17.007
   26DOPE   O13 3237   0.734   7.226  16.960
   26DOPE   O14 3238   0.631   7.367  17.144
   26DOPE   O11 3239   0.587   7.422  16.902
   26DOPE   O12 3240   0.496   7.216  17.002
   26DOPE    C1 3241   0.481   7.516  16.929
   26DOPE    HA 3242   0.526   7.611  16.964
   26DOPE    HB 3243   0.411   7.481  17.008
   26DOPE    C2 3244   0.394   7.546  16.804
   26DOPE    HS 3245   0.319   7.622  16.835
   26DOPE   O21 3246   0.326   7.424  16.765
   26DOPE   C21 3247   0.242   7.437  16.665
   26DOPE   O22 3248   0.193   7.541  16.624
   26DOPE   C22 3249   0.220   7.300  16.602
   26DOPE   H2R 3250   0.120   7.302  16.552
   26DOPE   H2S 3251   0.216   7.223  16.683
   26DOPE    C3 3252   0.478   7.608  16.687
   26DOPE    HX 3253   0.554   7.674  16.733
   26DOPE    HY 3254   0.411   7.670  16.625
   26DOPE   O31 3255   0.536   7.504  16.606
   26DOPE   C31 3256   0.644   7.535  16.539
   26DOPE   O32 3257   0.702   7.642  16.539
   26DOPE   C32 3258   0.684   7.411  16.459
   26DOPE   H2X 3259   0.714   7.332  16.532
   26DOPE   H2Y 3260   0.594   7.376  16.405
   26DOPE   C23 3261   0.330   7.267  16.499
   26DOPE   H3R 3262   0.429   7.273  16.549
   26DOPE   H3S 3263   0.328   7.343  16.418
   26DOPE   C24 3264   0.317   7.127  16.436
   26DOPE   H4R 3265   0.331   7.050  16.515
   26DOPE   H4S 3266   0.400   7.114  16.363
   26DOPE   C25 3267   0.184   7.098  16.365
   26DOPE   H5R 3268   0.103   7.092  16.440
   26DOPE   H5S 3269   0.190   6.999  16.316
   26DOPE   C26 3270   0.142   7.201  16.258
   26DOPE   H6R 3271   0.120   7.298  16.306
   26DOPE   H6S 3272   0.048   7.166  16.211
   26DOPE   C27 3273   0.247   7.224  16.147
   26DOPE   H7R 3274   0.278   7.127  16.103
   26DOPE   H7S 3275   0.337   7.270  16.194
   26DOPE   C28 3276   0.198   7.319  16.036
   26DOPE   H8R 3277   0.287   7.358  15.983
   26DOPE   H8S 3278   0.149   7.407  16.084
   26DOPE   C29 3279   0.102   7.253  15.940
   26DOPE   H9R 3280   8.448   7.242  15.978
   26DOPE  C210 3281   0.131   7.204  15.818
   26DOPE  H10R 3282   0.051   7.157  15.759
   26DOPE  C211 3283   0.266   7.206  15.749
   26DOPE  H11R 3284   0.341   7.261  15.809
   26DOPE  H11S 3285   0.259   7.259  15.652
   26DOPE  C212 3286   0.323   7.064  15.726
   26DOPE  H12R 3287   0.320   7.007  15.821
   26DOPE  H12S 3288   0.430   7.074  15.697
   26DOPE  C213 3289   0.252   6.983  15.616
   26DOPE  H13R 3290   0.144   6.973  15.639
   26DOPE  H13S 3291   0.296   6.881  15.614
   26DOPE  C214 3292   0.270   7.045  15.476
   26DOPE  H14R 3293   0.377   7.067  15.460
   26DOPE  H14S 3294   0.214   7.141  15.471
   26DOPE  C215 3295   0.222   6.954  15.362
   26DOPE  H15R 3296   0.114   6.932  15.375
   26DOPE  H15S 3297   0.278   6.858  15.366
   26DOPE  C216 3298   0.246   7.020  15.225
   26DOPE  H16R 3299   0.355   7.040  15.214
   26DOPE  H16S 3300   0.194   7.118  15.223
   26DOPE  C217 3301   0.199   6.935  15.107
   26DOPE  H17R 3302   0.089   6.917  15.117
   26DOPE  H17S 3303   0.249   6.836  15.111
   26DOPE  C218 3304   0.227   7.000  14.972
   26DOPE  H18R 3305   0.192   6.935  14.889
   26DOPE  H18S 3306   0.336   7.018  14.959
   26DOPE  H18T 3307   0.174   7.098  14.964
   26DOPE   C33 3308   0.798   7.435  16.358
   26DOPE   H3X 3309   0.891   7.467  16.410
   26DOPE   H3Y 3310   0.769   7.517  16.288
   26DOPE   C34 3311   0.825   7.308  16.276
   26DOPE   H4X 3312   0.857   7.226  16.345
   26DOPE   H4Y 3313   0.731   7.276  16.227
   26DOPE   C35 3314   0.934   7.328  16.170
   26DOPE   H5X 3315   1.024   7.368  16.220
   26DOPE   H5Y 3316   0.898   7.405  16.097
   26DOPE   C36 3317   0.972   7.200  16.094
   26DOPE   H6X 3318   1.013   7.126  16.166
   26DOPE   H6Y 3319   1.053   7.224  16.022
   26DOPE   C37 3320   0.856   7.135  16.017
   26DOPE   H7X 3321   0.775   7.109  16.089
   26DOPE   H7Y 3322   0.815   7.210  15.945
   26DOPE   C38 3323   0.899   7.009  15.941
   26DOPE   H8X 3324   0.947   6.939  16.013
   26DOPE   H8Y 3325   0.977   7.038  15.867
   26DOPE   C39 3326   0.781   6.940  15.875
   26DOPE   H9X 3327   0.702   6.910  15.945
   26DOPE  C310 3328   0.763   6.914  15.744
   26DOPE  H10X 3329   0.670   6.865  15.712
   26DOPE  C311 3330   0.857   6.948  15.631
   26DOPE  H11X 3331   0.955   6.988  15.666
   26DOPE  H11Y 3332   0.880   6.855  15.574
   26DOPE  C312 3333   0.796   7.050  15.533
   26DOPE  H12X 3334   0.700   7.011  15.493
   26DOPE  H12Y 3335   0.865   7.061  15.446
   26DOPE  C313 3336   0.776   7.189  15.594
   26DOPE  H13X 3337   0.701   7.183  15.677
   26DOPE  H13Y 3338   0.872   7.223  15.638
   26DOPE  C314 3339   0.728   7.295  15.493
   26DOPE  H14X 3340   0.803   7.304  15.412
   26DOPE  H14Y 3341   0.723   7.393  15.545
   26DOPE  C315 3342   0.590   7.264  15.432
   26DOPE  H15X 3343   0.518   7.246  15.514
   26DOPE  H15Y 3344   0.597   7.172  15.370
   26DOPE  C316 3345   0.538   7.379  15.345
   26DOPE  H16X 3346   0.613   7.403  15.266
   26DOPE  H16Y 3347   0.527   7.470  15.409
   26DOPE  C317 3348   0.403   7.349  15.279
   26DOPE  H17X 3349   0.416   7.261  15.212
   26DOPE  H17Y 3350   0.330   7.321  15.357
   26DOPE  C318 3351   0.348   7.466  15.197
   26DOPE  H18X 3352   0.251   7.439  15.150
   26DOPE  H18Y 3353   0.332   7.555  15.262
   26DOPE  H18Z 3354   0.419   7.495  15.117
   27DOPE     N 3355   6.526   8.208  16.685
   27DOPE   HN1 3356   6.424   8.221  16.666
   27DOPE   HN2 3357   6.581   8.255  16.611
   27DOPE   HN3 3358   6.546   8.106  16.682
   27DOPE   C12 3359   6.562   8.265  16.819
   27DOPE  H12A 3360   6.506   8.210  16.897
   27DOPE  H12B 3361   6.530   8.372  16.820
   27DOPE   C11 3362   6.713   8.254  16.845
   27DOPE  H11A 3363   6.771   8.308  16.767
   27DOPE  H11B 3364   6.743   8.147  16.839
   27DOPE     P 3365   6.747   0.008  17.010
   27DOPE   O13 3366   6.872   0.044  17.078
   27DOPE   O14 3367   6.621   0.042  17.082
   27DOPE   O11 3368   6.743   0.077  16.867
   27DOPE   O12 3369   6.745   8.302  16.975
   27DOPE    C1 3370   6.756   0.220  16.865
   27DOPE    HA 3371   6.837   0.256  16.932
   27DOPE    HB 3372   6.661   0.267  16.898
   27DOPE    C2 3373   6.788   0.278  16.724
   27DOPE    HS 3374   6.798   0.388  16.740
   27DOPE   O21 3375   6.676   0.252  16.637
   27DOPE   C21 3376   6.673   0.329  16.530
   27DOPE   O22 3377   6.762   0.402  16.491
   27DOPE   C22 3378   6.535   0.313  16.465
   27DOPE   H2R 3379   6.463   0.362  16.533
   27DOPE   H2S 3380   6.511   0.205  16.459
   27DOPE    C3 3381   6.925   0.228  16.667
   27DOPE    HX 3382   6.998   0.234  16.751
   27DOPE    HY 3383   6.957   0.302  16.590
   27DOPE   O31 3384   6.923   0.095  16.609
   27DOPE   C31 3385   7.045   0.064  16.561
   27DOPE   O32 3386   7.144   0.134  16.571
   27DOPE   C32 3387   7.044   8.374  16.495
   27DOPE   H2X 3388   7.102   8.308  16.564
   27DOPE   H2Y 3389   6.940   8.336  16.488
   27DOPE   C23 3390   6.526   0.378  16.325
   27DOPE   H3R 3391   6.566   0.482  16.327
   27DOPE   H3S 3392   6.418   0.385  16.297
   27DOPE   C24 3393   6.596   0.296  16.216
   27DOPE   H4R 3394   6.558   0.192  16.218
   27DOPE   H4S 3395   6.705   0.293  16.237
   27DOPE   C25 3396   6.574   0.354  16.075
   27DOPE   H5R 3397   6.622   0.454  16.069
   27DOPE   H5S 3398   6.464   0.369  16.061
   27DOPE   C26 3399   6.626   0.264  15.962
   27DOPE   H6R 3400   6.592   0.306  15.865
   27DOPE   H6S 3401   6.582   0.163  15.972
   27DOPE   C27 3402   6.779   0.252  15.958
   27DOPE   H7R 3403   6.816   0.211  16.055
   27DOPE   H7S 3404   6.822   0.354  15.946
   27DOPE   C28 3405   6.826   0.162  15.843
   27DOPE   H8R 3406   6.779   0.199  15.749
   27DOPE   H8S 3407   6.787   0.059  15.860
   27DOPE   C29 3408   6.976   0.157  15.832
   27DOPE   H9R 3409   7.028   0.127  15.925
   27DOPE  C210 3410   7.051   0.186  15.724
   27DOPE  H10R 3411   7.160   0.178  15.731
   27DOPE  C211 3412   7.001   0.228  15.588
   27DOPE  H11R 3413   7.013   0.338  15.577
   27DOPE  H11S 3414   6.893   0.206  15.573
   27DOPE  C212 3415   7.079   0.162  15.472
   27DOPE  H12R 3416   7.186   0.192  15.480
   27DOPE  H12S 3417   7.041   0.201  15.376
   27DOPE  C213 3418   7.072   0.008  15.469
   27DOPE  H13R 3419   7.100   8.417  15.569
   27DOPE  H13S 3420   7.147   8.420  15.396
   27DOPE  C214 3421   6.935   8.400  15.430
   27DOPE  H14R 3422   6.916   8.424  15.323
   27DOPE  H14S 3423   6.856   0.002  15.490
   27DOPE  C215 3424   6.920   8.248  15.450
   27DOPE  H15R 3425   6.820   8.216  15.414
   27DOPE  H15S 3426   6.922   8.228  15.560
   27DOPE  C216 3427   7.029   8.163  15.383
   27DOPE  H16R 3428   7.012   8.056  15.410
   27DOPE  H16S 3429   7.128   8.191  15.424
   27DOPE  C217 3430   7.035   8.174  15.230
   27DOPE  H17R 3431   7.122   8.114  15.194
   27DOPE  H17S 3432   7.054   8.279  15.201
   27DOPE  C218 3433   6.909   8.124  15.158
   27DOPE  H18R 3434   6.821   8.185  15.186
   27DOPE  H18S 3435   6.888   8.018  15.186
   27DOPE  H18T 3436   6.922   8.129  15.048
   27DOPE   C33 3437   7.114   8.374  16.357
   27DOPE   H3X 3438   7.162   8.275  16.341
   27DOPE   H3Y 3439   7.196   0.000  16.355
   27DOPE   C34 3440   7.018   8.398  16.239
   27DOPE   H4X 3441   6.949   0.033  16.262
   27DOPE   H4Y 3442   7.079   8.429  16.151
   27DOPE   C35 3443   6.940   8.272  16.199
   27DOPE   H5X 3444   6.875   8.240  16.283
   27DOPE   H5Y 3445   7.014   8.191  16.180
   27DOPE   C36 3446   6.855   8.290  16.072
   27DOPE   H6X 3447   6.919   8.332  15.991
   27DOPE   H6Y 3448   6.773   8.362  16.090
   27DOPE   C37 3449   6.798   8.156  16.023
   27DOPE   H7X 3450   6.883   8.085  16.011
   27DOPE   H7Y 3451   6.730   8.113  16.100
   27DOPE   C38 3452   6.725   8.165  15.886
   27DOPE   H8X 3453   6.712   8.061  15.849
   27DOPE   H8Y 3454   6.792   8.216  15.814
   27DOPE   C39 3455   6.590   8.230  15.897
   27DOPE   H9X 3456   6.531   8.198  15.984
   27DOPE  C310 3457   6.535   8.319  15.811
   27DOPE  H10X 3458   6.434   8.357  15.833
   27DOPE  C311 3459   6.594   8.374  15.684
   27DOPE  H11X 3460   6.611   0.035  15.696
   27DOPE  H11Y 3461   6.693   8.329  15.660
   27DOPE  C312 3462   6.500   8.352  15.564
   27DOPE  H12X 3463   6.399   8.391  15.587
   27DOPE  H12Y 3464   6.491   8.243  15.545
   27DOPE  C313 3465   6.547   8.421  15.434
   27DOPE  H13X 3466   6.649   8.384  15.408
   27DOPE  H13Y 3467   6.479   8.390  15.351
   27DOPE  C314 3468   6.547   0.126  15.442
   27DOPE  H14X 3469   6.623   0.160  15.516
   27DOPE  H14Y 3470   6.447   0.159  15.477
   27DOPE  C315 3471   6.576   0.195  15.307
   27DOPE  H15X 3472   6.563   0.304  15.321
   27DOPE  H15Y 3473   6.502   0.161  15.231
   27DOPE  C316 3474   6.718   0.169  15.255
   27DOPE  H16X 3475   6.727   0.063  15.225
   27DOPE  H16Y 3476   6.790   0.187  15.338
   27DOPE  C317 3477   6.760   0.258  15.137
   27DOPE  H17X 3478   6.761   0.364  15.170
   27DOPE  H17Y 3479   6.864   0.232  15.109
   27DOPE  C318 3480   6.671   0.246  15.013
   27DOPE  H18X 3481   6.567   0.280  15.035
   27DOPE  H18Y 3482   6.711   0.309  14.930
   27DOPE  H18Z 3483   6.667   0.141  14.978
   28DOPE     N 3484   8.278   7.664  16.944
   28DOPE   HN1 3485   8.227   7.636  16.857
   28DOPE   HN2 3486   8.241   7.756  16.976
   28DOPE   HN3 3487   8.379   7.672  16.922
   28DOPE   C12 3488   8.257   7.554  17.045
   28DOPE  H12A 3489   8.323   7.574  17.132
   28DOPE  H12B 3490   8.292   7.460  16.996
   28DOPE   C11 3491   8.110   7.537  17.091
   28DOPE  H11A 3492   8.089   7.615  17.167
   28DOPE  H11B 3493   8.098   7.439  17.141
   28DOPE     P 3494   8.017   7.468  16.853
   28DOPE   O13 3495   8.116   7.537  16.767
   28DOPE   O14 3496   7.876   7.458  16.810
   28DOPE   O11 3497   8.070   7.327  16.902
   28DOPE   O12 3498   8.014   7.552  16.986
   28DOPE    C1 3499   8.027   7.207  16.835
   28DOPE    HA 3500   7.931   7.219  16.780
   28DOPE    HB 3501   8.009   7.128  16.912
   28DOPE    C2 3502   8.134   7.155  16.736
   28DOPE    HS 3503   8.224   7.135  16.798
   28DOPE   O21 3504   8.160   7.257  16.637
   28DOPE   C21 3505   8.275   7.244  16.574
   28DOPE   O22 3506   8.360   7.159  16.597
   28DOPE   C22 3507   8.289   7.355  16.470
   28DOPE   H2R 3508   8.397   7.363  16.445
   28DOPE   H2S 3509   8.256   7.450  16.516
   28DOPE    C3 3510   8.092   7.021  16.668
   28DOPE    HX 3511   8.054   6.952  16.746
   28DOPE    HY 3512   8.184   6.976  16.625
   28DOPE   O31 3513   7.989   7.044  16.569
   28DOPE   C31 3514   8.003   6.980  16.454
   28DOPE   O32 3515   8.087   6.895  16.429
   28DOPE   C32 3516   7.898   7.033  16.356
   28DOPE   H2X 3517   7.798   7.009  16.399
   28DOPE   H2Y 3518   7.907   7.144  16.353
   28DOPE   C23 3519   8.210   7.328  16.340
   28DOPE   H3R 3520   8.102   7.347  16.359
   28DOPE   H3S 3521   8.221   7.221  16.309
   28DOPE   C24 3522   8.259   7.416  16.224
   28DOPE   H4R 3523   8.359   7.381  16.192
   28DOPE   H4S 3524   8.270   7.520  16.261
   28DOPE   C25 3525   8.164   7.417  16.104
   28DOPE   H5R 3526   8.069   7.466  16.135
   28DOPE   H5S 3527   8.140   7.313  16.073
   28DOPE   C26 3528   8.222   7.492  15.983
   28DOPE   H6R 3529   8.297   7.428  15.933
   28DOPE   H6S 3530   8.274   7.584  16.017
   28DOPE   C27 3531   8.113   7.534  15.882
   28DOPE   H7R 3532   8.050   7.611  15.931
   28DOPE   H7S 3533   8.047   7.447  15.859
   28DOPE   C28 3534   8.170   7.594  15.752
   28DOPE   H8R 3535   8.258   7.657  15.777
   28DOPE   H8S 3536   8.092   7.661  15.710
   28DOPE   C29 3537   8.209   7.487  15.652
   28DOPE   H9R 3538   8.272   7.407  15.692
   28DOPE  C210 3539   8.174   7.483  15.522
   28DOPE  H10R 3540   8.205   7.397  15.461
   28DOPE  C211 3541   8.089   7.585  15.450
   28DOPE  H11R 3542   8.127   7.601  15.346
   28DOPE  H11S 3543   8.097   7.684  15.500
   28DOPE  C212 3544   7.939   7.549  15.442
   28DOPE  H12R 3545   7.882   7.643  15.428
   28DOPE  H12S 3546   7.905   7.504  15.537
   28DOPE  C213 3547   7.905   7.457  15.324
   28DOPE  H13R 3548   7.966   7.365  15.328
   28DOPE  H13S 3549   7.931   7.510  15.230
   28DOPE  C214 3550   7.755   7.421  15.320
   28DOPE  H14R 3551   7.696   7.512  15.344
   28DOPE  H14S 3552   7.735   7.346  15.400
   28DOPE  C215 3553   7.706   7.367  15.185
   28DOPE  H15R 3554   7.710   7.449  15.109
   28DOPE  H15S 3555   7.599   7.340  15.197
   28DOPE  C216 3556   7.783   7.244  15.134
   28DOPE  H16R 3557   7.710   7.172  15.091
   28DOPE  H16S 3558   7.832   7.194  15.220
   28DOPE  C217 3559   7.887   7.275  15.025
   28DOPE  H17R 3560   7.948   7.183  15.008
   28DOPE  H17S 3561   7.956   7.354  15.061
   28DOPE  C218 3562   7.827   7.317  14.890
   28DOPE  H18R 3563   7.760   7.238  14.851
   28DOPE  H18S 3564   7.907   7.334  14.815
   28DOPE  H18T 3565   7.768   7.411  14.900
   28DOPE   C33 3566   7.908   6.975  16.213
   28DOPE   H3X 3567   7.820   7.012  16.155
   28DOPE   H3Y 3568   7.901   6.864  16.214
   28DOPE   C34 3569   8.035   7.017  16.138
   28DOPE   H4X 3570   8.053   7.126  16.154
   28DOPE   H4Y 3571   8.122   6.962  16.179
   28DOPE   C35 3572   8.025   6.991  15.987
   28DOPE   H5X 3573   7.949   7.059  15.944
   28DOPE   H5Y 3574   7.991   6.887  15.970
   28DOPE   C36 3575   8.159   7.011  15.913
   28DOPE   H6X 3576   8.230   6.933  15.949
   28DOPE   H6Y 3577   8.202   7.110  15.938
   28DOPE   C37 3578   8.144   6.998  15.760
   28DOPE   H7X 3579   8.242   6.972  15.716
   28DOPE   H7Y 3580   8.074   6.915  15.739
   28DOPE   C38 3581   8.096   7.129  15.694
   28DOPE   H8X 3582   8.182   7.199  15.689
   28DOPE   H8Y 3583   8.021   7.177  15.761
   28DOPE   C39 3584   8.034   7.110  15.558
   28DOPE   H9X 3585   7.926   7.130  15.554
   28DOPE  C310 3586   8.096   7.072  15.445
   28DOPE  H10X 3587   8.037   7.062  15.353
   28DOPE  C311 3588   8.242   7.040  15.428
   28DOPE  H11X 3589   8.305   7.095  15.501
   28DOPE  H11Y 3590   8.259   6.931  15.446
   28DOPE  C312 3591   8.292   7.072  15.286
   28DOPE  H12X 3592   8.232   7.014  15.212
   28DOPE  H12Y 3593   8.397   7.038  15.276
   28DOPE  C313 3594   8.287   7.221  15.251
   28DOPE  H13X 3595   8.182   7.256  15.249
   28DOPE  H13Y 3596   8.340   7.278  15.330
   28DOPE  C314 3597   8.353   7.256  15.116
   28DOPE  H14X 3598   0.012   7.230  15.120
   28DOPE  H14Y 3599   8.345   7.365  15.099
   28DOPE  C315 3600   8.290   7.183  14.996
   28DOPE  H15X 3601   8.180   7.199  14.998
   28DOPE  H15Y 3602   8.308   7.074  15.004
   28DOPE  C316 3603   8.345   7.233  14.861
   28DOPE  H16X 3604   0.007   7.228  14.864
   28DOPE  H16Y 3605   8.317   7.340  14.847
   28DOPE  C317 3606   8.296   7.152  14.740
   28DOPE  H17X 3607   8.347   7.190  14.649
   28DOPE  H17Y 3608   8.327   7.046  14.753
   28DOPE  C318 3609   8.144   7.157  14.717
   28DOPE  H18X 3610   8.090   7.112  14.803
   28DOPE  H18Y 3611   8.111   7.262  14.705
   28DOPE  H18Z 3612   8.117   7.100  14.626
   29DOPE     N 3613   7.726   0.939  17.068
   29DOPE   HN1 3614   7.697   1.036  17.090
   29DOPE   HN2 3615   7.719   0.930  16.965
   29DOPE   HN3 3616   7.654   0.876  17.110
   29DOPE   C12 3617   7.865   0.902  17.114
   29DOPE  H12A 3618   7.862   0.796  17.147
   29DOPE  H12B 3619   7.891   0.967  17.200
   29DOPE   C11 3620   7.967   0.918  17.000
   29DOPE  H11A 3621   7.970   1.025  16.970
   29DOPE  H11B 3622   7.934   0.858  16.912
   29DOPE     P 3623   8.218   0.882  16.943
   29DOPE   O13 3624   8.342   0.881  17.025
   29DOPE   O14 3625   8.194   0.994  16.851
   29DOPE   O11 3626   8.199   0.742  16.871
   29DOPE   O12 3627   8.095   0.874  17.045
   29DOPE    C1 3628   8.309   0.657  16.837
   29DOPE    HA 3629   8.274   0.551  16.843
   29DOPE    HB 3630   8.393   0.665  16.910
   29DOPE    C2 3631   8.366   0.676  16.692
   29DOPE    HS 3632   8.440   0.594  16.676
   29DOPE   O21 3633   8.428   0.804  16.680
   29DOPE   C21 3634   0.101   0.814  16.731
   29DOPE   O22 3635   0.163   0.721  16.781
   29DOPE   C22 3636   0.157   0.955  16.714
   29DOPE   H2R 3637   0.257   0.947  16.666
   29DOPE   H2S 3638   0.172   0.996  16.816
   29DOPE    C3 3639   8.260   0.659  16.579
   29DOPE    HX 3640   8.203   0.565  16.596
   29DOPE    HY 3641   8.319   0.647  16.486
   29DOPE   O31 3642   8.168   0.770  16.568
   29DOPE   C31 3643   8.107   0.778  16.450
   29DOPE   O32 3644   8.115   0.695  16.361
   29DOPE   C32 3645   8.024   0.906  16.444
   29DOPE   H2X 3646   7.952   0.901  16.529
   29DOPE   H2Y 3647   8.092   0.992  16.462
   29DOPE   C23 3648   0.068   1.054  16.634
   29DOPE   H3R 3649   0.109   1.156  16.649
   29DOPE   H3S 3650   8.414   1.054  16.676
   29DOPE   C24 3651   0.064   1.025  16.483
   29DOPE   H4R 3652   0.019   0.925  16.467
   29DOPE   H4S 3653   0.168   1.023  16.443
   29DOPE   C25 3654   8.430   1.129  16.406
   29DOPE   H5R 3655   0.034   1.226  16.407
   29DOPE   H5S 3656   8.333   1.143  16.460
   29DOPE   C26 3657   8.398   1.088  16.262
   29DOPE   H6R 3658   8.335   1.167  16.215
   29DOPE   H6S 3659   8.337   0.994  16.265
   29DOPE   C27 3660   0.073   1.065  16.174
   29DOPE   H7R 3661   0.131   0.977  16.212
   29DOPE   H7S 3662   0.139   1.154  16.182
   29DOPE   C28 3663   0.040   1.043  16.025
   29DOPE   H8R 3664   0.136   1.037  15.969
   29DOPE   H8S 3665   8.436   1.133  15.987
   29DOPE   C29 3666   8.402   0.921  16.002
   29DOPE   H9R 3667   8.303   0.927  16.049
   29DOPE  C210 3668   8.432   0.811  15.931
   29DOPE  H10R 3669   8.357   0.731  15.924
   29DOPE  C211 3670   0.112   0.781  15.857
   29DOPE  H11R 3671   0.148   0.681  15.888
   29DOPE  H11S 3672   0.193   0.853  15.881
   29DOPE  C212 3673   0.093   0.778  15.704
   29DOPE  H12R 3674   0.006   0.714  15.678
   29DOPE  H12S 3675   0.182   0.730  15.659
   29DOPE  C213 3676   0.076   0.916  15.640
   29DOPE  H13R 3677   0.169   0.976  15.650
   29DOPE  H13S 3678   8.444   0.971  15.694
   29DOPE  C214 3679   0.035   0.908  15.492
   29DOPE  H14R 3680   8.442   1.006  15.459
   29DOPE  H14S 3681   8.402   0.832  15.484
   29DOPE  C215 3682   0.147   0.868  15.396
   29DOPE  H15R 3683   0.210   0.790  15.443
   29DOPE  H15S 3684   0.212   0.956  15.376
   29DOPE  C216 3685   0.094   0.813  15.262
   29DOPE  H16R 3686   0.040   0.894  15.208
   29DOPE  H16S 3687   0.021   0.732  15.284
   29DOPE  C217 3688   0.205   0.757  15.173
   29DOPE  H17R 3689   0.262   0.680  15.231
   29DOPE  H17S 3690   0.276   0.838  15.147
   29DOPE  C218 3691   0.152   0.692  15.045
   29DOPE  H18R 3692   0.235   0.653  14.983
   29DOPE  H18S 3693   0.096   0.767  14.984
   29DOPE  H18T 3694   0.083   0.608  15.069
   29DOPE   C33 3695   7.945   0.926  16.312
   29DOPE   H3X 3696   7.871   1.007  16.330
   29DOPE   H3Y 3697   7.888   0.835  16.286
   29DOPE   C34 3698   8.033   0.969  16.193
   29DOPE   H4X 3699   8.100   1.051  16.226
   29DOPE   H4Y 3700   8.096   0.884  16.161
   29DOPE   C35 3701   7.950   1.020  16.073
   29DOPE   H5X 3702   7.888   1.105  16.109
   29DOPE   H5Y 3703   7.881   0.941  16.038
   29DOPE   C36 3704   8.036   1.070  15.956
   29DOPE   H6X 3705   8.132   1.110  15.995
   29DOPE   H6Y 3706   7.983   1.154  15.906
   29DOPE   C37 3707   8.065   0.963  15.850
   29DOPE   H7X 3708   8.109   0.875  15.901
   29DOPE   H7Y 3709   7.970   0.930  15.803
   29DOPE   C38 3710   8.165   1.008  15.739
   29DOPE   H8X 3711   8.193   0.917  15.682
   29DOPE   H8Y 3712   8.257   1.043  15.790
   29DOPE   C39 3713   8.115   1.117  15.647
   29DOPE   H9X 3714   8.095   1.213  15.697
   29DOPE  C310 3715   8.097   1.108  15.514
   29DOPE  H10X 3716   8.059   1.195  15.459
   29DOPE  C311 3717   8.121   0.985  15.429
   29DOPE  H11X 3718   8.221   0.941  15.453
   29DOPE  H11Y 3719   8.046   0.907  15.453
   29DOPE  C312 3720   8.115   1.009  15.277
   29DOPE  H12X 3721   8.017   1.052  15.249
   29DOPE  H12Y 3722   8.123   0.910  15.227
   29DOPE  C313 3723   8.227   1.098  15.222
   29DOPE  H13X 3724   8.208   1.203  15.251
   29DOPE  H13Y 3725   8.323   1.068  15.269
   29DOPE  C314 3726   8.244   1.088  15.069
   29DOPE  H14X 3727   8.271   0.983  15.045
   29DOPE  H14Y 3728   8.330   1.151  15.038
   29DOPE  C315 3729   8.120   1.126  14.987
   29DOPE  H15X 3730   8.034   1.063  15.019
   29DOPE  H15Y 3731   8.139   1.102  14.880
   29DOPE  C316 3732   8.079   1.274  14.997
   29DOPE  H16X 3733   8.064   1.303  15.103
   29DOPE  H16Y 3734   7.982   1.286  14.945
   29DOPE  C317 3735   8.180   1.369  14.931
   29DOPE  H17X 3736   8.278   1.362  14.983
   29DOPE  H17Y 3737   8.197   1.335  14.826
   29DOPE  C318 3738   8.135   1.515  14.929
   29DOPE  H18X 3739   8.040   1.526  14.872
   29DOPE  H18Y 3740   8.118   1.552  15.033
   29DOPE  H18Z 3741   8.212   1.580  14.882
   30DOPE     N 3742   0.693   8.017  17.072
   30DOPE   HN1 3743   0.745   8.065  16.996
   30DOPE   HN2 3744   0.757   7.962  17.132
   30DOPE   HN3 3745   0.629   7.949  17.025
   30DOPE   C12 3746   0.606   8.112  17.151
   30DOPE  H12A 3747   0.656   8.211  17.154
   30DOPE  H12B 3748   0.599   8.072  17.255
   30DOPE   C11 3749   0.465   8.123  17.091
   30DOPE  H11A 3750   0.469   8.158  16.985
   30DOPE  H11B 3751   0.409   8.201  17.147
   30DOPE     P 3752   0.382   7.896  16.985
   30DOPE   O13 3753   0.301   7.781  17.031
   30DOPE   O14 3754   0.520   7.870  16.941
   30DOPE   O11 3755   0.304   7.978  16.876
   30DOPE   O12 3756   0.394   7.999  17.106
   30DOPE    C1 3757   0.172   8.025  16.908
   30DOPE    HA 3758   0.175   8.095  16.995
   30DOPE    HB 3759   0.106   7.941  16.936
   30DOPE    C2 3760   0.104   8.102  16.791
   30DOPE    HS 3761   8.447   8.119  16.819
   30DOPE   O21 3762   0.112   8.029  16.667
   30DOPE   C21 3763   0.038   7.920  16.659
   30DOPE   O22 3764   8.417   7.873  16.748
   30DOPE   C22 3765   0.040   7.867  16.515
   30DOPE   H2R 3766   8.431   7.939  16.453
   30DOPE   H2S 3767   8.435   7.769  16.515
   30DOPE    C3 3768   0.168   8.243  16.769
   30DOPE    HX 3769   0.158   8.298  16.865
   30DOPE    HY 3770   0.106   8.299  16.696
   30DOPE   O31 3771   0.308   8.240  16.734
   30DOPE   C31 3772   0.334   8.246  16.603
   30DOPE   O32 3773   0.252   8.261  16.515
   30DOPE   C32 3774   0.486   8.242  16.584
   30DOPE   H2X 3775   0.531   8.309  16.661
   30DOPE   H2Y 3776   0.520   8.138  16.604
   30DOPE   C23 3777   0.180   7.849  16.452
   30DOPE   H3R 3778   0.240   7.779  16.513
   30DOPE   H3S 3779   0.233   7.947  16.450
   30DOPE   C24 3780   0.170   7.795  16.308
   30DOPE   H4R 3781   0.108   7.865  16.248
   30DOPE   H4S 3782   0.119   7.697  16.310
   30DOPE   C25 3783   0.307   7.778  16.240
   30DOPE   H5R 3784   0.371   7.713  16.305
   30DOPE   H5S 3785   0.356   7.878  16.234
   30DOPE   C26 3786   0.301   7.717  16.099
   30DOPE   H6R 3787   0.260   7.614  16.105
   30DOPE   H6S 3788   0.404   7.709  16.060
   30DOPE   C27 3789   0.217   7.799  15.999
   30DOPE   H7R 3790   0.229   7.906  16.024
   30DOPE   H7S 3791   0.110   7.773  16.012
   30DOPE   C28 3792   0.259   7.781  15.851
   30DOPE   H8R 3793   0.358   7.829  15.839
   30DOPE   H8S 3794   0.187   7.838  15.789
   30DOPE   C29 3795   0.262   7.638  15.804
   30DOPE   H9R 3796   0.196   7.568  15.857
   30DOPE  C210 3797   0.339   7.591  15.703
   30DOPE  H10R 3798   0.333   7.484  15.677
   30DOPE  C211 3799   0.434   7.671  15.617
   30DOPE  H11R 3800   0.410   7.779  15.618
   30DOPE  H11S 3801   0.424   7.638  15.511
   30DOPE  C212 3802   0.582   7.655  15.660
   30DOPE  H12R 3803   0.601   7.549  15.688
   30DOPE  H12S 3804   0.599   7.717  15.750
   30DOPE  C213 3805   0.686   7.691  15.552
   30DOPE  H13R 3806   0.681   7.618  15.468
   30DOPE  H13S 3807   0.786   7.678  15.599
   30DOPE  C214 3808   0.680   7.835  15.495
   30DOPE  H14R 3809   0.782   7.860  15.457
   30DOPE  H14S 3810   0.658   7.905  15.578
   30DOPE  C215 3811   0.582   7.859  15.379
   30DOPE  H15R 3812   0.597   7.962  15.342
   30DOPE  H15S 3813   0.478   7.854  15.418
   30DOPE  C216 3814   0.593   7.763  15.259
   30DOPE  H16R 3815   0.519   7.793  15.182
   30DOPE  H16S 3816   0.565   7.660  15.291
   30DOPE  C217 3817   0.732   7.758  15.193
   30DOPE  H17R 3818   0.808   7.729  15.269
   30DOPE  H17S 3819   0.758   7.860  15.157
   30DOPE  C218 3820   0.739   7.659  15.077
   30DOPE  H18R 3821   0.719   7.555  15.112
   30DOPE  H18S 3822   0.840   7.661  15.030
   30DOPE  H18T 3823   0.664   7.684  14.999
   30DOPE   C33 3824   0.533   8.288  16.443
   30DOPE   H3X 3825   0.613   8.364  16.456
   30DOPE   H3Y 3826   0.451   8.337  16.387
   30DOPE   C34 3827   0.592   8.175  16.358
   30DOPE   H4X 3828   0.684   8.136  16.408
   30DOPE   H4Y 3829   0.520   8.091  16.351
   30DOPE   C35 3830   0.629   8.222  16.216
   30DOPE   H5X 3831   0.666   8.327  16.223
   30DOPE   H5Y 3832   0.537   8.224  16.154
   30DOPE   C36 3833   0.738   8.138  16.148
   30DOPE   H6X 3834   0.832   8.151  16.206
   30DOPE   H6Y 3835   0.757   8.180  16.047
   30DOPE   C37 3836   0.708   7.988  16.136
   30DOPE   H7X 3837   0.799   7.936  16.098
   30DOPE   H7Y 3838   0.688   7.947  16.237
   30DOPE   C38 3839   0.589   7.953  16.044
   30DOPE   H8X 3840   0.498   8.003  16.085
   30DOPE   H8Y 3841   0.571   7.844  16.053
   30DOPE   C39 3842   0.614   7.988  15.899
   30DOPE   H9X 3843   0.691   7.927  15.850
   30DOPE  C310 3844   0.551   8.083  15.828
   30DOPE  H10X 3845   0.579   8.097  15.722
   30DOPE  C311 3846   0.443   8.176  15.877
   30DOPE  H11X 3847   0.382   8.131  15.958
   30DOPE  H11Y 3848   0.491   8.267  15.919
   30DOPE  C312 3849   0.348   8.220  15.764
   30DOPE  H12X 3850   0.408   8.257  15.678
   30DOPE  H12Y 3851   0.287   8.305  15.800
   30DOPE  C313 3852   0.253   8.109  15.718
   30DOPE  H13X 3853   0.312   8.018  15.691
   30DOPE  H13Y 3854   0.187   8.082  15.802
   30DOPE  C314 3855   0.168   8.149  15.596
   30DOPE  H14X 3856   0.120   8.247  15.614
   30DOPE  H14Y 3857   0.087   8.073  15.585
   30DOPE  C315 3858   0.250   8.151  15.466
   30DOPE  H15X 3859   0.299   8.052  15.456
   30DOPE  H15Y 3860   0.330   8.228  15.472
   30DOPE  C316 3861   0.162   8.179  15.343
   30DOPE  H16X 3862   0.124   8.283  15.348
   30DOPE  H16Y 3863   0.075   8.111  15.345
   30DOPE  C317 3864   0.234   8.157  15.209
   30DOPE  H17X 3865   0.164   8.183  15.127
   30DOPE  H17Y 3866   0.320   8.227  15.202
   30DOPE  C318 3867   0.284   8.013  15.188
   30DOPE  H18X 3868   0.368   7.991  15.256
   30DOPE  H18Y 3869   0.203   7.940  15.207
   30DOPE  H18Z 3870   0.320   7.999  15.084
   31DOPE     N 3871   3.539   3.552  12.694
   31DOPE   HN1 3872   3.439   3.524  12.693
   31DOPE   HN2 3873   3.545   3.655  12.688
   31DOPE   HN3 3874   3.587   3.512  12.611
   31DOPE   C12 3875   3.596   3.499  12.822
   31DOPE  H12A 3876   3.686   3.558  12.848
   31DOPE  H12B 3877   3.624   3.393  12.805
   31DOPE   C11 3878   3.488   3.506  12.932
   31DOPE  H11A 3879   3.471   3.614  12.954
   31DOPE  H11B 3880   3.526   3.458  13.024
   31DOPE     P 3881   3.234   3.469  12.965
   31DOPE   O13 3882   3.127   3.387  12.906
   31DOPE   O14 3883   3.211   3.616  12.963
   31DOPE   O11 3884   3.268   3.421  13.112
   31DOPE   O12 3885   3.369   3.442  12.886
   31DOPE    C1 3886   3.298   3.283  13.135
   31DOPE    HA 3887   3.395   3.257  13.085
   31DOPE    HB 3888   3.220   3.216  13.094
   31DOPE    C2 3889   3.315   3.251  13.286
   31DOPE    HS 3890   3.387   3.167  13.293
   31DOPE   O21 3891   3.187   3.217  13.343
   31DOPE   C21 3892   3.158   3.090  13.353
   31DOPE   O22 3893   3.233   2.996  13.331
   31DOPE   C22 3894   3.011   3.076  13.394
   31DOPE   H2R 3895   2.975   2.980  13.350
   31DOPE   H2S 3896   2.953   3.159  13.350
   31DOPE    C3 3897   3.377   3.369  13.367
   31DOPE    HX 3898   3.450   3.421  13.301
   31DOPE    HY 3899   3.432   3.324  13.453
   31DOPE   O31 3900   3.276   3.460  13.415
   31DOPE   C31 3901   3.324   3.559  13.488
   31DOPE   O32 3902   3.442   3.580  13.510
   31DOPE   C32 3903   3.207   3.639  13.546
   31DOPE   H2X 3904   3.142   3.671  13.462
   31DOPE   H2Y 3905   3.149   3.570  13.611
   31DOPE   C23 3906   2.991   3.070  13.547
   31DOPE   H3R 3907   3.058   2.993  13.592
   31DOPE   H3S 3908   2.886   3.039  13.566
   31DOPE   C24 3909   3.012   3.204  13.621
   31DOPE   H4R 3910   2.961   3.286  13.566
   31DOPE   H4S 3911   3.120   3.228  13.624
   31DOPE   C25 3912   2.956   3.197  13.764
   31DOPE   H5R 3913   2.988   3.102  13.811
   31DOPE   H5S 3914   2.845   3.194  13.759
   31DOPE   C26 3915   3.001   3.313  13.855
   31DOPE   H6R 3916   2.961   3.409  13.816
   31DOPE   H6S 3917   3.112   3.319  13.851
   31DOPE   C27 3918   2.960   3.294  14.002
   31DOPE   H7R 3919   3.004   3.376  14.063
   31DOPE   H7S 3920   3.004   3.198  14.039
   31DOPE   C28 3921   2.808   3.289  14.030
   31DOPE   H8R 3922   2.793   3.274  14.139
   31DOPE   H8S 3923   2.766   3.199  13.980
   31DOPE   C29 3924   2.738   3.413  13.980
   31DOPE   H9R 3925   2.721   3.414  13.871
   31DOPE  C210 3926   2.698   3.519  14.052
   31DOPE  H10R 3927   2.649   3.602  13.999
   31DOPE  C211 3928   2.712   3.542  14.201
   31DOPE  H11R 3929   2.747   3.451  14.256
   31DOPE  H11S 3930   2.612   3.566  14.244
   31DOPE  C212 3931   2.807   3.659  14.233
   31DOPE  H12R 3932   2.817   3.726  14.145
   31DOPE  H12S 3933   2.908   3.617  14.253
   31DOPE  C213 3934   2.764   3.748  14.350
   31DOPE  H13R 3935   2.670   3.800  14.322
   31DOPE  H13S 3936   2.842   3.826  14.364
   31DOPE  C214 3937   2.742   3.676  14.484
   31DOPE  H14R 3938   2.653   3.610  14.478
   31DOPE  H14S 3939   2.720   3.754  14.561
   31DOPE  C215 3940   2.863   3.594  14.533
   31DOPE  H15R 3941   2.957   3.644  14.503
   31DOPE  H15S 3942   2.860   3.494  14.483
   31DOPE  C216 3943   2.863   3.577  14.685
   31DOPE  H16R 3944   2.761   3.549  14.719
   31DOPE  H16S 3945   2.888   3.674  14.732
   31DOPE  C217 3946   2.962   3.470  14.735
   31DOPE  H17R 3947   3.062   3.490  14.691
   31DOPE  H17S 3948   2.928   3.371  14.697
   31DOPE  C218 3949   2.973   3.463  14.887
   31DOPE  H18R 3950   2.874   3.442  14.932
   31DOPE  H18S 3951   3.010   3.560  14.928
   31DOPE  H18T 3952   3.044   3.383  14.917
   31DOPE   C33 3953   3.255   3.761  13.626
   31DOPE   H3X 3954   3.307   3.831  13.557
   31DOPE   H3Y 3955   3.330   3.729  13.702
   31DOPE   C34 3956   3.142   3.838  13.698
   31DOPE   H4X 3957   3.184   3.934  13.736
   31DOPE   H4Y 3958   3.064   3.863  13.624
   31DOPE   C35 3959   3.078   3.764  13.816
   31DOPE   H5X 3960   3.027   3.672  13.780
   31DOPE   H5Y 3961   3.001   3.830  13.861
   31DOPE   C36 3962   3.178   3.725  13.927
   31DOPE   H6X 3963   3.242   3.812  13.952
   31DOPE   H6Y 3964   3.245   3.644  13.889
   31DOPE   C37 3965   3.107   3.677  14.055
   31DOPE   H7X 3966   3.048   3.762  14.094
   31DOPE   H7Y 3967   3.036   3.596  14.029
   31DOPE   C38 3968   3.202   3.629  14.166
   31DOPE   H8X 3969   3.141   3.611  14.258
   31DOPE   H8Y 3970   3.273   3.712  14.190
   31DOPE   C39 3971   3.276   3.502  14.131
   31DOPE   H9X 3972   3.224   3.436  14.060
   31DOPE  C310 3973   3.398   3.466  14.176
   31DOPE  H10X 3974   3.441   3.371  14.142
   31DOPE  C311 3975   3.484   3.545  14.271
   31DOPE  H11X 3976   3.554   3.608  14.213
   31DOPE  H11Y 3977   3.423   3.613  14.334
   31DOPE  C312 3978   3.569   3.456  14.364
   31DOPE  H12X 3979   3.635   3.523  14.423
   31DOPE  H12Y 3980   3.635   3.390  14.304
   31DOPE  C313 3981   3.488   3.370  14.463
   31DOPE  H13X 3982   3.417   3.436  14.518
   31DOPE  H13Y 3983   3.428   3.295  14.408
   31DOPE  C314 3984   3.578   3.299  14.566
   31DOPE  H14X 3985   3.637   3.376  14.620
   31DOPE  H14Y 3986   3.650   3.234  14.512
   31DOPE  C315 3987   3.500   3.216  14.668
   31DOPE  H15X 3988   3.460   3.126  14.618
   31DOPE  H15Y 3989   3.414   3.275  14.706
   31DOPE  C316 3990   3.588   3.174  14.787
   31DOPE  H16X 3991   3.608   3.263  14.850
   31DOPE  H16Y 3992   3.686   3.138  14.749
   31DOPE  C317 3993   3.528   3.063  14.875
   31DOPE  H17X 3994   3.524   2.969  14.816
   31DOPE  H17Y 3995   3.596   3.045  14.960
   31DOPE  C318 3996   3.387   3.092  14.929
   31DOPE  H18X 3997   3.315   3.102  14.845
   31DOPE  H18Y 3998   3.353   3.010  14.995
   31DOPE  H18Z 3999   3.387   3.187  14.987
   32DOPE     N 4000   5.116   3.320  13.219
   32DOPE   HN1 4001   5.126   3.389  13.295
   32DOPE   HN2 4002   5.184   3.242  13.230
   32DOPE   HN3 4003   5.141   3.367  13.130
   32DOPE   C12 4004   4.974   3.271  13.203
   32DOPE  H12A 4005   4.907   3.340  13.259
   32DOPE  H12B 4006   4.966   3.169  13.247
   32DOPE   C11 4007   4.932   3.270  13.054
   32DOPE  H11A 4008   4.828   3.230  13.048
   32DOPE  H11B 4009   4.995   3.200  12.996
   32DOPE     P 4010   5.051   3.456  12.911
   32DOPE   O13 4011   5.028   3.414  12.772
   32DOPE   O14 4012   5.173   3.412  12.982
   32DOPE   O11 4013   5.030   3.611  12.928
   32DOPE   O12 4014   4.931   3.402  13.001
   32DOPE    C1 4015   5.130   3.705  12.884
   32DOPE    HA 4016   5.079   3.785  12.826
   32DOPE    HB 4017   5.204   3.660  12.815
   32DOPE    C2 4018   5.208   3.774  13.000
   32DOPE    HS 4019   5.276   3.849  12.953
   32DOPE   O21 4020   5.281   3.677  13.076
   32DOPE   C21 4021   5.402   3.650  13.032
   32DOPE   O22 4022   5.452   3.692  12.928
   32DOPE   C22 4023   5.476   3.567  13.136
   32DOPE   H2R 4024   5.561   3.517  13.085
   32DOPE   H2S 4025   5.406   3.489  13.174
   32DOPE    C3 4026   5.118   3.857  13.098
   32DOPE    HX 4027   5.060   3.928  13.036
   32DOPE    HY 4028   5.184   3.918  13.162
   32DOPE   O31 4029   5.025   3.776  13.174
   32DOPE   C31 4030   5.072   3.730  13.290
   32DOPE   O32 4031   5.180   3.755  13.340
   32DOPE   C32 4032   4.967   3.639  13.354
   32DOPE   H2X 4033   4.868   3.687  13.340
   32DOPE   H2Y 4034   4.966   3.543  13.298
   32DOPE   C23 4035   5.527   3.656  13.251
   32DOPE   H3R 4036   5.442   3.709  13.299
   32DOPE   H3S 4037   5.593   3.735  13.208
   32DOPE   C24 4038   5.608   3.581  13.358
   32DOPE   H4R 4039   5.657   3.656  13.423
   32DOPE   H4S 4040   5.689   3.522  13.308
   32DOPE   C25 4041   5.526   3.487  13.449
   32DOPE   H5R 4042   5.596   3.442  13.522
   32DOPE   H5S 4043   5.482   3.404  13.389
   32DOPE   C26 4044   5.414   3.561  13.525
   32DOPE   H6R 4045   5.328   3.576  13.456
   32DOPE   H6S 4046   5.450   3.661  13.554
   32DOPE   C27 4047   5.366   3.490  13.653
   32DOPE   H7R 4048   5.338   3.384  13.630
   32DOPE   H7S 4049   5.275   3.542  13.688
   32DOPE   C28 4050   5.471   3.494  13.766
   32DOPE   H8R 4051   5.507   3.598  13.772
   32DOPE   H8S 4052   5.558   3.432  13.735
   32DOPE   C29 4053   5.419   3.444  13.899
   32DOPE   H9R 4054   5.361   3.351  13.893
   32DOPE  C210 4055   5.436   3.503  14.019
   32DOPE  H10R 4056   5.391   3.456  14.108
   32DOPE  C211 4057   5.512   3.631  14.048
   32DOPE  H11R 4058   5.571   3.664  13.960
   32DOPE  H11S 4059   5.586   3.613  14.129
   32DOPE  C212 4060   5.419   3.747  14.088
   32DOPE  H12R 4061   5.343   3.763  14.009
   32DOPE  H12S 4062   5.481   3.840  14.093
   32DOPE  C213 4063   5.348   3.731  14.224
   32DOPE  H13R 4064   5.282   3.641  14.221
   32DOPE  H13S 4065   5.282   3.819  14.239
   32DOPE  C214 4066   5.444   3.720  14.343
   32DOPE  H14R 4067   5.516   3.805  14.338
   32DOPE  H14S 4068   5.503   3.626  14.335
   32DOPE  C215 4069   5.371   3.723  14.478
   32DOPE  H15R 4070   5.295   3.642  14.479
   32DOPE  H15S 4071   5.318   3.820  14.488
   32DOPE  C216 4072   5.464   3.704  14.599
   32DOPE  H16R 4073   5.522   3.610  14.587
   32DOPE  H16S 4074   5.402   3.694  14.690
   32DOPE  C217 4075   5.562   3.821  14.621
   32DOPE  H17R 4076   5.504   3.915  14.630
   32DOPE  H17S 4077   5.628   3.830  14.532
   32DOPE  C218 4078   5.650   3.803  14.746
   32DOPE  H18R 4079   5.587   3.795  14.837
   32DOPE  H18S 4080   5.717   3.891  14.758
   32DOPE  H18T 4081   5.712   3.712  14.738
   32DOPE   C33 4082   4.992   3.616  13.506
   32DOPE   H3X 4083   5.007   3.715  13.554
   32DOPE   H3Y 4084   5.084   3.557  13.524
   32DOPE   C34 4085   4.872   3.550  13.574
   32DOPE   H4X 4086   4.780   3.585  13.522
   32DOPE   H4Y 4087   4.875   3.439  13.563
   32DOPE   C35 4088   4.854   3.590  13.722
   32DOPE   H5X 4089   4.752   3.561  13.755
   32DOPE   H5Y 4090   4.859   3.701  13.728
   32DOPE   C36 4091   4.956   3.530  13.819
   32DOPE   H6X 4092   4.951   3.588  13.913
   32DOPE   H6Y 4093   5.059   3.540  13.780
   32DOPE   C37 4094   4.926   3.383  13.855
   32DOPE   H7X 4095   4.818   3.375  13.878
   32DOPE   H7Y 4096   4.947   3.319  13.767
   32DOPE   C38 4097   5.008   3.335  13.976
   32DOPE   H8X 4098   4.990   3.406  14.060
   32DOPE   H8Y 4099   5.116   3.343  13.951
   32DOPE   C39 4100   4.968   3.196  14.020
   32DOPE   H9X 4101   4.860   3.181  14.027
   32DOPE  C310 4102   5.050   3.094  14.051
   32DOPE  H10X 4103   5.005   2.999  14.083
   32DOPE  C311 4104   5.201   3.093  14.050
   32DOPE  H11X 4105   5.237   3.008  13.990
   32DOPE  H11Y 4106   5.243   3.185  14.004
   32DOPE  C312 4107   5.261   3.081  14.192
   32DOPE  H12X 4108   5.371   3.070  14.182
   32DOPE  H12Y 4109   5.223   2.989  14.241
   32DOPE  C313 4110   5.233   3.202  14.282
   32DOPE  H13X 4111   5.270   3.294  14.232
   32DOPE  H13Y 4112   5.124   3.214  14.297
   32DOPE  C314 4113   5.301   3.190  14.419
   32DOPE  H14X 4114   5.411   3.179  14.405
   32DOPE  H14Y 4115   5.264   3.097  14.469
   32DOPE  C315 4116   5.274   3.311  14.510
   32DOPE  H15X 4117   5.164   3.321  14.525
   32DOPE  H15Y 4118   5.308   3.402  14.458
   32DOPE  C316 4119   5.344   3.303  14.647
   32DOPE  H16X 4120   5.321   3.396  14.703
   32DOPE  H16Y 4121   5.454   3.302  14.630
   32DOPE  C317 4122   5.307   3.182  14.733
   32DOPE  H17X 4123   5.341   3.089  14.682
   32DOPE  H17Y 4124   5.364   3.188  14.828
   32DOPE  C318 4125   5.157   3.170  14.765
   32DOPE  H18X 4126   5.099   3.153  14.672
   32DOPE  H18Y 4127   5.139   3.084  14.834
   32DOPE  H18Z 4128   5.121   3.262  14.814
   33DOPE     N 4129   3.894   2.392  12.899
   33DOPE   HN1 4130   3.979   2.392  12.839
   33DOPE   HN2 4131   3.866   2.295  12.924
   33DOPE   HN3 4132   3.813   2.435  12.849
   33DOPE   C12 4133   3.912   2.472  13.025
   33DOPE  H12A 4134   3.900   2.579  12.998
   33DOPE  H12B 4135   4.015   2.455  13.062
   33DOPE   C11 4136   3.807   2.430  13.132
   33DOPE  H11A 4137   3.799   2.510  13.209
   33DOPE  H11B 4138   3.846   2.340  13.184
   33DOPE     P 4139   3.582   2.507  13.020
   33DOPE   O13 4140   3.448   2.447  13.000
   33DOPE   O14 4141   3.649   2.563  12.899
   33DOPE   O11 4142   3.578   2.613  13.136
   33DOPE   O12 4143   3.680   2.397  13.076
   33DOPE    C1 4144   3.516   2.583  13.263
   33DOPE    HA 4145   3.592   2.550  13.336
   33DOPE    HB 4146   3.440   2.503  13.254
   33DOPE    C2 4147   3.442   2.708  13.321
   33DOPE    HS 4148   3.388   2.757  13.238
   33DOPE   O21 4149   3.536   2.796  13.385
   33DOPE   C21 4150   3.582   2.895  13.312
   33DOPE   O22 4151   3.558   2.917  13.194
   33DOPE   C22 4152   3.672   2.984  13.399
   33DOPE   H2R 4153   3.707   3.066  13.332
   33DOPE   H2S 4154   3.759   2.925  13.432
   33DOPE    C3 4155   3.332   2.669  13.426
   33DOPE    HX 4156   3.264   2.598  13.375
   33DOPE    HY 4157   3.274   2.762  13.446
   33DOPE   O31 4158   3.386   2.619  13.551
   33DOPE   C31 4159   3.314   2.526  13.613
   33DOPE   O32 4160   3.224   2.461  13.562
   33DOPE   C32 4161   3.357   2.518  13.760
   33DOPE   H2X 4162   3.465   2.490  13.764
   33DOPE   H2Y 4163   3.346   2.621  13.801
   33DOPE   C23 4164   3.598   3.047  13.520
   33DOPE   H3R 4165   3.492   3.069  13.493
   33DOPE   H3S 4166   3.646   3.144  13.545
   33DOPE   C24 4167   3.600   2.960  13.647
   33DOPE   H4R 4168   3.576   2.855  13.622
   33DOPE   H4S 4169   3.521   2.997  13.716
   33DOPE   C25 4170   3.734   2.966  13.723
   33DOPE   H5R 4171   3.752   3.071  13.756
   33DOPE   H5S 4172   3.817   2.937  13.656
   33DOPE   C26 4173   3.736   2.875  13.847
   33DOPE   H6R 4174   3.726   2.769  13.813
   33DOPE   H6S 4175   3.648   2.898  13.911
   33DOPE   C27 4176   3.865   2.889  13.930
   33DOPE   H7R 4177   3.867   2.990  13.978
   33DOPE   H7S 4178   3.951   2.883  13.861
   33DOPE   C28 4179   3.882   2.780  14.038
   33DOPE   H8R 4180   3.984   2.792  14.082
   33DOPE   H8S 4181   3.882   2.681  13.987
   33DOPE   C29 4182   3.775   2.782  14.144
   33DOPE   H9R 4183   3.673   2.768  14.105
   33DOPE  C210 4184   3.791   2.798  14.277
   33DOPE  H10R 4185   3.701   2.795  14.341
   33DOPE  C211 4186   3.920   2.818  14.353
   33DOPE  H11R 4187   4.004   2.839  14.284
   33DOPE  H11S 4188   3.947   2.725  14.408
   33DOPE  C212 4189   3.913   2.935  14.454
   33DOPE  H12R 4190   3.889   3.028  14.399
   33DOPE  H12S 4191   4.014   2.949  14.498
   33DOPE  C213 4192   3.812   2.918  14.569
   33DOPE  H13R 4193   3.710   2.926  14.525
   33DOPE  H13S 4194   3.824   3.004  14.639
   33DOPE  C214 4195   3.819   2.787  14.650
   33DOPE  H14R 4196   3.816   2.698  14.583
   33DOPE  H14S 4197   3.726   2.784  14.711
   33DOPE  C215 4198   3.937   2.775  14.748
   33DOPE  H15R 4199   3.906   2.701  14.826
   33DOPE  H15S 4200   3.953   2.872  14.800
   33DOPE  C216 4201   4.068   2.725  14.686
   33DOPE  H16R 4202   4.105   2.801  14.613
   33DOPE  H16S 4203   4.048   2.632  14.629
   33DOPE  C217 4204   4.180   2.698  14.788
   33DOPE  H17R 4205   4.200   2.791  14.844
   33DOPE  H17S 4206   4.272   2.672  14.732
   33DOPE  C218 4207   4.150   2.585  14.887
   33DOPE  H18R 4208   4.130   2.490  14.833
   33DOPE  H18S 4209   4.062   2.609  14.950
   33DOPE  H18T 4210   4.237   2.568  14.954
   33DOPE   C33 4211   3.272   2.420  13.846
   33DOPE   H3X 4212   3.312   2.317  13.835
   33DOPE   H3Y 4213   3.168   2.419  13.809
   33DOPE   C34 4214   3.264   2.457  13.996
   33DOPE   H4X 4215   3.212   2.555  14.005
   33DOPE   H4Y 4216   3.200   2.383  14.048
   33DOPE   C35 4217   3.399   2.469  14.069
   33DOPE   H5X 4218   3.384   2.527  14.163
   33DOPE   H5Y 4219   3.470   2.528  14.007
   33DOPE   C36 4220   3.463   2.334  14.105
   33DOPE   H6X 4221   3.568   2.350  14.137
   33DOPE   H6Y 4222   3.466   2.272  14.013
   33DOPE   C37 4223   3.389   2.255  14.215
   33DOPE   H7X 4224   3.282   2.247  14.188
   33DOPE   H7Y 4225   3.429   2.151  14.217
   33DOPE   C38 4226   3.400   2.314  14.358
   33DOPE   H8X 4227   3.323   2.264  14.421
   33DOPE   H8Y 4228   3.373   2.422  14.355
   33DOPE   C39 4229   3.538   2.295  14.414
   33DOPE   H9X 4230   3.619   2.342  14.355
   33DOPE  C310 4231   3.571   2.231  14.528
   33DOPE  H10X 4232   3.676   2.227  14.558
   33DOPE  C311 4233   3.476   2.164  14.624
   33DOPE  H11X 4234   3.395   2.110  14.569
   33DOPE  H11Y 4235   3.530   2.087  14.683
   33DOPE  C312 4236   3.410   2.265  14.720
   33DOPE  H12X 4237   3.343   2.210  14.789
   33DOPE  H12Y 4238   3.347   2.334  14.660
   33DOPE  C313 4239   3.511   2.346  14.802
   33DOPE  H13X 4240   3.574   2.277  14.861
   33DOPE  H13Y 4241   3.579   2.402  14.734
   33DOPE  C314 4242   3.445   2.447  14.899
   33DOPE  H14X 4243   3.526   2.500  14.953
   33DOPE  H14Y 4244   3.386   2.390  14.973
   33DOPE  C315 4245   3.356   2.553  14.832
   33DOPE  H15X 4246   3.312   2.617  14.911
   33DOPE  H15Y 4247   3.271   2.503  14.780
   33DOPE  C316 4248   3.429   2.642  14.731
   33DOPE  H16X 4249   3.470   2.579  14.649
   33DOPE  H16Y 4250   3.515   2.692  14.782
   33DOPE  C317 4251   3.338   2.748  14.669
   33DOPE  H17X 4252   3.250   2.698  14.623
   33DOPE  H17Y 4253   3.299   2.814  14.750
   33DOPE  C318 4254   3.408   2.834  14.564
   33DOPE  H18X 4255   3.496   2.886  14.608
   33DOPE  H18Y 4256   3.443   2.771  14.479
   33DOPE  H18Z 4257   3.339   2.911  14.524
   34DOPE     N 4258   2.708   4.884  12.965
   34DOPE   HN1 4259   2.809   4.861  12.957
   34DOPE   HN2 4260   2.658   4.820  12.900
   34DOPE   HN3 4261   2.695   4.982  12.933
   34DOPE   C12 4262   2.659   4.870  13.106
   34DOPE  H12A 4263   2.718   4.940  13.169
   34DOPE  H12B 4264   2.679   4.765  13.139
   34DOPE   C11 4265   2.509   4.903  13.116
   34DOPE  H11A 4266   2.480   4.896  13.223
   34DOPE  H11B 4267   2.450   4.828  13.059
   34DOPE     P 4268   2.340   5.098  13.073
   34DOPE   O13 4269   2.268   5.075  12.946
   34DOPE   O14 4270   2.353   5.239  13.117
   34DOPE   O11 4271   2.271   5.015  13.188
   34DOPE   O12 4272   2.485   5.034  13.064
   34DOPE    C1 4273   2.166   5.070  13.269
   34DOPE    HA 4274   2.071   5.018  13.245
   34DOPE    HB 4275   2.149   5.178  13.250
   34DOPE    C2 4276   2.194   5.055  13.421
   34DOPE    HS 4277   2.134   5.131  13.476
   34DOPE   O21 4278   2.333   5.068  13.452
   34DOPE   C21 4279   2.384   5.189  13.440
   34DOPE   O22 4280   2.322   5.292  13.417
   34DOPE   C22 4281   2.533   5.181  13.470
   34DOPE   H2R 4282   2.578   5.281  13.452
   34DOPE   H2S 4283   2.579   5.109  13.399
   34DOPE    C3 4284   2.148   4.916  13.475
   34DOPE    HX 4285   2.207   4.837  13.424
   34DOPE    HY 4286   2.042   4.901  13.446
   34DOPE   O31 4287   2.157   4.914  13.619
   34DOPE   C31 4288   2.261   4.849  13.671
   34DOPE   O32 4289   2.337   4.776  13.610
   34DOPE   C32 4290   2.275   4.886  13.819
   34DOPE   H2X 4291   2.376   4.930  13.832
   34DOPE   H2Y 4292   2.201   4.965  13.843
   34DOPE   C23 4293   2.561   5.135  13.616
   34DOPE   H3R 4294   2.516   5.035  13.631
   34DOPE   H3S 4295   2.512   5.205  13.686
   34DOPE   C24 4296   2.710   5.127  13.650
   34DOPE   H4R 4297   2.756   5.226  13.629
   34DOPE   H4S 4298   2.760   5.053  13.585
   34DOPE   C25 4299   2.736   5.093  13.798
   34DOPE   H5R 4300   2.673   5.159  13.862
   34DOPE   H5S 4301   2.842   5.114  13.823
   34DOPE   C26 4302   2.709   4.945  13.833
   34DOPE   H6R 4303   2.781   4.883  13.775
   34DOPE   H6S 4304   2.607   4.916  13.799
   34DOPE   C27 4305   2.723   4.913  13.983
   34DOPE   H7R 4306   2.819   4.955  14.020
   34DOPE   H7S 4307   2.727   4.803  13.993
   34DOPE   C28 4308   2.605   4.966  14.067
   34DOPE   H8R 4309   2.511   4.926  14.023
   34DOPE   H8S 4310   2.601   5.076  14.057
   34DOPE   C29 4311   2.613   4.924  14.212
   34DOPE   H9R 4312   2.666   4.830  14.231
   34DOPE  C210 4313   2.559   4.990  14.316
   34DOPE  H10R 4314   2.568   4.948  14.417
   34DOPE  C211 4315   2.480   5.119  14.308
   34DOPE  H11R 4316   2.519   5.184  14.226
   34DOPE  H11S 4317   2.492   5.177  14.401
   34DOPE  C212 4318   2.330   5.096  14.280
   34DOPE  H12R 4319   2.319   5.037  14.186
   34DOPE  H12S 4320   2.282   5.194  14.263
   34DOPE  C213 4321   2.252   5.024  14.393
   34DOPE  H13R 4322   2.297   4.924  14.410
   34DOPE  H13S 4323   2.148   5.009  14.358
   34DOPE  C214 4324   2.250   5.102  14.525
   34DOPE  H14R 4325   2.216   5.206  14.504
   34DOPE  H14S 4326   2.352   5.108  14.566
   34DOPE  C215 4327   2.156   5.040  14.630
   34DOPE  H15R 4328   2.187   4.935  14.650
   34DOPE  H15S 4329   2.053   5.038  14.590
   34DOPE  C216 4330   2.158   5.120  14.762
   34DOPE  H16R 4331   2.140   5.227  14.737
   34DOPE  H16S 4332   2.258   5.113  14.808
   34DOPE  C217 4333   2.051   5.077  14.864
   34DOPE  H17R 4334   1.951   5.092  14.818
   34DOPE  H17S 4335   2.057   5.146  14.951
   34DOPE  C218 4336   2.064   4.933  14.914
   34DOPE  H18R 4337   1.986   4.911  14.990
   34DOPE  H18S 4338   2.164   4.917  14.960
   34DOPE  H18T 4339   2.052   4.862  14.830
   34DOPE   C33 4340   2.256   4.768  13.917
   34DOPE   H3X 4341   2.160   4.716  13.897
   34DOPE   H3Y 4342   2.251   4.810  14.020
   34DOPE   C34 4343   2.372   4.667  13.913
   34DOPE   H4X 4344   2.376   4.622  13.811
   34DOPE   H4Y 4345   2.468   4.719  13.929
   34DOPE   C35 4346   2.359   4.551  14.014
   34DOPE   H5X 4347   2.434   4.476  13.984
   34DOPE   H5Y 4348   2.259   4.503  14.005
   34DOPE   C36 4349   2.389   4.588  14.160
   34DOPE   H6X 4350   2.458   4.675  14.164
   34DOPE   H6Y 4351   2.442   4.502  14.205
   34DOPE   C37 4352   2.264   4.616  14.246
   34DOPE   H7X 4353   2.216   4.710  14.210
   34DOPE   H7Y 4354   2.190   4.535  14.231
   34DOPE   C38 4355   2.295   4.631  14.396
   34DOPE   H8X 4356   2.204   4.668  14.448
   34DOPE   H8Y 4357   2.373   4.710  14.407
   34DOPE   C39 4358   2.338   4.500  14.457
   34DOPE   H9X 4359   2.259   4.423  14.459
   34DOPE  C310 4360   2.459   4.468  14.508
   34DOPE  H10X 4361   2.473   4.367  14.549
   34DOPE  C311 4362   2.581   4.556  14.518
   34DOPE  H11X 4363   2.660   4.521  14.449
   34DOPE  H11Y 4364   2.558   4.661  14.489
   34DOPE  C312 4365   2.635   4.555  14.662
   34DOPE  H12X 4366   2.672   4.454  14.687
   34DOPE  H12Y 4367   2.552   4.578  14.733
   34DOPE  C313 4368   2.746   4.658  14.689
   34DOPE  H13X 4369   2.776   4.648  14.796
   34DOPE  H13Y 4370   2.836   4.635  14.627
   34DOPE  C314 4371   2.702   4.803  14.664
   34DOPE  H14X 4372   2.591   4.809  14.673
   34DOPE  H14Y 4373   2.728   4.832  14.560
   34DOPE  C315 4374   2.762   4.903  14.763
   34DOPE  H15X 4375   2.873   4.896  14.762
   34DOPE  H15Y 4376   2.728   4.874  14.865
   34DOPE  C316 4377   2.720   5.048  14.734
   34DOPE  H16X 4378   2.610   5.052  14.719
   34DOPE  H16Y 4379   2.768   5.079  14.639
   34DOPE  C317 4380   2.760   5.146  14.845
   34DOPE  H17X 4381   2.866   5.129  14.872
   34DOPE  H17Y 4382   2.751   5.249  14.805
   34DOPE  C318 4383   2.673   5.136  14.971
   34DOPE  H18X 4384   2.681   5.035  15.016
   34DOPE  H18Y 4385   2.704   5.211  15.046
   34DOPE  H18Z 4386   2.566   5.154  14.945
   35DOPE     N 4387   6.455   3.255  13.044
   35DOPE   HN1 4388   6.473   3.320  13.123
   35DOPE   HN2 4389   6.546   3.221  13.005
   35DOPE   HN3 4390   6.407   3.313  12.972
   35DOPE   C12 4391   6.362   3.143  13.083
   35DOPE  H12A 4392   6.411   3.086  13.165
   35DOPE  H12B 4393   6.350   3.077  12.995
   35DOPE   C11 4394   6.224   3.195  13.128
   35DOPE  H11A 4395   6.233   3.258  13.219
   35DOPE  H11B 4396   6.163   3.108  13.157
   35DOPE     P 4397   6.169   3.417  12.993
   35DOPE   O13 4398   6.046   3.471  12.934
   35DOPE   O14 4399   6.298   3.435  12.922
   35DOPE   O11 4400   6.191   3.473  13.139
   35DOPE   O12 4401   6.156   3.262  13.021
   35DOPE    C1 4402   6.184   3.612  13.168
   35DOPE    HA 4403   6.083   3.632  13.211
   35DOPE    HB 4404   6.195   3.677  13.079
   35DOPE    C2 4405   6.291   3.658  13.273
   35DOPE    HS 4406   6.385   3.682  13.218
   35DOPE   O21 4407   6.314   3.557  13.373
   35DOPE   C21 4408   6.405   3.467  13.342
   35DOPE   O22 4409   6.461   3.453  13.234
   35DOPE   C22 4410   6.434   3.380  13.466
   35DOPE   H2R 4411   6.346   3.314  13.484
   35DOPE   H2S 4412   6.442   3.451  13.552
   35DOPE    C3 4413   6.246   3.788  13.345
   35DOPE    HX 4414   6.245   3.871  13.270
   35DOPE    HY 4415   6.323   3.812  13.421
   35DOPE   O31 4416   6.113   3.774  13.400
   35DOPE   C31 4417   6.099   3.788  13.531
   35DOPE   O32 4418   6.180   3.838  13.607
   35DOPE   C32 4419   5.963   3.733  13.573
   35DOPE   H2X 4420   5.901   3.817  13.609
   35DOPE   H2Y 4421   5.913   3.688  13.483
   35DOPE   C23 4422   6.565   3.297  13.457
   35DOPE   H3R 4423   6.627   3.336  13.374
   35DOPE   H3S 4424   6.541   3.191  13.434
   35DOPE   C24 4425   6.655   3.306  13.582
   35DOPE   H4R 4426   6.653   3.410  13.621
   35DOPE   H4S 4427   6.759   3.287  13.550
   35DOPE   C25 4428   6.622   3.208  13.695
   35DOPE   H5R 4429   6.625   3.105  13.654
   35DOPE   H5S 4430   6.519   3.226  13.732
   35DOPE   C26 4431   6.721   3.216  13.814
   35DOPE   H6R 4432   6.822   3.182  13.782
   35DOPE   H6S 4433   6.686   3.144  13.891
   35DOPE   C27 4434   6.734   3.355  13.880
   35DOPE   H7R 4435   6.637   3.409  13.869
   35DOPE   H7S 4436   6.811   3.415  13.826
   35DOPE   C28 4437   6.766   3.348  14.031
   35DOPE   H8R 4438   6.861   3.293  14.044
   35DOPE   H8S 4439   6.686   3.286  14.078
   35DOPE   C29 4440   6.776   3.484  14.096
   35DOPE   H9R 4441   6.857   3.546  14.054
   35DOPE  C210 4442   6.699   3.537  14.193
   35DOPE  H10R 4443   6.721   3.640  14.226
   35DOPE  C211 4444   6.581   3.476  14.265
   35DOPE  H11R 4445   6.503   3.452  14.190
   35DOPE  H11S 4446   6.536   3.550  14.334
   35DOPE  C212 4447   6.607   3.347  14.346
   35DOPE  H12R 4448   6.670   3.278  14.284
   35DOPE  H12S 4449   6.511   3.295  14.364
   35DOPE  C213 4450   6.679   3.366  14.480
   35DOPE  H13R 4451   6.760   3.441  14.470
   35DOPE  H13S 4452   6.727   3.269  14.505
   35DOPE  C214 4453   6.586   3.401  14.597
   35DOPE  H14R 4454   6.500   3.330  14.598
   35DOPE  H14S 4455   6.544   3.503  14.581
   35DOPE  C215 4456   6.658   3.394  14.732
   35DOPE  H15R 4457   6.744   3.465  14.730
   35DOPE  H15S 4458   6.699   3.292  14.745
   35DOPE  C216 4459   6.568   3.427  14.852
   35DOPE  H16R 4460   6.483   3.356  14.856
   35DOPE  H16S 4461   6.526   3.529  14.838
   35DOPE  C217 4462   6.645   3.423  14.985
   35DOPE  H17R 4463   6.739   3.482  14.974
   35DOPE  H17S 4464   6.675   3.318  15.006
   35DOPE  C218 4465   6.565   3.479  15.103
   35DOPE  H18R 4466   6.468   3.425  15.113
   35DOPE  H18S 4467   6.543   3.587  15.088
   35DOPE  H18T 4468   6.622   3.468  15.198
   35DOPE   C33 4469   5.977   3.625  13.682
   35DOPE   H3X 4470   6.018   3.671  13.775
   35DOPE   H3Y 4471   6.050   3.548  13.649
   35DOPE   C34 4472   5.844   3.554  13.713
   35DOPE   H4X 4473   5.771   3.628  13.754
   35DOPE   H4Y 4474   5.802   3.516  13.618
   35DOPE   C35 4475   5.859   3.436  13.811
   35DOPE   H5X 4476   5.934   3.366  13.771
   35DOPE   H5Y 4477   5.762   3.382  13.815
   35DOPE   C36 4478   5.898   3.477  13.953
   35DOPE   H6X 4479   5.823   3.547  13.995
   35DOPE   H6Y 4480   5.995   3.532  13.948
   35DOPE   C37 4481   5.916   3.358  14.048
   35DOPE   H7X 4482   5.977   3.281  13.996
   35DOPE   H7Y 4483   5.973   3.392  14.137
   35DOPE   C38 4484   5.783   3.296  14.096
   35DOPE   H8X 4485   5.721   3.269  14.008
   35DOPE   H8Y 4486   5.727   3.375  14.151
   35DOPE   C39 4487   5.807   3.174  14.181
   35DOPE   H9X 4488   5.819   3.080  14.125
   35DOPE  C310 4489   5.817   3.169  14.316
   35DOPE  H10X 4490   5.837   3.072  14.364
   35DOPE  C311 4491   5.808   3.286  14.412
   35DOPE  H11X 4492   5.769   3.377  14.362
   35DOPE  H11Y 4493   5.736   3.262  14.493
   35DOPE  C312 4494   5.944   3.320  14.474
   35DOPE  H12X 4495   6.015   3.347  14.393
   35DOPE  H12Y 4496   5.985   3.231  14.527
   35DOPE  C313 4497   5.936   3.438  14.572
   35DOPE  H13X 4498   5.888   3.524  14.521
   35DOPE  H13Y 4499   5.871   3.410  14.658
   35DOPE  C314 4500   6.074   3.482  14.624
   35DOPE  H14X 4501   6.139   3.500  14.535
   35DOPE  H14Y 4502   6.121   3.400  14.683
   35DOPE  C315 4503   6.069   3.611  14.707
   35DOPE  H15X 4504   6.008   3.686  14.653
   35DOPE  H15Y 4505   6.172   3.651  14.715
   35DOPE  C316 4506   6.013   3.592  14.849
   35DOPE  H16X 4507   6.076   3.518  14.903
   35DOPE  H16Y 4508   5.910   3.551  14.843
   35DOPE  C317 4509   6.011   3.724  14.928
   35DOPE  H17X 4510   6.113   3.766  14.930
   35DOPE  H17Y 4511   5.947   3.797  14.873
   35DOPE  C318 4512   5.959   3.708  15.071
   35DOPE  H18X 4513   5.857   3.665  15.071
   35DOPE  H18Y 4514   6.025   3.641  15.129
   35DOPE  H18Z 4515   5.956   3.807  15.122
   36DOPE     N 4516   6.391   5.023  13.077
   36DOPE   HN1 4517   6.348   5.068  12.993
   36DOPE   HN2 4518   6.478   5.075  13.102
   36DOPE   HN3 4519   6.410   4.924  13.050
   36DOPE   C12 4520   6.282   5.030  13.182
   36DOPE  H12A 4521   6.253   5.137  13.192
   36DOPE  H12B 4522   6.323   4.994  13.279
   36DOPE   C11 4523   6.159   4.947  13.140
   36DOPE  H11A 4524   6.070   4.980  13.198
   36DOPE  H11B 4525   6.176   4.841  13.168
   36DOPE     P 4526   6.102   5.087  12.925
   36DOPE   O13 4527   6.007   5.068  12.813
   36DOPE   O14 4528   6.237   5.140  12.893
   36DOPE   O11 4529   6.042   5.178  13.039
   36DOPE   O12 4530   6.131   4.951  13.000
   36DOPE    C1 4531   6.017   5.317  13.011
   36DOPE    HA 4532   5.930   5.327  12.942
   36DOPE    HB 4533   6.105   5.364  12.962
   36DOPE    C2 4534   5.987   5.400  13.139
   36DOPE    HS 4535   5.985   5.507  13.111
   36DOPE   O21 4536   6.085   5.375  13.241
   36DOPE   C21 4537   6.201   5.434  13.226
   36DOPE   O22 4538   6.237   5.502  13.131
   36DOPE   C22 4539   6.291   5.402  13.347
   36DOPE   H2R 4540   6.328   5.499  13.386
   36DOPE   H2S 4541   6.378   5.344  13.310
   36DOPE    C3 4542   5.845   5.369  13.198
   36DOPE    HX 4543   5.771   5.389  13.118
   36DOPE    HY 4544   5.823   5.442  13.279
   36DOPE   O31 4545   5.829   5.232  13.239
   36DOPE   C31 4546   5.859   5.206  13.366
   36DOPE   O32 4547   5.887   5.289  13.451
   36DOPE   C32 4548   5.848   5.055  13.389
   36DOPE   H2X 4549   5.741   5.032  13.407
   36DOPE   H2Y 4550   5.878   5.005  13.295
   36DOPE   C23 4551   6.219   5.325  13.460
   36DOPE   H3R 4552   6.181   5.228  13.422
   36DOPE   H3S 4553   6.130   5.383  13.493
   36DOPE   C24 4554   6.306   5.298  13.584
   36DOPE   H4R 4555   6.337   5.396  13.627
   36DOPE   H4S 4556   6.397   5.243  13.556
   36DOPE   C25 4557   6.227   5.219  13.690
   36DOPE   H5R 4558   6.196   5.123  13.645
   36DOPE   H5S 4559   6.135   5.276  13.715
   36DOPE   C26 4560   6.304   5.190  13.820
   36DOPE   H6R 4561   6.393   5.127  13.798
   36DOPE   H6S 4562   6.238   5.131  13.888
   36DOPE   C27 4563   6.349   5.316  13.895
   36DOPE   H7R 4564   6.265   5.389  13.901
   36DOPE   H7S 4565   6.429   5.365  13.835
   36DOPE   C28 4566   6.405   5.286  14.036
   36DOPE   H8R 4567   6.481   5.364  14.058
   36DOPE   H8S 4568   6.462   5.191  14.031
   36DOPE   C29 4569   6.303   5.290  14.147
   36DOPE   H9R 4570   6.240   5.380  14.147
   36DOPE  C210 4571   6.283   5.196  14.242
   36DOPE  H10R 4572   6.206   5.214  14.318
   36DOPE  C211 4573   6.358   5.067  14.257
   36DOPE  H11R 4574   6.398   5.033  14.158
   36DOPE  H11S 4575   6.289   4.987  14.291
   36DOPE  C212 4576   6.478   5.073  14.354
   36DOPE  H12R 4577   6.533   5.169  14.343
   36DOPE  H12S 4578   6.548   4.992  14.326
   36DOPE  C213 4579   6.439   5.049  14.501
   36DOPE  H13R 4580   6.383   4.954  14.507
   36DOPE  H13S 4581   6.372   5.131  14.536
   36DOPE  C214 4582   6.563   5.038  14.592
   36DOPE  H14R 4583   6.611   5.138  14.600
   36DOPE  H14S 4584   6.636   4.970  14.543
   36DOPE  C215 4585   6.535   4.981  14.732
   36DOPE  H15R 4586   6.631   4.975  14.787
   36DOPE  H15S 4587   6.498   4.877  14.720
   36DOPE  C216 4588   6.434   5.061  14.814
   36DOPE  H16R 4589   6.336   5.062  14.762
   36DOPE  H16S 4590   6.471   5.166  14.820
   36DOPE  C217 4591   6.415   5.007  14.957
   36DOPE  H17R 4592   6.345   5.075  15.010
   36DOPE  H17S 4593   6.512   5.012  15.010
   36DOPE  C218 4594   6.360   4.864  14.963
   36DOPE  H18R 4595   6.264   4.857  14.908
   36DOPE  H18S 4596   6.343   4.833  15.069
   36DOPE  H18T 4597   6.432   4.793  14.918
   36DOPE   C33 4598   5.934   5.004  13.506
   36DOPE   H3X 4599   6.037   5.046  13.501
   36DOPE   H3Y 4600   5.943   4.893  13.497
   36DOPE   C34 4601   5.872   5.034  13.643
   36DOPE   H4X 4602   5.867   5.144  13.658
   36DOPE   H4Y 4603   5.768   4.995  13.642
   36DOPE   C35 4604   5.947   4.970  13.761
   36DOPE   H5X 4605   6.045   5.019  13.774
   36DOPE   H5Y 4606   5.966   4.863  13.737
   36DOPE   C36 4607   5.869   4.976  13.893
   36DOPE   H6X 4608   5.925   4.922  13.972
   36DOPE   H6Y 4609   5.772   4.922  13.880
   36DOPE   C37 4610   5.837   5.118  13.944
   36DOPE   H7X 4611   5.795   5.181  13.863
   36DOPE   H7Y 4612   5.758   5.108  14.020
   36DOPE   C38 4613   5.960   5.187  14.006
   36DOPE   H8X 4614   6.027   5.220  13.923
   36DOPE   H8Y 4615   6.017   5.111  14.062
   36DOPE   C39 4616   5.929   5.304  14.096
   36DOPE   H9X 4617   5.951   5.403  14.053
   36DOPE  C310 4618   5.875   5.297  14.219
   36DOPE  H10X 4619   5.858   5.391  14.275
   36DOPE  C311 4620   5.834   5.171  14.293
   36DOPE  H11X 4621   5.764   5.197  14.375
   36DOPE  H11Y 4622   5.778   5.104  14.225
   36DOPE  C312 4623   5.950   5.090  14.351
   36DOPE  H12X 4624   6.001   5.150  14.430
   36DOPE  H12Y 4625   6.025   5.069  14.272
   36DOPE  C313 4626   5.904   4.955  14.408
   36DOPE  H13X 4627   5.835   4.970  14.494
   36DOPE  H13Y 4628   5.847   4.902  14.329
   36DOPE  C314 4629   6.021   4.864  14.450
   36DOPE  H14X 4630   6.088   4.854  14.362
   36DOPE  H14Y 4631   5.983   4.763  14.474
   36DOPE  C315 4632   6.104   4.917  14.568
   36DOPE  H15X 4633   6.139   5.020  14.545
   36DOPE  H15Y 4634   6.195   4.855  14.580
   36DOPE  C316 4635   6.031   4.917  14.703
   36DOPE  H16X 4636   5.936   4.975  14.694
   36DOPE  H16Y 4637   6.094   4.970  14.777
   36DOPE  C317 4638   6.000   4.777  14.756
   36DOPE  H17X 4639   5.927   4.728  14.689
   36DOPE  H17Y 4640   6.094   4.717  14.753
   36DOPE  C318 4641   5.946   4.777  14.899
   36DOPE  H18X 4642   5.851   4.834  14.905
   36DOPE  H18Y 4643   5.927   4.673  14.934
   36DOPE  H18Z 4644   6.019   4.824  14.969
   37DOPE     N 4645   3.048   2.645  12.949
   37DOPE   HN1 4646   3.059   2.681  12.852
   37DOPE   HN2 4647   3.011   2.721  13.010
   37DOPE   HN3 4648   3.139   2.613  12.987
   37DOPE   C12 4649   2.942   2.537  12.952
   37DOPE  H12A 4650   2.931   2.504  13.057
   37DOPE  H12B 4651   2.978   2.451  12.892
   37DOPE   C11 4652   2.807   2.589  12.897
   37DOPE  H11A 4653   2.728   2.514  12.917
   37DOPE  H11B 4654   2.815   2.596  12.786
   37DOPE     P 4655   2.766   2.741  13.104
   37DOPE   O13 4656   2.905   2.786  13.131
   37DOPE   O14 4657   2.722   2.615  13.167
   37DOPE   O11 4658   2.660   2.857  13.122
   37DOPE   O12 4659   2.767   2.717  12.947
   37DOPE    C1 4660   2.682   2.960  13.220
   37DOPE    HA 4661   2.626   3.050  13.188
   37DOPE    HB 4662   2.789   2.990  13.227
   37DOPE    C2 4663   2.630   2.921  13.362
   37DOPE    HS 4664   2.640   3.012  13.425
   37DOPE   O21 4665   2.710   2.813  13.413
   37DOPE   C21 4666   2.721   2.804  13.544
   37DOPE   O22 4667   2.686   2.888  13.624
   37DOPE   C22 4668   2.787   2.670  13.578
   37DOPE   H2R 4669   2.862   2.647  13.500
   37DOPE   H2S 4670   2.707   2.593  13.574
   37DOPE    C3 4671   2.480   2.881  13.358
   37DOPE    HX 4672   2.476   2.776  13.321
   37DOPE    HY 4673   2.428   2.946  13.284
   37DOPE   O31 4674   2.420   2.898  13.488
   37DOPE   C31 4675   2.314   2.822  13.512
   37DOPE   O32 4676   2.260   2.748  13.432
   37DOPE   C32 4677   2.265   2.846  13.656
   37DOPE   H2X 4678   2.213   2.944  13.656
   37DOPE   H2Y 4679   2.191   2.766  13.680
   37DOPE   C23 4680   2.853   2.669  13.718
   37DOPE   H3R 4681   2.891   2.566  13.737
   37DOPE   H3S 4682   2.779   2.692  13.797
   37DOPE   C24 4683   2.971   2.767  13.728
   37DOPE   H4R 4684   2.931   2.871  13.724
   37DOPE   H4S 4685   3.037   2.753  13.640
   37DOPE   C25 4686   3.054   2.752  13.855
   37DOPE   H5R 4687   3.094   2.648  13.859
   37DOPE   H5S 4688   2.988   2.767  13.944
   37DOPE   C26 4689   3.170   2.853  13.862
   37DOPE   H6R 4690   3.128   2.955  13.859
   37DOPE   H6S 4691   3.235   2.841  13.773
   37DOPE   C27 4692   3.256   2.839  13.989
   37DOPE   H7R 4693   3.312   2.743  13.984
   37DOPE   H7S 4694   3.189   2.833  14.078
   37DOPE   C28 4695   3.359   2.952  14.008
   37DOPE   H8R 4696   3.418   2.961  13.915
   37DOPE   H8S 4697   3.430   2.920  14.087
   37DOPE   C29 4698   3.297   3.085  14.044
   37DOPE   H9R 4699   3.292   3.158  13.962
   37DOPE  C210 4700   3.247   3.118  14.164
   37DOPE  H10R 4701   3.203   3.218  14.178
   37DOPE  C211 4702   3.241   3.030  14.287
   37DOPE  H11R 4703   3.287   3.081  14.374
   37DOPE  H11S 4704   3.299   2.936  14.272
   37DOPE  C212 4705   3.096   2.989  14.321
   37DOPE  H12R 4706   3.100   2.910  14.400
   37DOPE  H12S 4707   3.049   2.942  14.232
   37DOPE  C213 4708   3.006   3.104  14.371
   37DOPE  H13R 4709   2.903   3.065  14.383
   37DOPE  H13S 4710   3.001   3.182  14.292
   37DOPE  C214 4711   3.051   3.169  14.502
   37DOPE  H14R 4712   2.981   3.252  14.525
   37DOPE  H14S 4713   3.152   3.215  14.488
   37DOPE  C215 4714   3.057   3.075  14.624
   37DOPE  H15R 4715   3.099   3.130  14.710
   37DOPE  H15S 4716   3.125   2.990  14.602
   37DOPE  C216 4717   2.919   3.019  14.666
   37DOPE  H16R 4718   2.871   2.969  14.579
   37DOPE  H16S 4719   2.854   3.104  14.696
   37DOPE  C217 4720   2.929   2.919  14.781
   37DOPE  H17R 4721   2.986   2.965  14.864
   37DOPE  H17S 4722   2.987   2.831  14.747
   37DOPE  C218 4723   2.792   2.872  14.832
   37DOPE  H18R 4724   2.734   2.826  14.750
   37DOPE  H18S 4725   2.734   2.959  14.872
   37DOPE  H18T 4726   2.804   2.798  14.914
   37DOPE   C33 4727   2.379   2.847  13.761
   37DOPE   H3X 4728   2.340   2.890  13.855
   37DOPE   H3Y 4729   2.460   2.915  13.727
   37DOPE   C34 4730   2.438   2.708  13.790
   37DOPE   H4X 4731   2.427   2.644  13.699
   37DOPE   H4Y 4732   2.547   2.719  13.808
   37DOPE   C35 4733   2.374   2.637  13.911
   37DOPE   H5X 4734   2.403   2.530  13.909
   37DOPE   H5Y 4735   2.264   2.642  13.899
   37DOPE   C36 4736   2.412   2.696  14.048
   37DOPE   H6X 4737   2.352   2.644  14.126
   37DOPE   H6Y 4738   2.382   2.803  14.050
   37DOPE   C37 4739   2.560   2.687  14.087
   37DOPE   H7X 4740   2.622   2.741  14.012
   37DOPE   H7Y 4741   2.573   2.739  14.184
   37DOPE   C38 4742   2.612   2.542  14.102
   37DOPE   H8X 4743   2.601   2.491  14.004
   37DOPE   H8Y 4744   2.545   2.489  14.173
   37DOPE   C39 4745   2.756   2.539  14.145
   37DOPE   H9X 4746   2.825   2.589  14.075
   37DOPE  C310 4747   2.807   2.484  14.257
   37DOPE  H10X 4748   2.916   2.491  14.274
   37DOPE  C311 4749   2.732   2.412  14.367
   37DOPE  H11X 4750   2.623   2.430  14.363
   37DOPE  H11Y 4751   2.747   2.303  14.356
   37DOPE  C312 4752   2.782   2.452  14.508
   37DOPE  H12X 4753   2.893   2.443  14.511
   37DOPE  H12Y 4754   2.743   2.378  14.582
   37DOPE  C313 4755   2.742   2.594  14.552
   37DOPE  H13X 4756   2.808   2.626  14.635
   37DOPE  H13Y 4757   2.758   2.664  14.468
   37DOPE  C314 4758   2.596   2.606  14.601
   37DOPE  H14X 4759   2.528   2.560  14.526
   37DOPE  H14Y 4760   2.570   2.713  14.608
   37DOPE  C315 4761   2.572   2.542  14.739
   37DOPE  H15X 4762   2.643   2.586  14.812
   37DOPE  H15Y 4763   2.594   2.433  14.733
   37DOPE  C316 4764   2.429   2.562  14.789
   37DOPE  H16X 4765   2.358   2.513  14.719
   37DOPE  H16Y 4766   2.406   2.671  14.789
   37DOPE  C317 4767   2.405   2.508  14.931
   37DOPE  H17X 4768   2.475   2.558  15.001
   37DOPE  H17Y 4769   2.302   2.537  14.962
   37DOPE  C318 4770   2.418   2.356  14.944
   37DOPE  H18X 4771   2.390   2.323  15.047
   37DOPE  H18Y 4772   2.352   2.305  14.872
   37DOPE  H18Z 4773   2.523   2.324  14.925
   38DOPE     N 4774   5.806   5.944  12.809
   38DOPE   HN1 4775   5.877   6.011  12.771
   38DOPE   HN2 4776   5.722   5.950  12.749
   38DOPE   HN3 4777   5.778   5.971  12.906
   38DOPE   C12 4778   5.861   5.804  12.808
   38DOPE  H12A 4779   5.911   5.788  12.710
   38DOPE  H12B 4780   5.773   5.736  12.814
   38DOPE   C11 4781   5.958   5.780  12.926
   38DOPE  H11A 4782   6.051   5.838  12.907
   38DOPE  H11B 4783   5.987   5.672  12.928
   38DOPE     P 4784   5.775   5.751  13.111
   38DOPE   O13 4785   5.757   5.622  13.041
   38DOPE   O14 4786   5.667   5.851  13.095
   38DOPE   O11 4787   5.811   5.727  13.263
   38DOPE   O12 4788   5.905   5.820  13.052
   38DOPE    C1 4789   5.807   5.838  13.353
   38DOPE    HA 4790   5.707   5.887  13.351
   38DOPE    HB 4791   5.884   5.913  13.325
   38DOPE    C2 4792   5.833   5.795  13.501
   38DOPE    HS 4793   5.929   5.740  13.503
   38DOPE   O21 4794   5.723   5.712  13.545
   38DOPE   C21 4795   5.751   5.628  13.643
   38DOPE   O22 4796   5.858   5.614  13.698
   38DOPE   C22 4797   5.622   5.553  13.682
   38DOPE   H2R 4798   5.599   5.482  13.600
   38DOPE   H2S 4799   5.541   5.628  13.689
   38DOPE    C3 4800   5.846   5.923  13.590
   38DOPE    HX 4801   5.751   5.979  13.585
   38DOPE    HY 4802   5.923   5.988  13.541
   38DOPE   O31 4803   5.891   5.895  13.724
   38DOPE   C31 4804   5.799   5.903  13.820
   38DOPE   O32 4805   5.684   5.940  13.806
   38DOPE   C32 4806   5.858   5.854  13.953
   38DOPE   H2X 4807   5.802   5.761  13.978
   38DOPE   H2Y 4808   5.965   5.827  13.938
   38DOPE   C23 4809   5.634   5.478  13.816
   38DOPE   H3R 4810   5.664   5.549  13.896
   38DOPE   H3S 4811   5.714   5.401  13.809
   38DOPE   C24 4812   5.502   5.410  13.856
   38DOPE   H4R 4813   5.472   5.340  13.775
   38DOPE   H4S 4814   5.423   5.488  13.863
   38DOPE   C25 4815   5.507   5.332  13.989
   38DOPE   H5R 4816   5.582   5.250  13.982
   38DOPE   H5S 4817   5.408   5.285  14.005
   38DOPE   C26 4818   5.538   5.420  14.111
   38DOPE   H6R 4819   5.475   5.511  14.105
   38DOPE   H6S 4820   5.645   5.452  14.107
   38DOPE   C27 4821   5.510   5.350  14.245
   38DOPE   H7R 4822   5.568   5.255  14.248
   38DOPE   H7S 4823   5.402   5.324  14.247
   38DOPE   C28 4824   5.546   5.436  14.367
   38DOPE   H8R 4825   5.500   5.536  14.354
   38DOPE   H8S 4826   5.656   5.451  14.369
   38DOPE   C29 4827   5.495   5.374  14.495
   38DOPE   H9R 4828   5.385   5.360  14.496
   38DOPE  C210 4829   5.564   5.337  14.604
   38DOPE  H10R 4830   5.507   5.295  14.689
   38DOPE  C211 4831   5.713   5.345  14.630
   38DOPE  H11R 4832   5.733   5.431  14.697
   38DOPE  H11S 4833   5.771   5.362  14.537
   38DOPE  C212 4834   5.765   5.218  14.700
   38DOPE  H12R 4835   5.783   5.138  14.625
   38DOPE  H12S 4836   5.689   5.181  14.772
   38DOPE  C213 4837   5.893   5.242  14.784
   38DOPE  H13R 4838   5.916   5.150  14.841
   38DOPE  H13S 4839   5.870   5.321  14.858
   38DOPE  C214 4840   6.016   5.283  14.702
   38DOPE  H14R 4841   5.992   5.373  14.642
   38DOPE  H14S 4842   6.043   5.201  14.632
   38DOPE  C215 4843   6.137   5.313  14.792
   38DOPE  H15R 4844   6.166   5.222  14.848
   38DOPE  H15S 4845   6.105   5.389  14.867
   38DOPE  C216 4846   6.258   5.368  14.716
   38DOPE  H16R 4847   6.226   5.447  14.645
   38DOPE  H16S 4848   6.301   5.285  14.656
   38DOPE  C217 4849   6.366   5.425  14.810
   38DOPE  H17R 4850   6.465   5.405  14.763
   38DOPE  H17S 4851   6.364   5.370  14.906
   38DOPE  C218 4852   6.355   5.576  14.835
   38DOPE  H18R 4853   6.257   5.601  14.880
   38DOPE  H18S 4854   6.365   5.631  14.739
   38DOPE  H18T 4855   6.436   5.610  14.904
   38DOPE   C33 4856   5.843   5.959  14.065
   38DOPE   H3X 4857   5.741   6.002  14.065
   38DOPE   H3Y 4858   5.913   6.043  14.046
   38DOPE   C34 4859   5.871   5.903  14.206
   38DOPE   H4X 4860   5.976   5.869  14.210
   38DOPE   H4Y 4861   5.861   5.986  14.279
   38DOPE   C35 4862   5.781   5.787  14.253
   38DOPE   H5X 4863   5.818   5.757  14.354
   38DOPE   H5Y 4864   5.795   5.698  14.187
   38DOPE   C36 4865   5.631   5.818  14.267
   38DOPE   H6X 4866   5.616   5.919  14.311
   38DOPE   H6Y 4867   5.589   5.745  14.339
   38DOPE   C37 4868   5.550   5.804  14.136
   38DOPE   H7X 4869   5.561   5.895  14.073
   38DOPE   H7Y 4870   5.592   5.719  14.078
   38DOPE   C38 4871   5.400   5.774  14.157
   38DOPE   H8X 4872   5.392   5.678  14.211
   38DOPE   H8Y 4873   5.355   5.759  14.056
   38DOPE   C39 4874   5.324   5.882  14.230
   38DOPE   H9X 4875   5.367   5.983  14.225
   38DOPE  C310 4876   5.210   5.861  14.300
   38DOPE  H10X 4877   5.162   5.946  14.351
   38DOPE  C311 4878   5.140   5.728  14.315
   38DOPE  H11X 4879   5.030   5.743  14.310
   38DOPE  H11Y 4880   5.165   5.660  14.231
   38DOPE  C312 4881   5.175   5.656  14.447
   38DOPE  H12X 4882   5.285   5.644  14.454
   38DOPE  H12Y 4883   5.130   5.554  14.444
   38DOPE  C313 4884   5.122   5.729  14.571
   38DOPE  H13X 4885   5.169   5.829  14.577
   38DOPE  H13Y 4886   5.013   5.744  14.560
   38DOPE  C314 4887   5.148   5.653  14.703
   38DOPE  H14X 4888   5.101   5.552  14.695
   38DOPE  H14Y 4889   5.097   5.707  14.785
   38DOPE  C315 4890   5.296   5.637  14.740
   38DOPE  H15X 4891   5.348   5.577  14.662
   38DOPE  H15Y 4892   5.302   5.579  14.834
   38DOPE  C316 4893   5.369   5.771  14.758
   38DOPE  H16X 4894   5.304   5.840  14.815
   38DOPE  H16Y 4895   5.387   5.816  14.658
   38DOPE  C317 4896   5.503   5.760  14.832
   38DOPE  H17X 4897   5.554   5.859  14.828
   38DOPE  H17Y 4898   5.484   5.738  14.940
   38DOPE  C318 4899   5.597   5.654  14.777
   38DOPE  H18X 4900   5.695   5.657  14.830
   38DOPE  H18Y 4901   5.554   5.552  14.792
   38DOPE  H18Z 4902   5.615   5.669  14.669
   39DOPE     N 4903   2.069   3.940  13.127
   39DOPE   HN1 4904   2.029   3.898  13.213
   39DOPE   HN2 4905   1.992   3.951  13.058
   39DOPE   HN3 4906   2.143   3.877  13.091
   39DOPE   C12 4907   2.124   4.078  13.152
   39DOPE  H12A 4908   2.211   4.069  13.221
   39DOPE  H12B 4909   2.044   4.137  13.201
   39DOPE   C11 4910   2.167   4.145  13.019
   39DOPE  H11A 4911   2.265   4.102  12.990
   39DOPE  H11B 4912   2.183   4.254  13.036
   39DOPE     P 4913   1.926   4.177  12.918
   39DOPE   O13 4914   1.857   4.087  13.014
   39DOPE   O14 4915   1.871   4.185  12.782
   39DOPE   O11 4916   1.946   4.322  12.978
   39DOPE   O12 4917   2.075   4.124  12.911
   39DOPE    C1 4918   1.844   4.378  13.062
   39DOPE    HA 4919   1.803   4.302  13.132
   39DOPE    HB 4920   1.760   4.416  13.000
   39DOPE    C2 4921   1.894   4.496  13.152
   39DOPE    HS 4922   1.870   4.590  13.098
   39DOPE   O21 4923   2.037   4.488  13.171
   39DOPE   C21 4924   2.092   4.589  13.236
   39DOPE   O22 4925   2.036   4.691  13.272
   39DOPE   C22 4926   2.241   4.561  13.258
   39DOPE   H2R 4927   2.282   4.641  13.324
   39DOPE   H2S 4928   2.289   4.571  13.158
   39DOPE    C3 4929   1.817   4.495  13.288
   39DOPE    HX 4930   1.708   4.488  13.264
   39DOPE    HY 4931   1.833   4.591  13.342
   39DOPE   O31 4932   1.860   4.383  13.367
   39DOPE   C31 4933   1.797   4.371  13.483
   39DOPE   O32 4934   1.706   4.442  13.521
   39DOPE   C32 4935   1.859   4.252  13.558
   39DOPE   H2X 4936   1.853   4.165  13.490
   39DOPE   H2Y 4937   1.966   4.276  13.576
   39DOPE   C23 4938   2.273   4.421  13.315
   39DOPE   H3R 4939   2.376   4.395  13.283
   39DOPE   H3S 4940   2.205   4.344  13.273
   39DOPE   C24 4941   2.270   4.414  13.469
   39DOPE   H4R 4942   2.169   4.436  13.508
   39DOPE   H4S 4943   2.339   4.491  13.509
   39DOPE   C25 4944   2.317   4.276  13.518
   39DOPE   H5R 4945   2.407   4.249  13.459
   39DOPE   H5S 4946   2.240   4.199  13.496
   39DOPE   C26 4947   2.357   4.269  13.667
   39DOPE   H6R 4948   2.416   4.359  13.695
   39DOPE   H6S 4949   2.424   4.181  13.678
   39DOPE   C27 4950   2.240   4.249  13.764
   39DOPE   H7R 4951   2.171   4.173  13.721
   39DOPE   H7S 4952   2.184   4.344  13.775
   39DOPE   C28 4953   2.290   4.199  13.902
   39DOPE   H8R 4954   2.359   4.275  13.944
   39DOPE   H8S 4955   2.351   4.108  13.883
   39DOPE   C29 4956   2.178   4.164  13.997
   39DOPE   H9R 4957   2.086   4.130  13.949
   39DOPE  C210 4958   2.182   4.171  14.131
   39DOPE  H10R 4959   2.093   4.142  14.188
   39DOPE  C211 4960   2.298   4.214  14.218
   39DOPE  H11R 4961   2.261   4.286  14.294
   39DOPE  H11S 4962   2.374   4.270  14.159
   39DOPE  C212 4963   2.372   4.099  14.291
   39DOPE  H12R 4964   2.450   4.143  14.356
   39DOPE  H12S 4965   2.424   4.038  14.214
   39DOPE  C213 4966   2.282   4.006  14.375
   39DOPE  H13R 4967   2.343   3.920  14.410
   39DOPE  H13S 4968   2.202   3.965  14.310
   39DOPE  C214 4969   2.217   4.071  14.498
   39DOPE  H14R 4970   2.134   4.006  14.531
   39DOPE  H14S 4971   2.174   4.170  14.470
   39DOPE  C215 4972   2.314   4.086  14.617
   39DOPE  H15R 4973   2.399   4.153  14.589
   39DOPE  H15S 4974   2.356   3.986  14.639
   39DOPE  C216 4975   2.245   4.139  14.744
   39DOPE  H16R 4976   2.311   4.122  14.832
   39DOPE  H16S 4977   2.151   4.082  14.760
   39DOPE  C217 4978   2.213   4.289  14.737
   39DOPE  H17R 4979   2.161   4.311  14.641
   39DOPE  H17S 4980   2.308   4.347  14.736
   39DOPE  C218 4981   2.125   4.337  14.853
   39DOPE  H18R 4982   2.098   4.444  14.840
   39DOPE  H18S 4983   2.178   4.325  14.950
   39DOPE  H18T 4984   2.031   4.278  14.856
   39DOPE   C33 4985   1.787   4.219  13.690
   39DOPE   H3X 4986   1.823   4.120  13.725
   39DOPE   H3Y 4987   1.677   4.210  13.674
   39DOPE   C34 4988   1.814   4.321  13.802
   39DOPE   H4X 4989   1.924   4.334  13.815
   39DOPE   H4Y 4990   1.771   4.419  13.774
   39DOPE   C35 4991   1.753   4.276  13.936
   39DOPE   H5X 4992   1.800   4.181  13.967
   39DOPE   H5Y 4993   1.645   4.257  13.921
   39DOPE   C36 4994   1.769   4.380  14.047
   39DOPE   H6X 4995   1.716   4.473  14.018
   39DOPE   H6Y 4996   1.877   4.405  14.059
   39DOPE   C37 4997   1.714   4.329  14.181
   39DOPE   H7X 4998   1.610   4.292  14.164
   39DOPE   H7Y 4999   1.774   4.243  14.217
   39DOPE   C38 5000   1.707   4.437  14.291
   39DOPE   H8X 5001   1.654   4.393  14.379
   39DOPE   H8Y 5002   1.642   4.520  14.255
   39DOPE   C39 5003   1.842   4.492  14.331
   39DOPE   H9X 5004   1.887   4.560  14.258
   39DOPE  C310 5005   1.909   4.465  14.445
   39DOPE  H10X 5006   2.006   4.514  14.462
   39DOPE  C311 5007   1.862   4.374  14.556
   39DOPE  H11X 5008   1.796   4.294  14.516
   39DOPE  H11Y 5009   1.950   4.322  14.601
   39DOPE  C312 5010   1.786   4.448  14.667
   39DOPE  H12X 5011   1.692   4.488  14.624
   39DOPE  H12Y 5012   1.845   4.534  14.704
   39DOPE  C313 5013   1.751   4.357  14.786
   39DOPE  H13X 5014   1.760   4.251  14.754
   39DOPE  H13Y 5015   1.826   4.372  14.867
   39DOPE  C314 5016   1.610   4.381  14.842
   39DOPE  H14X 5017   1.535   4.370  14.760
   39DOPE  H14Y 5018   1.604   4.485  14.879
   39DOPE  C315 5019   1.574   4.284  14.956
   39DOPE  H15X 5020   1.485   4.323  15.010
   39DOPE  H15Y 5021   1.658   4.281  15.028
   39DOPE  C316 5022   1.541   4.143  14.905
   39DOPE  H16X 5023   1.625   4.105  14.843
   39DOPE  H16Y 5024   1.451   4.149  14.840
   39DOPE  C317 5025   1.515   4.040  15.016
   39DOPE  H17X 5026   1.436   4.078  15.084
   39DOPE  H17Y 5027   1.476   3.947  14.969
   39DOPE  C318 5028   1.640   4.004  15.097
   39DOPE  H18X 5029   1.618   3.922  15.169
   39DOPE  H18Y 5030   1.721   3.970  15.029
   39DOPE  H18Z 5031   1.676   4.092  15.154
   40DOPE     N 5032   4.761   6.579  13.174
   40DOPE   HN1 5033   4.841   6.514  13.189
   40DOPE   HN2 5034   4.750   6.639  13.258
   40DOPE   HN3 5035   4.671   6.529  13.157
   40DOPE   C12 5036   4.796   6.661  13.052
   40DOPE  H12A 5037   4.840   6.591  12.978
   40DOPE  H12B 5038   4.874   6.734  13.083
   40DOPE   C11 5039   4.673   6.730  12.992
   40DOPE  H11A 5040   4.707   6.794  12.908
   40DOPE  H11B 5041   4.627   6.798  13.067
   40DOPE     P 5042   4.436   6.615  12.998
   40DOPE   O13 5043   4.373   6.503  12.927
   40DOPE   O14 5044   4.368   6.746  12.995
   40DOPE   O11 5045   4.472   6.573  13.147
   40DOPE   O12 5046   4.582   6.633  12.940
   40DOPE    C1 5047   4.370   6.511  13.227
   40DOPE    HA 5048   4.417   6.473  13.320
   40DOPE    HB 5049   4.327   6.422  13.175
   40DOPE    C2 5050   4.255   6.606  13.271
   40DOPE    HS 5051   4.199   6.635  13.180
   40DOPE   O21 5052   4.313   6.724  13.331
   40DOPE   C21 5053   4.229   6.823  13.355
   40DOPE   O22 5054   4.110   6.824  13.330
   40DOPE   C22 5055   4.305   6.940  13.418
   40DOPE   H2R 5056   4.231   7.015  13.454
   40DOPE   H2S 5057   4.364   6.986  13.336
   40DOPE    C3 5058   4.155   6.533  13.366
   40DOPE    HX 5059   4.119   6.443  13.312
   40DOPE    HY 5060   4.066   6.597  13.385
   40DOPE   O31 5061   4.218   6.497  13.491
   40DOPE   C31 5062   4.143   6.419  13.568
   40DOPE   O32 5063   4.034   6.375  13.538
   40DOPE   C32 5064   4.219   6.392  13.698
   40DOPE   H2X 5065   4.327   6.386  13.674
   40DOPE   H2Y 5066   4.203   6.478  13.767
   40DOPE   C23 5067   4.401   6.899  13.534
   40DOPE   H3R 5068   4.483   6.974  13.537
   40DOPE   H3S 5069   4.447   6.801  13.514
   40DOPE   C24 5070   4.336   6.899  13.674
   40DOPE   H4R 5071   4.307   7.003  13.700
   40DOPE   H4S 5072   4.413   6.867  13.747
   40DOPE   C25 5073   4.214   6.808  13.688
   40DOPE   H5R 5074   4.234   6.711  13.637
   40DOPE   H5S 5075   4.127   6.855  13.638
   40DOPE   C26 5076   4.177   6.779  13.835
   40DOPE   H6R 5077   4.254   6.712  13.878
   40DOPE   H6S 5078   4.080   6.724  13.837
   40DOPE   C27 5079   4.165   6.905  13.923
   40DOPE   H7R 5080   4.098   6.977  13.872
   40DOPE   H7S 5081   4.265   6.953  13.932
   40DOPE   C28 5082   4.109   6.878  14.064
   40DOPE   H8R 5083   4.007   6.835  14.052
   40DOPE   H8S 5084   4.096   6.975  14.115
   40DOPE   C29 5085   4.193   6.783  14.146
   40DOPE   H9R 5086   4.185   6.677  14.115
   40DOPE  C210 5087   4.276   6.813  14.249
   40DOPE  H10R 5088   4.328   6.730  14.299
   40DOPE  C211 5089   4.305   6.949  14.307
   40DOPE  H11R 5090   4.270   6.954  14.412
   40DOPE  H11S 5091   4.250   7.029  14.252
   40DOPE  C212 5092   4.455   6.985  14.301
   40DOPE  H12R 5093   4.467   7.090  14.335
   40DOPE  H12S 5094   4.489   6.981  14.195
   40DOPE  C213 5095   4.547   6.896  14.386
   40DOPE  H13R 5096   4.652   6.927  14.368
   40DOPE  H13S 5097   4.539   6.790  14.354
   40DOPE  C214 5098   4.521   6.905  14.537
   40DOPE  H14R 5099   4.418   6.868  14.559
   40DOPE  H14S 5100   4.526   7.012  14.569
   40DOPE  C215 5101   4.622   6.823  14.620
   40DOPE  H15R 5102   4.725   6.859  14.598
   40DOPE  H15S 5103   4.615   6.717  14.588
   40DOPE  C216 5104   4.597   6.834  14.771
   40DOPE  H16R 5105   4.493   6.801  14.793
   40DOPE  H16S 5106   4.605   6.940  14.801
   40DOPE  C217 5107   4.695   6.750  14.856
   40DOPE  H17R 5108   4.677   6.773  14.963
   40DOPE  H17S 5109   4.799   6.783  14.832
   40DOPE  C218 5110   4.684   6.599  14.835
   40DOPE  H18R 5111   4.757   6.545  14.899
   40DOPE  H18S 5112   4.706   6.572  14.729
   40DOPE  H18T 5113   4.582   6.563  14.860
   40DOPE   C33 5114   4.175   6.260  13.766
   40DOPE   H3X 5115   4.256   6.224  13.833
   40DOPE   H3Y 5116   4.162   6.182  13.688
   40DOPE   C34 5117   4.046   6.271  13.849
   40DOPE   H4X 5118   3.986   6.360  13.817
   40DOPE   H4Y 5119   3.984   6.182  13.827
   40DOPE   C35 5120   4.070   6.274  14.001
   40DOPE   H5X 5121   4.139   6.191  14.027
   40DOPE   H5Y 5122   3.973   6.253  14.052
   40DOPE   C36 5123   4.124   6.407  14.055
   40DOPE   H6X 5124   4.045   6.485  14.039
   40DOPE   H6Y 5125   4.214   6.438  13.998
   40DOPE   C37 5126   4.158   6.398  14.204
   40DOPE   H7X 5127   4.147   6.498  14.253
   40DOPE   H7Y 5128   4.083   6.332  14.252
   40DOPE   C38 5129   4.299   6.342  14.231
   40DOPE   H8X 5130   4.321   6.265  14.154
   40DOPE   H8Y 5131   4.295   6.288  14.329
   40DOPE   C39 5132   4.405   6.448  14.231
   40DOPE   H9X 5133   4.397   6.522  14.150
   40DOPE  C310 5134   4.506   6.460  14.320
   40DOPE  H10X 5135   4.576   6.544  14.309
   40DOPE  C311 5136   4.536   6.369  14.437
   40DOPE  H11X 5137   4.499   6.266  14.419
   40DOPE  H11Y 5138   4.646   6.361  14.448
   40DOPE  C312 5139   4.479   6.417  14.572
   40DOPE  H12X 5140   4.504   6.524  14.590
   40DOPE  H12Y 5141   4.528   6.358  14.653
   40DOPE  C313 5142   4.327   6.396  14.585
   40DOPE  H13X 5143   4.274   6.462  14.512
   40DOPE  H13Y 5144   4.304   6.291  14.558
   40DOPE  C314 5145   4.272   6.421  14.726
   40DOPE  H14X 5146   4.332   6.363  14.800
   40DOPE  H14Y 5147   4.168   6.383  14.730
   40DOPE  C315 5148   4.270   6.569  14.766
   40DOPE  H15X 5149   4.214   6.626  14.689
   40DOPE  H15Y 5150   4.374   6.608  14.768
   40DOPE  C316 5151   4.204   6.591  14.903
   40DOPE  H16X 5152   4.261   6.536  14.981
   40DOPE  H16Y 5153   4.101   6.549  14.900
   40DOPE  C317 5154   4.195   6.740  14.941
   40DOPE  H17X 5155   4.298   6.781  14.948
   40DOPE  H17Y 5156   4.143   6.795  14.860
   40DOPE  C318 5157   4.122   6.764  15.074
   40DOPE  H18X 5158   4.118   6.872  15.097
   40DOPE  H18Y 5159   4.018   6.725  15.068
   40DOPE  H18Z 5160   4.174   6.712  15.157
   41DOPE     N 5161   2.259   5.481  13.172
   41DOPE   HN1 5162   2.313   5.550  13.228
   41DOPE   HN2 5163   2.305   5.388  13.168
   41DOPE   HN3 5164   2.250   5.516  13.075
   41DOPE   C12 5165   2.118   5.471  13.221
   41DOPE  H12A 5166   2.089   5.570  13.262
   41DOPE  H12B 5167   2.113   5.395  13.303
   41DOPE   C11 5168   2.028   5.435  13.102
   41DOPE  H11A 5169   1.922   5.439  13.132
   41DOPE  H11B 5170   2.049   5.330  13.072
   41DOPE     P 5171   1.979   5.656  12.968
   41DOPE   O13 5172   1.834   5.627  12.976
   41DOPE   O14 5173   2.030   5.718  12.844
   41DOPE   O11 5174   2.027   5.740  13.095
   41DOPE   O12 5175   2.058   5.520  12.990
   41DOPE    C1 5176   2.138   5.829  13.078
   41DOPE    HA 5177   2.128   5.890  12.985
   41DOPE    HB 5178   2.233   5.771  13.068
   41DOPE    C2 5179   2.157   5.935  13.192
   41DOPE    HS 5180   2.255   5.986  13.177
   41DOPE   O21 5181   2.153   5.877  13.324
   41DOPE   C21 5182   2.245   5.793  13.362
   41DOPE   O22 5183   2.317   5.724  13.290
   41DOPE   C22 5184   2.255   5.799  13.514
   41DOPE   H2R 5185   2.183   5.875  13.552
   41DOPE   H2S 5186   2.357   5.834  13.539
   41DOPE    C3 5187   2.048   6.046  13.187
   41DOPE    HX 5188   2.053   6.094  13.087
   41DOPE    HY 5189   2.074   6.125  13.261
   41DOPE   O31 5190   1.914   5.995  13.206
   41DOPE   C31 5191   1.870   5.993  13.332
   41DOPE   O32 5192   1.926   6.041  13.428
   41DOPE   C32 5193   1.735   5.921  13.339
   41DOPE   H2X 5194   1.664   5.992  13.387
   41DOPE   H2Y 5195   1.699   5.899  13.236
   41DOPE   C23 5196   2.228   5.664  13.584
   41DOPE   H3R 5197   2.303   5.588  13.551
   41DOPE   H3S 5198   2.127   5.626  13.557
   41DOPE   C24 5199   2.236   5.681  13.736
   41DOPE   H4R 5200   2.161   5.756  13.767
   41DOPE   H4S 5201   2.336   5.721  13.763
   41DOPE   C25 5202   2.211   5.551  13.815
   41DOPE   H5R 5203   2.290   5.477  13.790
   41DOPE   H5S 5204   2.113   5.508  13.785
   41DOPE   C26 5205   2.211   5.577  13.966
   41DOPE   H6R 5206   2.128   5.647  13.990
   41DOPE   H6S 5207   2.306   5.628  13.994
   41DOPE   C27 5208   2.194   5.450  14.050
   41DOPE   H7R 5209   2.278   5.379  14.029
   41DOPE   H7S 5210   2.100   5.400  14.018
   41DOPE   C28 5211   2.184   5.479  14.201
   41DOPE   H8R 5212   2.144   5.388  14.251
   41DOPE   H8S 5213   2.108   5.559  14.215
   41DOPE   C29 5214   2.316   5.516  14.265
   41DOPE   H9R 5215   2.381   5.431  14.289
   41DOPE  C210 5216   2.361   5.640  14.292
   41DOPE  H10R 5217   2.460   5.651  14.337
   41DOPE  C211 5218   2.291   5.771  14.264
   41DOPE  H11R 5219   2.195   5.756  14.208
   41DOPE  H11S 5220   2.354   5.834  14.198
   41DOPE  C212 5221   2.259   5.851  14.392
   41DOPE  H12R 5222   2.196   5.788  14.459
   41DOPE  H12S 5223   2.198   5.940  14.364
   41DOPE  C213 5224   2.384   5.900  14.466
   41DOPE  H13R 5225   2.446   5.960  14.397
   41DOPE  H13S 5226   2.444   5.812  14.497
   41DOPE  C214 5227   2.354   5.983  14.592
   41DOPE  H14R 5228   2.308   6.080  14.563
   41DOPE  H14S 5229   2.450   6.005  14.643
   41DOPE  C215 5230   2.261   5.911  14.691
   41DOPE  H15R 5231   2.293   5.804  14.697
   41DOPE  H15S 5232   2.157   5.913  14.651
   41DOPE  C216 5233   2.265   5.970  14.832
   41DOPE  H16R 5234   2.245   6.079  14.826
   41DOPE  H16S 5235   2.367   5.957  14.873
   41DOPE  C217 5236   2.164   5.906  14.929
   41DOPE  H17R 5237   2.187   5.941  15.032
   41DOPE  H17S 5238   2.179   5.796  14.928
   41DOPE  C218 5239   2.017   5.937  14.899
   41DOPE  H18R 5240   1.999   6.046  14.902
   41DOPE  H18S 5241   1.951   5.888  14.973
   41DOPE  H18T 5242   1.989   5.900  14.797
   41DOPE   C33 5243   1.743   5.791  13.423
   41DOPE   H3X 5244   1.798   5.810  13.517
   41DOPE   H3Y 5245   1.799   5.715  13.365
   41DOPE   C34 5246   1.604   5.736  13.459
   41DOPE   H4X 5247   1.553   5.807  13.527
   41DOPE   H4Y 5248   1.543   5.730  13.366
   41DOPE   C35 5249   1.607   5.596  13.523
   41DOPE   H5X 5250   1.648   5.524  13.449
   41DOPE   H5Y 5251   1.502   5.565  13.544
   41DOPE   C36 5252   1.688   5.583  13.653
   41DOPE   H6X 5253   1.796   5.602  13.632
   41DOPE   H6Y 5254   1.680   5.478  13.688
   41DOPE   C37 5255   1.642   5.678  13.765
   41DOPE   H7X 5256   1.669   5.782  13.736
   41DOPE   H7Y 5257   1.531   5.674  13.774
   41DOPE   C38 5258   1.706   5.648  13.903
   41DOPE   H8X 5259   1.684   5.734  13.970
   41DOPE   H8Y 5260   1.816   5.643  13.890
   41DOPE   C39 5261   1.653   5.521  13.965
   41DOPE   H9X 5262   1.568   5.475  13.912
   41DOPE  C310 5263   1.700   5.462  14.077
   41DOPE  H10X 5264   1.652   5.370  14.111
   41DOPE  C311 5265   1.814   5.510  14.162
   41DOPE  H11X 5266   1.896   5.435  14.158
   41DOPE  H11Y 5267   1.857   5.606  14.126
   41DOPE  C312 5268   1.774   5.528  14.310
   41DOPE  H12X 5269   1.727   5.434  14.347
   41DOPE  H12Y 5270   1.698   5.609  14.319
   41DOPE  C313 5271   1.894   5.560  14.401
   41DOPE  H13X 5272   1.972   5.483  14.382
   41DOPE  H13Y 5273   1.937   5.659  14.372
   41DOPE  C314 5274   1.859   5.560  14.550
   41DOPE  H14X 5275   1.820   5.459  14.577
   41DOPE  H14Y 5276   1.778   5.633  14.569
   41DOPE  C315 5277   1.979   5.591  14.642
   41DOPE  H15X 5278   1.947   5.576  14.748
   41DOPE  H15Y 5279   2.007   5.698  14.631
   41DOPE  C316 5280   2.103   5.505  14.615
   41DOPE  H16X 5281   2.151   5.541  14.521
   41DOPE  H16Y 5282   2.072   5.400  14.598
   41DOPE  C317 5283   2.206   5.509  14.729
   41DOPE  H17X 5284   2.223   5.615  14.758
   41DOPE  H17Y 5285   2.163   5.458  14.818
   41DOPE  C318 5286   2.340   5.445  14.692
   41DOPE  H18X 5287   2.327   5.338  14.666
   41DOPE  H18Y 5288   2.383   5.497  14.604
   41DOPE  H18Z 5289   2.411   5.453  14.776
   42DOPE     N 5290   1.705   4.961  12.813
   42DOPE   HN1 5291   1.654   4.896  12.876
   42DOPE   HN2 5292   1.689   4.933  12.714
   42DOPE   HN3 5293   1.806   4.959  12.837
   42DOPE   C12 5294   1.640   5.094  12.840
   42DOPE  H12A 5295   1.696   5.173  12.785
   42DOPE  H12B 5296   1.647   5.113  12.949
   42DOPE   C11 5297   1.491   5.092  12.797
   42DOPE  H11A 5298   1.487   5.111  12.687
   42DOPE  H11B 5299   1.440   5.179  12.844
   42DOPE     P 5300   1.404   4.910  12.970
   42DOPE   O13 5301   1.541   4.877  13.014
   42DOPE   O14 5302   1.307   4.798  12.960
   42DOPE   O11 5303   1.345   5.031  13.051
   42DOPE   O12 5304   1.422   4.969  12.824
   42DOPE    C1 5305   1.224   5.093  13.004
   42DOPE    HA 5306   1.143   5.018  12.991
   42DOPE    HB 5307   1.240   5.142  12.906
   42DOPE    C2 5308   1.169   5.205  13.100
   42DOPE    HS 5309   1.127   5.286  13.037
   42DOPE   O21 5310   1.270   5.256  13.187
   42DOPE   C21 5311   1.372   5.318  13.131
   42DOPE   O22 5312   1.379   5.356  13.016
   42DOPE   C22 5313   1.480   5.339  13.237
   42DOPE   H2R 5314   1.430   5.382  13.327
   42DOPE   H2S 5315   1.553   5.413  13.198
   42DOPE    C3 5316   1.052   5.151  13.187
   42DOPE    HX 5317   0.975   5.109  13.119
   42DOPE    HY 5318   1.002   5.236  13.239
   42DOPE   O31 5319   1.095   5.048  13.279
   42DOPE   C31 5320   1.138   5.092  13.397
   42DOPE   O32 5321   1.129   5.207  13.437
   42DOPE   C32 5322   1.196   4.975  13.477
   42DOPE   H2X 5323   1.114   4.932  13.539
   42DOPE   H2Y 5324   1.228   4.898  13.404
   42DOPE   C23 5325   1.550   5.207  13.275
   42DOPE   H3R 5326   1.613   5.172  13.190
   42DOPE   H3S 5327   1.474   5.128  13.294
   42DOPE   C24 5328   1.637   5.220  13.401
   42DOPE   H4R 5329   1.572   5.252  13.486
   42DOPE   H4S 5330   1.713   5.300  13.385
   42DOPE   C25 5331   1.708   5.089  13.437
   42DOPE   H5R 5332   1.773   5.060  13.351
   42DOPE   H5S 5333   1.632   5.008  13.450
   42DOPE   C26 5334   1.794   5.097  13.564
   42DOPE   H6R 5335   1.862   5.185  13.557
   42DOPE   H6S 5336   1.857   5.005  13.567
   42DOPE   C27 5337   1.712   5.104  13.694
   42DOPE   H7R 5338   1.644   5.017  13.699
   42DOPE   H7S 5339   1.649   5.195  13.691
   42DOPE   C28 5340   1.798   5.109  13.822
   42DOPE   H8R 5341   1.730   5.122  13.909
   42DOPE   H8S 5342   1.862   5.200  13.818
   42DOPE   C29 5343   1.886   4.987  13.837
   42DOPE   H9R 5344   1.969   4.982  13.766
   42DOPE  C210 5345   1.871   4.886  13.924
   42DOPE  H10R 5346   1.943   4.803  13.921
   42DOPE  C211 5347   1.763   4.869  14.028
   42DOPE  H11R 5348   1.718   4.768  14.019
   42DOPE  H11S 5349   1.679   4.941  14.014
   42DOPE  C212 5350   1.819   4.886  14.170
   42DOPE  H12R 5351   1.852   4.991  14.185
   42DOPE  H12S 5352   1.907   4.820  14.184
   42DOPE  C213 5353   1.716   4.850  14.278
   42DOPE  H13R 5354   1.681   4.746  14.259
   42DOPE  H13S 5355   1.627   4.916  14.269
   42DOPE  C214 5356   1.773   4.858  14.420
   42DOPE  H14R 5357   1.786   4.965  14.448
   42DOPE  H14S 5358   1.873   4.811  14.422
   42DOPE  C215 5359   1.684   4.787  14.523
   42DOPE  H15R 5360   1.675   4.680  14.492
   42DOPE  H15S 5361   1.582   4.830  14.521
   42DOPE  C216 5362   1.742   4.791  14.666
   42DOPE  H16R 5363   1.848   4.758  14.662
   42DOPE  H16S 5364   1.686   4.718  14.729
   42DOPE  C217 5365   1.734   4.928  14.733
   42DOPE  H17R 5366   1.784   5.004  14.669
   42DOPE  H17S 5367   1.790   4.923  14.829
   42DOPE  C218 5368   1.592   4.973  14.764
   42DOPE  H18R 5369   1.545   4.905  14.838
   42DOPE  H18S 5370   1.529   4.972  14.672
   42DOPE  H18T 5371   1.591   5.077  14.804
   42DOPE   C33 5372   1.318   5.013  13.565
   42DOPE   H3X 5373   1.391   5.070  13.503
   42DOPE   H3Y 5374   1.369   4.920  13.597
   42DOPE   C34 5375   1.285   5.095  13.691
   42DOPE   H4X 5376   1.381   5.130  13.735
   42DOPE   H4Y 5377   1.227   5.186  13.664
   42DOPE   C35 5378   1.209   5.016  13.799
   42DOPE   H5X 5379   1.271   4.930  13.831
   42DOPE   H5Y 5380   1.115   4.975  13.754
   42DOPE   C36 5381   1.170   5.101  13.922
   42DOPE   H6X 5382   1.113   5.036  13.992
   42DOPE   H6Y 5383   1.100   5.181  13.888
   42DOPE   C37 5384   1.286   5.167  13.997
   42DOPE   H7X 5385   1.331   5.245  13.932
   42DOPE   H7Y 5386   1.245   5.219  14.086
   42DOPE   C38 5387   1.399   5.072  14.043
   42DOPE   H8X 5388   1.475   5.133  14.097
   42DOPE   H8Y 5389   1.451   5.032  13.953
   42DOPE   C39 5390   1.351   4.958  14.128
   42DOPE   H9X 5391   1.327   4.866  14.072
   42DOPE  C310 5392   1.332   4.958  14.262
   42DOPE  H10X 5393   1.294   4.867  14.310
   42DOPE  C311 5394   1.355   5.073  14.357
   42DOPE  H11X 5395   1.416   5.038  14.443
   42DOPE  H11Y 5396   1.411   5.157  14.311
   42DOPE  C312 5397   1.219   5.127  14.408
   42DOPE  H12X 5398   1.149   5.042  14.424
   42DOPE  H12Y 5399   1.175   5.190  14.329
   42DOPE  C313 5400   1.224   5.207  14.540
   42DOPE  H13X 5401   1.288   5.298  14.526
   42DOPE  H13Y 5402   1.121   5.242  14.560
   42DOPE  C314 5403   1.272   5.130  14.665
   42DOPE  H14X 5404   1.233   5.182  14.755
   42DOPE  H14Y 5405   1.383   5.133  14.669
   42DOPE  C315 5406   1.226   4.983  14.667
   42DOPE  H15X 5407   1.287   4.926  14.593
   42DOPE  H15Y 5408   1.120   4.978  14.635
   42DOPE  C316 5409   1.238   4.913  14.804
   42DOPE  H16X 5410   1.149   4.938  14.865
   42DOPE  H16Y 5411   1.327   4.951  14.858
   42DOPE  C317 5412   1.250   4.761  14.789
   42DOPE  H17X 5413   1.168   4.724  14.723
   42DOPE  H17Y 5414   1.345   4.738  14.737
   42DOPE  C318 5415   1.245   4.684  14.921
   42DOPE  H18X 5416   1.259   4.575  14.904
   42DOPE  H18Y 5417   1.325   4.720  14.990
   42DOPE  H18Z 5418   1.146   4.699  14.971
   43DOPE     N 5419   1.470   3.740  13.082
   43DOPE   HN1 5420   1.407   3.815  13.117
   43DOPE   HN2 5421   1.476   3.663  13.152
   43DOPE   HN3 5422   1.562   3.784  13.064
   43DOPE   C12 5423   1.411   3.689  12.954
   43DOPE  H12A 5424   1.487   3.624  12.905
   43DOPE  H12B 5425   1.393   3.777  12.888
   43DOPE   C11 5426   1.279   3.614  12.980
   43DOPE  H11A 5427   1.239   3.575  12.884
   43DOPE  H11B 5428   1.205   3.688  13.017
   43DOPE     P 5429   1.366   3.375  13.035
   43DOPE   O13 5430   1.510   3.401  13.018
   43DOPE   O14 5431   1.297   3.323  12.914
   43DOPE   O11 5432   1.339   3.276  13.154
   43DOPE   O12 5433   1.294   3.510  13.078
   43DOPE    C1 5434   1.214   3.276  13.224
   43DOPE    HA 5435   1.188   3.171  13.249
   43DOPE    HB 5436   1.130   3.316  13.162
   43DOPE    C2 5437   1.220   3.355  13.357
   43DOPE    HS 5438   1.246   3.461  13.336
   43DOPE   O21 5439   1.313   3.291  13.446
   43DOPE   C21 5440   1.435   3.342  13.447
   43DOPE   O22 5441   1.473   3.438  13.383
   43DOPE   C22 5442   1.526   3.262  13.542
   43DOPE   H2R 5443   1.579   3.335  13.606
   43DOPE   H2S 5444   1.601   3.211  13.477
   43DOPE    C3 5445   1.080   3.356  13.425
   43DOPE    HX 5446   1.050   3.250  13.436
   43DOPE    HY 5447   1.007   3.407  13.357
   43DOPE   O31 5448   1.084   3.423  13.553
   43DOPE   C31 5449   0.975   3.398  13.626
   43DOPE   O32 5450   0.876   3.341  13.585
   43DOPE   C32 5451   1.000   3.443  13.770
   43DOPE   H2X 5452   1.086   3.383  13.807
   43DOPE   H2Y 5453   1.030   3.550  13.769
   43DOPE   C23 5454   1.456   3.155  13.631
   43DOPE   H3R 5455   1.536   3.095  13.679
   43DOPE   H3S 5456   1.395   3.086  13.569
   43DOPE   C24 5457   1.369   3.216  13.742
   43DOPE   H4R 5458   1.275   3.256  13.699
   43DOPE   H4S 5459   1.424   3.302  13.788
   43DOPE   C25 5460   1.336   3.116  13.854
   43DOPE   H5R 5461   1.433   3.081  13.897
   43DOPE   H5S 5462   1.285   3.027  13.812
   43DOPE   C26 5463   1.249   3.176  13.965
   43DOPE   H6R 5464   1.142   3.164  13.936
   43DOPE   H6S 5465   1.269   3.285  13.972
   43DOPE   C27 5466   1.272   3.115  14.105
   43DOPE   H7R 5467   1.268   3.004  14.097
   43DOPE   H7S 5468   1.190   3.147  14.171
   43DOPE   C28 5469   1.406   3.160  14.167
   43DOPE   H8R 5470   1.408   3.271  14.165
   43DOPE   H8S 5471   1.489   3.125  14.102
   43DOPE   C29 5472   1.427   3.107  14.307
   43DOPE   H9R 5473   1.382   3.009  14.326
   43DOPE  C210 5474   1.496   3.168  14.406
   43DOPE  H10R 5475   1.504   3.117  14.503
   43DOPE  C211 5476   1.566   3.302  14.400
   43DOPE  H11R 5477   1.544   3.355  14.305
   43DOPE  H11S 5478   1.676   3.286  14.402
   43DOPE  C212 5479   1.529   3.396  14.516
   43DOPE  H12R 5480   1.419   3.410  14.518
   43DOPE  H12S 5481   1.575   3.495  14.497
   43DOPE  C213 5482   1.573   3.347  14.655
   43DOPE  H13R 5483   1.683   3.332  14.656
   43DOPE  H13S 5484   1.524   3.249  14.675
   43DOPE  C214 5485   1.534   3.445  14.767
   43DOPE  H14R 5486   1.432   3.484  14.746
   43DOPE  H14S 5487   1.605   3.531  14.767
   43DOPE  C215 5488   1.532   3.378  14.905
   43DOPE  H15R 5489   1.453   3.300  14.905
   43DOPE  H15S 5490   1.505   3.454  14.982
   43DOPE  C216 5491   1.665   3.313  14.945
   43DOPE  H16R 5492   1.745   3.391  14.943
   43DOPE  H16S 5493   1.693   3.234  14.872
   43DOPE  C217 5494   1.662   3.250  15.085
   43DOPE  H17R 5495   1.619   3.323  15.157
   43DOPE  H17S 5496   1.767   3.230  15.116
   43DOPE  C218 5497   1.585   3.118  15.092
   43DOPE  H18R 5498   1.480   3.131  15.058
   43DOPE  H18S 5499   1.583   3.079  15.196
   43DOPE  H18T 5500   1.634   3.041  15.028
   43DOPE   C33 5501   0.879   3.422  13.864
   43DOPE   H3X 5502   0.822   3.331  13.833
   43DOPE   H3Y 5503   0.809   3.508  13.854
   43DOPE   C34 5504   0.919   3.402  14.011
   43DOPE   H4X 5505   0.828   3.391  14.073
   43DOPE   H4Y 5506   0.976   3.307  14.019
   43DOPE   C35 5507   1.005   3.516  14.068
   43DOPE   H5X 5508   0.947   3.611  14.067
   43DOPE   H5Y 5509   1.094   3.531  14.003
   43DOPE   C36 5510   1.054   3.487  14.210
   43DOPE   H6X 5511   1.106   3.389  14.210
   43DOPE   H6Y 5512   0.968   3.479  14.279
   43DOPE   C37 5513   1.153   3.593  14.261
   43DOPE   H7X 5514   1.230   3.608  14.182
   43DOPE   H7Y 5515   1.100   3.690  14.275
   43DOPE   C38 5516   1.225   3.551  14.390
   43DOPE   H8X 5517   1.310   3.621  14.407
   43DOPE   H8Y 5518   1.271   3.452  14.370
   43DOPE   C39 5519   1.136   3.550  14.512
   43DOPE   H9X 5520   1.103   3.650  14.544
   43DOPE  C310 5521   1.093   3.443  14.581
   43DOPE  H10X 5522   1.028   3.460  14.668
   43DOPE  C311 5523   1.124   3.298  14.555
   43DOPE  H11X 5524   1.197   3.283  14.473
   43DOPE  H11Y 5525   1.169   3.253  14.647
   43DOPE  C312 5526   0.996   3.220  14.519
   43DOPE  H12X 5527   0.955   3.262  14.425
   43DOPE  H12Y 5528   0.919   3.235  14.598
   43DOPE  C313 5529   1.016   3.069  14.500
   43DOPE  H13X 5530   0.921   3.028  14.460
   43DOPE  H13Y 5531   1.096   3.050  14.425
   43DOPE  C314 5532   1.048   2.993  14.631
   43DOPE  H14X 5533   0.992   2.897  14.630
   43DOPE  H14Y 5534   1.010   3.052  14.717
   43DOPE  C315 5535   1.197   2.961  14.650
   43DOPE  H15X 5536   1.256   3.053  14.631
   43DOPE  H15Y 5537   1.227   2.885  14.575
   43DOPE  C316 5538   1.228   2.909  14.791
   43DOPE  H16X 5539   1.160   2.824  14.814
   43DOPE  H16Y 5540   1.205   2.989  14.864
   43DOPE  C317 5541   1.373   2.864  14.812
   43DOPE  H17X 5542   1.385   2.834  14.918
   43DOPE  H17Y 5543   1.392   2.773  14.750
   43DOPE  C318 5544   1.478   2.969  14.777
   43DOPE  H18X 5545   1.580   2.935  14.807
   43DOPE  H18Y 5546   1.479   2.988  14.668
   43DOPE  H18Z 5547   1.457   3.065  14.829
   44DOPE     N 5548   3.405   1.380  12.958
   44DOPE   HN1 5549   3.469   1.447  13.005
   44DOPE   HN2 5550   3.423   1.380  12.856
   44DOPE   HN3 5551   3.308   1.413  12.977
   44DOPE   C12 5552   3.424   1.241  13.011
   44DOPE  H12A 5553   3.389   1.240  13.117
   44DOPE  H12B 5554   3.532   1.217  13.009
   44DOPE   C11 5555   3.347   1.140  12.925
   44DOPE  H11A 5556   3.384   1.146  12.820
   44DOPE  H11B 5557   3.238   1.164  12.922
   44DOPE     P 5558   3.308   0.958  13.108
   44DOPE   O13 5559   3.276   0.814  13.097
   44DOPE   O14 5560   3.197   1.050  13.144
   44DOPE   O11 5561   3.431   0.984  13.203
   44DOPE   O12 5562   3.368   1.007  12.970
   44DOPE    C1 5563   3.507   0.879  13.265
   44DOPE    HA 5564   3.605   0.921  13.294
   44DOPE    HB 5565   3.526   0.794  13.195
   44DOPE    C2 5566   3.441   0.826  13.396
   44DOPE    HS 5567   3.362   0.755  13.364
   44DOPE   O21 5568   3.382   0.937  13.464
   44DOPE   C21 5569   3.308   0.911  13.568
   44DOPE   O22 5570   3.267   0.802  13.604
   44DOPE   C22 5571   3.283   1.043  13.640
   44DOPE   H2R 5572   3.210   1.025  13.722
   44DOPE   H2S 5573   3.238   1.112  13.566
   44DOPE    C3 5574   3.541   0.748  13.489
   44DOPE    HX 5575   3.604   0.682  13.425
   44DOPE    HY 5576   3.480   0.682  13.554
   44DOPE   O31 5577   3.625   0.839  13.565
   44DOPE   C31 5578   3.662   0.795  13.685
   44DOPE   O32 5579   3.643   0.684  13.730
   44DOPE   C32 5580   3.728   0.910  13.764
   44DOPE   H2X 5581   3.792   0.969  13.695
   44DOPE   H2Y 5582   3.645   0.975  13.799
   44DOPE   C23 5583   3.414   1.103  13.696
   44DOPE   H3R 5584   3.498   1.085  13.625
   44DOPE   H3S 5585   3.439   1.053  13.792
   44DOPE   C24 5586   3.404   1.255  13.715
   44DOPE   H4R 5587   3.315   1.276  13.778
   44DOPE   H4S 5588   3.386   1.301  13.615
   44DOPE   C25 5589   3.528   1.321  13.776
   44DOPE   H5R 5590   3.507   1.430  13.788
   44DOPE   H5S 5591   3.614   1.311  13.706
   44DOPE   C26 5592   3.570   1.266  13.913
   44DOPE   H6R 5593   3.646   1.335  13.956
   44DOPE   H6S 5594   3.618   1.167  13.900
   44DOPE   C27 5595   3.455   1.251  14.013
   44DOPE   H7R 5596   3.378   1.185  13.969
   44DOPE   H7S 5597   3.408   1.351  14.031
   44DOPE   C28 5598   3.499   1.190  14.147
   44DOPE   H8R 5599   3.567   1.261  14.199
   44DOPE   H8S 5600   3.559   1.098  14.127
   44DOPE   C29 5601   3.378   1.155  14.229
   44DOPE   H9R 5602   3.329   1.061  14.200
   44DOPE  C210 5603   3.324   1.227  14.328
   44DOPE  H10R 5604   3.234   1.189  14.378
   44DOPE  C211 5605   3.374   1.359  14.382
   44DOPE  H11R 5606   3.290   1.431  14.388
   44DOPE  H11S 5607   3.450   1.404  14.315
   44DOPE  C212 5608   3.437   1.344  14.522
   44DOPE  H12R 5609   3.477   1.442  14.555
   44DOPE  H12S 5610   3.523   1.274  14.515
   44DOPE  C213 5611   3.337   1.292  14.627
   44DOPE  H13R 5612   3.293   1.199  14.587
   44DOPE  H13S 5613   3.255   1.365  14.641
   44DOPE  C214 5614   3.402   1.258  14.762
   44DOPE  H14R 5615   3.423   1.352  14.817
   44DOPE  H14S 5616   3.500   1.209  14.742
   44DOPE  C215 5617   3.320   1.162  14.849
   44DOPE  H15R 5618   3.224   1.210  14.878
   44DOPE  H15S 5619   3.378   1.145  14.942
   44DOPE  C216 5620   3.292   1.024  14.785
   44DOPE  H16R 5621   3.308   0.944  14.860
   44DOPE  H16S 5622   3.367   1.007  14.704
   44DOPE  C217 5623   3.151   1.006  14.726
   44DOPE  H17R 5624   3.150   0.914  14.665
   44DOPE  H17S 5625   3.128   1.091  14.657
   44DOPE  C218 5626   3.039   0.995  14.830
   44DOPE  H18R 5627   3.057   0.909  14.898
   44DOPE  H18S 5628   2.941   0.982  14.780
   44DOPE  H18T 5629   3.033   1.088  14.892
   44DOPE   C33 5630   3.809   0.861  13.886
   44DOPE   H3X 5631   3.901   0.808  13.851
   44DOPE   H3Y 5632   3.749   0.787  13.943
   44DOPE   C34 5633   3.849   0.972  13.985
   44DOPE   H4X 5634   3.757   1.011  14.034
   44DOPE   H4Y 5635   3.913   0.928  14.064
   44DOPE   C35 5636   3.925   1.090  13.921
   44DOPE   H5X 5637   3.855   1.149  13.858
   44DOPE   H5Y 5638   4.004   1.051  13.854
   44DOPE   C36 5639   3.991   1.184  14.023
   44DOPE   H6X 5640   4.040   1.267  13.968
   44DOPE   H6Y 5641   4.071   1.128  14.077
   44DOPE   C37 5642   3.894   1.243  14.127
   44DOPE   H7X 5643   3.810   1.291  14.073
   44DOPE   H7Y 5644   3.853   1.161  14.188
   44DOPE   C38 5645   3.960   1.348  14.218
   44DOPE   H8X 5646   3.996   1.433  14.156
   44DOPE   H8Y 5647   4.052   1.303  14.262
   44DOPE   C39 5648   3.866   1.397  14.325
   44DOPE   H9X 5649   3.807   1.487  14.300
   44DOPE  C310 5650   3.847   1.337  14.445
   44DOPE  H10X 5651   3.774   1.380  14.515
   44DOPE  C311 5652   3.916   1.212  14.491
   44DOPE  H11X 5653   3.986   1.174  14.413
   44DOPE  H11Y 5654   3.978   1.232  14.581
   44DOPE  C312 5655   3.821   1.095  14.521
   44DOPE  H12X 5656   3.881   1.001  14.516
   44DOPE  H12Y 5657   3.742   1.087  14.443
   44DOPE  C313 5658   3.757   1.103  14.660
   44DOPE  H13X 5659   3.838   1.105  14.737
   44DOPE  H13Y 5660   3.702   1.199  14.668
   44DOPE  C314 5661   3.661   0.987  14.691
   44DOPE  H14X 5662   3.578   0.989  14.617
   44DOPE  H14Y 5663   3.617   1.003  14.792
   44DOPE  C315 5664   3.728   0.849  14.687
   44DOPE  H15X 5665   3.818   0.849  14.753
   44DOPE  H15Y 5666   3.763   0.829  14.583
   44DOPE  C316 5667   3.635   0.733  14.728
   44DOPE  H16X 5668   3.687   0.638  14.705
   44DOPE  H16Y 5669   3.543   0.736  14.667
   44DOPE  C317 5670   3.600   0.734  14.877
   44DOPE  H17X 5671   3.693   0.746  14.936
   44DOPE  H17Y 5672   3.535   0.821  14.899
   44DOPE  C318 5673   3.529   0.605  14.922
   44DOPE  H18X 5674   3.434   0.592  14.867
   44DOPE  H18Y 5675   3.594   0.517  14.903
   44DOPE  H18Z 5676   3.507   0.609  15.031
   45DOPE     N 5677   4.644   0.900  12.765
   45DOPE   HN1 5678   4.676   0.965  12.690
   45DOPE   HN2 5679   4.639   0.956  12.853
   45DOPE   HN3 5680   4.713   0.823  12.776
   45DOPE   C12 5681   4.506   0.848  12.735
   45DOPE  H12A 5682   4.518   0.745  12.696
   45DOPE  H12B 5683   4.463   0.912  12.655
   45DOPE   C11 5684   4.414   0.847  12.859
   45DOPE  H11A 5685   4.459   0.790  12.943
   45DOPE  H11B 5686   4.322   0.792  12.828
   45DOPE     P 5687   4.451   1.059  13.010
   45DOPE   O13 5688   4.400   1.197  13.009
   45DOPE   O14 5689   4.595   1.037  12.984
   45DOPE   O11 5690   4.408   0.982  13.141
   45DOPE   O12 5691   4.373   0.979  12.897
   45DOPE    C1 5692   4.271   0.979  13.185
   45DOPE    HA 5693   4.256   0.886  13.244
   45DOPE    HB 5694   4.200   0.976  13.100
   45DOPE    C2 5695   4.235   1.099  13.278
   45DOPE    HS 5696   4.245   1.191  13.217
   45DOPE   O21 5697   4.328   1.101  13.389
   45DOPE   C21 5698   4.340   1.219  13.448
   45DOPE   O22 5699   4.271   1.317  13.426
   45DOPE   C22 5700   4.459   1.212  13.544
   45DOPE   H2R 5701   4.546   1.180  13.484
   45DOPE   H2S 5702   4.438   1.135  13.621
   45DOPE    C3 5703   4.088   1.088  13.328
   45DOPE    HX 5704   4.022   1.095  13.238
   45DOPE    HY 5705   4.063   1.177  13.390
   45DOPE   O31 5706   4.063   0.962  13.393
   45DOPE   C31 5707   4.046   0.965  13.525
   45DOPE   O32 5708   4.030   1.065  13.592
   45DOPE   C32 5709   4.053   0.823  13.581
   45DOPE   H2X 5710   3.951   0.794  13.613
   45DOPE   H2Y 5711   4.085   0.754  13.500
   45DOPE   C23 5712   4.491   1.348  13.612
   45DOPE   H3R 5713   4.417   1.368  13.693
   45DOPE   H3S 5714   4.481   1.429  13.537
   45DOPE   C24 5715   4.634   1.355  13.668
   45DOPE   H4R 5716   4.652   1.456  13.709
   45DOPE   H4S 5717   4.704   1.341  13.583
   45DOPE   C25 5718   4.668   1.249  13.775
   45DOPE   H5R 5719   4.776   1.255  13.798
   45DOPE   H5S 5720   4.649   1.148  13.733
   45DOPE   C26 5721   4.590   1.264  13.906
   45DOPE   H6R 5722   4.616   1.178  13.972
   45DOPE   H6S 5723   4.481   1.257  13.886
   45DOPE   C27 5724   4.621   1.394  13.982
   45DOPE   H7R 5725   4.586   1.481  13.923
   45DOPE   H7S 5726   4.732   1.402  13.992
   45DOPE   C28 5727   4.561   1.398  14.124
   45DOPE   H8R 5728   4.606   1.484  14.179
   45DOPE   H8S 5729   4.592   1.305  14.177
   45DOPE   C29 5730   4.411   1.410  14.123
   45DOPE   H9R 5731   4.364   1.396  14.025
   45DOPE  C210 5732   4.332   1.435  14.230
   45DOPE  H10R 5733   4.223   1.441  14.213
   45DOPE  C211 5734   4.373   1.456  14.373
   45DOPE  H11R 5735   4.282   1.462  14.436
   45DOPE  H11S 5736   4.424   1.554  14.383
   45DOPE  C212 5737   4.464   1.348  14.438
   45DOPE  H12R 5738   4.477   1.373  14.545
   45DOPE  H12S 5739   4.565   1.353  14.391
   45DOPE  C213 5740   4.412   1.204  14.427
   45DOPE  H13R 5741   4.489   1.136  14.469
   45DOPE  H13S 5742   4.399   1.176  14.321
   45DOPE  C214 5743   4.279   1.180  14.502
   45DOPE  H14R 5744   4.201   1.240  14.452
   45DOPE  H14S 5745   4.288   1.216  14.606
   45DOPE  C215 5746   4.238   1.031  14.502
   45DOPE  H15R 5747   4.300   0.977  14.428
   45DOPE  H15S 5748   4.132   1.022  14.468
   45DOPE  C216 5749   4.250   0.963  14.639
   45DOPE  H16R 5750   4.350   0.984  14.682
   45DOPE  H16S 5751   4.243   0.853  14.624
   45DOPE  C217 5752   4.142   1.004  14.739
   45DOPE  H17R 5753   4.042   0.990  14.691
   45DOPE  H17S 5754   4.152   1.113  14.762
   45DOPE  C218 5755   4.146   0.924  14.869
   45DOPE  H18R 5756   4.246   0.934  14.918
   45DOPE  H18S 5757   4.129   0.816  14.848
   45DOPE  H18T 5758   4.068   0.959  14.940
   45DOPE   C33 5759   4.151   0.815  13.700
   45DOPE   H3X 5760   4.150   0.712  13.741
   45DOPE   H3Y 5761   4.118   0.883  13.782
   45DOPE   C34 5762   4.294   0.851  13.658
   45DOPE   H4X 5763   4.323   0.784  13.574
   45DOPE   H4Y 5764   4.298   0.955  13.619
   45DOPE   C35 5765   4.398   0.836  13.770
   45DOPE   H5X 5766   4.498   0.847  13.722
   45DOPE   H5Y 5767   4.393   0.734  13.813
   45DOPE   C36 5768   4.390   0.943  13.881
   45DOPE   H6X 5769   4.337   1.033  13.842
   45DOPE   H6Y 5770   4.494   0.975  13.904
   45DOPE   C37 5771   4.326   0.898  14.014
   45DOPE   H7X 5772   4.339   0.980  14.087
   45DOPE   H7Y 5773   4.216   0.885  13.998
   45DOPE   C38 5774   4.382   0.768  14.076
   45DOPE   H8X 5775   4.335   0.682  14.023
   45DOPE   H8Y 5776   4.345   0.762  14.181
   45DOPE   C39 5777   4.532   0.754  14.070
   45DOPE   H9X 5778   4.569   0.702  13.980
   45DOPE  C310 5779   4.621   0.798  14.160
   45DOPE  H10X 5780   4.728   0.780  14.142
   45DOPE  C311 5781   4.591   0.873  14.287
   45DOPE  H11X 5782   4.651   0.967  14.290
   45DOPE  H11Y 5783   4.485   0.904  14.293
   45DOPE  C312 5784   4.624   0.789  14.412
   45DOPE  H12X 5785   4.728   0.752  14.408
   45DOPE  H12Y 5786   4.557   0.700  14.412
   45DOPE  C313 5787   4.602   0.866  14.543
   45DOPE  H13X 5788   4.503   0.916  14.539
   45DOPE  H13Y 5789   4.600   0.793  14.627
   45DOPE  C314 5790   4.711   0.970  14.572
   45DOPE  H14X 5791   4.728   1.033  14.482
   45DOPE  H14Y 5792   4.806   0.916  14.594
   45DOPE  C315 5793   4.679   1.064  14.690
   45DOPE  H15X 5794   4.594   1.129  14.663
   45DOPE  H15Y 5795   4.767   1.130  14.708
   45DOPE  C316 5796   4.644   0.991  14.821
   45DOPE  H16X 5797   4.726   0.920  14.847
   45DOPE  H16Y 5798   4.551   0.932  14.806
   45DOPE  C317 5799   4.622   1.088  14.937
   45DOPE  H17X 5800   4.719   1.139  14.960
   45DOPE  H17Y 5801   4.550   1.166  14.905
   45DOPE  C318 5802   4.569   1.019  15.062
   45DOPE  H18X 5803   4.562   1.092  15.147
   45DOPE  H18Y 5804   4.468   0.977  15.043
   45DOPE  H18Z 5805   4.636   0.936  15.093
   46DOPE     N 5806   4.761   7.345  12.976
   46DOPE   HN1 5807   4.682   7.344  12.908
   46DOPE   HN2 5808   4.728   7.373  13.071
   46DOPE   HN3 5809   4.830   7.416  12.943
   46DOPE   C12 5810   4.832   7.213  12.977
   46DOPE  H12A 5811   4.868   7.195  12.874
   46DOPE  H12B 5812   4.759   7.134  13.004
   46DOPE   C11 5813   4.952   7.214  13.075
   46DOPE  H11A 5814   5.018   7.127  13.055
   46DOPE  H11B 5815   4.914   7.199  13.179
   46DOPE     P 5816   5.095   7.390  12.942
   46DOPE   O13 5817   4.992   7.475  12.878
   46DOPE   O14 5818   5.144   7.274  12.864
   46DOPE   O11 5819   5.215   7.476  12.995
   46DOPE   O12 5820   5.027   7.336  13.073
   46DOPE    C1 5821   5.344   7.417  13.017
   46DOPE    HA 5822   5.417   7.501  13.031
   46DOPE    HB 5823   5.380   7.363  12.927
   46DOPE    C2 5824   5.351   7.324  13.142
   46DOPE    HS 5825   5.259   7.339  13.203
   46DOPE   O21 5826   5.467   7.352  13.222
   46DOPE   C21 5827   5.462   7.466  13.290
   46DOPE   O22 5828   5.372   7.547  13.288
   46DOPE   C22 5829   5.589   7.482  13.373
   46DOPE   H2R 5830   5.603   7.591  13.388
   46DOPE   H2S 5831   5.675   7.443  13.314
   46DOPE    C3 5832   5.354   7.173  13.100
   46DOPE    HX 5833   5.432   7.164  13.021
   46DOPE    HY 5834   5.257   7.145  13.053
   46DOPE   O31 5835   5.390   7.084  13.208
   46DOPE   C31 5836   5.291   7.051  13.290
   46DOPE   O32 5837   5.175   7.084  13.277
   46DOPE   C32 5838   5.348   6.963  13.402
   46DOPE   H2X 5839   5.362   6.862  13.359
   46DOPE   H2Y 5840   5.448   7.003  13.431
   46DOPE   C23 5841   5.581   7.412  13.510
   46DOPE   H3R 5842   5.671   7.440  13.569
   46DOPE   H3S 5843   5.583   7.301  13.498
   46DOPE   C24 5844   5.455   7.451  13.589
   46DOPE   H4R 5845   5.369   7.391  13.552
   46DOPE   H4S 5846   5.431   7.558  13.569
   46DOPE   C25 5847   5.467   7.433  13.742
   46DOPE   H5R 5848   5.502   7.331  13.767
   46DOPE   H5S 5849   5.365   7.445  13.784
   46DOPE   C26 5850   5.557   7.539  13.808
   46DOPE   H6R 5851   5.564   7.627  13.741
   46DOPE   H6S 5852   5.660   7.498  13.821
   46DOPE   C27 5853   5.504   7.589  13.944
   46DOPE   H7R 5854   5.401   7.628  13.929
   46DOPE   H7S 5855   5.567   7.675  13.976
   46DOPE   C28 5856   5.505   7.482  14.054
   46DOPE   H8R 5857   5.609   7.447  14.069
   46DOPE   H8S 5858   5.447   7.394  14.018
   46DOPE   C29 5859   5.444   7.535  14.181
   46DOPE   H9R 5860   5.335   7.547  14.179
   46DOPE  C210 5861   5.510   7.568  14.294
   46DOPE  H10R 5862   5.453   7.606  14.379
   46DOPE  C211 5863   5.659   7.560  14.314
   46DOPE  H11R 5864   5.711   7.588  14.220
   46DOPE  H11S 5865   5.690   7.456  14.339
   46DOPE  C212 5866   5.712   7.654  14.425
   46DOPE  H12R 5867   5.656   7.750  14.424
   46DOPE  H12S 5868   5.818   7.679  14.401
   46DOPE  C213 5869   5.712   7.595  14.567
   46DOPE  H13R 5870   5.751   7.672  14.637
   46DOPE  H13S 5871   5.783   7.509  14.570
   46DOPE  C214 5872   5.576   7.545  14.617
   46DOPE  H14R 5873   5.545   7.459  14.554
   46DOPE  H14S 5874   5.500   7.625  14.606
   46DOPE  C215 5875   5.578   7.497  14.763
   46DOPE  H15R 5876   5.669   7.435  14.781
   46DOPE  H15S 5877   5.490   7.433  14.781
   46DOPE  C216 5878   5.573   7.613  14.865
   46DOPE  H16R 5879   5.484   7.675  14.842
   46DOPE  H16S 5880   5.663   7.677  14.854
   46DOPE  C217 5881   5.562   7.564  15.010
   46DOPE  H17R 5882   5.482   7.488  15.017
   46DOPE  H17S 5883   5.531   7.650  15.073
   46DOPE  C218 5884   5.693   7.508  15.067
   46DOPE  H18R 5885   5.678   7.472  15.171
   46DOPE  H18S 5886   5.771   7.586  15.068
   46DOPE  H18T 5887   5.729   7.423  15.005
   46DOPE   C33 5888   5.256   6.953  13.525
   46DOPE   H3X 5889   5.296   6.872  13.591
   46DOPE   H3Y 5890   5.154   6.922  13.495
   46DOPE   C34 5891   5.250   7.082  13.608
   46DOPE   H4X 5892   5.353   7.112  13.637
   46DOPE   H4Y 5893   5.207   7.163  13.545
   46DOPE   C35 5894   5.165   7.065  13.735
   46DOPE   H5X 5895   5.206   6.981  13.795
   46DOPE   H5Y 5896   5.062   7.038  13.705
   46DOPE   C36 5897   5.159   7.190  13.825
   46DOPE   H6X 5898   5.262   7.216  13.859
   46DOPE   H6Y 5899   5.099   7.166  13.915
   46DOPE   C37 5900   5.096   7.313  13.756
   46DOPE   H7X 5901   5.163   7.344  13.673
   46DOPE   H7Y 5902   4.999   7.284  13.711
   46DOPE   C38 5903   5.077   7.434  13.850
   46DOPE   H8X 5904   5.056   7.523  13.787
   46DOPE   H8Y 5905   5.174   7.454  13.901
   46DOPE   C39 5906   4.964   7.415  13.948
   46DOPE   H9X 5907   4.863   7.420  13.903
   46DOPE  C310 5908   4.973   7.393  14.080
   46DOPE  H10X 5909   4.881   7.381  14.139
   46DOPE  C311 5910   5.100   7.379  14.161
   46DOPE  H11X 5911   5.189   7.369  14.095
   46DOPE  H11Y 5912   5.116   7.471  14.222
   46DOPE  C312 5913   5.096   7.258  14.256
   46DOPE  H12X 5914   5.078   7.165  14.198
   46DOPE  H12Y 5915   5.011   7.271  14.326
   46DOPE  C313 5916   5.224   7.241  14.339
   46DOPE  H13X 5917   5.254   7.339  14.381
   46DOPE  H13Y 5918   5.203   7.172  14.423
   46DOPE  C314 5919   5.341   7.183  14.258
   46DOPE  H14X 5920   5.357   7.243  14.166
   46DOPE  H14Y 5921   5.316   7.080  14.226
   46DOPE  C315 5922   5.474   7.179  14.336
   46DOPE  H15X 5923   5.504   7.283  14.363
   46DOPE  H15Y 5924   5.553   7.139  14.268
   46DOPE  C316 5925   5.469   7.092  14.462
   46DOPE  H16X 5926   5.419   6.996  14.436
   46DOPE  H16Y 5927   5.407   7.142  14.540
   46DOPE  C317 5928   5.608   7.059  14.519
   46DOPE  H17X 5929   5.595   6.984  14.600
   46DOPE  H17Y 5930   5.668   7.010  14.439
   46DOPE  C318 5931   5.684   7.180  14.573
   46DOPE  H18X 5932   5.626   7.230  14.653
   46DOPE  H18Y 5933   5.782   7.148  14.616
   46DOPE  H18Z 5934   5.704   7.254  14.493
   47DOPE     N 5935   1.506   6.886  13.089
   47DOPE   HN1 5936   1.446   6.923  13.012
   47DOPE   HN2 5937   1.456   6.805  13.130
   47DOPE   HN3 5938   1.521   6.960  13.161
   47DOPE   C12 5939   1.634   6.834  13.029
   47DOPE  H12A 5940   1.719   6.868  13.092
   47DOPE  H12B 5941   1.644   6.878  12.928
   47DOPE   C11 5942   1.634   6.679  13.018
   47DOPE  H11A 5943   1.650   6.636  13.120
   47DOPE  H11B 5944   1.723   6.648  12.959
   47DOPE     P 5945   1.399   6.567  13.043
   47DOPE   O13 5946   1.281   6.553  12.956
   47DOPE   O14 5947   1.389   6.657  13.160
   47DOPE   O11 5948   1.458   6.426  13.085
   47DOPE   O12 5949   1.516   6.630  12.954
   47DOPE    C1 5950   1.459   6.322  12.985
   47DOPE    HA 5951   1.517   6.353  12.896
   47DOPE    HB 5952   1.355   6.300  12.953
   47DOPE    C2 5953   1.521   6.186  13.034
   47DOPE    HS 5954   1.509   6.113  12.950
   47DOPE   O21 5955   1.457   6.138  13.153
   47DOPE   C21 5956   1.337   6.086  13.138
   47DOPE   O22 5957   1.280   6.066  13.032
   47DOPE   C22 5958   1.286   6.044  13.275
   47DOPE   H2R 5959   1.366   5.984  13.324
   47DOPE   H2S 5960   1.197   5.978  13.261
   47DOPE    C3 5961   1.674   6.195  13.063
   47DOPE    HX 5962   1.723   6.252  12.981
   47DOPE    HY 5963   1.714   6.092  13.059
   47DOPE   O31 5964   1.700   6.248  13.195
   47DOPE   C31 5965   1.754   6.367  13.203
   47DOPE   O32 5966   1.809   6.428  13.113
   47DOPE   C32 5967   1.739   6.422  13.346
   47DOPE   H2X 5968   1.841   6.439  13.386
   47DOPE   H2Y 5969   1.686   6.519  13.336
   47DOPE   C23 5970   1.249   6.163  13.366
   47DOPE   H3R 5971   1.154   6.209  13.330
   47DOPE   H3S 5972   1.328   6.241  13.361
   47DOPE   C24 5973   1.233   6.121  13.513
   47DOPE   H4R 5974   1.332   6.090  13.553
   47DOPE   H4S 5975   1.165   6.033  13.518
   47DOPE   C25 5976   1.175   6.232  13.602
   47DOPE   H5R 5977   1.075   6.261  13.564
   47DOPE   H5S 5978   1.240   6.322  13.595
   47DOPE   C26 5979   1.163   6.190  13.749
   47DOPE   H6R 5980   1.264   6.163  13.787
   47DOPE   H6S 5981   1.099   6.099  13.755
   47DOPE   C27 5982   1.103   6.300  13.837
   47DOPE   H7R 5983   1.005   6.330  13.792
   47DOPE   H7S 5984   1.169   6.389  13.836
   47DOPE   C28 5985   1.076   6.256  13.983
   47DOPE   H8R 5986   1.018   6.162  13.981
   47DOPE   H8S 5987   1.010   6.332  14.029
   47DOPE   C29 5988   1.204   6.237  14.062
   47DOPE   H9R 5989   1.270   6.159  14.023
   47DOPE  C210 5990   1.242   6.305  14.173
   47DOPE  H10R 5991   1.338   6.279  14.219
   47DOPE  C211 5992   1.166   6.416  14.242
   47DOPE  H11R 5993   1.115   6.376  14.332
   47DOPE  H11S 5994   1.086   6.457  14.176
   47DOPE  C212 5995   1.255   6.535  14.284
   47DOPE  H12R 5996   1.187   6.618  14.312
   47DOPE  H12S 5997   1.317   6.570  14.199
   47DOPE  C213 5998   1.346   6.506  14.404
   47DOPE  H13R 5999   1.434   6.446  14.372
   47DOPE  H13S 6000   1.289   6.445  14.477
   47DOPE  C214 6001   1.391   6.635  14.475
   47DOPE  H14R 6002   1.301   6.695  14.497
   47DOPE  H14S 6003   1.455   6.695  14.407
   47DOPE  C215 6004   1.467   6.606  14.606
   47DOPE  H15R 6005   1.569   6.571  14.580
   47DOPE  H15S 6006   1.415   6.525  14.660
   47DOPE  C216 6007   1.476   6.727  14.700
   47DOPE  H16R 6008   1.509   6.817  14.643
   47DOPE  H16S 6009   1.554   6.706  14.777
   47DOPE  C217 6010   1.344   6.756  14.773
   47DOPE  H17R 6011   1.310   6.663  14.823
   47DOPE  H17S 6012   1.267   6.784  14.698
   47DOPE  C218 6013   1.355   6.868  14.877
   47DOPE  H18R 6014   1.387   6.963  14.829
   47DOPE  H18S 6015   1.430   6.841  14.955
   47DOPE  H18T 6016   1.257   6.885  14.927
   47DOPE   C33 6017   1.658   6.333  13.444
   47DOPE   H3X 6018   1.714   6.239  13.465
   47DOPE   H3Y 6019   1.561   6.305  13.397
   47DOPE   C34 6020   1.629   6.406  13.576
   47DOPE   H4X 6021   1.725   6.437  13.622
   47DOPE   H4Y 6022   1.571   6.499  13.553
   47DOPE   C35 6023   1.548   6.321  13.675
   47DOPE   H5X 6024   1.612   6.237  13.710
   47DOPE   H5Y 6025   1.463   6.276  13.620
   47DOPE   C36 6026   1.492   6.400  13.795
   47DOPE   H6X 6027   1.431   6.332  13.858
   47DOPE   H6Y 6028   1.424   6.477  13.753
   47DOPE   C37 6029   1.595   6.472  13.883
   47DOPE   H7X 6030   1.672   6.523  13.821
   47DOPE   H7Y 6031   1.541   6.552  13.938
   47DOPE   C38 6032   1.662   6.383  13.991
   47DOPE   H8X 6033   1.582   6.335  14.051
   47DOPE   H8Y 6034   1.717   6.451  14.060
   47DOPE   C39 6035   1.760   6.282  13.936
   47DOPE   H9X 6036   1.841   6.325  13.875
   47DOPE  C310 6037   1.756   6.149  13.952
   47DOPE  H10X 6038   1.834   6.087  13.906
   47DOPE  C311 6039   1.651   6.073  14.030
   47DOPE  H11X 6040   1.550   6.119  14.016
   47DOPE  H11Y 6041   1.643   5.969  13.992
   47DOPE  C312 6042   1.682   6.070  14.181
   47DOPE  H12X 6043   1.692   6.175  14.217
   47DOPE  H12Y 6044   1.779   6.019  14.198
   47DOPE  C313 6045   1.572   6.000  14.262
   47DOPE  H13X 6046   1.475   6.050  14.243
   47DOPE  H13Y 6047   1.563   5.895  14.226
   47DOPE  C314 6048   1.599   5.998  14.414
   47DOPE  H14X 6049   1.694   5.944  14.434
   47DOPE  H14Y 6050   1.517   5.943  14.463
   47DOPE  C315 6051   1.608   6.139  14.475
   47DOPE  H15X 6052   1.519   6.197  14.443
   47DOPE  H15Y 6053   1.698   6.191  14.436
   47DOPE  C316 6054   1.614   6.138  14.629
   47DOPE  H16X 6055   1.703   6.080  14.662
   47DOPE  H16Y 6056   1.524   6.087  14.668
   47DOPE  C317 6057   1.621   6.280  14.686
   47DOPE  H17X 6058   1.716   6.328  14.652
   47DOPE  H17Y 6059   1.537   6.338  14.644
   47DOPE  C318 6060   1.614   6.285  14.839
   47DOPE  H18X 6061   1.619   6.390  14.875
   47DOPE  H18Y 6062   1.518   6.240  14.874
   47DOPE  H18Z 6063   1.698   6.228  14.884
   48DOPE     N 6064   7.081   1.844  12.855
   48DOPE   HN1 6065   7.034   1.752  12.847
   48DOPE   HN2 6066   7.023   1.913  12.907
   48DOPE   HN3 6067   7.096   1.885  12.760
   48DOPE   C12 6068   7.212   1.830  12.928
   48DOPE  H12A 6069   7.261   1.737  12.893
   48DOPE  H12B 6070   7.188   1.820  13.036
   48DOPE   C11 6071   7.303   1.952  12.904
   48DOPE  H11A 6072   7.347   1.942  12.803
   48DOPE  H11B 6073   7.388   1.948  12.976
   48DOPE     P 6074   7.144   2.127  13.029
   48DOPE   O13 6075   7.011   2.071  12.996
   48DOPE   O14 6076   7.159   2.273  13.042
   48DOPE   O11 6077   7.203   2.052  13.156
   48DOPE   O12 6078   7.238   2.079  12.911
   48DOPE    C1 6079   7.326   2.103  13.211
   48DOPE    HA 6080   7.319   2.212  13.230
   48DOPE    HB 6081   7.409   2.087  13.139
   48DOPE    C2 6082   7.372   2.036  13.346
   48DOPE    HS 6083   7.482   2.023  13.340
   48DOPE   O21 6084   7.308   1.911  13.372
   48DOPE   C21 6085   7.339   1.810  13.294
   48DOPE   O22 6086   7.409   1.815  13.195
   48DOPE   C22 6087   7.286   1.680  13.355
   48DOPE   H2R 6088   7.355   1.653  13.437
   48DOPE   H2S 6089   7.293   1.602  13.276
   48DOPE    C3 6090   7.344   2.130  13.467
   48DOPE    HX 6091   7.389   2.229  13.445
   48DOPE    HY 6092   7.400   2.090  13.554
   48DOPE   O31 6093   7.203   2.148  13.493
   48DOPE   C31 6094   7.153   2.067  13.586
   48DOPE   O32 6095   7.216   1.989  13.653
   48DOPE   C32 6096   7.001   2.087  13.596
   48DOPE   H2X 6097   6.970   2.159  13.517
   48DOPE   H2Y 6098   6.953   1.989  13.574
   48DOPE   C23 6099   7.141   1.687  13.409
   48DOPE   H3R 6100   7.072   1.713  13.325
   48DOPE   H3S 6101   7.132   1.768  13.485
   48DOPE   C24 6102   7.095   1.554  13.471
   48DOPE   H4R 6103   7.126   1.472  13.403
   48DOPE   H4S 6104   6.984   1.552  13.476
   48DOPE   C25 6105   7.150   1.527  13.612
   48DOPE   H5R 6106   7.258   1.554  13.616
   48DOPE   H5S 6107   7.142   1.418  13.632
   48DOPE   C26 6108   7.073   1.601  13.723
   48DOPE   H6R 6109   6.966   1.573  13.714
   48DOPE   H6S 6110   7.080   1.711  13.706
   48DOPE   C27 6111   7.120   1.566  13.866
   48DOPE   H7R 6112   7.120   1.455  13.875
   48DOPE   H7S 6113   7.045   1.604  13.938
   48DOPE   C28 6114   7.259   1.619  13.905
   48DOPE   H8R 6115   7.334   1.580  13.833
   48DOPE   H8S 6116   7.286   1.576  14.004
   48DOPE   C29 6117   7.264   1.770  13.908
   48DOPE   H9R 6118   7.232   1.817  13.814
   48DOPE  C210 6119   7.305   1.851  14.008
   48DOPE  H10R 6120   7.300   1.960  13.991
   48DOPE  C211 6121   7.356   1.811  14.144
   48DOPE  H11R 6122   7.467   1.814  14.144
   48DOPE  H11S 6123   7.326   1.707  14.170
   48DOPE  C212 6124   7.310   1.903  14.260
   48DOPE  H12R 6125   7.336   1.853  14.355
   48DOPE  H12S 6126   7.200   1.916  14.258
   48DOPE  C213 6127   7.377   2.042  14.258
   48DOPE  H13R 6128   7.359   2.090  14.160
   48DOPE  H13S 6129   7.486   2.029  14.271
   48DOPE  C214 6130   7.324   2.136  14.368
   48DOPE  H14R 6131   7.214   2.150  14.354
   48DOPE  H14S 6132   7.371   2.236  14.354
   48DOPE  C215 6133   7.351   2.088  14.511
   48DOPE  H15R 6134   7.459   2.065  14.521
   48DOPE  H15S 6135   7.295   1.994  14.529
   48DOPE  C216 6136   7.310   2.192  14.616
   48DOPE  H16R 6137   7.203   2.218  14.601
   48DOPE  H16S 6138   7.370   2.284  14.600
   48DOPE  C217 6139   7.329   2.144  14.761
   48DOPE  H17R 6140   7.264   2.055  14.778
   48DOPE  H17S 6141   7.291   2.225  14.828
   48DOPE  C218 6142   7.473   2.110  14.799
   48DOPE  H18R 6143   7.511   2.025  14.739
   48DOPE  H18S 6144   7.480   2.082  14.906
   48DOPE  H18T 6145   7.539   2.198  14.782
   48DOPE   C33 6146   6.955   2.138  13.734
   48DOPE   H3X 6147   6.848   2.168  13.727
   48DOPE   H3Y 6148   7.012   2.229  13.763
   48DOPE   C34 6149   6.966   2.033  13.846
   48DOPE   H4X 6150   6.910   1.942  13.815
   48DOPE   H4Y 6151   7.072   2.004  13.859
   48DOPE   C35 6152   6.913   2.083  13.981
   48DOPE   H5X 6153   6.804   2.102  13.973
   48DOPE   H5Y 6154   6.962   2.180  14.005
   48DOPE   C36 6155   6.940   1.985  14.097
   48DOPE   H6X 6156   6.901   2.030  14.191
   48DOPE   H6Y 6157   7.049   1.972  14.109
   48DOPE   C37 6158   6.874   1.847  14.078
   48DOPE   H7X 6159   6.767   1.864  14.052
   48DOPE   H7Y 6160   6.920   1.796  13.991
   48DOPE   C38 6161   6.880   1.757  14.202
   48DOPE   H8X 6162   6.812   1.671  14.183
   48DOPE   H8Y 6163   6.839   1.812  14.289
   48DOPE   C39 6164   7.020   1.706  14.229
   48DOPE   H9X 6165   7.084   1.704  14.140
   48DOPE  C310 6166   7.071   1.667  14.347
   48DOPE  H10X 6167   7.176   1.634  14.350
   48DOPE  C311 6168   7.000   1.662  14.479
   48DOPE  H11X 6169   6.890   1.678  14.468
   48DOPE  H11Y 6170   7.013   1.561  14.523
   48DOPE  C312 6171   7.053   1.766  14.581
   48DOPE  H12X 6172   7.022   1.867  14.548
   48DOPE  H12Y 6173   7.164   1.763  14.584
   48DOPE  C313 6174   7.000   1.737  14.722
   48DOPE  H13X 6175   6.889   1.728  14.719
   48DOPE  H13Y 6176   7.040   1.639  14.755
   48DOPE  C314 6177   7.041   1.843  14.827
   48DOPE  H14X 6178   7.151   1.858  14.822
   48DOPE  H14Y 6179   7.017   1.803  14.928
   48DOPE  C315 6180   6.970   1.979  14.811
   48DOPE  H15X 6181   6.998   2.026  14.715
   48DOPE  H15Y 6182   7.006   2.045  14.892
   48DOPE  C316 6183   6.817   1.968  14.820
   48DOPE  H16X 6184   6.790   1.897  14.901
   48DOPE  H16Y 6185   6.777   1.927  14.725
   48DOPE  C317 6186   6.748   2.102  14.849
   48DOPE  H17X 6187   6.640   2.084  14.867
   48DOPE  H17Y 6188   6.789   2.144  14.944
   48DOPE  C318 6189   6.762   2.205  14.737
   48DOPE  H18X 6190   6.719   2.166  14.643
   48DOPE  H18Y 6191   6.709   2.300  14.763
   48DOPE  H18Z 6192   6.869   2.229  14.719
   49DOPE     N 6193   2.044   6.975  12.741
   49DOPE   HN1 6194   2.116   6.900  12.746
   49DOPE   HN2 6195   1.995   6.971  12.649
   49DOPE   HN3 6196   2.092   7.067  12.748
   49DOPE   C12 6197   1.944   6.964  12.852
   49DOPE  H12A 6198   1.875   6.880  12.830
   49DOPE  H12B 6199   1.886   7.059  12.852
   49DOPE   C11 6200   2.014   6.943  12.988
   49DOPE  H11A 6201   2.121   6.972  12.984
   49DOPE  H11B 6202   2.013   6.835  13.012
   49DOPE     P 6203   1.980   7.166  13.121
   49DOPE   O13 6204   1.856   7.234  13.161
   49DOPE   O14 6205   2.050   7.220  13.001
   49DOPE   O11 6206   2.081   7.155  13.241
   49DOPE   O12 6207   1.944   7.014  13.090
   49DOPE    C1 6208   2.222   7.134  13.224
   49DOPE    HA 6209   2.275   7.232  13.225
   49DOPE    HB 6210   2.245   7.085  13.127
   49DOPE    C2 6211   2.284   7.044  13.336
   49DOPE    HS 6212   2.380   7.002  13.300
   49DOPE   O21 6213   2.194   6.938  13.372
   49DOPE   C21 6214   2.174   6.848  13.277
   49DOPE   O22 6215   2.240   6.836  13.175
   49DOPE   C22 6216   2.054   6.760  13.313
   49DOPE   H2R 6217   2.091   6.676  13.375
   49DOPE   H2S 6218   2.014   6.719  13.218
   49DOPE    C3 6219   2.317   7.125  13.465
   49DOPE    HX 6220   2.407   7.187  13.442
   49DOPE    HY 6221   2.345   7.056  13.546
   49DOPE   O31 6222   2.210   7.214  13.502
   49DOPE   C31 6223   2.113   7.160  13.574
   49DOPE   O32 6224   2.119   7.056  13.636
   49DOPE   C32 6225   1.993   7.255  13.573
   49DOPE   H2X 6226   2.009   7.329  13.655
   49DOPE   H2Y 6227   1.991   7.308  13.476
   49DOPE   C23 6228   1.943   6.837  13.389
   49DOPE   H3R 6229   1.917   6.931  13.335
   49DOPE   H3S 6230   1.982   6.867  13.489
   49DOPE   C24 6231   1.815   6.753  13.406
   49DOPE   H4R 6232   1.843   6.655  13.449
   49DOPE   H4S 6233   1.771   6.736  13.306
   49DOPE   C25 6234   1.710   6.818  13.498
   49DOPE   H5R 6235   1.611   6.771  13.480
   49DOPE   H5S 6236   1.702   6.926  13.473
   49DOPE   C26 6237   1.746   6.800  13.646
   49DOPE   H6R 6238   1.852   6.830  13.659
   49DOPE   H6S 6239   1.738   6.693  13.673
   49DOPE   C27 6240   1.658   6.884  13.742
   49DOPE   H7R 6241   1.552   6.854  13.728
   49DOPE   H7S 6242   1.667   6.991  13.713
   49DOPE   C28 6243   1.696   6.868  13.891
   49DOPE   H8R 6244   1.673   6.763  13.921
   49DOPE   H8S 6245   1.630   6.935  13.951
   49DOPE   C29 6246   1.841   6.899  13.917
   49DOPE   H9R 6247   1.896   6.941  13.832
   49DOPE  C210 6248   1.907   6.883  14.033
   49DOPE  H10R 6249   2.014   6.909  14.035
   49DOPE  C211 6250   1.854   6.831  14.164
   49DOPE  H11R 6251   1.903   6.735  14.190
   49DOPE  H11S 6252   1.744   6.812  14.162
   49DOPE  C212 6253   1.886   6.935  14.272
   49DOPE  H12R 6254   1.824   7.025  14.256
   49DOPE  H12S 6255   1.993   6.965  14.261
   49DOPE  C213 6256   1.870   6.889  14.418
   49DOPE  H13R 6257   1.876   6.778  14.422
   49DOPE  H13S 6258   1.770   6.918  14.456
   49DOPE  C214 6259   1.982   6.949  14.505
   49DOPE  H14R 6260   1.985   7.059  14.489
   49DOPE  H14S 6261   2.078   6.908  14.468
   49DOPE  C215 6262   1.970   6.921  14.656
   49DOPE  H15R 6263   1.919   6.824  14.672
   49DOPE  H15S 6264   1.907   7.000  14.702
   49DOPE  C216 6265   2.106   6.917  14.729
   49DOPE  H16R 6266   2.156   6.821  14.705
   49DOPE  H16S 6267   2.086   6.916  14.839
   49DOPE  C217 6268   2.204   7.031  14.697
   49DOPE  H17R 6269   2.235   7.022  14.591
   49DOPE  H17S 6270   2.296   7.016  14.758
   49DOPE  C218 6271   2.151   7.172  14.722
   49DOPE  H18R 6272   2.229   7.248  14.701
   49DOPE  H18S 6273   2.118   7.183  14.827
   49DOPE  H18T 6274   2.064   7.194  14.656
   49DOPE   C33 6275   1.859   7.180  13.593
   49DOPE   H3X 6276   1.862   7.120  13.686
   49DOPE   H3Y 6277   1.847   7.109  13.508
   49DOPE   C34 6278   1.738   7.274  13.595
   49DOPE   H4X 6279   1.745   7.341  13.507
   49DOPE   H4Y 6280   1.645   7.214  13.583
   49DOPE   C35 6281   1.725   7.358  13.723
   49DOPE   H5X 6282   1.651   7.438  13.705
   49DOPE   H5Y 6283   1.823   7.407  13.744
   49DOPE   C36 6284   1.679   7.278  13.845
   49DOPE   H6X 6285   1.749   7.194  13.865
   49DOPE   H6Y 6286   1.580   7.233  13.821
   49DOPE   C37 6287   1.663   7.364  13.972
   49DOPE   H7X 6288   1.600   7.452  13.947
   49DOPE   H7Y 6289   1.609   7.305  14.049
   49DOPE   C38 6290   1.796   7.414  14.033
   49DOPE   H8X 6291   1.771   7.490  14.110
   49DOPE   H8Y 6292   1.855   7.467  13.955
   49DOPE   C39 6293   1.878   7.301  14.091
   49DOPE   H9X 6294   1.916   7.228  14.018
   49DOPE  C310 6295   1.906   7.282  14.222
   49DOPE  H10X 6296   1.968   7.196  14.251
   49DOPE  C311 6297   1.861   7.370  14.335
   49DOPE  H11X 6298   1.927   7.356  14.424
   49DOPE  H11Y 6299   1.874   7.476  14.304
   49DOPE  C312 6300   1.713   7.357  14.377
   49DOPE  H12X 6301   1.649   7.356  14.286
   49DOPE  H12Y 6302   1.687   7.447  14.436
   49DOPE  C313 6303   1.680   7.235  14.465
   49DOPE  H13X 6304   1.569   7.226  14.469
   49DOPE  H13Y 6305   1.720   7.143  14.418
   49DOPE  C314 6306   1.731   7.250  14.608
   49DOPE  H14X 6307   1.706   7.351  14.647
   49DOPE  H14Y 6308   1.842   7.241  14.608
   49DOPE  C315 6309   1.672   7.145  14.703
   49DOPE  H15X 6310   1.695   7.044  14.664
   49DOPE  H15Y 6311   1.561   7.155  14.705
   49DOPE  C316 6312   1.727   7.159  14.846
   49DOPE  H16X 6313   1.693   7.255  14.889
   49DOPE  H16Y 6314   1.838   7.161  14.842
   49DOPE  C317 6315   1.683   7.043  14.937
   49DOPE  H17X 6316   1.572   7.044  14.943
   49DOPE  H17Y 6317   1.713   6.947  14.890
   49DOPE  C318 6318   1.742   7.052  15.078
   49DOPE  H18X 6319   1.705   6.969  15.141
   49DOPE  H18Y 6320   1.853   7.047  15.074
   49DOPE  H18Z 6321   1.713   7.148  15.125
   50DOPE     N 6322   0.306   4.904  12.807
   50DOPE   HN1 6323   0.327   4.832  12.735
   50DOPE   HN2 6324   0.203   4.907  12.821
   50DOPE   HN3 6325   0.336   4.996  12.766
   50DOPE   C12 6326   0.373   4.877  12.939
   50DOPE  H12A 6327   0.473   4.833  12.919
   50DOPE  H12B 6328   0.310   4.802  12.992
   50DOPE   C11 6329   0.385   5.006  13.023
   50DOPE  H11A 6330   0.401   4.979  13.130
   50DOPE  H11B 6331   0.288   5.061  13.021
   50DOPE     P 6332   0.641   5.063  13.008
   50DOPE   O13 6333   0.709   5.192  13.030
   50DOPE   O14 6334   0.692   4.976  12.900
   50DOPE   O11 6335   0.632   4.980  13.142
   50DOPE   O12 6336   0.488   5.092  12.974
   50DOPE    C1 6337   0.722   4.873  13.169
   50DOPE    HA 6338   0.823   4.892  13.126
   50DOPE    HB 6339   0.684   4.778  13.126
   50DOPE    C2 6340   0.742   4.857  13.322
   50DOPE    HS 6341   0.829   4.790  13.340
   50DOPE   O21 6342   0.624   4.805  13.387
   50DOPE   C21 6343   0.608   4.675  13.379
   50DOPE   O22 6344   0.675   4.597  13.313
   50DOPE   C22 6345   0.492   4.635  13.470
   50DOPE   H2R 6346   0.484   4.524  13.467
   50DOPE   H2S 6347   0.399   4.678  13.427
   50DOPE    C3 6348   0.774   4.993  13.389
   50DOPE    HX 6349   0.684   5.056  13.374
   50DOPE    HY 6350   0.858   5.041  13.335
   50DOPE   O31 6351   0.809   4.972  13.528
   50DOPE   C31 6352   0.761   5.063  13.611
   50DOPE   O32 6353   0.705   5.167  13.579
   50DOPE   C32 6354   0.781   5.015  13.754
   50DOPE   H2X 6355   0.697   4.947  13.778
   50DOPE   H2Y 6356   0.877   4.959  13.760
   50DOPE   C23 6357   0.509   4.683  13.617
   50DOPE   H3R 6358   0.415   4.657  13.671
   50DOPE   H3S 6359   0.520   4.793  13.621
   50DOPE   C24 6360   0.626   4.615  13.689
   50DOPE   H4R 6361   0.722   4.653  13.648
   50DOPE   H4S 6362   0.622   4.506  13.668
   50DOPE   C25 6363   0.624   4.635  13.841
   50DOPE   H5R 6364   0.525   4.604  13.881
   50DOPE   H5S 6365   0.638   4.743  13.864
   50DOPE   C26 6366   0.734   4.553  13.911
   50DOPE   H6R 6367   0.831   4.576  13.860
   50DOPE   H6S 6368   0.714   4.445  13.896
   50DOPE   C27 6369   0.750   4.582  14.061
   50DOPE   H7R 6370   0.772   4.690  14.076
   50DOPE   H7S 6371   0.839   4.525  14.096
   50DOPE   C28 6372   0.628   4.542  14.146
   50DOPE   H8R 6373   0.598   4.438  14.119
   50DOPE   H8S 6374   0.543   4.607  14.119
   50DOPE   C29 6375   0.659   4.549  14.294
   50DOPE   H9R 6376   0.730   4.472  14.330
   50DOPE  C210 6377   0.612   4.639  14.381
   50DOPE  H10R 6378   0.645   4.635  14.486
   50DOPE  C211 6379   0.518   4.752  14.348
   50DOPE  H11R 6380   0.431   4.713  14.291
   50DOPE  H11S 6381   0.569   4.825  14.282
   50DOPE  C212 6382   0.466   4.825  14.473
   50DOPE  H12R 6383   0.550   4.868  14.531
   50DOPE  H12S 6384   0.414   4.752  14.538
   50DOPE  C213 6385   0.366   4.936  14.439
   50DOPE  H13R 6386   0.307   4.963  14.529
   50DOPE  H13S 6387   0.294   4.896  14.364
   50DOPE  C214 6388   0.430   5.064  14.381
   50DOPE  H14R 6389   0.352   5.124  14.330
   50DOPE  H14S 6390   0.504   5.034  14.303
   50DOPE  C215 6391   0.499   5.155  14.485
   50DOPE  H15R 6392   0.547   5.239  14.430
   50DOPE  H15S 6393   0.579   5.099  14.537
   50DOPE  C216 6394   0.403   5.215  14.589
   50DOPE  H16R 6395   0.360   5.134  14.652
   50DOPE  H16S 6396   0.319   5.264  14.535
   50DOPE  C217 6397   0.471   5.319  14.679
   50DOPE  H17R 6398   0.514   5.399  14.615
   50DOPE  H17S 6399   0.555   5.270  14.732
   50DOPE  C218 6400   0.376   5.382  14.781
   50DOPE  H18R 6401   0.335   5.305  14.849
   50DOPE  H18S 6402   0.292   5.433  14.730
   50DOPE  H18T 6403   0.430   5.458  14.843
   50DOPE   C33 6404   0.783   5.134  13.853
   50DOPE   H3X 6405   0.694   5.198  13.838
   50DOPE   H3Y 6406   0.872   5.196  13.834
   50DOPE   C34 6407   0.785   5.089  14.000
   50DOPE   H4X 6408   0.690   5.036  14.024
   50DOPE   H4Y 6409   0.869   5.018  14.016
   50DOPE   C35 6410   0.800   5.210  14.093
   50DOPE   H5X 6411   0.720   5.283  14.068
   50DOPE   H5Y 6412   0.898   5.258  14.072
   50DOPE   C36 6413   0.791   5.180  14.243
   50DOPE   H6X 6414   0.688   5.145  14.266
   50DOPE   H6Y 6415   0.807   5.275  14.297
   50DOPE   C37 6416   0.893   5.076  14.293
   50DOPE   H7X 6417   0.974   5.065  14.218
   50DOPE   H7Y 6418   0.939   5.117  14.385
   50DOPE   C38 6419   0.828   4.940  14.325
   50DOPE   H8X 6420   0.778   4.904  14.233
   50DOPE   H8Y 6421   0.747   4.957  14.399
   50DOPE   C39 6422   0.926   4.837  14.372
   50DOPE   H9X 6423   0.984   4.792  14.290
   50DOPE  C310 6424   0.951   4.794  14.498
   50DOPE  H10X 6425   1.028   4.715  14.509
   50DOPE  C311 6426   0.891   4.835  14.630
   50DOPE  H11X 6427   0.810   4.765  14.658
   50DOPE  H11Y 6428   0.970   4.823  14.708
   50DOPE  C312 6429   0.838   4.979  14.648
   50DOPE  H12X 6430   0.730   4.980  14.623
   50DOPE  H12Y 6431   0.889   5.048  14.577
   50DOPE  C313 6432   0.859   5.040  14.788
   50DOPE  H13X 6433   0.966   5.065  14.801
   50DOPE  H13Y 6434   0.802   5.135  14.792
   50DOPE  C314 6435   0.814   4.949  14.903
   50DOPE  H14X 6436   0.890   4.870  14.920
   50DOPE  H14Y 6437   0.719   4.900  14.873
   50DOPE  C315 6438   0.787   5.025  15.035
   50DOPE  H15X 6439   0.746   4.955  15.111
   50DOPE  H15Y 6440   0.707   5.099  15.012
   50DOPE  C316 6441   0.907   5.101  15.094
   50DOPE  H16X 6442   0.869   5.196  15.136
   50DOPE  H16Y 6443   0.980   5.129  15.015
   50DOPE  C317 6444   0.979   5.028  15.209
   50DOPE  H17X 6445   1.047   5.101  15.259
   50DOPE  H17Y 6446   0.904   4.996  15.284
   50DOPE  C318 6447   1.062   4.907  15.165
   50DOPE  H18X 6448   0.998   4.830  15.118
   50DOPE  H18Y 6449   1.140   4.938  15.092
   50DOPE  H18Z 6450   1.113   4.861  15.253
   51DOPE     N 6451   3.146   7.969  12.731
   51DOPE   HN1 6452   3.224   8.032  12.705
   51DOPE   HN2 6453   3.146   7.892  12.661
   51DOPE   HN3 6454   3.056   8.021  12.728
   51DOPE   C12 6455   3.174   7.921  12.871
   51DOPE  H12A 6456   3.081   7.881  12.915
   51DOPE  H12B 6457   3.205   8.010  12.929
   51DOPE   C11 6458   3.285   7.814  12.872
   51DOPE  H11A 6459   3.362   7.833  12.794
   51DOPE  H11B 6460   3.240   7.715  12.848
   51DOPE     P 6461   3.455   7.911  13.048
   51DOPE   O13 6462   3.406   7.978  13.170
   51DOPE   O14 6463   3.491   7.999  12.934
   51DOPE   O11 6464   3.580   7.820  13.082
   51DOPE   O12 6465   3.346   7.805  13.001
   51DOPE    C1 6466   3.565   7.687  13.133
   51DOPE    HA 6467   3.665   7.640  13.136
   51DOPE    HB 6468   3.501   7.624  13.066
   51DOPE    C2 6469   3.509   7.680  13.279
   51DOPE    HS 6470   3.399   7.693  13.271
   51DOPE   O21 6471   3.571   7.787  13.353
   51DOPE   C21 6472   3.491   7.849  13.438
   51DOPE   O22 6473   3.386   7.806  13.483
   51DOPE   C22 6474   3.553   7.985  13.470
   51DOPE   H2R 6475   3.553   8.043  13.376
   51DOPE   H2S 6476   3.658   7.968  13.502
   51DOPE    C3 6477   3.539   7.541  13.343
   51DOPE    HX 6478   3.648   7.533  13.363
   51DOPE    HY 6479   3.514   7.465  13.267
   51DOPE   O31 6480   3.457   7.514  13.459
   51DOPE   C31 6481   3.513   7.538  13.577
   51DOPE   O32 6482   3.628   7.571  13.596
   51DOPE   C32 6483   3.409   7.513  13.687
   51DOPE   H2X 6484   3.318   7.570  13.661
   51DOPE   H2Y 6485   3.385   7.404  13.686
   51DOPE   C23 6486   3.474   8.063  13.578
   51DOPE   H3R 6487   3.479   8.009  13.675
   51DOPE   H3S 6488   3.367   8.069  13.549
   51DOPE   C24 6489   3.526   8.207  13.596
   51DOPE   H4R 6490   3.467   8.256  13.677
   51DOPE   H4S 6491   3.507   8.263  13.503
   51DOPE   C25 6492   3.676   8.219  13.629
   51DOPE   H5R 6493   3.699   8.325  13.654
   51DOPE   H5S 6494   3.734   8.194  13.537
   51DOPE   C26 6495   3.725   8.127  13.743
   51DOPE   H6R 6496   3.835   8.140  13.755
   51DOPE   H6S 6497   3.709   8.021  13.713
   51DOPE   C27 6498   3.656   8.151  13.877
   51DOPE   H7R 6499   3.546   8.162  13.861
   51DOPE   H7S 6500   3.692   8.247  13.921
   51DOPE   C28 6501   3.675   8.034  13.976
   51DOPE   H8R 6502   3.632   7.944  13.928
   51DOPE   H8S 6503   3.614   8.053  14.067
   51DOPE   C29 6504   3.820   8.015  14.013
   51DOPE   H9R 6505   3.870   8.105  14.052
   51DOPE  C210 6506   3.889   7.900  14.002
   51DOPE  H10R 6507   3.994   7.897  14.035
   51DOPE  C211 6508   3.834   7.770  13.950
   51DOPE  H11R 6509   3.915   7.704  13.912
   51DOPE  H11S 6510   3.768   7.788  13.863
   51DOPE  C212 6511   3.752   7.692  14.055
   51DOPE  H12R 6512   3.704   7.608  14.001
   51DOPE  H12S 6513   3.671   7.755  14.096
   51DOPE  C213 6514   3.834   7.631  14.170
   51DOPE  H13R 6515   3.930   7.591  14.128
   51DOPE  H13S 6516   3.777   7.544  14.209
   51DOPE  C214 6517   3.863   7.724  14.289
   51DOPE  H14R 6518   3.921   7.812  14.255
   51DOPE  H14S 6519   3.929   7.669  14.361
   51DOPE  C215 6520   3.739   7.773  14.366
   51DOPE  H15R 6521   3.679   7.838  14.298
   51DOPE  H15S 6522   3.773   7.838  14.450
   51DOPE  C216 6523   3.648   7.662  14.421
   51DOPE  H16R 6524   3.601   7.608  14.337
   51DOPE  H16S 6525   3.566   7.710  14.479
   51DOPE  C217 6526   3.719   7.559  14.512
   51DOPE  H17R 6527   3.792   7.502  14.450
   51DOPE  H17S 6528   3.643   7.487  14.548
   51DOPE  C218 6529   3.793   7.620  14.632
   51DOPE  H18R 6530   3.835   7.539  14.696
   51DOPE  H18S 6531   3.723   7.681  14.694
   51DOPE  H18T 6532   3.876   7.685  14.599
   51DOPE   C33 6533   3.460   7.555  13.827
   51DOPE   H3X 6534   3.477   7.664  13.826
   51DOPE   H3Y 6535   3.558   7.506  13.849
   51DOPE   C34 6536   3.361   7.518  13.938
   51DOPE   H4X 6537   3.259   7.552  13.907
   51DOPE   H4Y 6538   3.357   7.408  13.947
   51DOPE   C35 6539   3.395   7.578  14.076
   51DOPE   H5X 6540   3.496   7.544  14.105
   51DOPE   H5Y 6541   3.323   7.538  14.151
   51DOPE   C36 6542   3.391   7.733  14.082
   51DOPE   H6X 6543   3.469   7.773  14.013
   51DOPE   H6Y 6544   3.418   7.765  14.184
   51DOPE   C37 6545   3.257   7.796  14.041
   51DOPE   H7X 6546   3.271   7.906  14.031
   51DOPE   H7Y 6547   3.229   7.760  13.940
   51DOPE   C38 6548   3.141   7.767  14.139
   51DOPE   H8X 6549   3.137   7.658  14.160
   51DOPE   H8Y 6550   3.046   7.792  14.087
   51DOPE   C39 6551   3.152   7.848  14.265
   51DOPE   H9X 6552   3.209   7.942  14.255
   51DOPE  C310 6553   3.099   7.817  14.384
   51DOPE  H10X 6554   3.114   7.885  14.469
   51DOPE  C311 6555   3.017   7.694  14.416
   51DOPE  H11X 6556   2.935   7.721  14.485
   51DOPE  H11Y 6557   2.970   7.652  14.325
   51DOPE  C312 6558   3.103   7.584  14.482
   51DOPE  H12X 6559   3.171   7.539  14.406
   51DOPE  H12Y 6560   3.035   7.503  14.516
   51DOPE  C313 6561   3.186   7.635  14.600
   51DOPE  H13X 6562   3.269   7.697  14.560
   51DOPE  H13Y 6563   3.123   7.699  14.664
   51DOPE  C314 6564   3.246   7.523  14.686
   51DOPE  H14X 6565   3.313   7.460  14.624
   51DOPE  H14Y 6566   3.163   7.458  14.721
   51DOPE  C315 6567   3.322   7.575  14.808
   51DOPE  H15X 6568   3.352   7.487  14.869
   51DOPE  H15Y 6569   3.254   7.637  14.871
   51DOPE  C316 6570   3.450   7.655  14.775
   51DOPE  H16X 6571   3.486   7.621  14.676
   51DOPE  H16Y 6572   3.528   7.629  14.849
   51DOPE  C317 6573   3.433   7.808  14.775
   51DOPE  H17X 6574   3.524   7.852  14.729
   51DOPE  H17Y 6575   3.347   7.836  14.710
   51DOPE  C318 6576   3.414   7.870  14.914
   51DOPE  H18X 6577   3.322   7.832  14.962
   51DOPE  H18Y 6578   3.501   7.846  14.979
   51DOPE  H18Z 6579   3.406   7.981  14.907
   52DOPE     N 6580   7.979   5.301  12.937
   52DOPE   HN1 6581   7.924   5.364  12.876
   52DOPE   HN2 6582   8.052   5.357  12.987
   52DOPE   HN3 6583   8.028   5.228  12.882
   52DOPE   C12 6584   7.892   5.227  13.035
   52DOPE  H12A 6585   7.840   5.147  12.978
   52DOPE  H12B 6586   7.818   5.298  13.076
   52DOPE   C11 6587   7.975   5.164  13.150
   52DOPE  H11A 6588   7.917   5.079  13.194
   52DOPE  H11B 6589   7.985   5.240  13.230
   52DOPE     P 6590   8.136   5.004  13.014
   52DOPE   O13 6591   8.280   4.972  13.019
   52DOPE   O14 6592   8.083   5.048  12.882
   52DOPE   O11 6593   8.045   4.886  13.067
   52DOPE   O12 6594   8.107   5.123  13.113
   52DOPE    C1 6595   8.087   4.790  13.165
   52DOPE    HA 6596   8.197   4.777  13.168
   52DOPE    HB 6597   8.043   4.691  13.138
   52DOPE    C2 6598   8.037   4.825  13.309
   52DOPE    HS 6599   7.929   4.850  13.301
   52DOPE   O21 6600   8.116   4.934  13.356
   52DOPE   C21 6601   8.053   5.018  13.436
   52DOPE   O22 6602   7.935   5.017  13.464
   52DOPE   C22 6603   8.155   5.117  13.492
   52DOPE   H2R 6604   8.202   5.171  13.406
   52DOPE   H2S 6605   8.233   5.057  13.543
   52DOPE    C3 6606   8.051   4.703  13.407
   52DOPE    HX 6607   8.154   4.665  13.394
   52DOPE    HY 6608   7.983   4.622  13.375
   52DOPE   O31 6609   8.034   4.740  13.546
   52DOPE   C31 6610   7.911   4.729  13.595
   52DOPE   O32 6611   7.814   4.687  13.534
   52DOPE   C32 6612   7.913   4.771  13.743
   52DOPE   H2X 6613   7.986   4.706  13.794
   52DOPE   H2Y 6614   7.950   4.876  13.748
   52DOPE   C23 6615   8.091   5.218  13.590
   52DOPE   H3R 6616   8.034   5.164  13.668
   52DOPE   H3S 6617   8.019   5.282  13.535
   52DOPE   C24 6618   8.195   5.307  13.659
   52DOPE   H4R 6619   8.143   5.379  13.726
   52DOPE   H4S 6620   8.248   5.367  13.581
   52DOPE   C25 6621   8.301   5.231  13.741
   52DOPE   H5R 6622   8.374   5.304  13.783
   52DOPE   H5S 6623   8.360   5.165  13.673
   52DOPE   C26 6624   8.245   5.145  13.856
   52DOPE   H6R 6625   8.328   5.084  13.897
   52DOPE   H6S 6626   8.168   5.074  13.817
   52DOPE   C27 6627   8.186   5.228  13.971
   52DOPE   H7R 6628   8.100   5.288  13.935
   52DOPE   H7S 6629   8.265   5.300  14.001
   52DOPE   C28 6630   8.142   5.142  14.090
   52DOPE   H8R 6631   8.211   5.055  14.097
   52DOPE   H8S 6632   8.041   5.101  14.071
   52DOPE   C29 6633   8.151   5.219  14.220
   52DOPE   H9R 6634   8.243   5.278  14.230
   52DOPE  C210 6635   8.062   5.224  14.321
   52DOPE  H10R 6636   8.089   5.284  14.409
   52DOPE  C211 6637   7.930   5.154  14.332
   52DOPE  H11R 6638   7.899   5.109  14.235
   52DOPE  H11S 6639   7.851   5.227  14.360
   52DOPE  C212 6640   7.932   5.041  14.437
   52DOPE  H12R 6641   8.004   4.962  14.409
   52DOPE  H12S 6642   7.830   4.996  14.433
   52DOPE  C213 6643   7.955   5.084  14.584
   52DOPE  H13R 6644   7.901   5.011  14.648
   52DOPE  H13S 6645   7.910   5.184  14.602
   52DOPE  C214 6646   8.102   5.082  14.627
   52DOPE  H14R 6647   8.156   5.167  14.580
   52DOPE  H14S 6648   8.149   4.988  14.590
   52DOPE  C215 6649   8.120   5.087  14.780
   52DOPE  H15R 6650   8.067   5.000  14.824
   52DOPE  H15S 6651   8.073   5.179  14.821
   52DOPE  C216 6652   8.267   5.082  14.823
   52DOPE  H16R 6653   8.318   4.999  14.770
   52DOPE  H16S 6654   8.272   5.058  14.932
   52DOPE  C217 6655   8.342   5.213  14.799
   52DOPE  H17R 6656   8.292   5.294  14.856
   52DOPE  H17S 6657   8.336   5.239  14.691
   52DOPE  C218 6658   0.041   5.207  14.839
   52DOPE  H18R 6659   0.052   5.181  14.947
   52DOPE  H18S 6660   0.095   5.130  14.780
   52DOPE  H18T 6661   0.090   5.305  14.822
   52DOPE   C33 6662   7.775   4.760  13.813
   52DOPE   H3X 6663   7.726   4.665  13.784
   52DOPE   H3Y 6664   7.709   4.843  13.778
   52DOPE   C34 6665   7.784   4.762  13.967
   52DOPE   H4X 6666   7.841   4.672  13.999
   52DOPE   H4Y 6667   7.840   4.852  14.001
   52DOPE   C35 6668   7.645   4.760  14.032
   52DOPE   H5X 6669   7.581   4.692  13.972
   52DOPE   H5Y 6670   7.600   4.861  14.027
   52DOPE   C36 6671   7.641   4.708  14.177
   52DOPE   H6X 6672   7.685   4.606  14.182
   52DOPE   H6Y 6673   7.533   4.700  14.205
   52DOPE   C37 6674   7.709   4.797  14.282
   52DOPE   H7X 6675   7.819   4.779  14.282
   52DOPE   H7Y 6676   7.692   4.903  14.253
   52DOPE   C38 6677   7.650   4.779  14.425
   52DOPE   H8X 6678   7.542   4.800  14.418
   52DOPE   H8Y 6679   7.692   4.857  14.491
   52DOPE   C39 6680   7.669   4.642  14.485
   52DOPE   H9X 6681   7.647   4.558  14.417
   52DOPE  C310 6682   7.709   4.614  14.611
   52DOPE  H10X 6683   7.717   4.508  14.641
   52DOPE  C311 6684   7.745   4.713  14.719
   52DOPE  H11X 6685   7.800   4.800  14.677
   52DOPE  H11Y 6686   7.652   4.752  14.766
   52DOPE  C312 6687   7.832   4.650  14.830
   52DOPE  H12X 6688   7.778   4.562  14.872
   52DOPE  H12Y 6689   7.844   4.723  14.913
   52DOPE  C313 6690   7.972   4.604  14.784
   52DOPE  H13X 6691   8.011   4.532  14.859
   52DOPE  H13Y 6692   7.965   4.552  14.687
   52DOPE  C314 6693   8.072   4.720  14.772
   52DOPE  H14X 6694   8.092   4.762  14.873
   52DOPE  H14Y 6695   8.027   4.800  14.710
   52DOPE  C315 6696   8.207   4.680  14.707
   52DOPE  H15X 6697   8.275   4.768  14.710
   52DOPE  H15Y 6698   8.188   4.658  14.600
   52DOPE  C316 6699   8.277   4.559  14.771
   52DOPE  H16X 6700   8.372   4.541  14.716
   52DOPE  H16Y 6701   8.214   4.469  14.755
   52DOPE  C317 6702   8.308   4.572  14.921
   52DOPE  H17X 6703   8.212   4.582  14.977
   52DOPE  H17Y 6704   8.355   4.477  14.955
   52DOPE  C318 6705   8.400   4.689  14.957
   52DOPE  H18X 6706   8.423   4.688  15.066
   52DOPE  H18Y 6707   0.047   4.682  14.901
   52DOPE  H18Z 6708   8.351   4.786  14.933
   53DOPE     N 6709   6.631   7.251  12.865
   53DOPE   HN1 6710   6.668   7.213  12.954
   53DOPE   HN2 6711   6.559   7.320  12.894
   53DOPE   HN3 6712   6.586   7.177  12.807
   53DOPE   C12 6713   6.743   7.324  12.797
   53DOPE  H12A 6714   6.699   7.412  12.744
   53DOPE  H12B 6715   6.789   7.255  12.722
   53DOPE   C11 6716   6.851   7.372  12.898
   53DOPE  H11A 6717   6.924   7.434  12.843
   53DOPE  H11B 6718   6.908   7.285  12.937
   53DOPE     P 6719   6.745   7.387  13.139
   53DOPE   O13 6720   6.737   7.241  13.114
   53DOPE   O14 6721   6.618   7.454  13.173
   53DOPE   O11 6722   6.862   7.424  13.237
   53DOPE   O12 6723   6.794   7.451  13.002
   53DOPE    C1 6724   6.849   7.523  13.339
   53DOPE    HA 6725   6.759   7.586  13.330
   53DOPE    HB 6726   6.937   7.590  13.333
   53DOPE    C2 6727   6.849   7.455  13.478
   53DOPE    HS 6728   6.931   7.380  13.477
   53DOPE   O21 6729   6.719   7.395  13.498
   53DOPE   C21 6730   6.718   7.282  13.565
   53DOPE   O22 6731   6.815   7.216  13.598
   53DOPE   C22 6732   6.575   7.250  13.607
   53DOPE   H2R 6733   6.564   7.140  13.609
   53DOPE   H2S 6734   6.504   7.292  13.532
   53DOPE    C3 6735   6.877   7.556  13.593
   53DOPE    HX 6736   6.786   7.618  13.607
   53DOPE    HY 6737   6.957   7.625  13.559
   53DOPE   O31 6738   6.922   7.487  13.712
   53DOPE   C31 6739   6.843   7.492  13.819
   53DOPE   O32 6740   6.746   7.564  13.831
   53DOPE   C32 6741   6.888   7.386  13.920
   53DOPE   H2X 6742   6.814   7.304  13.918
   53DOPE   H2Y 6743   6.985   7.344  13.885
   53DOPE   C23 6744   6.550   7.309  13.747
   53DOPE   H3R 6745   6.552   7.420  13.742
   53DOPE   H3S 6746   6.633   7.277  13.814
   53DOPE   C24 6747   6.420   7.264  13.814
   53DOPE   H4R 6748   6.413   7.154  13.809
   53DOPE   H4S 6749   6.333   7.307  13.760
   53DOPE   C25 6750   6.419   7.309  13.961
   53DOPE   H5R 6751   6.436   7.419  13.965
   53DOPE   H5S 6752   6.503   7.261  14.016
   53DOPE   C26 6753   6.287   7.279  14.034
   53DOPE   H6R 6754   6.206   7.332  13.979
   53DOPE   H6S 6755   6.291   7.321  14.136
   53DOPE   C27 6756   6.251   7.129  14.043
   53DOPE   H7R 6757   6.247   7.087  13.940
   53DOPE   H7S 6758   6.149   7.120  14.085
   53DOPE   C28 6759   6.348   7.044  14.128
   53DOPE   H8R 6760   6.450   7.052  14.085
   53DOPE   H8S 6761   6.317   6.938  14.116
   53DOPE   C29 6762   6.342   7.081  14.274
   53DOPE   H9R 6763   6.241   7.070  14.318
   53DOPE  C210 6764   6.442   7.123  14.353
   53DOPE  H10R 6765   6.418   7.146  14.458
   53DOPE  C211 6766   6.587   7.144  14.317
   53DOPE  H11R 6767   6.612   7.252  14.323
   53DOPE  H11S 6768   6.607   7.113  14.212
   53DOPE  C212 6769   6.682   7.065  14.409
   53DOPE  H12R 6770   6.784   7.070  14.366
   53DOPE  H12S 6771   6.652   6.958  14.410
   53DOPE  C213 6772   6.688   7.118  14.553
   53DOPE  H13R 6773   6.585   7.122  14.596
   53DOPE  H13S 6774   6.728   7.222  14.551
   53DOPE  C214 6775   6.775   7.031  14.644
   53DOPE  H14R 6776   6.876   7.022  14.600
   53DOPE  H14S 6777   6.732   6.929  14.649
   53DOPE  C215 6778   6.788   7.087  14.787
   53DOPE  H15R 6779   6.688   7.096  14.833
   53DOPE  H15S 6780   6.831   7.189  14.780
   53DOPE  C216 6781   6.879   7.002  14.876
   53DOPE  H16R 6782   6.970   6.975  14.819
   53DOPE  H16S 6783   6.828   6.906  14.902
   53DOPE  C217 6784   6.921   7.075  15.004
   53DOPE  H17R 6785   6.833   7.083  15.072
   53DOPE  H17S 6786   6.951   7.179  14.978
   53DOPE  C218 6787   7.038   7.008  15.078
   53DOPE  H18R 6788   7.013   6.903  15.102
   53DOPE  H18S 6789   7.061   7.062  15.172
   53DOPE  H18T 6790   7.128   7.008  15.013
   53DOPE   C33 6791   6.906   7.437  14.065
   53DOPE   H3X 6792   6.979   7.521  14.066
   53DOPE   H3Y 6793   6.950   7.354  14.124
   53DOPE   C34 6794   6.777   7.481  14.135
   53DOPE   H4X 6795   6.744   7.577  14.090
   53DOPE   H4Y 6796   6.696   7.407  14.118
   53DOPE   C35 6797   6.799   7.500  14.286
   53DOPE   H5X 6798   6.906   7.524  14.300
   53DOPE   H5Y 6799   6.779   7.406  14.340
   53DOPE   C36 6800   6.719   7.616  14.347
   53DOPE   H6X 6801   6.732   7.707  14.284
   53DOPE   H6Y 6802   6.763   7.639  14.447
   53DOPE   C37 6803   6.570   7.588  14.366
   53DOPE   H7X 6804   6.523   7.569  14.267
   53DOPE   H7Y 6805   6.558   7.496  14.428
   53DOPE   C38 6806   6.500   7.707  14.436
   53DOPE   H8X 6807   6.511   7.797  14.372
   53DOPE   H8Y 6808   6.556   7.728  14.529
   53DOPE   C39 6809   6.354   7.680  14.463
   53DOPE   H9X 6810   6.294   7.655  14.373
   53DOPE  C310 6811   6.293   7.684  14.583
   53DOPE  H10X 6812   6.185   7.661  14.587
   53DOPE  C311 6813   6.357   7.715  14.716
   53DOPE  H11X 6814   6.447   7.779  14.703
   53DOPE  H11Y 6815   6.286   7.774  14.778
   53DOPE  C312 6816   6.398   7.589  14.796
   53DOPE  H12X 6817   6.309   7.527  14.818
   53DOPE  H12Y 6818   6.440   7.624  14.893
   53DOPE  C313 6819   6.505   7.503  14.726
   53DOPE  H13X 6820   6.460   7.459  14.635
   53DOPE  H13Y 6821   6.589   7.568  14.693
   53DOPE  C314 6822   6.560   7.388  14.812
   53DOPE  H14X 6823   6.632   7.330  14.750
   53DOPE  H14Y 6824   6.476   7.320  14.839
   53DOPE  C315 6825   6.632   7.431  14.942
   53DOPE  H15X 6826   6.667   7.339  14.994
   53DOPE  H15Y 6827   6.558   7.480  15.009
   53DOPE  C316 6828   6.751   7.525  14.920
   53DOPE  H16X 6829   6.718   7.614  14.863
   53DOPE  H16Y 6830   6.827   7.472  14.858
   53DOPE  C317 6831   6.817   7.575  15.050
   53DOPE  H17X 6832   6.899   7.645  15.022
   53DOPE  H17Y 6833   6.742   7.633  15.107
   53DOPE  C318 6834   6.874   7.464  15.139
   53DOPE  H18X 6835   6.949   7.404  15.083
   53DOPE  H18Y 6836   6.925   7.509  15.228
   53DOPE  H18Z 6837   6.794   7.397  15.175
   54DOPE     N 6838   0.235   3.840  12.975
   54DOPE   HN1 6839   0.325   3.802  12.940
   54DOPE   HN2 6840   0.158   3.775  12.951
   54DOPE   HN3 6841   0.215   3.930  12.926
   54DOPE   C12 6842   0.238   3.874  13.121
   54DOPE  H12A 6843   0.344   3.896  13.148
   54DOPE  H12B 6844   0.203   3.786  13.179
   54DOPE   C11 6845   0.150   3.997  13.146
   54DOPE  H11A 6846   0.162   4.030  13.252
   54DOPE  H11B 6847   0.044   3.967  13.135
   54DOPE     P 6848   0.084   4.173  12.964
   54DOPE   O13 6849   0.001   4.065  12.908
   54DOPE   O14 6850   0.158   4.256  12.866
   54DOPE   O11 6851   0.002   4.263  13.064
   54DOPE   O12 6852   0.190   4.102  13.058
   54DOPE    C1 6853   0.041   4.398  13.094
   54DOPE    HA 6854   8.409   4.467  13.062
   54DOPE    HB 6855   0.132   4.429  13.038
   54DOPE    C2 6856   0.073   4.425  13.245
   54DOPE    HS 6857   0.134   4.518  13.246
   54DOPE   O21 6858   0.147   4.314  13.299
   54DOPE   C21 6859   0.218   4.344  13.407
   54DOPE   O22 6860   0.233   4.457  13.452
   54DOPE   C22 6861   0.278   4.215  13.465
   54DOPE   H2R 6862   0.289   4.144  13.381
   54DOPE   H2S 6863   0.205   4.173  13.537
   54DOPE    C3 6864   8.393   4.455  13.328
   54DOPE    HX 6865   8.342   4.541  13.280
   54DOPE    HY 6866   8.421   4.489  13.430
   54DOPE   O31 6867   8.300   4.344  13.330
   54DOPE   C31 6868   8.318   4.258  13.430
   54DOPE   O32 6869   8.393   4.273  13.525
   54DOPE   C32 6870   8.229   4.136  13.407
   54DOPE   H2X 6871   8.123   4.169  13.420
   54DOPE   H2Y 6872   8.242   4.102  13.303
   54DOPE   C23 6873   0.417   4.232  13.531
   54DOPE   H3R 6874   0.486   4.283  13.461
   54DOPE   H3S 6875   0.458   4.130  13.549
   54DOPE   C24 6876   0.419   4.306  13.666
   54DOPE   H4R 6877   0.389   4.412  13.652
   54DOPE   H4S 6878   0.524   4.307  13.702
   54DOPE   C25 6879   0.333   4.242  13.777
   54DOPE   H5R 6880   0.388   4.249  13.873
   54DOPE   H5S 6881   0.321   4.134  13.755
   54DOPE   C26 6882   0.195   4.306  13.796
   54DOPE   H6R 6883   0.137   4.245  13.868
   54DOPE   H6S 6884   0.139   4.304  13.700
   54DOPE   C27 6885   0.195   4.452  13.847
   54DOPE   H7R 6886   0.088   4.483  13.857
   54DOPE   H7S 6887   0.242   4.518  13.771
   54DOPE   C28 6888   0.265   4.470  13.983
   54DOPE   H8R 6889   0.373   4.450  13.971
   54DOPE   H8S 6890   0.226   4.393  14.053
   54DOPE   C29 6891   0.245   4.610  14.037
   54DOPE   H9R 6892   0.284   4.689  13.971
   54DOPE  C210 6893   0.186   4.645  14.152
   54DOPE  H10R 6894   0.181   4.752  14.179
   54DOPE  C211 6895   0.126   4.552  14.255
   54DOPE  H11R 6896   0.092   4.457  14.208
   54DOPE  H11S 6897   0.036   4.598  14.301
   54DOPE  C212 6898   0.227   4.517  14.366
   54DOPE  H12R 6899   0.258   4.610  14.418
   54DOPE  H12S 6900   0.318   4.473  14.319
   54DOPE  C213 6901   0.172   4.417  14.468
   54DOPE  H13R 6902   0.124   4.334  14.412
   54DOPE  H13S 6903   0.093   4.466  14.530
   54DOPE  C214 6904   0.281   4.357  14.558
   54DOPE  H14R 6905   0.360   4.315  14.492
   54DOPE  H14S 6906   0.238   4.272  14.616
   54DOPE  C215 6907   0.348   4.455  14.656
   54DOPE  H15R 6908   0.384   4.543  14.599
   54DOPE  H15S 6909   0.437   4.406  14.699
   54DOPE  C216 6910   0.257   4.503  14.771
   54DOPE  H16R 6911   0.165   4.549  14.727
   54DOPE  H16S 6912   0.310   4.584  14.826
   54DOPE  C217 6913   0.216   4.395  14.872
   54DOPE  H17R 6914   0.161   4.314  14.819
   54DOPE  H17S 6915   0.146   4.440  14.945
   54DOPE  C218 6916   0.333   4.333  14.950
   54DOPE  H18R 6917   0.403   4.280  14.881
   54DOPE  H18S 6918   0.296   4.259  15.024
   54DOPE  H18T 6919   0.390   4.412  15.004
   54DOPE   C33 6920   8.260   4.021  13.506
   54DOPE   H3X 6921   8.181   3.943  13.494
   54DOPE   H3Y 6922   8.255   4.057  13.611
   54DOPE   C34 6923   8.396   3.956  13.479
   54DOPE   H4X 6924   8.401   3.926  13.372
   54DOPE   H4Y 6925   0.028   4.031  13.495
   54DOPE   C35 6926   8.426   3.832  13.564
   54DOPE   H5X 6927   0.079   3.795  13.537
   54DOPE   H5Y 6928   8.353   3.752  13.538
   54DOPE   C36 6929   8.422   3.855  13.717
   54DOPE   H6X 6930   0.005   3.760  13.765
   54DOPE   H6Y 6931   8.319   3.876  13.750
   54DOPE   C37 6932   0.067   3.966  13.766
   54DOPE   H7X 6933   0.157   3.968  13.701
   54DOPE   H7Y 6934   0.017   4.065  13.755
   54DOPE   C38 6935   0.116   3.947  13.911
   54DOPE   H8X 6936   0.187   4.029  13.935
   54DOPE   H8Y 6937   0.176   3.853  13.913
   54DOPE   C39 6938   0.005   3.936  14.014
   54DOPE   H9X 6939   8.382   3.856  13.995
   54DOPE  C310 6940   8.437   4.014  14.122
   54DOPE  H10X 6941   8.352   3.994  14.189
   54DOPE  C311 6942   0.077   4.129  14.165
   54DOPE  H11X 6943   0.116   4.182  14.076
   54DOPE  H11Y 6944   0.018   4.204  14.222
   54DOPE  C312 6945   0.198   4.086  14.251
   54DOPE  H12X 6946   0.263   4.174  14.264
   54DOPE  H12Y 6947   0.257   4.009  14.196
   54DOPE  C313 6948   0.160   4.032  14.390
   54DOPE  H13X 6949   0.097   4.109  14.441
   54DOPE  H13Y 6950   0.098   3.941  14.380
   54DOPE  C314 6951   0.283   4.004  14.476
   54DOPE  H14X 6952   0.348   4.094  14.475
   54DOPE  H14Y 6953   0.342   3.920  14.433
   54DOPE  C315 6954   0.248   3.972  14.623
   54DOPE  H15X 6955   0.212   3.867  14.629
   54DOPE  H15Y 6956   0.165   4.038  14.655
   54DOPE  C316 6957   0.367   3.994  14.717
   54DOPE  H16X 6958   0.398   4.100  14.710
   54DOPE  H16Y 6959   0.453   3.932  14.684
   54DOPE  C317 6960   0.335   3.962  14.864
   54DOPE  H17X 6961   0.416   4.004  14.928
   54DOPE  H17Y 6962   0.241   4.014  14.893
   54DOPE  C318 6963   0.323   3.812  14.893
   54DOPE  H18X 6964   0.415   3.759  14.861
   54DOPE  H18Y 6965   0.308   3.794  15.002
   54DOPE  H18Z 6966   0.236   3.769  14.838
   55DOPE     N 6967   0.386   6.249  13.206
   55DOPE   HN1 6968   0.332   6.166  13.175
   55DOPE   HN2 6969   0.462   6.218  13.270
   55DOPE   HN3 6970   0.320   6.312  13.257
   55DOPE   C12 6971   0.440   6.322  13.086
   55DOPE  H12A 6972   0.357   6.333  13.012
   55DOPE  H12B 6973   0.519   6.258  13.041
   55DOPE   C11 6974   0.494   6.460  13.124
   55DOPE  H11A 6975   0.563   6.453  13.210
   55DOPE  H11B 6976   0.410   6.525  13.156
   55DOPE     P 6977   0.713   6.505  12.990
   55DOPE   O13 6978   0.753   6.584  12.872
   55DOPE   O14 6979   0.743   6.360  12.992
   55DOPE   O11 6980   0.766   6.575  13.122
   55DOPE   O12 6981   0.556   6.522  13.010
   55DOPE    C1 6982   0.801   6.714  13.113
   55DOPE    HA 6983   0.729   6.771  13.050
   55DOPE    HB 6984   0.901   6.721  13.067
   55DOPE    C2 6985   0.803   6.787  13.251
   55DOPE    HS 6986   0.828   6.894  13.232
   55DOPE   O21 6987   0.901   6.728  13.340
   55DOPE   C21 6988   1.026   6.755  13.306
   55DOPE   O22 6989   1.061   6.833  13.219
   55DOPE   C22 6990   1.121   6.679  13.398
   55DOPE   H2R 6991   1.221   6.680  13.350
   55DOPE   H2S 6992   1.086   6.573  13.404
   55DOPE    C3 6993   0.664   6.789  13.321
   55DOPE    HX 6994   0.589   6.829  13.249
   55DOPE    HY 6995   0.673   6.859  13.407
   55DOPE   O31 6996   0.623   6.658  13.367
   55DOPE   C31 6997   0.518   6.661  13.447
   55DOPE   O32 6998   0.450   6.759  13.470
   55DOPE   C32 6999   0.496   6.524  13.509
   55DOPE   H2X 7000   0.387   6.502  13.503
   55DOPE   H2Y 7001   0.552   6.447  13.451
   55DOPE   C23 7002   1.129   6.741  13.539
   55DOPE   H3R 7003   1.029   6.736  13.588
   55DOPE   H3S 7004   1.159   6.847  13.531
   55DOPE   C24 7005   1.233   6.670  13.628
   55DOPE   H4R 7006   1.332   6.676  13.578
   55DOPE   H4S 7007   1.206   6.562  13.635
   55DOPE   C25 7008   1.244   6.728  13.770
   55DOPE   H5R 7009   1.268   6.836  13.765
   55DOPE   H5S 7010   1.330   6.678  13.819
   55DOPE   C26 7011   1.119   6.704  13.856
   55DOPE   H6R 7012   1.085   6.600  13.838
   55DOPE   H6S 7013   1.036   6.771  13.824
   55DOPE   C27 7014   1.147   6.717  14.007
   55DOPE   H7R 7015   1.249   6.677  14.026
   55DOPE   H7S 7016   1.076   6.652  14.063
   55DOPE   C28 7017   1.138   6.860  14.064
   55DOPE   H8R 7018   1.200   6.928  14.000
   55DOPE   H8S 7019   1.187   6.858  14.164
   55DOPE   C29 7020   0.996   6.909  14.073
   55DOPE   H9R 7021   0.944   6.917  13.976
   55DOPE  C210 7022   0.927   6.942  14.185
   55DOPE  H10R 7023   0.822   6.974  14.174
   55DOPE  C211 7024   0.977   6.937  14.327
   55DOPE  H11R 7025   0.940   7.026  14.382
   55DOPE  H11S 7026   1.088   6.941  14.332
   55DOPE  C212 7027   0.931   6.811  14.404
   55DOPE  H12R 7028   0.972   6.721  14.354
   55DOPE  H12S 7029   0.820   6.804  14.401
   55DOPE  C213 7030   0.976   6.815  14.551
   55DOPE  H13R 7031   0.929   6.903  14.600
   55DOPE  H13S 7032   1.086   6.828  14.555
   55DOPE  C214 7033   0.939   6.689  14.632
   55DOPE  H14R 7034   0.831   6.666  14.620
   55DOPE  H14S 7035   0.957   6.710  14.739
   55DOPE  C215 7036   1.024   6.566  14.594
   55DOPE  H15R 7037   1.131   6.595  14.601
   55DOPE  H15S 7038   1.003   6.537  14.489
   55DOPE  C216 7039   1.001   6.446  14.686
   55DOPE  H16R 7040   0.897   6.409  14.674
   55DOPE  H16S 7041   1.013   6.479  14.792
   55DOPE  C217 7042   1.099   6.331  14.659
   55DOPE  H17R 7043   1.203   6.369  14.672
   55DOPE  H17S 7044   1.088   6.299  14.553
   55DOPE  C218 7045   1.080   6.210  14.751
   55DOPE  H18R 7046   1.153   6.130  14.726
   55DOPE  H18S 7047   0.977   6.168  14.738
   55DOPE  H18T 7048   1.093   6.239  14.857
   55DOPE   C33 7049   0.541   6.522  13.657
   55DOPE   H3X 7050   0.511   6.426  13.702
   55DOPE   H3Y 7051   0.489   6.603  13.713
   55DOPE   C34 7052   0.693   6.538  13.671
   55DOPE   H4X 7053   0.743   6.460  13.611
   55DOPE   H4Y 7054   0.726   6.636  13.631
   55DOPE   C35 7055   0.742   6.525  13.817
   55DOPE   H5X 7056   0.853   6.523  13.817
   55DOPE   H5Y 7057   0.706   6.428  13.857
   55DOPE   C36 7058   0.695   6.641  13.907
   55DOPE   H6X 7059   0.584   6.645  13.910
   55DOPE   H6Y 7060   0.731   6.736  13.864
   55DOPE   C37 7061   0.748   6.629  14.051
   55DOPE   H7X 7062   0.858   6.622  14.049
   55DOPE   H7Y 7063   0.721   6.723  14.106
   55DOPE   C38 7064   0.689   6.509  14.128
   55DOPE   H8X 7065   0.715   6.415  14.074
   55DOPE   H8Y 7066   0.578   6.517  14.125
   55DOPE   C39 7067   0.741   6.501  14.269
   55DOPE   H9X 7068   0.839   6.453  14.280
   55DOPE  C310 7069   0.680   6.549  14.379
   55DOPE  H10X 7070   0.728   6.535  14.476
   55DOPE  C311 7071   0.547   6.620  14.384
   55DOPE  H11X 7072   0.556   6.712  14.446
   55DOPE  H11Y 7073   0.515   6.655  14.284
   55DOPE  C312 7074   0.434   6.532  14.442
   55DOPE  H12X 7075   0.416   6.447  14.373
   55DOPE  H12Y 7076   0.340   6.592  14.445
   55DOPE  C313 7077   0.461   6.476  14.583
   55DOPE  H13X 7078   0.375   6.411  14.612
   55DOPE  H13Y 7079   0.551   6.410  14.579
   55DOPE  C314 7080   0.480   6.584  14.691
   55DOPE  H14X 7081   0.386   6.643  14.696
   55DOPE  H14Y 7082   0.562   6.653  14.662
   55DOPE  C315 7083   0.511   6.525  14.829
   55DOPE  H15X 7084   0.439   6.443  14.851
   55DOPE  H15Y 7085   0.495   6.605  14.906
   55DOPE  C316 7086   0.655   6.473  14.843
   55DOPE  H16X 7087   0.726   6.556  14.823
   55DOPE  H16Y 7088   0.673   6.394  14.767
   55DOPE  C317 7089   0.683   6.415  14.982
   55DOPE  H17X 7090   0.661   6.492  15.059
   55DOPE  H17Y 7091   0.614   6.330  14.999
   55DOPE  C318 7092   0.827   6.366  15.001
   55DOPE  H18X 7093   0.899   6.450  14.990
   55DOPE  H18Y 7094   0.841   6.321  15.102
   55DOPE  H18Z 7095   0.852   6.289  14.925
   56DOPE     N 7096   1.005   6.975  12.796
   56DOPE   HN1 7097   0.944   7.059  12.786
   56DOPE   HN2 7098   1.091   6.993  12.742
   56DOPE   HN3 7099   0.956   6.892  12.758
   56DOPE   C12 7100   1.039   6.957  12.941
   56DOPE  H12A 7101   1.125   6.886  12.948
   56DOPE  H12B 7102   0.951   6.912  12.991
   56DOPE   C11 7103   1.072   7.092  13.007
   56DOPE  H11A 7104   1.100   7.071  13.113
   56DOPE  H11B 7105   0.980   7.154  13.008
   56DOPE     P 7106   1.224   7.299  13.000
   56DOPE   O13 7107   1.324   7.355  12.906
   56DOPE   O14 7108   1.268   7.272  13.137
   56DOPE   O11 7109   1.089   7.382  12.996
   56DOPE   O12 7110   1.178   7.159  12.937
   56DOPE    C1 7111   1.071   7.482  12.895
   56DOPE    HA 7112   1.084   7.439  12.793
   56DOPE    HB 7113   1.147   7.562  12.908
   56DOPE    C2 7114   0.930   7.551  12.899
   56DOPE    HS 7115   0.935   7.642  12.835
   56DOPE   O21 7116   0.895   7.587  13.034
   56DOPE   C21 7117   0.959   7.690  13.085
   56DOPE   O22 7118   1.035   7.765  13.024
   56DOPE   C22 7119   0.914   7.706  13.230
   56DOPE   H2R 7120   0.914   7.605  13.276
   56DOPE   H2S 7121   0.809   7.743  13.228
   56DOPE    C3 7122   0.816   7.463  12.839
   56DOPE    HX 7123   0.847   7.436  12.736
   56DOPE    HY 7124   0.726   7.527  12.829
   56DOPE   O31 7125   0.792   7.341  12.914
   56DOPE   C31 7126   0.693   7.348  13.003
   56DOPE   O32 7127   0.613   7.439  13.015
   56DOPE   C32 7128   0.689   7.218  13.085
   56DOPE   H2X 7129   0.588   7.175  13.071
   56DOPE   H2Y 7130   0.765   7.147  13.046
   56DOPE   C23 7131   1.002   7.801  13.315
   56DOPE   H3R 7132   0.999   7.903  13.270
   56DOPE   H3S 7133   1.107   7.766  13.313
   56DOPE   C24 7134   0.955   7.808  13.461
   56DOPE   H4R 7135   0.845   7.820  13.462
   56DOPE   H4S 7136   1.000   7.896  13.511
   56DOPE   C25 7137   0.993   7.682  13.542
   56DOPE   H5R 7138   1.090   7.697  13.594
   56DOPE   H5S 7139   1.008   7.598  13.471
   56DOPE   C26 7140   0.885   7.638  13.642
   56DOPE   H6R 7141   0.906   7.533  13.671
   56DOPE   H6S 7142   0.785   7.640  13.593
   56DOPE   C27 7143   0.882   7.723  13.770
   56DOPE   H7R 7144   0.876   7.831  13.742
   56DOPE   H7S 7145   0.978   7.709  13.824
   56DOPE   C28 7146   0.764   7.692  13.865
   56DOPE   H8R 7147   0.670   7.721  13.815
   56DOPE   H8S 7148   0.774   7.757  13.954
   56DOPE   C29 7149   0.757   7.546  13.904
   56DOPE   H9R 7150   0.710   7.481  13.828
   56DOPE  C210 7151   0.802   7.489  14.017
   56DOPE  H10R 7152   0.791   7.380  14.029
   56DOPE  C211 7153   0.872   7.557  14.132
   56DOPE  H11R 7154   0.845   7.665  14.139
   56DOPE  H11S 7155   0.982   7.553  14.117
   56DOPE  C212 7156   0.840   7.489  14.267
   56DOPE  H12R 7157   0.869   7.382  14.260
   56DOPE  H12S 7158   0.731   7.493  14.288
   56DOPE  C213 7159   0.917   7.550  14.386
   56DOPE  H13R 7160   1.024   7.557  14.357
   56DOPE  H13S 7161   0.910   7.481  14.473
   56DOPE  C214 7162   0.868   7.688  14.429
   56DOPE  H14R 7163   0.763   7.680  14.465
   56DOPE  H14S 7164   0.869   7.757  14.342
   56DOPE  C215 7165   0.953   7.749  14.542
   56DOPE  H15R 7166   1.060   7.747  14.510
   56DOPE  H15S 7167   0.945   7.686  14.633
   56DOPE  C216 7168   0.915   7.895  14.574
   56DOPE  H16R 7169   0.923   7.954  14.480
   56DOPE  H16S 7170   0.988   7.936  14.646
   56DOPE  C217 7171   0.773   7.915  14.630
   56DOPE  H17R 7172   0.700   7.881  14.554
   56DOPE  H17S 7173   0.758   8.024  14.644
   56DOPE  C218 7174   0.746   7.843  14.762
   56DOPE  H18R 7175   0.753   7.733  14.749
   56DOPE  H18S 7176   0.644   7.867  14.799
   56DOPE  H18T 7177   0.820   7.874  14.839
   56DOPE   C33 7178   0.713   7.244  13.235
   56DOPE   H3X 7179   0.699   7.149  13.291
   56DOPE   H3Y 7180   0.637   7.316  13.274
   56DOPE   C34 7181   0.853   7.299  13.265
   56DOPE   H4X 7182   0.931   7.233  13.221
   56DOPE   H4Y 7183   0.864   7.398  13.216
   56DOPE   C35 7184   0.881   7.316  13.416
   56DOPE   H5X 7185   0.791   7.360  13.464
   56DOPE   H5Y 7186   0.965   7.387  13.429
   56DOPE   C36 7187   0.919   7.185  13.486
   56DOPE   H6X 7188   0.852   7.104  13.450
   56DOPE   H6Y 7189   0.903   7.196  13.595
   56DOPE   C37 7190   1.066   7.145  13.460
   56DOPE   H7X 7191   1.073   7.034  13.453
   56DOPE   H7Y 7192   1.098   7.185  13.362
   56DOPE   C38 7193   1.164   7.195  13.568
   56DOPE   H8X 7194   1.150   7.305  13.578
   56DOPE   H8Y 7195   1.267   7.180  13.530
   56DOPE   C39 7196   1.147   7.122  13.699
   56DOPE   H9X 7197   1.149   7.013  13.690
   56DOPE  C310 7198   1.131   7.175  13.822
   56DOPE  H10X 7199   1.120   7.106  13.907
   56DOPE  C311 7200   1.126   7.321  13.860
   56DOPE  H11X 7201   1.140   7.387  13.773
   56DOPE  H11Y 7202   1.025   7.345  13.902
   56DOPE  C312 7203   1.232   7.358  13.966
   56DOPE  H12X 7204   1.225   7.468  13.983
   56DOPE  H12Y 7205   1.334   7.338  13.926
   56DOPE  C313 7206   1.215   7.287  14.102
   56DOPE  H13X 7207   1.109   7.299  14.135
   56DOPE  H13Y 7208   1.236   7.179  14.090
   56DOPE  C314 7209   1.308   7.345  14.209
   56DOPE  H14X 7210   1.280   7.451  14.226
   56DOPE  H14Y 7211   1.413   7.343  14.171
   56DOPE  C315 7212   1.304   7.271  14.344
   56DOPE  H15X 7213   1.371   7.325  14.415
   56DOPE  H15Y 7214   1.343   7.168  14.331
   56DOPE  C316 7215   1.163   7.264  14.405
   56DOPE  H16X 7216   1.103   7.191  14.347
   56DOPE  H16Y 7217   1.115   7.364  14.393
   56DOPE  C317 7218   1.160   7.227  14.554
   56DOPE  H17X 7219   1.203   7.311  14.613
   56DOPE  H17Y 7220   1.054   7.216  14.585
   56DOPE  C318 7221   1.237   7.099  14.590
   56DOPE  H18X 7222   1.221   7.073  14.696
   56DOPE  H18Y 7223   1.202   7.015  14.527
   56DOPE  H18Z 7224   1.346   7.113  14.573
   57DOPE     N 7225   8.411   2.455  12.828
   57DOPE   HN1 7226   8.376   2.437  12.732
   57DOPE   HN2 7227   0.047   2.515  12.822
   57DOPE   HN3 7228   8.439   2.366  12.874
   57DOPE   C12 7229   8.314   2.531  12.915
   57DOPE  H12A 7230   8.216   2.477  12.915
   57DOPE  H12B 7231   8.301   2.631  12.869
   57DOPE   C11 7232   8.367   2.546  13.060
   57DOPE  H11A 7233   8.340   2.454  13.116
   57DOPE  H11B 7234   8.314   2.630  13.111
   57DOPE     P 7235   0.132   2.687  13.003
   57DOPE   O13 7236   0.054   2.810  13.027
   57DOPE   O14 7237   0.149   2.650  12.860
   57DOPE   O11 7238   0.272   2.693  13.074
   57DOPE   O12 7239   0.060   2.564  13.069
   57DOPE    C1 7240   0.338   2.819  13.091
   57DOPE    HA 7241   0.275   2.885  13.154
   57DOPE    HB 7242   0.354   2.869  12.993
   57DOPE    C2 7243   0.477   2.804  13.160
   57DOPE    HS 7244   0.551   2.780  13.081
   57DOPE   O21 7245   0.472   2.698  13.259
   57DOPE   C21 7246   0.500   2.577  13.211
   57DOPE   O22 7247   0.549   2.552  13.102
   57DOPE   C22 7248   0.472   2.470  13.318
   57DOPE   H2R 7249   0.499   2.511  13.417
   57DOPE   H2S 7250   0.540   2.385  13.296
   57DOPE    C3 7251   0.528   2.937  13.226
   57DOPE    HX 7252   0.573   2.998  13.145
   57DOPE    HY 7253   0.609   2.908  13.296
   57DOPE   O31 7254   0.422   3.014  13.289
   57DOPE   C31 7255   0.450   3.068  13.409
   57DOPE   O32 7256   0.558   3.060  13.465
   57DOPE   C32 7257   0.327   3.142  13.462
   57DOPE   H2X 7258   0.341   3.251  13.444
   57DOPE   H2Y 7259   0.239   3.110  13.402
   57DOPE   C23 7260   0.325   2.420  13.316
   57DOPE   H3R 7261   0.304   2.376  13.216
   57DOPE   H3S 7262   0.254   2.505  13.330
   57DOPE   C24 7263   0.297   2.314  13.423
   57DOPE   H4R 7264   0.389   2.252  13.437
   57DOPE   H4S 7265   0.216   2.246  13.389
   57DOPE   C25 7266   0.255   2.372  13.559
   57DOPE   H5R 7267   0.156   2.420  13.550
   57DOPE   H5S 7268   0.329   2.451  13.586
   57DOPE   C26 7269   0.253   2.267  13.671
   57DOPE   H6R 7270   0.352   2.216  13.669
   57DOPE   H6S 7271   0.176   2.190  13.648
   57DOPE   C27 7272   0.233   2.322  13.813
   57DOPE   H7R 7273   0.311   2.398  13.833
   57DOPE   H7S 7274   0.249   2.239  13.886
   57DOPE   C28 7275   0.095   2.385  13.841
   57DOPE   H8R 7276   0.079   2.469  13.771
   57DOPE   H8S 7277   0.097   2.429  13.943
   57DOPE   C29 7278   8.429   2.286  13.830
   57DOPE   H9R 7279   8.393   2.271  13.727
   57DOPE  C210 7280   8.372   2.217  13.930
   57DOPE  H10R 7281   8.289   2.150  13.905
   57DOPE  C211 7282   8.407   2.221  14.077
   57DOPE  H11R 7283   0.054   2.273  14.096
   57DOPE  H11S 7284   8.421   2.116  14.112
   57DOPE  C212 7285   8.297   2.286  14.165
   57DOPE  H12R 7286   8.200   2.285  14.111
   57DOPE  H12S 7287   8.324   2.392  14.183
   57DOPE  C213 7288   8.274   2.213  14.299
   57DOPE  H13R 7289   8.248   2.107  14.276
   57DOPE  H13S 7290   8.185   2.258  14.349
   57DOPE  C214 7291   8.393   2.214  14.396
   57DOPE  H14R 7292   0.039   2.204  14.339
   57DOPE  H14S 7293   8.385   2.127  14.464
   57DOPE  C215 7294   8.398   2.341  14.482
   57DOPE  H15R 7295   8.332   2.418  14.436
   57DOPE  H15S 7296   0.053   2.381  14.482
   57DOPE  C216 7297   8.356   2.318  14.629
   57DOPE  H16R 7298   8.431   2.250  14.675
   57DOPE  H16S 7299   8.257   2.268  14.632
   57DOPE  C217 7300   8.350   2.447  14.712
   57DOPE  H17R 7301   8.440   2.509  14.691
   57DOPE  H17S 7302   8.353   2.420  14.819
   57DOPE  C218 7303   8.223   2.531  14.688
   57DOPE  H18R 7304   8.224   2.621  14.752
   57DOPE  H18S 7305   8.133   2.471  14.713
   57DOPE  H18T 7306   8.216   2.563  14.582
   57DOPE   C33 7307   0.295   3.117  13.612
   57DOPE   H3X 7308   0.344   3.195  13.674
   57DOPE   H3Y 7309   0.337   3.019  13.645
   57DOPE   C34 7310   0.144   3.114  13.639
   57DOPE   H4X 7311   0.100   3.209  13.600
   57DOPE   H4Y 7312   0.096   3.033  13.581
   57DOPE   C35 7313   0.105   3.100  13.787
   57DOPE   H5X 7314   0.157   3.180  13.844
   57DOPE   H5Y 7315   0.140   3.003  13.827
   57DOPE   C36 7316   8.401   3.114  13.808
   57DOPE   H6X 7317   8.352   3.016  13.792
   57DOPE   H6Y 7318   8.362   3.183  13.731
   57DOPE   C37 7319   8.364   3.172  13.946
   57DOPE   H7X 7320   8.428   3.261  13.964
   57DOPE   H7Y 7321   8.258   3.207  13.943
   57DOPE   C38 7322   8.380   3.070  14.060
   57DOPE   H8X 7323   0.024   3.012  14.039
   57DOPE   H8Y 7324   8.296   2.996  14.054
   57DOPE   C39 7325   8.385   3.133  14.197
   57DOPE   H9X 7326   8.291   3.177  14.232
   57DOPE  C310 7327   0.046   3.139  14.275
   57DOPE  H10X 7328   0.039   3.186  14.374
   57DOPE  C311 7329   0.182   3.084  14.239
   57DOPE  H11X 7330   0.186   2.975  14.261
   57DOPE  H11Y 7331   0.201   3.096  14.130
   57DOPE  C312 7332   0.297   3.153  14.313
   57DOPE  H12X 7333   0.292   3.129  14.422
   57DOPE  H12Y 7334   0.286   3.263  14.302
   57DOPE  C313 7335   0.437   3.116  14.258
   57DOPE  H13X 7336   0.442   3.151  14.153
   57DOPE  H13Y 7337   0.513   3.173  14.316
   57DOPE  C314 7338   0.472   2.967  14.262
   57DOPE  H14X 7339   0.573   2.954  14.215
   57DOPE  H14Y 7340   0.400   2.910  14.200
   57DOPE  C315 7341   0.476   2.907  14.403
   57DOPE  H15X 7342   0.373   2.907  14.445
   57DOPE  H15Y 7343   0.540   2.971  14.468
   57DOPE  C316 7344   0.531   2.763  14.404
   57DOPE  H16X 7345   0.633   2.765  14.359
   57DOPE  H16Y 7346   0.467   2.699  14.341
   57DOPE  C317 7347   0.541   2.702  14.545
   57DOPE  H17X 7348   0.599   2.608  14.538
   57DOPE  H17Y 7349   0.598   2.771  14.611
   57DOPE  C318 7350   0.405   2.671  14.609
   57DOPE  H18X 7351   0.419   2.625  14.710
   57DOPE  H18Y 7352   0.345   2.764  14.621
   57DOPE  H18Z 7353   0.348   2.600  14.546
   58DOPE     N 7354   8.227   6.429  12.669
   58DOPE   HN1 7355   8.155   6.385  12.730
   58DOPE   HN2 7356   8.179   6.461  12.582
   58DOPE   HN3 7357   8.294   6.353  12.644
   58DOPE   C12 7358   8.289   6.541  12.747
   58DOPE  H12A 7359   8.219   6.627  12.741
   58DOPE  H12B 7360   8.386   6.569  12.700
   58DOPE   C11 7361   8.306   6.499  12.894
   58DOPE  H11A 7362   8.329   6.589  12.956
   58DOPE  H11B 7363   8.393   6.430  12.902
   58DOPE     P 7364   8.099   6.470  13.059
   58DOPE   O13 7365   7.971   6.400  13.033
   58DOPE   O14 7366   8.097   6.617  13.069
   58DOPE   O11 7367   8.178   6.400  13.177
   58DOPE   O12 7368   8.189   6.431  12.936
   58DOPE    C1 7369   8.203   6.259  13.164
   58DOPE    HA 7370   8.226   6.229  13.060
   58DOPE    HB 7371   8.113   6.202  13.195
   58DOPE    C2 7372   8.326   6.208  13.247
   58DOPE    HS 7373   8.351   6.106  13.211
   58DOPE   O21 7374   8.296   6.208  13.388
   58DOPE   C21 7375   8.227   6.102  13.425
   58DOPE   O22 7376   8.184   6.015  13.351
   58DOPE   C22 7377   8.218   6.093  13.577
   58DOPE   H2R 7378   8.312   6.133  13.621
   58DOPE   H2S 7379   8.212   5.985  13.601
   58DOPE    C3 7380   0.007   6.291  13.223
   58DOPE    HX 7381   0.027   6.293  13.113
   58DOPE    HY 7382   0.087   6.233  13.272
   58DOPE   O31 7383   8.446   6.426  13.273
   58DOPE   C31 7384   0.107   6.477  13.325
   58DOPE   O32 7385   0.218   6.426  13.321
   58DOPE   C32 7386   0.077   6.613  13.388
   58DOPE   H2X 7387   0.172   6.668  13.401
   58DOPE   H2Y 7388   0.013   6.669  13.316
   58DOPE   C23 7389   8.094   6.165  13.635
   58DOPE   H3R 7390   8.065   6.113  13.728
   58DOPE   H3S 7391   8.008   6.159  13.565
   58DOPE   C24 7392   8.123   6.311  13.671
   58DOPE   H4R 7393   8.155   6.367  13.580
   58DOPE   H4S 7394   8.208   6.313  13.743
   58DOPE   C25 7395   8.002   6.380  13.735
   58DOPE   H5R 7396   7.956   6.310  13.808
   58DOPE   H5S 7397   7.927   6.403  13.657
   58DOPE   C26 7398   8.041   6.508  13.810
   58DOPE   H6R 7399   8.096   6.575  13.742
   58DOPE   H6S 7400   8.109   6.480  13.893
   58DOPE   C27 7401   7.919   6.582  13.869
   58DOPE   H7R 7402   7.852   6.506  13.916
   58DOPE   H7S 7403   7.862   6.630  13.787
   58DOPE   C28 7404   7.956   6.685  13.977
   58DOPE   H8R 7405   8.009   6.631  14.059
   58DOPE   H8S 7406   7.861   6.723  14.021
   58DOPE   C29 7407   8.042   6.798  13.927
   58DOPE   H9R 7408   8.115   6.770  13.849
   58DOPE  C210 7409   8.040   6.926  13.969
   58DOPE  H10R 7410   8.111   6.997  13.924
   58DOPE  C211 7411   7.950   6.986  14.075
   58DOPE  H11R 7412   7.858   6.927  14.089
   58DOPE  H11S 7413   7.917   7.087  14.041
   58DOPE  C212 7414   8.020   7.003  14.212
   58DOPE  H12R 7415   7.953   7.060  14.279
   58DOPE  H12S 7416   8.113   7.064  14.198
   58DOPE  C213 7417   8.057   6.871  14.282
   58DOPE  H13R 7418   8.121   6.894  14.371
   58DOPE  H13S 7419   8.118   6.809  14.213
   58DOPE  C214 7420   7.935   6.791  14.329
   58DOPE  H14R 7421   7.865   6.779  14.244
   58DOPE  H14S 7422   7.882   6.848  14.409
   58DOPE  C215 7423   7.971   6.651  14.380
   58DOPE  H15R 7424   8.033   6.659  14.472
   58DOPE  H15S 7425   8.033   6.601  14.303
   58DOPE  C216 7426   7.847   6.564  14.405
   58DOPE  H16R 7427   7.881   6.461  14.430
   58DOPE  H16S 7428   7.789   6.557  14.311
   58DOPE  C217 7429   7.755   6.614  14.518
   58DOPE  H17R 7430   7.669   6.544  14.524
   58DOPE  H17S 7431   7.714   6.713  14.490
   58DOPE  C218 7432   7.821   6.622  14.655
   58DOPE  H18R 7433   7.864   6.523  14.683
   58DOPE  H18S 7434   7.747   6.651  14.733
   58DOPE  H18T 7435   7.903   6.697  14.656
   58DOPE   C33 7436   0.003   6.599  13.523
   58DOPE   H3X 7437   8.359   6.539  13.511
   58DOPE   H3Y 7438   8.421   6.701  13.556
   58DOPE   C34 7439   0.091   6.537  13.633
   58DOPE   H4X 7440   0.110   6.430  13.609
   58DOPE   H4Y 7441   0.189   6.590  13.635
   58DOPE   C35 7442   0.027   6.548  13.772
   58DOPE   H5X 7443   8.377   6.498  13.771
   58DOPE   H5Y 7444   0.011   6.655  13.795
   58DOPE   C36 7445   0.116   6.487  13.882
   58DOPE   H6X 7446   0.220   6.522  13.867
   58DOPE   H6Y 7447   0.117   6.376  13.871
   58DOPE   C37 7448   0.072   6.525  14.025
   58DOPE   H7X 7449   0.143   6.481  14.097
   58DOPE   H7Y 7450   0.080   6.635  14.034
   58DOPE   C38 7451   8.377   6.484  14.063
   58DOPE   H8X 7452   8.305   6.531  13.992
   58DOPE   H8Y 7453   8.355   6.529  14.162
   58DOPE   C39 7454   8.358   6.334  14.064
   58DOPE   H9X 7455   8.355   6.288  13.965
   58DOPE  C310 7456   8.347   6.256  14.173
   58DOPE  H10X 7457   8.335   6.148  14.159
   58DOPE  C311 7458   8.350   6.302  14.317
   58DOPE  H11X 7459   8.302   6.402  14.328
   58DOPE  H11Y 7460   8.291   6.232  14.380
   58DOPE  C312 7461   0.045   6.310  14.373
   58DOPE  H12X 7462   0.105   6.383  14.315
   58DOPE  H12Y 7463   0.093   6.210  14.362
   58DOPE  C313 7464   0.050   6.348  14.522
   58DOPE  H13X 7465   8.426   6.285  14.578
   58DOPE  H13Y 7466   0.152   6.325  14.561
   58DOPE  C314 7467   0.022   6.497  14.548
   58DOPE  H14X 7468   8.373   6.525  14.503
   58DOPE  H14Y 7469   0.101   6.557  14.498
   58DOPE  C315 7470   0.020   6.531  14.698
   58DOPE  H15X 7471   0.111   6.489  14.746
   58DOPE  H15Y 7472   8.380   6.481  14.744
   58DOPE  C316 7473   0.013   6.682  14.725
   58DOPE  H16X 7474   8.386   6.727  14.656
   58DOPE  H16Y 7475   0.112   6.726  14.701
   58DOPE  C317 7476   8.422   6.717  14.869
   58DOPE  H17X 7477   8.434   6.827  14.883
   58DOPE  H17Y 7478   8.315   6.695  14.883
   58DOPE  C318 7479   0.054   6.643  14.977
   58DOPE  H18X 7480   0.025   6.678  15.078
   58DOPE  H18Y 7481   0.036   6.534  14.971
   58DOPE  H18Z 7482   0.163   6.661  14.963
   59DOPE     N 7483   8.290   1.044  12.830
   59DOPE   HN1 7484   8.267   1.091  12.920
   59DOPE   HN2 7485   8.228   1.074  12.752
   59DOPE   HN3 7486   8.274   0.943  12.847
   59DOPE   C12 7487   8.437   1.066  12.801
   59DOPE  H12A 7488   0.004   1.042  12.693
   59DOPE  H12B 7489   0.045   0.992  12.860
   59DOPE   C11 7490   0.039   1.211  12.832
   59DOPE  H11A 7491   8.442   1.278  12.756
   59DOPE  H11B 7492   0.148   1.212  12.812
   59DOPE     P 7493   8.447   1.176  13.092
   59DOPE   O13 7494   0.103   1.071  13.086
   59DOPE   O14 7495   8.307   1.129  13.086
   59DOPE   O11 7496   0.023   1.272  13.215
   59DOPE   O12 7497   0.015   1.266  12.963
   59DOPE    C1 7498   0.022   1.414  13.204
   59DOPE    HA 7499   8.385   1.449  13.141
   59DOPE    HB 7500   0.116   1.448  13.157
   59DOPE    C2 7501   0.010   1.485  13.343
   59DOPE    HS 7502   0.028   1.594  13.327
   59DOPE   O21 7503   0.105   1.433  13.437
   59DOPE   C21 7504   0.231   1.466  13.416
   59DOPE   O22 7505   0.271   1.542  13.329
   59DOPE   C22 7506   0.319   1.398  13.520
   59DOPE   H2R 7507   0.424   1.432  13.504
   59DOPE   H2S 7508   0.314   1.289  13.500
   59DOPE    C3 7509   8.316   1.473  13.405
   59DOPE    HX 7510   8.244   1.515  13.331
   59DOPE    HY 7511   8.311   1.539  13.495
   59DOPE   O31 7512   8.279   1.337  13.433
   59DOPE   C31 7513   8.306   1.294  13.556
   59DOPE   O32 7514   8.345   1.363  13.649
   59DOPE   C32 7515   8.271   1.145  13.567
   59DOPE   H2X 7516   8.218   1.130  13.664
   59DOPE   H2Y 7517   8.201   1.120  13.485
   59DOPE   C23 7518   0.278   1.425  13.667
   59DOPE   H3R 7519   0.170   1.401  13.681
   59DOPE   H3S 7520   0.292   1.532  13.693
   59DOPE   C24 7521   0.360   1.337  13.763
   59DOPE   H4R 7522   0.467   1.365  13.757
   59DOPE   H4S 7523   0.350   1.232  13.728
   59DOPE   C25 7524   0.314   1.340  13.910
   59DOPE   H5R 7525   0.354   1.247  13.957
   59DOPE   H5S 7526   0.204   1.334  13.916
   59DOPE   C26 7527   0.366   1.460  13.991
   59DOPE   H6R 7528   0.308   1.550  13.959
   59DOPE   H6S 7529   0.473   1.479  13.967
   59DOPE   C27 7530   0.351   1.441  14.143
   59DOPE   H7R 7531   0.249   1.400  14.160
   59DOPE   H7S 7532   0.356   1.539  14.194
   59DOPE   C28 7533   0.459   1.348  14.202
   59DOPE   H8R 7534   0.553   1.405  14.214
   59DOPE   H8S 7535   0.480   1.268  14.128
   59DOPE   C29 7536   0.415   1.282  14.331
   59DOPE   H9R 7537   0.306   1.265  14.337
   59DOPE  C210 7538   0.492   1.244  14.434
   59DOPE  H10R 7539   0.442   1.197  14.520
   59DOPE  C211 7540   0.642   1.256  14.448
   59DOPE  H11R 7541   0.680   1.343  14.391
   59DOPE  H11S 7542   0.692   1.165  14.407
   59DOPE  C212 7543   0.684   1.272  14.595
   59DOPE  H12R 7544   0.626   1.355  14.640
   59DOPE  H12S 7545   0.791   1.301  14.600
   59DOPE  C213 7546   0.665   1.144  14.679
   59DOPE  H13R 7547   0.749   1.073  14.661
   59DOPE  H13S 7548   0.573   1.091  14.644
   59DOPE  C214 7549   0.651   1.171  14.830
   59DOPE  H14R 7550   0.619   1.276  14.845
   59DOPE  H14S 7551   0.750   1.160  14.878
   59DOPE  C215 7552   0.548   1.080  14.900
   59DOPE  H15R 7553   0.556   1.096  15.009
   59DOPE  H15S 7554   0.572   0.974  14.879
   59DOPE  C216 7555   0.403   1.109  14.857
   59DOPE  H16R 7556   0.389   1.085  14.750
   59DOPE  H16S 7557   0.383   1.218  14.869
   59DOPE  C217 7558   0.299   1.031  14.938
   59DOPE  H17R 7559   0.311   1.056  15.046
   59DOPE  H17S 7560   0.320   0.922  14.927
   59DOPE  C218 7561   0.155   1.059  14.895
   59DOPE  H18R 7562   0.083   1.000  14.956
   59DOPE  H18S 7563   0.140   1.032  14.788
   59DOPE  H18T 7564   0.131   1.167  14.907
   59DOPE   C33 7565   8.395   1.053  13.558
   59DOPE   H3X 7566   8.447   1.070  13.461
   59DOPE   H3Y 7567   8.360   0.948  13.558
   59DOPE   C34 7568   0.048   1.070  13.673
   59DOPE   H4X 7569   0.128   0.993  13.661
   59DOPE   H4Y 7570   0.097   1.169  13.663
   59DOPE   C35 7571   8.439   1.059  13.815
   59DOPE   H5X 7572   8.369   1.143  13.833
   59DOPE   H5Y 7573   0.075   1.072  13.887
   59DOPE   C36 7574   8.370   0.925  13.846
   59DOPE   H6X 7575   8.442   0.844  13.822
   59DOPE   H6Y 7576   8.282   0.912  13.780
   59DOPE   C37 7577   8.327   0.910  13.993
   59DOPE   H7X 7578   8.305   0.803  14.012
   59DOPE   H7Y 7579   8.412   0.939  14.057
   59DOPE   C38 7580   8.202   0.994  14.028
   59DOPE   H8X 7581   8.117   0.957  13.968
   59DOPE   H8Y 7582   8.220   1.099  13.995
   59DOPE   C39 7583   8.168   0.986  14.175
   59DOPE   H9X 7584   8.136   0.887  14.209
   59DOPE  C310 7585   8.174   1.087  14.265
   59DOPE  H10X 7586   8.145   1.066  14.369
   59DOPE  C311 7587   8.216   1.229  14.238
   59DOPE  H11X 7588   8.270   1.238  14.141
   59DOPE  H11Y 7589   8.126   1.294  14.230
   59DOPE  C312 7590   8.308   1.288  14.347
   59DOPE  H12X 7591   8.344   1.386  14.309
   59DOPE  H12Y 7592   8.398   1.224  14.361
   59DOPE  C313 7593   8.238   1.312  14.481
   59DOPE  H13X 7594   8.134   1.347  14.459
   59DOPE  H13Y 7595   8.230   1.217  14.538
   59DOPE  C314 7596   8.306   1.420  14.566
   59DOPE  H14X 7597   8.238   1.449  14.649
   59DOPE  H14Y 7598   8.321   1.511  14.503
   59DOPE  C315 7599   8.442   1.380  14.625
   59DOPE  H15X 7600   0.061   1.350  14.543
   59DOPE  H15Y 7601   8.428   1.292  14.692
   59DOPE  C316 7602   0.055   1.495  14.706
   59DOPE  H16X 7603   8.432   1.527  14.784
   59DOPE  H16Y 7604   0.071   1.581  14.637
   59DOPE  C317 7605   0.189   1.461  14.773
   59DOPE  H17X 7606   0.224   1.551  14.828
   59DOPE  H17Y 7607   0.172   1.381  14.849
   59DOPE  C318 7608   0.299   1.416  14.677
   59DOPE  H18X 7609   0.311   1.490  14.595
   59DOPE  H18Y 7610   0.396   1.406  14.729
   59DOPE  H18Z 7611   0.273   1.318  14.631
   60DOPE     N 7612   0.006   8.253  13.319
   60DOPE   HN1 7613   0.031   8.166  13.268
   60DOPE   HN2 7614   0.094   8.300  13.350
   60DOPE   HN3 7615   8.397   8.223  13.400
   60DOPE   C12 7616   8.374   8.337  13.222
   60DOPE  H12A 7617   8.445   8.386  13.153
   60DOPE  H12B 7618   8.320   8.414  13.281
   60DOPE   C11 7619   8.275   8.252  13.140
   60DOPE  H11A 7620   8.210   8.322  13.084
   60DOPE  H11B 7621   8.207   8.194  13.207
   60DOPE     P 7622   8.384   8.020  13.077
   60DOPE   O13 7623   0.033   8.031  13.188
   60DOPE   O14 7624   8.428   7.953  12.952
   60DOPE   O11 7625   8.252   7.956  13.132
   60DOPE   O12 7626   8.342   8.169  13.045
   60DOPE    C1 7627   8.139   7.942  13.045
   60DOPE    HA 7628   8.167   7.890  12.951
   60DOPE    HB 7629   8.100   8.042  13.018
   60DOPE    C2 7630   8.022   7.862  13.111
   60DOPE    HS 7631   7.926   7.896  13.065
   60DOPE   O21 7632   8.017   7.880  13.254
   60DOPE   C21 7633   8.001   8.005  13.292
   60DOPE   O22 7634   7.969   8.098  13.221
   60DOPE   C22 7635   8.028   8.016  13.442
   60DOPE   H2R 7636   8.111   7.947  13.469
   60DOPE   H2S 7637   7.936   7.983  13.495
   60DOPE    C3 7638   8.035   7.710  13.083
   60DOPE    HX 7639   8.042   7.695  12.973
   60DOPE    HY 7640   7.941   7.661  13.117
   60DOPE   O31 7641   8.154   7.657  13.145
   60DOPE   C31 7642   8.136   7.577  13.249
   60DOPE   O32 7643   8.033   7.518  13.276
   60DOPE   C32 7644   8.269   7.567  13.325
   60DOPE   H2X 7645   8.334   7.501  13.265
   60DOPE   H2Y 7646   8.315   7.668  13.327
   60DOPE   C23 7647   8.062   8.161  13.482
   60DOPE   H3R 7648   7.985   8.229  13.440
   60DOPE   H3S 7649   8.160   8.192  13.440
   60DOPE   C24 7650   8.061   8.185  13.634
   60DOPE   H4R 7651   7.974   8.132  13.680
   60DOPE   H4S 7652   8.044   8.293  13.650
   60DOPE   C25 7653   8.190   8.143  13.705
   60DOPE   H5R 7654   8.277   8.194  13.658
   60DOPE   H5S 7655   8.204   8.034  13.694
   60DOPE   C26 7656   8.189   8.177  13.855
   60DOPE   H6R 7657   8.279   8.135  13.904
   60DOPE   H6S 7658   8.100   8.128  13.901
   60DOPE   C27 7659   8.185   8.329  13.884
   60DOPE   H7R 7660   8.100   8.376  13.831
   60DOPE   H7S 7661   8.278   8.375  13.845
   60DOPE   C28 7662   8.171   8.364  14.034
   60DOPE   H8R 7663   8.176   0.025  14.044
   60DOPE   H8S 7664   8.260   8.323  14.087
   60DOPE   C29 7665   8.041   8.313  14.091
   60DOPE   H9R 7666   7.951   8.347  14.036
   60DOPE  C210 7667   8.023   8.234  14.198
   60DOPE  H10R 7668   7.921   8.207  14.226
   60DOPE  C211 7669   8.131   8.177  14.287
   60DOPE  H11R 7670   8.233   8.196  14.247
   60DOPE  H11S 7671   8.119   8.067  14.296
   60DOPE  C212 7672   8.125   8.239  14.429
   60DOPE  H12R 7673   8.136   8.349  14.421
   60DOPE  H12S 7674   8.212   8.201  14.486
   60DOPE  C213 7675   7.997   8.203  14.505
   60DOPE  H13R 7676   7.987   8.092  14.505
   60DOPE  H13S 7677   7.908   8.244  14.453
   60DOPE  C214 7678   7.997   8.251  14.651
   60DOPE  H14R 7679   8.080   8.200  14.705
   60DOPE  H14S 7680   7.902   8.220  14.699
   60DOPE  C215 7681   8.015   8.403  14.669
   60DOPE  H15R 7682   8.113   8.434  14.627
   60DOPE  H15S 7683   8.017   8.425  14.778
   60DOPE  C216 7684   7.904   0.038  14.603
   60DOPE  H16R 7685   7.807   0.015  14.653
   60DOPE  H16S 7686   7.894   0.009  14.496
   60DOPE  C217 7687   7.928   0.190  14.608
   60DOPE  H17R 7688   7.842   0.241  14.559
   60DOPE  H17S 7689   8.019   0.213  14.548
   60DOPE  C218 7690   7.946   0.247  14.749
   60DOPE  H18R 7691   7.956   0.357  14.746
   60DOPE  H18S 7692   8.038   0.206  14.797
   60DOPE  H18T 7693   7.859   0.221  14.813
   60DOPE   C33 7694   8.257   7.510  13.468
   60DOPE   H3X 7695   8.358   7.470  13.494
   60DOPE   H3Y 7696   8.187   7.424  13.473
   60DOPE   C34 7697   8.223   7.614  13.576
   60DOPE   H4X 7698   8.272   7.711  13.552
   60DOPE   H4Y 7699   8.113   7.631  13.578
   60DOPE   C35 7700   8.272   7.569  13.715
   60DOPE   H5X 7701   8.382   7.562  13.712
   60DOPE   H5Y 7702   8.232   7.467  13.736
   60DOPE   C36 7703   8.232   7.661  13.832
   60DOPE   H6X 7704   8.122   7.654  13.847
   60DOPE   H6Y 7705   8.257   7.767  13.807
   60DOPE   C37 7706   8.303   7.621  13.962
   60DOPE   H7X 7707   8.298   7.510  13.971
   60DOPE   H7Y 7708   8.411   7.648  13.954
   60DOPE   C38 7709   8.244   7.681  14.091
   60DOPE   H8X 7710   8.299   7.638  14.177
   60DOPE   H8Y 7711   8.139   7.645  14.100
   60DOPE   C39 7712   8.245   7.832  14.098
   60DOPE   H9X 7713   8.158   7.881  14.052
   60DOPE  C310 7714   8.341   7.909  14.153
   60DOPE  H10X 7715   8.328   8.018  14.151
   60DOPE  C311 7716   0.020   7.862  14.219
   60DOPE  H11X 7717   0.041   7.756  14.197
   60DOPE  H11Y 7718   0.104   7.920  14.176
   60DOPE  C312 7719   0.026   7.882  14.373
   60DOPE  H12X 7720   0.001   7.987  14.400
   60DOPE  H12Y 7721   0.131   7.864  14.404
   60DOPE  C313 7722   8.386   7.783  14.451
   60DOPE  H13X 7723   8.279   7.813  14.443
   60DOPE  H13Y 7724   8.397   7.684  14.402
   60DOPE  C314 7725   8.426   7.765  14.599
   60DOPE  H14X 7726   0.088   7.774  14.609
   60DOPE  H14Y 7727   8.400   7.661  14.628
   60DOPE  C315 7728   8.356   7.858  14.699
   60DOPE  H15X 7729   8.384   7.826  14.801
   60DOPE  H15Y 7730   8.246   7.847  14.689
   60DOPE  C316 7731   8.393   8.007  14.685
   60DOPE  H16X 7732   8.348   8.047  14.592
   60DOPE  H16Y 7733   0.055   8.016  14.676
   60DOPE  C317 7734   8.346   8.091  14.804
   60DOPE  H17X 7735   8.237   8.075  14.818
   60DOPE  H17Y 7736   8.396   8.053  14.896
   60DOPE  C318 7737   8.374   8.240  14.789
   60DOPE  H18X 7738   0.034   8.258  14.778
   60DOPE  H18Y 7739   8.322   8.281  14.699
   60DOPE  H18Z 7740   8.338   8.296  14.878
   6123SM     N 7741   3.604   4.743  17.721
   6123SM   C15 7742   3.480   4.706  17.645
   6123SM  H15A 7743   3.395   4.697  17.712
   6123SM  H15B 7744   3.494   4.611  17.596
   6123SM  H15C 7745   3.457   4.780  17.570
   6123SM   C14 7746   3.585   4.875  17.790
   6123SM  H14A 7747   3.565   4.954  17.719
   6123SM  H14B 7748   3.673   4.900  17.847
   6123SM  H14C 7749   3.502   4.870  17.858
   6123SM   C13 7750   3.630   4.639  17.826
   6123SM  H13A 7751   3.543   4.623  17.889
   6123SM  H13B 7752   3.713   4.670  17.888
   6123SM  H13C 7753   3.656   4.546  17.778
   6123SM   C12 7754   3.725   4.749  17.629
   6123SM  H12A 7755   3.813   4.753  17.691
   6123SM  H12B 7756   3.721   4.841  17.572
   6123SM   C11 7757   3.745   4.632  17.528
   6123SM  H11A 7758   3.842   4.646  17.477
   6123SM  H11B 7759   3.666   4.640  17.451
   6123SM     P 7760   3.667   4.381  17.537
   6123SM   O13 7761   3.682   4.267  17.629
   6123SM   O14 7762   3.529   4.426  17.508
   6123SM   O11 7763   3.744   4.351  17.401
   6123SM   O12 7764   3.747   4.505  17.595
   6123SM   C1S 7765   3.673   4.376  17.278
   6123SM   H1S 7766   3.628   4.477  17.276
   6123SM   H1T 7767   3.590   4.303  17.270
   6123SM    NF 7768   3.843   4.482  17.138
   6123SM   HNF 7769   3.814   4.562  17.191
   6123SM   C2S 7770   3.761   4.362  17.150
   6123SM   H2S 7771   3.828   4.274  17.162
   6123SM   C3S 7772   3.664   4.335  17.030
   6123SM   H3S 7773   3.575   4.400  17.041
   6123SM    O3 7774   3.617   4.200  17.030
   6123SM   HO3 7775   3.644   4.162  17.114
   6123SM   C4S 7776   3.727   4.358  16.895
   6123SM   H4S 7777   3.821   4.304  16.877
   6123SM   C5S 7778   3.675   4.436  16.798
   6123SM   H5S 7779   3.579   4.486  16.816
   6123SM   C6S 7780   3.735   4.463  16.662
   6123SM   H6S 7781   3.704   4.565  16.630
   6123SM   H6T 7782   3.689   4.393  16.588
   6123SM   C7S 7783   3.888   4.456  16.647
   6123SM   H7S 7784   3.923   4.352  16.663
   6123SM   H7T 7785   3.935   4.520  16.725
   6123SM   C8S 7786   3.938   4.506  16.510
   6123SM   H8S 7787   4.048   4.515  16.512
   6123SM   H8T 7788   3.897   4.607  16.491
   6123SM   C9S 7789   3.899   4.414  16.393
   6123SM   H9S 7790   3.789   4.397  16.392
   6123SM   H9T 7791   3.948   4.315  16.407
   6123SM  C10S 7792   3.939   4.470  16.255
   6123SM  H10S 7793   4.047   4.494  16.254
   6123SM  H10T 7794   3.884   4.565  16.236
   6123SM  C11S 7795   3.908   4.370  16.142
   6123SM  H11S 7796   3.801   4.343  16.145
   6123SM  H11T 7797   3.966   4.277  16.161
   6123SM  C12S 7798   3.942   4.421  16.002
   6123SM  H12S 7799   4.043   4.468  16.002
   6123SM  H12T 7800   3.869   4.500  15.972
   6123SM  C13S 7801   3.941   4.307  15.899
   6123SM  H13S 7802   3.848   4.247  15.911
   6123SM  H13T 7803   4.026   4.240  15.921
   6123SM  C14S 7804   3.952   4.354  15.752
   6123SM  H14S 7805   3.995   4.269  15.694
   6123SM  H14T 7806   4.023   4.439  15.743
   6123SM  C15S 7807   3.816   4.390  15.689
   6123SM  H15S 7808   3.801   4.500  15.691
   6123SM  H15T 7809   3.735   4.344  15.749
   6123SM  C16S 7810   3.804   4.336  15.545
   6123SM  H16S 7811   3.826   4.228  15.546
   6123SM  H16T 7812   3.879   4.386  15.480
   6123SM  C17S 7813   3.664   4.355  15.485
   6123SM  H17S 7814   3.641   4.464  15.479
   6123SM  H17T 7815   3.589   4.309  15.553
   6123SM  C18S 7816   3.649   4.292  15.346
   6123SM  H18S 7817   3.721   4.339  15.275
   6123SM  H18T 7818   3.546   4.307  15.307
   6123SM  H18U 7819   3.670   4.183  15.350
   6123SM   C1F 7820   3.960   4.484  17.075
   6123SM    OF 7821   4.005   4.382  17.024
   6123SM   C2F 7822   4.037   4.614  17.068
   6123SM   H2F 7823   4.069   4.630  16.963
   6123SM   H2G 7824   4.129   4.600  17.128
   6123SM   C3F 7825   3.963   4.740  17.120
   6123SM   H3F 7826   4.038   4.823  17.119
   6123SM   H3G 7827   3.935   4.726  17.226
   6123SM   C4F 7828   3.842   4.788  17.038
   6123SM   H4F 7829   3.809   4.886  17.080
   6123SM   H4G 7830   3.757   4.717  17.049
   6123SM   C5F 7831   3.870   4.807  16.888
   6123SM   H5F 7832   3.893   4.709  16.843
   6123SM   H5G 7833   3.959   4.872  16.875
   6123SM   C6F 7834   3.751   4.869  16.813
   6123SM   H6F 7835   3.733   4.972  16.850
   6123SM   H6G 7836   3.660   4.809  16.835
   6123SM   C7F 7837   3.771   4.871  16.661
   6123SM   H7F 7838   3.786   4.767  16.626
   6123SM   H7G 7839   3.864   4.928  16.636
   6123SM   C8F 7840   3.653   4.934  16.586
   6123SM   H8F 7841   3.652   5.043  16.608
   6123SM   H8G 7842   3.557   4.891  16.625
   6123SM   C9F 7843   3.658   4.914  16.434
   6123SM   H9F 7844   3.759   4.938  16.396
   6123SM   H9G 7845   3.587   4.985  16.387
   6123SM  C10F 7846   3.618   4.772  16.391
   6123SM  H10F 7847   3.517   4.749  16.430
   6123SM  H10G 7848   3.689   4.698  16.435
   6123SM  C11F 7849   3.617   4.751  16.238
   6123SM  H11F 7850   3.718   4.774  16.198
   6123SM  H11G 7851   3.545   4.822  16.192
   6123SM  C12F 7852   3.579   4.607  16.200
   6123SM  H12F 7853   3.476   4.585  16.234
   6123SM  H12G 7854   3.647   4.539  16.255
   6123SM  C13F 7855   3.592   4.576  16.050
   6123SM  H13F 7856   3.594   4.465  16.038
   6123SM  H13G 7857   3.689   4.616  16.012
   6123SM  C14F 7858   3.477   4.630  15.964
   6123SM  H14F 7859   3.480   4.741  15.962
   6123SM  H14G 7860   3.381   4.599  16.011
   6123SM  C15F 7861   3.480   4.574  15.821
   6123SM  H15F 7862   3.484   4.463  15.826
   6123SM  H15G 7863   3.573   4.608  15.769
   6123SM  C16F 7864   3.357   4.614  15.738
   6123SM  H16F 7865   3.359   4.724  15.719
   6123SM  H16G 7866   3.266   4.592  15.797
   6123SM  C17F 7867   3.348   4.538  15.604
   6123SM  H17F 7868   3.355   4.429  15.626
   6123SM  H17G 7869   3.434   4.565  15.539
   6123SM  C18F 7870   3.216   4.565  15.530
   6123SM  H18F 7871   3.215   4.668  15.491
   6123SM  H18G 7872   3.133   4.557  15.605
   6123SM  C19F 7873   3.187   4.463  15.418
   6123SM  H19F 7874   3.081   4.475  15.387
   6123SM  H19G 7875   3.198   4.361  15.459
   6123SM  C20F 7876   3.275   4.477  15.293
   6123SM  H20F 7877   3.251   4.392  15.226
   6123SM  H20G 7878   3.382   4.468  15.321
   6123SM  C21F 7879   3.252   4.607  15.215
   6123SM  H21F 7880   3.299   4.691  15.271
   6123SM  H21G 7881   3.143   4.627  15.210
   6123SM  C22F 7882   3.308   4.602  15.072
   6123SM  H22F 7883   3.256   4.521  15.017
   6123SM  H22G 7884   3.415   4.575  15.077
   6123SM  C23F 7885   3.291   4.734  14.996
   6123SM  H23F 7886   3.332   4.724  14.893
   6123SM  H23G 7887   3.345   4.816  15.048
   6123SM  H23H 7888   3.184   4.762  14.989
   6223SM     N 7889   3.751   3.631  17.732
   6223SM   C15 7890   3.665   3.515  17.692
   6223SM  H15A 7891   3.563   3.529  17.723
   6223SM  H15B 7892   3.702   3.421  17.730
   6223SM  H15C 7893   3.662   3.508  17.584
   6223SM   C14 7894   3.749   3.645  17.881
   6223SM  H14A 7895   3.791   3.559  17.929
   6223SM  H14B 7896   3.648   3.658  17.919
   6223SM  H14C 7897   3.804   3.732  17.913
   6223SM   C13 7898   3.891   3.602  17.687
   6223SM  H13A 7899   3.957   3.684  17.712
   6223SM  H13B 7900   3.893   3.588  17.580
   6223SM  H13C 7901   3.929   3.512  17.734
   6223SM   C12 7902   3.701   3.759  17.665
   6223SM  H12A 7903   3.752   3.844  17.707
   6223SM  H12B 7904   3.596   3.772  17.688
   6223SM   C11 7905   3.711   3.769  17.510
   6223SM  H11A 7906   3.817   3.759  17.479
   6223SM  H11B 7907   3.678   3.870  17.478
   6223SM     P 7908   3.476   3.677  17.442
   6223SM   O13 7909   3.425   3.538  17.454
   6223SM   O14 7910   3.431   3.775  17.542
   6223SM   O11 7911   3.447   3.732  17.296
   6223SM   O12 7912   3.634   3.667  17.446
   6223SM   C1S 7913   3.526   3.679  17.187
   6223SM   H1S 7914   3.536   3.569  17.195
   6223SM   H1T 7915   3.629   3.722  17.190
   6223SM    NF 7916   3.531   3.815  16.977
   6223SM   HNF 7917   3.482   3.902  16.968
   6223SM   C2S 7918   3.463   3.706  17.046
   6223SM   H2S 7919   3.479   3.614  16.986
   6223SM   C3S 7920   3.310   3.732  17.056
   6223SM   H3S 7921   3.294   3.830  17.105
   6223SM    O3 7922   3.236   3.638  17.134
   6223SM   HO3 7923   3.300   3.603  17.197
   6223SM   C4S 7924   3.256   3.742  16.915
   6223SM   H4S 7925   3.258   3.844  16.875
   6223SM   C5S 7926   3.209   3.645  16.835
   6223SM   H5S 7927   3.204   3.541  16.871
   6223SM   C6S 7928   3.159   3.670  16.695
   6223SM   H6S 7929   3.133   3.777  16.680
   6223SM   H6T 7930   3.066   3.613  16.676
   6223SM   C7S 7931   3.264   3.633  16.588
   6223SM   H7S 7932   3.288   3.525  16.594
   6223SM   H7T 7933   3.358   3.690  16.606
   6223SM   C8S 7934   3.214   3.666  16.447
   6223SM   H8S 7935   3.190   3.774  16.443
   6223SM   H8T 7936   3.120   3.610  16.428
   6223SM   C9S 7937   3.315   3.633  16.335
   6223SM   H9S 7938   3.334   3.524  16.332
   6223SM   H9T 7939   3.411   3.685  16.356
   6223SM  C10S 7940   3.264   3.680  16.197
   6223SM  H10S 7941   3.245   3.789  16.202
   6223SM  H10T 7942   3.166   3.631  16.175
   6223SM  C11S 7943   3.361   3.652  16.082
   6223SM  H11S 7944   3.370   3.542  16.066
   6223SM  H11T 7945   3.461   3.691  16.109
   6223SM  C12S 7946   3.315   3.719  15.951
   6223SM  H12S 7947   3.299   3.827  15.971
   6223SM  H12T 7948   3.217   3.676  15.920
   6223SM  C13S 7949   3.416   3.705  15.837
   6223SM  H13S 7950   3.429   3.598  15.809
   6223SM  H13T 7951   3.514   3.742  15.874
   6223SM  C14S 7952   3.378   3.786  15.712
   6223SM  H14S 7953   3.470   3.804  15.651
   6223SM  H14T 7954   3.340   3.886  15.744
   6223SM  C15S 7955   3.274   3.717  15.623
   6223SM  H15S 7956   3.191   3.680  15.687
   6223SM  H15T 7957   3.321   3.629  15.574
   6223SM  C16S 7958   3.214   3.810  15.516
   6223SM  H16S 7959   3.158   3.891  15.567
   6223SM  H16T 7960   3.141   3.752  15.455
   6223SM  C17S 7961   3.317   3.874  15.422
   6223SM  H17S 7962   3.380   3.794  15.378
   6223SM  H17T 7963   3.384   3.940  15.482
   6223SM  C18S 7964   3.253   3.957  15.311
   6223SM  H18S 7965   3.189   3.892  15.246
   6223SM  H18T 7966   3.331   4.004  15.247
   6223SM  H18U 7967   3.189   4.037  15.353
   6223SM   C1F 7968   3.653   3.806  16.926
   6223SM    OF 7969   3.727   3.713  16.955
   6223SM   C2F 7970   3.696   3.912  16.830
   6223SM   H2F 7971   3.760   3.865  16.752
   6223SM   H2G 7972   3.756   3.988  16.884
   6223SM   C3F 7973   3.575   3.982  16.761
   6223SM   H3F 7974   3.515   4.037  16.836
   6223SM   H3G 7975   3.510   3.905  16.714
   6223SM   C4F 7976   3.617   4.082  16.652
   6223SM   H4F 7977   3.669   4.029  16.570
   6223SM   H4G 7978   3.689   4.154  16.696
   6223SM   C5F 7979   3.497   4.163  16.597
   6223SM   H5F 7980   3.535   4.239  16.526
   6223SM   H5G 7981   3.449   4.217  16.681
   6223SM   C6F 7982   3.390   4.078  16.526
   6223SM   H6F 7983   3.309   4.146  16.490
   6223SM   H6G 7984   3.342   4.010  16.599
   6223SM   C7F 7985   3.441   3.996  16.406
   6223SM   H7F 7986   3.358   3.931  16.370
   6223SM   H7G 7987   3.522   3.929  16.441
   6223SM   C8F 7988   3.490   4.081  16.288
   6223SM   H8F 7989   3.561   4.160  16.323
   6223SM   H8G 7990   3.403   4.132  16.242
   6223SM   C9F 7991   3.562   3.995  16.183
   6223SM   H9F 7992   3.500   3.906  16.162
   6223SM   H9G 7993   3.659   3.960  16.225
   6223SM  C10F 7994   3.587   4.069  16.051
   6223SM  H10F 7995   3.634   4.168  16.069
   6223SM  H10G 7996   3.489   4.086  16.001
   6223SM  C11F 7997   3.678   3.987  15.957
   6223SM  H11F 7998   3.652   3.879  15.968
   6223SM  H11G 7999   3.783   3.998  15.990
   6223SM  C12F 8000   3.662   4.025  15.809
   6223SM  H12F 8001   3.692   4.130  15.794
   6223SM  H12G 8002   3.555   4.016  15.782
   6223SM  C13F 8003   3.743   3.934  15.714
   6223SM  H13F 8004   3.711   3.956  15.610
   6223SM  H13G 8005   3.717   3.828  15.735
   6223SM  C14F 8006   3.895   3.953  15.726
   6223SM  H14F 8007   3.924   3.933  15.831
   6223SM  H14G 8008   3.922   4.058  15.704
   6223SM  C15F 8009   3.978   3.858  15.637
   6223SM  H15F 8010   3.927   3.760  15.628
   6223SM  H15G 8011   4.074   3.840  15.688
   6223SM  C16F 8012   4.013   3.913  15.497
   6223SM  H16F 8013   4.084   3.843  15.449
   6223SM  H16G 8014   4.065   4.011  15.509
   6223SM  C17F 8015   3.894   3.932  15.400
   6223SM  H17F 8016   3.934   3.969  15.303
   6223SM  H17G 8017   3.827   4.012  15.439
   6223SM  C18F 8018   3.814   3.804  15.375
   6223SM  H18F 8019   3.767   3.770  15.470
   6223SM  H18G 8020   3.883   3.724  15.341
   6223SM  C19F 8021   3.704   3.823  15.270
   6223SM  H19F 8022   3.751   3.854  15.173
   6223SM  H19G 8023   3.636   3.906  15.302
   6223SM  C20F 8024   3.620   3.696  15.248
   6223SM  H20F 8025   3.570   3.670  15.343
   6223SM  H20G 8026   3.688   3.612  15.221
   6223SM  C21F 8027   3.515   3.713  15.137
   6223SM  H21F 8028   3.566   3.720  15.039
   6223SM  H21G 8029   3.462   3.810  15.153
   6223SM  C22F 8030   3.411   3.600  15.134
   6223SM  H22F 8031   3.336   3.624  15.054
   6223SM  H22G 8032   3.356   3.600  15.231
   6223SM  C23F 8033   3.468   3.461  15.108
   6223SM  H23F 8034   3.521   3.458  15.011
   6223SM  H23G 8035   3.387   3.385  15.107
   6223SM  H23H 8036   3.540   3.433  15.188
   6323SM     N 8037   5.237   5.458  17.704
   6323SM   C15 8038   5.136   5.398  17.611
   6323SM  H15A 8039   5.114   5.295  17.633
   6323SM  H15B 8040   5.172   5.407  17.510
   6323SM  H15C 8041   5.045   5.457  17.612
   6323SM   C14 8042   5.185   5.451  17.845
   6323SM  H14A 8043   5.166   5.348  17.873
   6323SM  H14B 8044   5.091   5.504  17.853
   6323SM  H14C 8045   5.255   5.494  17.915
   6323SM   C13 8046   5.366   5.383  17.692
   6323SM  H13A 8047   5.354   5.279  17.721
   6323SM  H13B 8048   5.444   5.428  17.751
   6323SM  H13C 8049   5.399   5.384  17.589
   6323SM   C12 8050   5.258   5.605  17.666
   6323SM  H12A 8051   5.322   5.652  17.739
   6323SM  H12B 8052   5.162   5.654  17.668
   6323SM   C11 8053   5.317   5.635  17.525
   6323SM  H11A 8054   5.413   5.582  17.512
   6323SM  H11B 8055   5.341   5.744  17.518
   6323SM     P 8056   5.093   5.676  17.400
   6323SM   O13 8057   5.011   5.660  17.522
   6323SM   O14 8058   5.125   5.815  17.357
   6323SM   O11 8059   5.027   5.598  17.280
   6323SM   O12 8060   5.228   5.596  17.420
   6323SM   C1S 8061   5.108   5.573  17.164
   6323SM   H1S 8062   5.188   5.498  17.187
   6323SM   H1T 8063   5.157   5.666  17.128
   6323SM    NF 8064   5.109   5.519  16.925
   6323SM   HNF 8065   5.088   5.585  16.853
   6323SM   C2S 8066   5.025   5.518  17.044
   6323SM   H2S 8067   4.995   5.413  17.066
   6323SM   C3S 8068   4.894   5.602  17.028
   6323SM   H3S 8069   4.921   5.709  17.030
   6323SM    O3 8070   4.801   5.579  17.133
   6323SM   HO3 8071   4.858   5.569  17.209
   6323SM   C4S 8072   4.828   5.569  16.897
   6323SM   H4S 8073   4.785   5.468  16.891
   6323SM   C5S 8074   4.818   5.653  16.791
   6323SM   H5S 8075   4.858   5.755  16.799
   6323SM   C6S 8076   4.753   5.619  16.660
   6323SM   H6S 8077   4.670   5.690  16.638
   6323SM   H6T 8078   4.709   5.517  16.660
   6323SM   C7S 8079   4.855   5.627  16.545
   6323SM   H7S 8080   4.942   5.561  16.567
   6323SM   H7T 8081   4.894   5.731  16.537
   6323SM   C8S 8082   4.796   5.586  16.409
   6323SM   H8S 8083   4.707   5.649  16.388
   6323SM   H8T 8084   4.763   5.481  16.415
   6323SM   C9S 8085   4.897   5.601  16.294
   6323SM   H9S 8086   4.991   5.547  16.319
   6323SM   H9T 8087   4.923   5.709  16.282
   6323SM  C10S 8088   4.843   5.547  16.161
   6323SM  H10S 8089   4.746   5.596  16.138
   6323SM  H10T 8090   4.823   5.438  16.172
   6323SM  C11S 8091   4.939   5.568  16.044
   6323SM  H11S 8092   5.037   5.521  16.068
   6323SM  H11T 8093   4.957   5.677  16.030
   6323SM  C12S 8094   4.885   5.510  15.913
   6323SM  H12S 8095   4.789   5.559  15.887
   6323SM  H12T 8096   4.865   5.402  15.927
   6323SM  C13S 8097   4.983   5.526  15.795
   6323SM  H13S 8098   5.079   5.477  15.821
   6323SM  H13T 8099   5.003   5.634  15.778
   6323SM  C14S 8100   4.928   5.464  15.666
   6323SM  H14S 8101   4.832   5.514  15.640
   6323SM  H14T 8102   4.906   5.356  15.685
   6323SM  C15S 8103   5.025   5.473  15.548
   6323SM  H15S 8104   5.121   5.424  15.577
   6323SM  H15T 8105   5.047   5.579  15.526
   6323SM  C16S 8106   4.973   5.405  15.420
   6323SM  H16S 8107   4.951   5.298  15.441
   6323SM  H16T 8108   5.053   5.407  15.343
   6323SM  C17S 8109   4.848   5.473  15.362
   6323SM  H17S 8110   4.866   5.583  15.359
   6323SM  H17T 8111   4.762   5.456  15.430
   6323SM  C18S 8112   4.812   5.426  15.221
   6323SM  H18S 8113   4.896   5.444  15.151
   6323SM  H18T 8114   4.723   5.481  15.183
   6323SM  H18U 8115   4.788   5.318  15.220
   6323SM   C1F 8116   5.211   5.435  16.910
   6323SM    OF 8117   5.227   5.341  16.986
   6323SM   C2F 8118   5.303   5.458  16.793
   6323SM   H2F 8119   5.271   5.393  16.709
   6323SM   H2G 8120   5.405   5.427  16.824
   6323SM   C3F 8121   5.311   5.605  16.745
   6323SM   H3F 8122   5.349   5.669  16.828
   6323SM   H3G 8123   5.211   5.643  16.714
   6323SM   C4F 8124   5.405   5.619  16.625
   6323SM   H4F 8125   5.361   5.564  16.539
   6323SM   H4G 8126   5.504   5.573  16.647
   6323SM   C5F 8127   5.430   5.765  16.584
   6323SM   H5F 8128   5.517   5.804  16.641
   6323SM   H5G 8129   5.342   5.828  16.611
   6323SM   C6F 8130   5.456   5.781  16.434
   6323SM   H6F 8131   5.524   5.700  16.398
   6323SM   H6G 8132   5.508   5.878  16.417
   6323SM   C7F 8133   5.326   5.782  16.352
   6323SM   H7F 8134   5.263   5.866  16.390
   6323SM   H7G 8135   5.269   5.688  16.369
   6323SM   C8F 8136   5.348   5.803  16.202
   6323SM   H8F 8137   5.388   5.710  16.156
   6323SM   H8G 8138   5.424   5.882  16.188
   6323SM   C9F 8139   5.219   5.847  16.131
   6323SM   H9F 8140   5.186   5.942  16.177
   6323SM   H9G 8141   5.139   5.771  16.145
   6323SM  C10F 8142   5.241   5.871  15.981
   6323SM  H10F 8143   5.255   5.774  15.928
   6323SM  H10G 8144   5.335   5.930  15.969
   6323SM  C11F 8145   5.128   5.951  15.915
   6323SM  H11F 8146   5.113   6.045  15.973
   6323SM  H11G 8147   5.033   5.893  15.919
   6323SM  C12F 8148   5.161   5.988  15.770
   6323SM  H12F 8149   5.167   5.895  15.709
   6323SM  H12G 8150   5.261   6.036  15.768
   6323SM  C13F 8151   5.060   6.084  15.706
   6323SM  H13F 8152   5.044   6.172  15.772
   6323SM  H13G 8153   4.963   6.031  15.698
   6323SM  C14F 8154   5.108   6.133  15.569
   6323SM  H14F 8155   5.152   6.047  15.514
   6323SM  H14G 8156   5.191   6.206  15.583
   6323SM  C15F 8157   4.999   6.196  15.481
   6323SM  H15F 8158   5.044   6.226  15.384
   6323SM  H15G 8159   4.961   6.288  15.530
   6323SM  C16F 8160   4.878   6.103  15.452
   6323SM  H16F 8161   4.816   6.149  15.373
   6323SM  H16G 8162   4.816   6.099  15.544
   6323SM  C17F 8163   4.915   5.959  15.411
   6323SM  H17F 8164   4.822   5.899  15.401
   6323SM  H17G 8165   4.975   5.912  15.492
   6323SM  C18F 8166   4.993   5.951  15.280
   6323SM  H18F 8167   5.064   6.036  15.272
   6323SM  H18G 8168   4.922   5.958  15.195
   6323SM  C19F 8169   5.076   5.822  15.267
   6323SM  H19F 8170   5.011   5.734  15.282
   6323SM  H19G 8171   5.153   5.822  15.347
   6323SM  C20F 8172   5.144   5.813  15.130
   6323SM  H20F 8173   5.192   5.911  15.107
   6323SM  H20G 8174   5.067   5.794  15.053
   6323SM  C21F 8175   5.252   5.704  15.122
   6323SM  H21F 8176   5.339   5.733  15.185
   6323SM  H21G 8177   5.287   5.700  15.016
   6323SM  C22F 8178   5.205   5.565  15.163
   6323SM  H22F 8179   5.107   5.544  15.114
   6323SM  H22G 8180   5.188   5.564  15.273
   6323SM  C23F 8181   5.304   5.454  15.126
   6323SM  H23F 8182   5.312   5.443  15.016
   6323SM  H23G 8183   5.270   5.356  15.168
   6323SM  H23H 8184   5.405   5.477  15.166
   6423SM     N 8185   6.019   4.172  17.763
   6423SM   C15 8186   5.918   4.061  17.770
   6423SM  H15A 8187   5.835   4.083  17.705
   6423SM  H15B 8188   5.882   4.045  17.871
   6423SM  H15C 8189   5.960   3.968  17.734
   6423SM   C14 8190   5.951   4.298  17.806
   6423SM  H14A 8191   5.872   4.320  17.736
   6423SM  H14B 8192   6.020   4.381  17.807
   6423SM  H14C 8193   5.907   4.288  17.904
   6423SM   C13 8194   6.132   4.139  17.856
   6423SM  H13A 8195   6.095   4.122  17.956
   6423SM  H13B 8196   6.204   4.219  17.859
   6423SM  H13C 8197   6.182   4.049  17.825
   6423SM   C12 8198   6.071   4.186  17.621
   6423SM  H12A 8199   6.095   4.088  17.584
   6423SM  H12B 8200   6.164   4.242  17.621
   6423SM   C11 8201   5.979   4.250  17.513
   6423SM  H11A 8202   6.033   4.253  17.416
   6423SM  H11B 8203   5.958   4.356  17.540
   6423SM     P 8204   5.851   4.037  17.435
   6423SM   O13 8205   5.984   3.974  17.453
   6423SM   O14 8206   5.735   3.966  17.492
   6423SM   O11 8207   5.830   4.065  17.281
   6423SM   O12 8208   5.855   4.181  17.500
   6423SM   C1S 8209   5.774   4.185  17.228
   6423SM   H1S 8210   5.826   4.274  17.268
   6423SM   H1T 8211   5.666   4.193  17.253
   6423SM    NF 8212   5.746   4.312  17.011
   6423SM   HNF 8213   5.667   4.305  16.950
   6423SM   C2S 8214   5.790   4.186  17.072
   6423SM   H2S 8215   5.898   4.174  17.050
   6423SM   C3S 8216   5.713   4.065  17.011
   6423SM   H3S 8217   5.606   4.075  17.036
   6423SM    O3 8218   5.755   3.938  17.060
   6423SM   HO3 8219   5.798   3.958  17.144
   6423SM   C4S 8220   5.731   4.065  16.862
   6423SM   H4S 8221   5.834   4.042  16.830
   6423SM   C5S 8222   5.635   4.086  16.770
   6423SM   H5S 8223   5.532   4.102  16.803
   6423SM   C6S 8224   5.655   4.086  16.620
   6423SM   H6S 8225   5.602   4.174  16.578
   6423SM   H6T 8226   5.607   3.996  16.576
   6423SM   C7S 8227   5.800   4.089  16.569
   6423SM   H7S 8228   5.856   4.003  16.611
   6423SM   H7T 8229   5.850   4.182  16.605
   6423SM   C8S 8230   5.812   4.082  16.416
   6423SM   H8S 8231   5.773   3.984  16.382
   6423SM   H8T 8232   5.919   4.087  16.388
   6423SM   C9S 8233   5.736   4.193  16.342
   6423SM   H9S 8234   5.764   4.292  16.383
   6423SM   H9T 8235   5.627   4.179  16.358
   6423SM  C10S 8236   5.763   4.192  16.191
   6423SM  H10S 8237   5.749   4.089  16.153
   6423SM  H10T 8238   5.868   4.221  16.172
   6423SM  C11S 8239   5.668   4.285  16.113
   6423SM  H11S 8240   5.680   4.390  16.149
   6423SM  H11T 8241   5.564   4.255  16.134
   6423SM  C12S 8242   5.693   4.279  15.962
   6423SM  H12S 8243   5.692   4.173  15.930
   6423SM  H12T 8244   5.794   4.320  15.940
   6423SM  C13S 8245   5.588   4.355  15.880
   6423SM  H13S 8246   5.588   4.462  15.911
   6423SM  H13T 8247   5.487   4.314  15.902
   6423SM  C14S 8248   5.615   4.346  15.730
   6423SM  H14S 8249   5.621   4.238  15.702
   6423SM  H14T 8250   5.714   4.391  15.708
   6423SM  C15S 8251   5.509   4.415  15.643
   6423SM  H15S 8252   5.500   4.520  15.676
   6423SM  H15T 8253   5.410   4.366  15.660
   6423SM  C16S 8254   5.542   4.413  15.493
   6423SM  H16S 8255   5.642   4.460  15.478
   6423SM  H16T 8256   5.467   4.473  15.439
   6423SM  C17S 8257   5.545   4.272  15.432
   6423SM  H17S 8258   5.446   4.224  15.449
   6423SM  H17T 8259   5.621   4.210  15.485
   6423SM  C18S 8260   5.576   4.270  15.282
   6423SM  H18S 8261   5.502   4.331  15.226
   6423SM  H18T 8262   5.574   4.167  15.243
   6423SM  H18U 8263   5.677   4.313  15.263
   6423SM   C1F 8264   5.812   4.427  17.020
   6423SM    OF 8265   5.892   4.448  17.110
   6423SM   C2F 8266   5.779   4.531  16.917
   6423SM   H2F 8267   5.732   4.617  16.969
   6423SM   H2G 8268   5.707   4.490  16.844
   6423SM   C3F 8269   5.905   4.582  16.841
   6423SM   H3F 8270   5.980   4.619  16.914
   6423SM   H3G 8271   5.874   4.668  16.778
   6423SM   C4F 8272   5.972   4.478  16.749
   6423SM   H4F 8273   5.896   4.435  16.680
   6423SM   H4G 8274   6.013   4.395  16.810
   6423SM   C5F 8275   6.086   4.540  16.666
   6423SM   H5F 8276   6.159   4.586  16.736
   6423SM   H5G 8277   6.045   4.621  16.602
   6423SM   C6F 8278   6.163   4.440  16.576
   6423SM   H6F 8279   6.203   4.358  16.638
   6423SM   H6G 8280   6.249   4.494  16.531
   6423SM   C7F 8281   6.079   4.381  16.461
   6423SM   H7F 8282   6.032   4.462  16.402
   6423SM   H7G 8283   5.997   4.321  16.506
   6423SM   C8F 8284   6.159   4.288  16.368
   6423SM   H8F 8285   6.089   4.222  16.314
   6423SM   H8G 8286   6.225   4.223  16.430
   6423SM   C9F 8287   6.245   4.360  16.262
   6423SM   H9F 8288   6.311   4.284  16.214
   6423SM   H9G 8289   6.310   4.435  16.310
   6423SM  C10F 8290   6.161   4.426  16.151
   6423SM  H10F 8291   6.105   4.511  16.196
   6423SM  H10G 8292   6.087   4.353  16.113
   6423SM  C11F 8293   6.244   4.481  16.033
   6423SM  H11F 8294   6.330   4.537  16.076
   6423SM  H11G 8295   6.183   4.554  15.976
   6423SM  C12F 8296   6.297   4.375  15.935
   6423SM  H12F 8297   6.312   4.278  15.987
   6423SM  H12G 8298   6.397   4.409  15.900
   6423SM  C13F 8299   6.210   4.354  15.809
   6423SM  H13F 8300   6.268   4.292  15.737
   6423SM  H13G 8301   6.192   4.452  15.761
   6423SM  C14F 8302   6.076   4.285  15.836
   6423SM  H14F 8303   6.020   4.345  15.911
   6423SM  H14G 8304   6.095   4.185  15.881
   6423SM  C15F 8305   5.985   4.270  15.713
   6423SM  H15F 8306   5.963   4.370  15.671
   6423SM  H15G 8307   5.889   4.226  15.747
   6423SM  C16F 8308   6.040   4.180  15.601
   6423SM  H16F 8309   6.076   4.084  15.646
   6423SM  H16G 8310   6.127   4.230  15.553
   6423SM  C17F 8311   5.932   4.148  15.496
   6423SM  H17F 8312   5.894   4.242  15.453
   6423SM  H17G 8313   5.847   4.098  15.548
   6423SM  C18F 8314   5.979   4.054  15.383
   6423SM  H18F 8315   5.891   4.027  15.321
   6423SM  H18G 8316   6.019   3.961  15.428
   6423SM  C19F 8317   6.087   4.114  15.290
   6423SM  H19F 8318   6.114   4.037  15.215
   6423SM  H19G 8319   6.178   4.138  15.348
   6423SM  C20F 8320   6.041   4.240  15.215
   6423SM  H20F 8321   6.023   4.322  15.288
   6423SM  H20G 8322   5.944   4.219  15.164
   6423SM  C21F 8323   6.143   4.287  15.111
   6423SM  H21F 8324   6.157   4.208  15.034
   6423SM  H21G 8325   6.241   4.303  15.161
   6423SM  C22F 8326   6.102   4.418  15.041
   6423SM  H22F 8327   6.089   4.497  15.118
   6423SM  H22G 8328   6.004   4.403  14.992
   6423SM  C23F 8329   6.204   4.465  14.937
   6423SM  H23F 8330   6.303   4.482  14.985
   6423SM  H23G 8331   6.171   4.560  14.891
   6423SM  H23H 8332   6.216   4.389  14.857
   6523SM     N 8333   5.916   4.850  17.750
   6523SM   C15 8334   5.794   4.890  17.673
   6523SM  H15A 8335   5.711   4.825  17.695
   6523SM  H15B 8336   5.814   4.880  17.568
   6523SM  H15C 8337   5.768   4.993  17.691
   6523SM   C14 8338   5.893   4.866  17.897
   6523SM  H14A 8339   5.809   4.806  17.929
   6523SM  H14B 8340   5.872   4.969  17.922
   6523SM  H14C 8341   5.980   4.834  17.952
   6523SM   C13 8342   5.941   4.705  17.721
   6523SM  H13A 8343   6.025   4.668  17.778
   6523SM  H13B 8344   5.962   4.692  17.616
   6523SM  H13C 8345   5.854   4.646  17.744
   6523SM   C12 8346   6.036   4.934  17.707
   6523SM  H12A 8347   6.115   4.919  17.779
   6523SM  H12B 8348   6.008   5.038  17.708
   6523SM   C11 8349   6.096   4.908  17.566
   6523SM  H11A 8350   6.135   4.804  17.562
   6523SM  H11B 8351   6.184   4.974  17.551
   6523SM     P 8352   5.958   5.073  17.417
   6523SM   O13 8353   5.832   5.062  17.341
   6523SM   O14 8354   5.959   5.160  17.537
   6523SM   O11 8355   6.080   5.107  17.323
   6523SM   O12 8356   6.000   4.926  17.462
   6523SM   C1S 8357   6.100   5.239  17.269
   6523SM   H1S 8358   6.204   5.270  17.291
   6523SM   H1T 8359   6.034   5.316  17.315
   6523SM    NF 8360   5.940   5.247  17.084
   6523SM   HNF 8361   5.892   5.160  17.081
   6523SM   C2S 8362   6.081   5.241  17.114
   6523SM   H2S 8363   6.130   5.334  17.076
   6523SM   C3S 8364   6.152   5.118  17.049
   6523SM   H3S 8365   6.095   5.026  17.076
   6523SM    O3 8366   6.285   5.094  17.096
   6523SM   HO3 8367   6.286   5.135  17.182
   6523SM   C4S 8368   6.146   5.134  16.898
   6523SM   H4S 8369   6.053   5.093  16.855
   6523SM   C5S 8370   6.237   5.189  16.815
   6523SM   H5S 8371   6.330   5.229  16.858
   6523SM   C6S 8372   6.225   5.202  16.665
   6523SM   H6S 8373   6.310   5.149  16.616
   6523SM   H6T 8374   6.235   5.309  16.636
   6523SM   C7S 8375   6.094   5.150  16.601
   6523SM   H7S 8376   6.008   5.202  16.649
   6523SM   H7T 8377   6.083   5.041  16.620
   6523SM   C8S 8378   6.085   5.175  16.449
   6523SM   H8S 8379   6.106   5.282  16.428
   6523SM   H8T 8380   5.981   5.154  16.417
   6523SM   C9S 8381   6.178   5.088  16.364
   6523SM   H9S 8382   6.163   4.981  16.391
   6523SM   H9T 8383   6.284   5.114  16.386
   6523SM  C10S 8384   6.152   5.105  16.214
   6523SM  H10S 8385   6.176   5.210  16.185
   6523SM  H10T 8386   6.045   5.088  16.192
   6523SM  C11S 8387   6.236   5.009  16.127
   6523SM  H11S 8388   6.210   4.904  16.153
   6523SM  H11T 8389   6.343   5.025  16.152
   6523SM  C12S 8390   6.216   5.030  15.977
   6523SM  H12S 8391   6.236   5.136  15.951
   6523SM  H12T 8392   6.109   5.010  15.951
   6523SM  C13S 8393   6.308   4.940  15.893
   6523SM  H13S 8394   6.290   4.834  15.920
   6523SM  H13T 8395   6.413   4.964  15.919
   6523SM  C14S 8396   6.291   4.956  15.741
   6523SM  H14S 8397   6.369   4.895  15.691
   6523SM  H14T 8398   6.308   5.062  15.712
   6523SM  C15S 8399   6.154   4.909  15.689
   6523SM  H15S 8400   6.076   4.984  15.714
   6523SM  H15T 8401   6.127   4.814  15.741
   6523SM  C16S 8402   6.152   4.881  15.537
   6523SM  H16S 8403   6.052   4.840  15.509
   6523SM  H16T 8404   6.227   4.802  15.515
   6523SM  C17S 8405   6.182   5.004  15.451
   6523SM  H17S 8406   6.280   5.047  15.480
   6523SM  H17T 8407   6.104   5.081  15.470
   6523SM  C18S 8408   6.185   4.972  15.301
   6523SM  H18S 8409   6.267   4.899  15.279
   6523SM  H18T 8410   6.203   5.064  15.241
   6523SM  H18U 8411   6.089   4.926  15.268
   6523SM   C1F 8412   5.869   5.359  17.103
   6523SM    OF 8413   5.923   5.465  17.130
   6523SM   C2F 8414   5.720   5.343  17.101
   6523SM   H2F 8415   5.676   5.415  17.173
   6523SM   H2G 8416   5.694   5.240  17.135
   6523SM   C3F 8417   5.657   5.367  16.961
   6523SM   H3F 8418   5.676   5.472  16.929
   6523SM   H3G 8419   5.548   5.356  16.973
   6523SM   C4F 8420   5.704   5.271  16.850
   6523SM   H4F 8421   5.710   5.168  16.891
   6523SM   H4G 8422   5.805   5.300  16.816
   6523SM   C5F 8423   5.607   5.269  16.731
   6523SM   H5F 8424   5.591   5.373  16.695
   6523SM   H5G 8425   5.509   5.231  16.768
   6523SM   C6F 8426   5.651   5.180  16.614
   6523SM   H6F 8427   5.562   5.131  16.569
   6523SM   H6G 8428   5.716   5.099  16.653
   6523SM   C7F 8429   5.725   5.256  16.502
   6523SM   H7F 8430   5.767   5.181  16.431
   6523SM   H7G 8431   5.810   5.311  16.546
   6523SM   C8F 8432   5.639   5.354  16.419
   6523SM   H8F 8433   5.706   5.403  16.345
   6523SM   H8G 8434   5.600   5.434  16.486
   6523SM   C9F 8435   5.521   5.291  16.343
   6523SM   H9F 8436   5.469   5.372  16.288
   6523SM   H9G 8437   5.448   5.248  16.415
   6523SM  C10F 8438   5.563   5.183  16.241
   6523SM  H10F 8439   5.605   5.096  16.295
   6523SM  H10G 8440   5.642   5.225  16.176
   6523SM  C11F 8441   5.446   5.135  16.153
   6523SM  H11F 8442   5.410   5.221  16.091
   6523SM  H11G 8443   5.362   5.105  16.218
   6523SM  C12F 8444   5.481   5.017  16.061
   6523SM  H12F 8445   5.392   4.990  16.000
   6523SM  H12G 8446   5.504   4.929  16.125
   6523SM  C13F 8447   5.600   5.039  15.966
   6523SM  H13F 8448   5.623   4.944  15.913
   6523SM  H13G 8449   5.690   5.066  16.025
   6523SM  C14F 8450   5.577   5.148  15.860
   6523SM  H14F 8451   5.537   5.239  15.910
   6523SM  H14G 8452   5.500   5.114  15.787
   6523SM  C15F 8453   5.705   5.190  15.786
   6523SM  H15F 8454   5.781   5.218  15.862
   6523SM  H15G 8455   5.684   5.281  15.725
   6523SM  C16F 8456   5.766   5.083  15.693
   6523SM  H16F 8457   5.777   4.987  15.747
   6523SM  H16G 8458   5.868   5.117  15.665
   6523SM  C17F 8459   5.687   5.061  15.563
   6523SM  H17F 8460   5.671   5.160  15.515
   6523SM  H17G 8461   5.588   5.018  15.586
   6523SM  C18F 8462   5.761   4.970  15.464
   6523SM  H18F 8463   5.773   4.869  15.509
   6523SM  H18G 8464   5.863   5.012  15.447
   6523SM  C19F 8465   5.690   4.960  15.328
   6523SM  H19F 8466   5.672   5.063  15.291
   6523SM  H19G 8467   5.591   4.911  15.342
   6523SM  C20F 8468   5.771   4.884  15.221
   6523SM  H20F 8469   5.873   4.928  15.219
   6523SM  H20G 8470   5.725   4.903  15.121
   6523SM  C21F 8471   5.781   4.732  15.244
   6523SM  H21F 8472   5.807   4.714  15.350
   6523SM  H21G 8473   5.865   4.692  15.183
   6523SM  C22F 8474   5.654   4.654  15.207
   6523SM  H22F 8475   5.566   4.702  15.254
   6523SM  H22G 8476   5.663   4.552  15.250
   6523SM  C23F 8477   5.630   4.640  15.056
   6523SM  H23F 8478   5.620   4.739  15.008
   6523SM  H23G 8479   5.537   4.582  15.037
   6523SM  H23H 8480   5.715   4.587  15.008
   6623SM     N 8481   4.540   2.122  17.777
   6623SM   C15 8482   4.608   2.252  17.744
   6623SM  H15A 8483   4.708   2.238  17.707
   6623SM  H15B 8484   4.612   2.317  17.830
   6623SM  H15C 8485   4.552   2.303  17.667
   6623SM   C14 8486   4.610   2.054  17.891
   6623SM  H14A 8487   4.712   2.029  17.865
   6623SM  H14B 8488   4.558   1.963  17.918
   6623SM  H14C 8489   4.611   2.117  17.978
   6623SM   C13 8490   4.400   2.151  17.819
   6623SM  H13A 8491   4.348   2.204  17.740
   6623SM  H13B 8492   4.395   2.212  17.908
   6623SM  H13C 8493   4.346   2.059  17.836
   6623SM   C12 8494   4.539   2.031  17.655
   6623SM  H12A 8495   4.476   1.946  17.678
   6623SM  H12B 8496   4.639   1.993  17.639
   6623SM   C11 8497   4.490   2.089  17.519
   6623SM  H11A 8498   4.516   2.015  17.440
   6623SM  H11B 8499   4.548   2.181  17.494
   6623SM     P 8500   4.279   2.247  17.486
   6623SM   O13 8501   4.146   2.215  17.430
   6623SM   O14 8502   4.283   2.330  17.608
   6623SM   O11 8503   4.374   2.310  17.377
   6623SM   O12 8504   4.349   2.108  17.518
   6623SM   C1S 8505   4.377   2.255  17.245
   6623SM   H1S 8506   4.281   2.209  17.215
   6623SM   H1T 8507   4.454   2.175  17.241
   6623SM    NF 8508   4.300   2.375  17.045
   6623SM   HNF 8509   4.307   2.328  16.957
   6623SM   C2S 8510   4.412   2.364  17.137
   6623SM   H2S 8511   4.426   2.461  17.188
   6623SM   C3S 8512   4.545   2.324  17.069
   6623SM   H3S 8513   4.539   2.217  17.039
   6623SM    O3 8514   4.659   2.336  17.154
   6623SM   HO3 8515   4.625   2.360  17.240
   6623SM   C4S 8516   4.567   2.408  16.946
   6623SM   H4S 8517   4.557   2.516  16.961
   6623SM   C5S 8518   4.597   2.359  16.824
   6623SM   H5S 8519   4.612   2.250  16.811
   6623SM   C6S 8520   4.617   2.440  16.698
   6623SM   H6S 8521   4.726   2.450  16.676
   6623SM   H6T 8522   4.573   2.541  16.707
   6623SM   C7S 8523   4.550   2.365  16.581
   6623SM   H7S 8524   4.444   2.346  16.604
   6623SM   H7T 8525   4.600   2.267  16.567
   6623SM   C8S 8526   4.557   2.441  16.448
   6623SM   H8S 8527   4.660   2.477  16.431
   6623SM   H8T 8528   4.489   2.529  16.454
   6623SM   C9S 8529   4.515   2.352  16.330
   6623SM   H9S 8530   4.418   2.303  16.354
   6623SM   H9T 8531   4.590   2.272  16.316
   6623SM  C10S 8532   4.498   2.430  16.199
   6623SM  H10S 8533   4.596   2.473  16.169
   6623SM  H10T 8534   4.428   2.514  16.215
   6623SM  C11S 8535   4.444   2.342  16.085
   6623SM  H11S 8536   4.345   2.302  16.114
   6623SM  H11T 8537   4.513   2.256  16.070
   6623SM  C12S 8538   4.431   2.420  15.954
   6623SM  H12S 8539   4.532   2.457  15.925
   6623SM  H12T 8540   4.366   2.508  15.969
   6623SM  C13S 8541   4.375   2.335  15.839
   6623SM  H13S 8542   4.270   2.306  15.861
   6623SM  H13T 8543   4.435   2.242  15.828
   6623SM  C14S 8544   4.381   2.413  15.706
   6623SM  H14S 8545   4.487   2.439  15.687
   6623SM  H14T 8546   4.324   2.508  15.718
   6623SM  C15S 8547   4.326   2.335  15.586
   6623SM  H15S 8548   4.215   2.332  15.590
   6623SM  H15T 8549   4.363   2.230  15.591
   6623SM  C16S 8550   4.373   2.395  15.452
   6623SM  H16S 8551   4.333   2.334  15.368
   6623SM  H16T 8552   4.484   2.388  15.448
   6623SM  C17S 8553   4.332   2.541  15.430
   6623SM  H17S 8554   4.360   2.601  15.520
   6623SM  H17T 8555   4.222   2.546  15.419
   6623SM  C18S 8556   4.400   2.604  15.308
   6623SM  H18S 8557   4.371   2.711  15.299
   6623SM  H18T 8558   4.371   2.551  15.215
   6623SM  H18U 8559   4.510   2.599  15.319
   6623SM   C1F 8560   4.187   2.438  17.077
   6623SM    OF 8561   4.183   2.519  17.168
   6623SM   C2F 8562   4.066   2.404  16.995
   6623SM   H2F 8563   3.982   2.381  17.064
   6623SM   H2G 8564   4.086   2.314  16.934
   6623SM   C3F 8565   4.024   2.521  16.903
   6623SM   H3F 8566   3.989   2.605  16.966
   6623SM   H3G 8567   3.936   2.488  16.843
   6623SM   C4F 8568   4.133   2.574  16.807
   6623SM   H4F 8569   4.213   2.622  16.867
   6623SM   H4G 8570   4.089   2.653  16.744
   6623SM   C5F 8571   4.199   2.469  16.716
   6623SM   H5F 8572   4.254   2.394  16.776
   6623SM   H5G 8573   4.275   2.520  16.653
   6623SM   C6F 8574   4.101   2.396  16.623
   6623SM   H6F 8575   4.040   2.471  16.568
   6623SM   H6G 8576   4.032   2.333  16.684
   6623SM   C7F 8577   4.174   2.308  16.520
   6623SM   H7F 8578   4.238   2.234  16.573
   6623SM   H7G 8579   4.240   2.372  16.458
   6623SM   C8F 8580   4.077   2.232  16.429
   6623SM   H8F 8581   4.014   2.307  16.375
   6623SM   H8G 8582   4.010   2.170  16.493
   6623SM   C9F 8583   4.143   2.139  16.326
   6623SM   H9F 8584   4.203   2.062  16.379
   6623SM   H9G 8585   4.211   2.198  16.262
   6623SM  C10F 8586   4.036   2.071  16.240
   6623SM  H10F 8587   3.981   2.149  16.183
   6623SM  H10G 8588   3.963   2.020  16.306
   6623SM  C11F 8589   4.090   1.967  16.140
   6623SM  H11F 8590   4.004   1.915  16.093
   6623SM  H11G 8591   4.150   1.891  16.194
   6623SM  C12F 8592   4.174   2.030  16.027
   6623SM  H12F 8593   4.268   2.071  16.069
   6623SM  H12G 8594   4.117   2.116  15.984
   6623SM  C13F 8595   4.207   1.933  15.913
   6623SM  H13F 8596   4.264   1.990  15.837
   6623SM  H13G 8597   4.113   1.898  15.865
   6623SM  C14F 8598   4.290   1.811  15.959
   6623SM  H14F 8599   4.228   1.748  16.026
   6623SM  H14G 8600   4.377   1.847  16.018
   6623SM  C15F 8601   4.340   1.723  15.843
   6623SM  H15F 8602   4.253   1.676  15.793
   6623SM  H15G 8603   4.401   1.640  15.885
   6623SM  C16F 8604   4.424   1.796  15.736
   6623SM  H16F 8605   4.360   1.870  15.684
   6623SM  H16G 8606   4.455   1.721  15.659
   6623SM  C17F 8607   4.549   1.867  15.791
   6623SM  H17F 8608   4.621   1.791  15.828
   6623SM  H17G 8609   4.520   1.931  15.877
   6623SM  C18F 8610   4.618   1.958  15.688
   6623SM  H18F 8611   4.706   2.007  15.736
   6623SM  H18G 8612   4.547   2.039  15.659
   6623SM  C19F 8613   4.665   1.885  15.562
   6623SM  H19F 8614   4.577   1.842  15.509
   6623SM  H19G 8615   4.731   1.800  15.592
   6623SM  C20F 8616   4.743   1.974  15.463
   6623SM  H20F 8617   4.771   1.913  15.375
   6623SM  H20G 8618   4.837   2.008  15.511
   6623SM  C21F 8619   4.666   2.099  15.414
   6623SM  H21F 8620   4.728   2.150  15.338
   6623SM  H21G 8621   4.655   2.170  15.499
   6623SM  C22F 8622   4.527   2.072  15.355
   6623SM  H22F 8623   4.485   2.168  15.319
   6623SM  H22G 8624   4.460   2.035  15.435
   6623SM  C23F 8625   4.524   1.972  15.238
   6623SM  H23F 8626   4.421   1.962  15.198
   6623SM  H23G 8627   4.559   1.872  15.271
   6623SM  H23H 8628   4.590   2.007  15.156
   6723SM     N 8629   3.733   6.514  17.767
   6723SM   C15 8630   3.721   6.660  17.798
   6723SM  H15A 8631   3.818   6.702  17.821
   6723SM  H15B 8632   3.656   6.678  17.883
   6723SM  H15C 8633   3.681   6.712  17.713
   6723SM   C14 8634   3.827   6.498  17.652
   6723SM  H14A 8635   3.784   6.543  17.563
   6723SM  H14B 8636   3.843   6.394  17.629
   6723SM  H14C 8637   3.923   6.543  17.673
   6723SM   C13 8638   3.795   6.443  17.884
   6723SM  H13A 8639   3.895   6.481  17.901
   6723SM  H13B 8640   3.804   6.337  17.865
   6723SM  H13C 8641   3.737   6.457  17.975
   6723SM   C12 8642   3.598   6.453  17.732
   6723SM  H12A 8643   3.532   6.459  17.818
   6723SM  H12B 8644   3.612   6.348  17.710
   6723SM   C11 8645   3.523   6.511  17.609
   6723SM  H11A 8646   3.510   6.620  17.621
   6723SM  H11B 8647   3.421   6.467  17.604
   6723SM     P 8648   3.599   6.338  17.428
   6723SM   O13 8649   3.725   6.322  17.353
   6723SM   O14 8650   3.575   6.242  17.538
   6723SM   O11 8651   3.476   6.334  17.328
   6723SM   O12 8652   3.594   6.485  17.488
   6723SM   C1S 8653   3.415   6.451  17.272
   6723SM   H1S 8654   3.449   6.545  17.321
   6723SM   H1T 8655   3.305   6.446  17.288
   6723SM    NF 8656   3.407   6.597  17.072
   6723SM   HNF 8657   3.330   6.607  17.010
   6723SM   C2S 8658   3.441   6.463  17.119
   6723SM   H2S 8659   3.549   6.446  17.101
   6723SM   C3S 8660   3.360   6.353  17.044
   6723SM   H3S 8661   3.252   6.370  17.063
   6723SM    O3 8662   3.388   6.221  17.089
   6723SM   HO3 8663   3.433   6.233  17.173
   6723SM   C4S 8664   3.387   6.358  16.896
   6723SM   H4S 8665   3.487   6.324  16.868
   6723SM   C5S 8666   3.300   6.399  16.801
   6723SM   H5S 8667   3.199   6.430  16.831
   6723SM   C6S 8668   3.326   6.404  16.652
   6723SM   H6S 8669   3.357   6.507  16.624
   6723SM   H6T 8670   3.231   6.385  16.599
   6723SM   C7S 8671   3.431   6.306  16.597
   6723SM   H7S 8672   3.394   6.202  16.608
   6723SM   H7T 8673   3.526   6.314  16.655
   6723SM   C8S 8674   3.468   6.330  16.449
   6723SM   H8S 8675   3.541   6.253  16.417
   6723SM   H8T 8676   3.519   6.428  16.441
   6723SM   C9S 8677   3.349   6.330  16.351
   6723SM   H9S 8678   3.280   6.412  16.380
   6723SM   H9T 8679   3.294   6.234  16.357
   6723SM  C10S 8680   3.393   6.355  16.206
   6723SM  H10S 8681   3.470   6.435  16.205
   6723SM  H10T 8682   3.307   6.391  16.147
   6723SM  C11S 8683   3.451   6.231  16.135
   6723SM  H11S 8684   3.375   6.150  16.133
   6723SM  H11T 8685   3.538   6.194  16.192
   6723SM  C12S 8686   3.495   6.261  15.991
   6723SM  H12S 8687   3.571   6.342  15.994
   6723SM  H12T 8688   3.409   6.298  15.931
   6723SM  C13S 8689   3.556   6.138  15.923
   6723SM  H13S 8690   3.477   6.064  15.899
   6723SM  H13T 8691   3.625   6.090  15.996
   6723SM  C14S 8692   3.639   6.169  15.797
   6723SM  H14S 8693   3.704   6.081  15.777
   6723SM  H14T 8694   3.707   6.255  15.817
   6723SM  C15S 8695   3.557   6.195  15.670
   6723SM  H15S 8696   3.502   6.291  15.679
   6723SM  H15T 8697   3.483   6.114  15.658
   6723SM  C16S 8698   3.648   6.199  15.546
   6723SM  H16S 8699   3.707   6.104  15.542
   6723SM  H16T 8700   3.720   6.282  15.556
   6723SM  C17S 8701   3.571   6.213  15.414
   6723SM  H17S 8702   3.514   6.308  15.416
   6723SM  H17T 8703   3.497   6.130  15.407
   6723SM  C18S 8704   3.662   6.210  15.291
   6723SM  H18S 8705   3.736   6.293  15.295
   6723SM  H18T 8706   3.602   6.220  15.198
   6723SM  H18U 8707   3.718   6.114  15.286
   6723SM   C1F 8708   3.478   6.706  17.104
   6723SM    OF 8709   3.577   6.699  17.176
   6723SM   C2F 8710   3.430   6.837  17.050
   6723SM   H2F 8711   3.446   6.915  17.128
   6723SM   H2G 8712   3.322   6.832  17.027
   6723SM   C3F 8713   3.509   6.877  16.923
   6723SM   H3F 8714   3.618   6.881  16.945
   6723SM   H3G 8715   3.479   6.980  16.894
   6723SM   C4F 8716   3.485   6.784  16.803
   6723SM   H4F 8717   3.376   6.783  16.779
   6723SM   H4G 8718   3.515   6.680  16.829
   6723SM   C5F 8719   3.563   6.827  16.679
   6723SM   H5F 8720   3.672   6.825  16.702
   6723SM   H5G 8721   3.538   6.933  16.655
   6723SM   C6F 8722   3.535   6.739  16.557
   6723SM   H6F 8723   3.427   6.743  16.534
   6723SM   H6G 8724   3.561   6.633  16.581
   6723SM   C7F 8725   3.616   6.785  16.435
   6723SM   H7F 8726   3.724   6.773  16.457
   6723SM   H7G 8727   3.597   6.893  16.421
   6723SM   C8F 8728   3.583   6.710  16.305
   6723SM   H8F 8729   3.608   6.602  16.315
   6723SM   H8G 8730   3.650   6.751  16.225
   6723SM   C9F 8731   3.437   6.726  16.259
   6723SM   H9F 8732   3.402   6.829  16.283
   6723SM   H9G 8733   3.374   6.654  16.315
   6723SM  C10F 8734   3.421   6.704  16.108
   6723SM  H10F 8735   3.474   6.612  16.078
   6723SM  H10G 8736   3.469   6.789  16.055
   6723SM  C11F 8737   3.274   6.693  16.064
   6723SM  H11F 8738   3.220   6.786  16.089
   6723SM  H11G 8739   3.227   6.610  16.121
   6723SM  C12F 8740   3.260   6.663  15.914
   6723SM  H12F 8741   3.155   6.633  15.892
   6723SM  H12G 8742   3.324   6.576  15.888
   6723SM  C13F 8743   3.294   6.783  15.825
   6723SM  H13F 8744   3.397   6.818  15.848
   6723SM  H13G 8745   3.224   6.866  15.850
   6723SM  C14F 8746   3.285   6.753  15.675
   6723SM  H14F 8747   3.290   6.849  15.621
   6723SM  H14G 8748   3.187   6.707  15.652
   6723SM  C15F 8749   3.398   6.662  15.623
   6723SM  H15F 8750   3.357   6.563  15.596
   6723SM  H15G 8751   3.474   6.647  15.703
   6723SM  C16F 8752   3.468   6.724  15.501
   6723SM  H16F 8753   3.515   6.820  15.531
   6723SM  H16G 8754   3.391   6.746  15.424
   6723SM  C17F 8755   3.576   6.633  15.439
   6723SM  H17F 8756   3.529   6.541  15.398
   6723SM  H17G 8757   3.647   6.602  15.519
   6723SM  C18F 8758   3.656   6.703  15.327
   6723SM  H18F 8759   3.743   6.640  15.298
   6723SM  H18G 8760   3.697   6.798  15.369
   6723SM  C19F 8761   3.575   6.736  15.201
   6723SM  H19F 8762   3.627   6.816  15.144
   6723SM  H19G 8763   3.476   6.778  15.231
   6723SM  C20F 8764   3.554   6.616  15.108
   6723SM  H20F 8765   3.546   6.523  15.169
   6723SM  H20G 8766   3.643   6.605  15.043
   6723SM  C21F 8767   3.427   6.626  15.021
   6723SM  H21F 8768   3.338   6.617  15.087
   6723SM  H21G 8769   3.425   6.541  14.950
   6723SM  C22F 8770   3.415   6.757  14.941
   6723SM  H22F 8771   3.504   6.767  14.875
   6723SM  H22G 8772   3.416   6.843  15.011
   6723SM  C23F 8773   3.288   6.764  14.857
   6723SM  H23F 8774   3.283   6.860  14.801
   6723SM  H23G 8775   3.198   6.758  14.923
   6723SM  H23H 8776   3.284   6.681  14.785
   6823SM     N 8777   3.716   1.546  17.700
   6823SM   C15 8778   3.659   1.642  17.801
   6823SM  H15A 8779   3.590   1.593  17.867
   6823SM  H15B 8780   3.605   1.720  17.750
   6823SM  H15C 8781   3.737   1.689  17.860
   6823SM   C14 8782   3.778   1.428  17.767
   6823SM  H14A 8783   3.817   1.360  17.693
   6823SM  H14B 8784   3.705   1.374  17.826
   6823SM  H14C 8785   3.859   1.457  17.833
   6823SM   C13 8786   3.603   1.497  17.614
   6823SM  H13A 8787   3.557   1.580  17.564
   6823SM  H13B 8788   3.526   1.448  17.673
   6823SM  H13C 8789   3.639   1.429  17.538
   6823SM   C12 8790   3.819   1.615  17.612
   6823SM  H12A 8791   3.844   1.548  17.531
   6823SM  H12B 8792   3.910   1.630  17.669
   6823SM   C11 8793   3.783   1.753  17.550
   6823SM  H11A 8794   3.867   1.785  17.485
   6823SM  H11B 8795   3.777   1.827  17.632
   6823SM     P 8796   3.539   1.840  17.502
   6823SM   O13 8797   3.440   1.756  17.572
   6823SM   O14 8798   3.586   1.962  17.570
   6823SM   O11 8799   3.484   1.873  17.357
   6823SM   O12 8800   3.664   1.746  17.470
   6823SM   C1S 8801   3.489   1.769  17.258
   6823SM   H1S 8802   3.457   1.671  17.301
   6823SM   H1T 8803   3.592   1.757  17.219
   6823SM    NF 8804   3.398   1.685  17.045
   6823SM   HNF 8805   3.446   1.696  16.958
   6823SM   C2S 8806   3.396   1.798  17.137
   6823SM   H2S 8807   3.292   1.811  17.174
   6823SM   C3S 8808   3.440   1.933  17.070
   6823SM   H3S 8809   3.550   1.928  17.053
   6823SM    O3 8810   3.415   2.048  17.150
   6823SM   HO3 8811   3.416   2.013  17.240
   6823SM   C4S 8812   3.374   1.945  16.934
   6823SM   H4S 8813   3.441   1.912  16.853
   6823SM   C5S 8814   3.253   1.993  16.900
   6823SM   H5S 8815   3.189   2.033  16.980
   6823SM   C6S 8816   3.198   2.000  16.759
   6823SM   H6S 8817   3.190   2.106  16.728
   6823SM   H6T 8818   3.095   1.958  16.760
   6823SM   C7S 8819   3.274   1.923  16.649
   6823SM   H7S 8820   3.272   1.814  16.672
   6823SM   H7T 8821   3.380   1.956  16.645
   6823SM   C8S 8822   3.214   1.945  16.509
   6823SM   H8S 8823   3.227   2.051  16.480
   6823SM   H8T 8824   3.105   1.922  16.511
   6823SM   C9S 8825   3.280   1.856  16.401
   6823SM   H9S 8826   3.259   1.750  16.425
   6823SM   H9T 8827   3.390   1.870  16.404
   6823SM  C10S 8828   3.230   1.886  16.259
   6823SM  H10S 8829   3.265   1.987  16.228
   6823SM  H10T 8830   3.119   1.887  16.259
   6823SM  C11S 8831   3.277   1.782  16.157
   6823SM  H11S 8832   3.235   1.683  16.187
   6823SM  H11T 8833   3.388   1.773  16.162
   6823SM  C12S 8834   3.235   1.812  16.013
   6823SM  H12S 8835   3.295   1.898  15.975
   6823SM  H12T 8836   3.128   1.843  16.010
   6823SM  C13S 8837   3.253   1.691  15.920
   6823SM  H13S 8838   3.180   1.612  15.948
   6823SM  H13T 8839   3.355   1.648  15.936
   6823SM  C14S 8840   3.237   1.725  15.772
   6823SM  H14S 8841   3.311   1.804  15.746
   6823SM  H14T 8842   3.135   1.766  15.754
   6823SM  C15S 8843   3.260   1.604  15.680
   6823SM  H15S 8844   3.186   1.525  15.704
   6823SM  H15T 8845   3.362   1.563  15.699
   6823SM  C16S 8846   3.249   1.640  15.531
   6823SM  H16S 8847   3.323   1.719  15.507
   6823SM  H16T 8848   3.148   1.681  15.511
   6823SM  C17S 8849   3.275   1.521  15.438
   6823SM  H17S 8850   3.201   1.441  15.461
   6823SM  H17T 8851   3.376   1.480  15.459
   6823SM  C18S 8852   3.266   1.557  15.290
   6823SM  H18S 8853   3.286   1.469  15.226
   6823SM  H18T 8854   3.339   1.636  15.264
   6823SM  H18U 8855   3.164   1.595  15.265
   6823SM   C1F 8856   3.343   1.566  17.074
   6823SM    OF 8857   3.288   1.546  17.182
   6823SM   C2F 8858   3.346   1.463  16.965
   6823SM   H2F 8859   3.372   1.512  16.869
   6823SM   H2G 8860   3.244   1.421  16.955
   6823SM   C3F 8861   3.445   1.347  16.993
   6823SM   H3F 8862   3.440   1.277  16.908
   6823SM   H3G 8863   3.410   1.293  17.084
   6823SM   C4F 8864   3.592   1.389  17.014
   6823SM   H4F 8865   3.652   1.297  17.031
   6823SM   H4G 8866   3.600   1.450  17.107
   6823SM   C5F 8867   3.655   1.468  16.898
   6823SM   H5F 8868   3.602   1.565  16.887
   6823SM   H5G 8869   3.642   1.411  16.803
   6823SM   C6F 8870   3.804   1.495  16.923
   6823SM   H6F 8871   3.861   1.401  16.912
   6823SM   H6G 8872   3.815   1.529  17.028
   6823SM   C7F 8873   3.865   1.604  16.832
   6823SM   H7F 8874   3.969   1.621  16.864
   6823SM   H7G 8875   3.809   1.699  16.849
   6823SM   C8F 8876   3.863   1.571  16.682
   6823SM   H8F 8877   3.758   1.566  16.648
   6823SM   H8G 8878   3.909   1.471  16.666
   6823SM   C9F 8879   3.939   1.676  16.600
   6823SM   H9F 8880   4.045   1.678  16.633
   6823SM   H9G 8881   3.896   1.777  16.621
   6823SM  C10F 8882   3.936   1.652  16.448
   6823SM  H10F 8883   3.970   1.549  16.425
   6823SM  H10G 8884   4.007   1.723  16.399
   6823SM  C11F 8885   3.797   1.675  16.386
   6823SM  H11F 8886   3.759   1.774  16.418
   6823SM  H11G 8887   3.727   1.597  16.423
   6823SM  C12F 8888   3.799   1.670  16.232
   6823SM  H12F 8889   3.837   1.571  16.198
   6823SM  H12G 8890   3.870   1.748  16.195
   6823SM  C13F 8891   3.660   1.696  16.172
   6823SM  H13F 8892   3.621   1.792  16.212
   6823SM  H13G 8893   3.592   1.615  16.206
   6823SM  C14F 8894   3.657   1.702  16.019
   6823SM  H14F 8895   3.552   1.718  15.988
   6823SM  H14G 8896   3.690   1.605  15.975
   6823SM  C15F 8897   3.741   1.817  15.961
   6823SM  H15F 8898   3.844   1.782  15.938
   6823SM  H15G 8899   3.749   1.896  16.039
   6823SM  C16F 8900   3.678   1.883  15.837
   6823SM  H16F 8901   3.737   1.973  15.813
   6823SM  H16G 8902   3.575   1.916  15.863
   6823SM  C17F 8903   3.672   1.795  15.711
   6823SM  H17F 8904   3.611   1.704  15.731
   6823SM  H17G 8905   3.775   1.762  15.685
   6823SM  C18F 8906   3.612   1.873  15.593
   6823SM  H18F 8907   3.667   1.969  15.583
   6823SM  H18G 8908   3.506   1.897  15.615
   6823SM  C19F 8909   3.620   1.797  15.460
   6823SM  H19F 8910   3.569   1.699  15.471
   6823SM  H19G 8911   3.727   1.777  15.436
   6823SM  C20F 8912   3.556   1.873  15.341
   6823SM  H20F 8913   3.447   1.885  15.360
   6823SM  H20G 8914   3.567   1.809  15.251
   6823SM  C21F 8915   3.618   2.011  15.314
   6823SM  H21F 8916   3.729   2.001  15.307
   6823SM  H21G 8917   3.596   2.077  15.400
   6823SM  C22F 8918   3.566   2.079  15.186
   6823SM  H22F 8919   3.603   2.184  15.186
   6823SM  H22G 8920   3.455   2.083  15.190
   6823SM  C23F 8921   3.610   2.012  15.056
   6823SM  H23F 8922   3.572   2.068  14.968
   6823SM  H23G 8923   3.571   1.908  15.050
   6823SM  H23H 8924   3.721   2.008  15.050
   6923SM     N 8925   5.936   2.347  17.836
   6923SM   C15 8926   5.794   2.338  17.786
   6923SM  H15A 8927   5.725   2.385  17.854
   6923SM  H15B 8928   5.764   2.235  17.772
   6923SM  H15C 8929   5.785   2.387  17.691
   6923SM   C14 8930   5.971   2.491  17.850
   6923SM  H14A 8931   5.962   2.541  17.754
   6923SM  H14B 8932   6.072   2.504  17.885
   6923SM  H14C 8933   5.906   2.543  17.919
   6923SM   C13 8934   5.945   2.282  17.971
   6923SM  H13A 8935   5.871   2.323  18.039
   6923SM  H13B 8936   6.041   2.298  18.016
   6923SM  H13C 8937   5.927   2.175  17.966
   6923SM   C12 8938   6.031   2.279  17.738
   6923SM  H12A 8939   5.988   2.185  17.707
   6923SM  H12B 8940   6.123   2.257  17.789
   6923SM   C11 8941   6.066   2.354  17.606
   6923SM  H11A 8942   6.142   2.295  17.551
   6923SM  H11B 8943   6.115   2.451  17.630
   6923SM     P 8944   5.887   2.256  17.445
   6923SM   O13 8945   5.931   2.130  17.508
   6923SM   O14 8946   5.742   2.284  17.436
   6923SM   O11 8947   5.956   2.275  17.304
   6923SM   O12 8948   5.951   2.378  17.525
   6923SM   C1S 8949   5.936   2.395  17.228
   6923SM   H1S 8950   6.034   2.447  17.218
   6923SM   H1T 8951   5.867   2.468  17.277
   6923SM    NF 8952   5.738   2.371  17.079
   6923SM   HNF 8953   5.690   2.283  17.078
   6923SM   C2S 8954   5.883   2.367  17.084
   6923SM   H2S 8955   5.921   2.448  17.019
   6923SM   C3S 8956   5.941   2.231  17.031
   6923SM   H3S 8957   5.895   2.148  17.089
   6923SM    O3 8958   6.082   2.216  17.048
   6923SM   HO3 8959   6.104   2.277  17.119
   6923SM   C4S 8960   5.908   2.214  16.885
   6923SM   H4S 8961   5.930   2.302  16.823
   6923SM   C5S 8962   5.857   2.104  16.826
   6923SM   H5S 8963   5.836   2.014  16.886
   6923SM   C6S 8964   5.826   2.094  16.679
   6923SM   H6S 8965   5.810   2.194  16.635
   6923SM   H6T 8966   5.732   2.037  16.663
   6923SM   C7S 8967   5.939   2.026  16.597
   6923SM   H7S 8968   5.957   1.923  16.634
   6923SM   H7T 8969   6.033   2.084  16.611
   6923SM   C8S 8970   5.907   2.022  16.447
   6923SM   H8S 8971   5.871   2.122  16.416
   6923SM   H8T 8972   5.824   1.950  16.429
   6923SM   C9S 8973   6.028   1.986  16.360
   6923SM   H9S 8974   6.065   1.884  16.385
   6923SM   H9T 8975   6.109   2.059  16.382
   6923SM  C10S 8976   5.998   1.994  16.209
   6923SM  H10S 8977   6.094   2.008  16.154
   6923SM  H10T 8978   5.936   2.084  16.190
   6923SM  C11S 8979   5.928   1.869  16.154
   6923SM  H11S 8980   5.847   1.839  16.223
   6923SM  H11T 8981   6.001   1.786  16.149
   6923SM  C12S 8982   5.866   1.890  16.014
   6923SM  H12S 8983   5.783   1.964  16.022
   6923SM  H12T 8984   5.822   1.794  15.980
   6923SM  C13S 8985   5.966   1.940  15.908
   6923SM  H13S 8986   6.053   1.871  15.904
   6923SM  H13T 8987   6.004   2.041  15.937
   6923SM  C14S 8988   5.902   1.951  15.769
   6923SM  H14S 8989   5.813   2.017  15.775
   6923SM  H14T 8990   5.868   1.850  15.736
   6923SM  C15S 8991   5.999   2.007  15.663
   6923SM  H15S 8992   6.089   1.943  15.657
   6923SM  H15T 8993   6.032   2.108  15.695
   6923SM  C16S 8994   5.935   2.018  15.524
   6923SM  H16S 8995   5.846   2.084  15.530
   6923SM  H16T 8996   5.899   1.917  15.492
   6923SM  C17S 8997   6.031   2.073  15.418
   6923SM  H17S 8998   6.118   2.004  15.409
   6923SM  H17T 8999   6.069   2.171  15.453
   6923SM  C18S 9000   5.965   2.091  15.281
   6923SM  H18S 9001   5.930   1.993  15.242
   6923SM  H18T 9002   6.037   2.134  15.209
   6923SM  H18U 9003   5.878   2.159  15.289
   6923SM   C1F 9004   5.666   2.483  17.093
   6923SM    OF 9005   5.719   2.590  17.122
   6923SM   C2F 9006   5.517   2.469  17.077
   6923SM   H2F 9007   5.468   2.496  17.173
   6923SM   H2G 9008   5.492   2.363  17.055
   6923SM   C3F 9009   5.462   2.559  16.964
   6923SM   H3F 9010   5.474   2.666  16.995
   6923SM   H3G 9011   5.353   2.541  16.956
   6923SM   C4F 9012   5.526   2.540  16.825
   6923SM   H4F 9013   5.634   2.567  16.830
   6923SM   H4G 9014   5.478   2.612  16.756
   6923SM   C5F 9015   5.513   2.398  16.768
   6923SM   H5F 9016   5.405   2.370  16.761
   6923SM   H5G 9017   5.562   2.326  16.837
   6923SM   C6F 9018   5.578   2.383  16.629
   6923SM   H6F 9019   5.589   2.275  16.606
   6923SM   H6G 9020   5.680   2.427  16.633
   6923SM   C7F 9021   5.498   2.448  16.515
   6923SM   H7F 9022   5.457   2.545  16.549
   6923SM   H7G 9023   5.411   2.383  16.490
   6923SM   C8F 9024   5.582   2.475  16.388
   6923SM   H8F 9025   5.664   2.544  16.417
   6923SM   H8G 9026   5.519   2.529  16.314
   6923SM   C9F 9027   5.643   2.351  16.323
   6923SM   H9F 9028   5.700   2.293  16.399
   6923SM   H9G 9029   5.718   2.385  16.247
   6923SM  C10F 9030   5.543   2.257  16.253
   6923SM  H10F 9031   5.471   2.218  16.329
   6923SM  H10G 9032   5.600   2.171  16.212
   6923SM  C11F 9033   5.463   2.320  16.137
   6923SM  H11F 9034   5.390   2.394  16.177
   6923SM  H11G 9035   5.404   2.239  16.088
   6923SM  C12F 9036   5.552   2.388  16.032
   6923SM  H12F 9037   5.637   2.322  16.007
   6923SM  H12G 9038   5.594   2.480  16.078
   6923SM  C13F 9039   5.477   2.429  15.904
   6923SM  H13F 9040   5.543   2.497  15.846
   6923SM  H13G 9041   5.386   2.486  15.931
   6923SM  C14F 9042   5.439   2.312  15.811
   6923SM  H14F 9043   5.393   2.355  15.720
   6923SM  H14G 9044   5.362   2.248  15.859
   6923SM  C15F 9045   5.559   2.225  15.770
   6923SM  H15F 9046   5.569   2.142  15.844
   6923SM  H15G 9047   5.652   2.285  15.776
   6923SM  C16F 9048   5.550   2.168  15.628
   6923SM  H16F 9049   5.448   2.126  15.611
   6923SM  H16G 9050   5.622   2.085  15.617
   6923SM  C17F 9051   5.581   2.274  15.521
   6923SM  H17F 9052   5.683   2.314  15.540
   6923SM  H17G 9053   5.510   2.358  15.530
   6923SM  C18F 9054   5.576   2.219  15.378
   6923SM  H18F 9055   5.475   2.176  15.360
   6923SM  H18G 9056   5.650   2.137  15.367
   6923SM  C19F 9057   5.604   2.328  15.273
   6923SM  H19F 9058   5.699   2.379  15.300
   6923SM  H19G 9059   5.523   2.404  15.276
   6923SM  C20F 9060   5.617   2.274  15.130
   6923SM  H20F 9061   5.703   2.203  15.126
   6923SM  H20G 9062   5.640   2.359  15.062
   6923SM  C21F 9063   5.491   2.203  15.078
   6923SM  H21F 9064   5.404   2.273  15.088
   6923SM  H21G 9065   5.470   2.114  15.140
   6923SM  C22F 9066   5.501   2.159  14.931
   6923SM  H22F 9067   5.516   2.249  14.867
   6923SM  H22G 9068   5.405   2.114  14.901
   6923SM  C23F 9069   5.614   2.059  14.903
   6923SM  H23F 9070   5.611   2.026  14.797
   6923SM  H23G 9071   5.603   1.969  14.968
   6923SM  H23H 9072   5.713   2.104  14.922
   7023SM     N 9073   5.214   1.721  17.837
   7023SM   C15 9074   5.238   1.592  17.764
   7023SM  H15A 9075   5.205   1.600  17.662
   7023SM  H15B 9076   5.185   1.511  17.811
   7023SM  H15C 9077   5.343   1.566  17.762
   7023SM   C14 9078   5.066   1.746  17.835
   7023SM  H14A 9079   5.033   1.762  17.734
   7023SM  H14B 9080   5.040   1.832  17.894
   7023SM  H14C 9081   5.013   1.659  17.873
   7023SM   C13 9082   5.258   1.700  17.979
   7023SM  H13A 9083   5.363   1.678  17.986
   7023SM  H13B 9084   5.206   1.615  18.021
   7023SM  H13C 9085   5.236   1.785  18.042
   7023SM   C12 9086   5.289   1.836  17.772
   7023SM  H12A 9087   5.391   1.805  17.755
   7023SM  H12B 9088   5.292   1.919  17.841
   7023SM   C11 9089   5.237   1.892  17.636
   7023SM  H11A 9090   5.307   1.971  17.603
   7023SM  H11B 9091   5.140   1.944  17.653
   7023SM     P 9092   5.096   1.742  17.470
   7023SM   O13 9093   5.095   1.595  17.483
   7023SM   O14 9094   4.982   1.814  17.532
   7023SM   O11 9095   5.113   1.783  17.317
   7023SM   O12 9096   5.232   1.792  17.535
   7023SM   C1S 9097   5.223   1.725  17.244
   7023SM   H1S 9098   5.221   1.614  17.252
   7023SM   H1T 9099   5.320   1.762  17.284
   7023SM    NF 9100   5.321   1.689  17.019
   7023SM   HNF 9101   5.404   1.740  17.000
   7023SM   C2S 9102   5.217   1.761  17.093
   7023SM   H2S 9103   5.118   1.728  17.054
   7023SM   C3S 9104   5.227   1.915  17.073
   7023SM   H3S 9105   5.320   1.951  17.123
   7023SM    O3 9106   5.119   1.987  17.130
   7023SM   HO3 9107   5.086   1.928  17.199
   7023SM   C4S 9108   5.233   1.947  16.926
   7023SM   H4S 9109   5.137   1.935  16.873
   7023SM   C5S 9110   5.341   1.990  16.858
   7023SM   H5S 9111   5.436   2.004  16.911
   7023SM   C6S 9112   5.344   2.020  16.710
   7023SM   H6S 9113   5.384   2.122  16.692
   7023SM   H6T 9114   5.242   2.017  16.666
   7023SM   C7S 9115   5.431   1.916  16.638
   7023SM   H7S 9116   5.390   1.814  16.656
   7023SM   H7T 9117   5.534   1.918  16.680
   7023SM   C8S 9118   5.440   1.938  16.486
   7023SM   H8S 9119   5.485   2.038  16.467
   7023SM   H8T 9120   5.337   1.938  16.443
   7023SM   C9S 9121   5.525   1.830  16.417
   7023SM   H9S 9122   5.476   1.731  16.430
   7023SM   H9T 9123   5.623   1.826  16.469
   7023SM  C10S 9124   5.551   1.856  16.268
   7023SM  H10S 9125   5.628   1.784  16.232
   7023SM  H10T 9126   5.592   1.958  16.255
   7023SM  C11S 9127   5.427   1.839  16.178
   7023SM  H11S 9128   5.345   1.905  16.214
   7023SM  H11T 9129   5.391   1.734  16.186
   7023SM  C12S 9130   5.455   1.872  16.031
   7023SM  H12S 9131   5.548   1.820  15.999
   7023SM  H12T 9132   5.473   1.982  16.021
   7023SM  C13S 9133   5.341   1.829  15.938
   7023SM  H13S 9134   5.246   1.872  15.974
   7023SM  H13T 9135   5.332   1.718  15.943
   7023SM  C14S 9136   5.362   1.871  15.792
   7023SM  H14S 9137   5.462   1.836  15.757
   7023SM  H14T 9138   5.361   1.982  15.785
   7023SM  C15S 9139   5.253   1.814  15.699
   7023SM  H15S 9140   5.154   1.838  15.742
   7023SM  H15T 9141   5.262   1.703  15.695
   7023SM  C16S 9142   5.258   1.868  15.555
   7023SM  H16S 9143   5.248   1.979  15.558
   7023SM  H16T 9144   5.170   1.828  15.500
   7023SM  C17S 9145   5.385   1.830  15.478
   7023SM  H17S 9146   5.398   1.720  15.482
   7023SM  H17T 9147   5.473   1.876  15.528
   7023SM  C18S 9148   5.382   1.875  15.332
   7023SM  H18S 9149   5.477   1.849  15.280
   7023SM  H18T 9150   5.369   1.985  15.326
   7023SM  H18U 9151   5.298   1.827  15.278
   7023SM   C1F 9152   5.310   1.561  16.986
   7023SM    OF 9153   5.229   1.487  17.039
   7023SM   C2F 9154   5.403   1.511  16.879
   7023SM   H2F 9155   5.469   1.433  16.923
   7023SM   H2G 9156   5.466   1.595  16.842
   7023SM   C3F 9157   5.323   1.450  16.761
   7023SM   H3F 9158   5.256   1.371  16.801
   7023SM   H3G 9159   5.393   1.400  16.691
   7023SM   C4F 9160   5.239   1.553  16.682
   7023SM   H4F 9161   5.305   1.609  16.612
   7023SM   H4G 9162   5.196   1.626  16.753
   7023SM   C5F 9163   5.121   1.490  16.606
   7023SM   H5F 9164   5.059   1.572  16.564
   7023SM   H5G 9165   5.058   1.434  16.678
   7023SM   C6F 9166   5.163   1.397  16.491
   7023SM   H6F 9167   5.233   1.321  16.530
   7023SM   H6G 9168   5.216   1.456  16.413
   7023SM   C7F 9169   5.044   1.323  16.427
   7023SM   H7F 9170   4.995   1.262  16.505
   7023SM   H7G 9171   5.083   1.253  16.350
   7023SM   C8F 9172   4.936   1.413  16.363
   7023SM   H8F 9173   4.887   1.473  16.442
   7023SM   H8G 9174   4.857   1.347  16.319
   7023SM   C9F 9175   4.987   1.507  16.253
   7023SM   H9F 9176   5.060   1.578  16.297
   7023SM   H9G 9177   4.901   1.567  16.216
   7023SM  C10F 9178   5.052   1.435  16.134
   7023SM  H10F 9179   4.979   1.364  16.090
   7023SM  H10G 9180   5.140   1.377  16.168
   7023SM  C11F 9181   5.097   1.535  16.027
   7023SM  H11F 9182   5.167   1.607  16.073
   7023SM  H11G 9183   5.009   1.594  15.991
   7023SM  C12F 9184   5.165   1.471  15.906
   7023SM  H12F 9185   5.254   1.413  15.939
   7023SM  H12G 9186   5.202   1.553  15.841
   7023SM  C13F 9187   5.073   1.381  15.822
   7023SM  H13F 9188   4.969   1.421  15.829
   7023SM  H13G 9189   5.072   1.278  15.863
   7023SM  C14F 9190   5.111   1.379  15.673
   7023SM  H14F 9191   5.106   1.484  15.635
   7023SM  H14G 9192   5.035   1.321  15.617
   7023SM  C15F 9193   5.251   1.323  15.642
   7023SM  H15F 9194   5.249   1.213  15.650
   7023SM  H15G 9195   5.323   1.361  15.718
   7023SM  C16F 9196   5.303   1.366  15.504
   7023SM  H16F 9197   5.405   1.326  15.489
   7023SM  H16G 9198   5.310   1.477  15.502
   7023SM  C17F 9199   5.214   1.321  15.387
   7023SM  H17F 9200   5.109   1.352  15.406
   7023SM  H17G 9201   5.216   1.211  15.379
   7023SM  C18F 9202   5.257   1.384  15.253
   7023SM  H18F 9203   5.358   1.347  15.225
   7023SM  H18G 9204   5.264   1.494  15.266
   7023SM  C19F 9205   5.158   1.354  15.140
   7023SM  H19F 9206   5.056   1.380  15.173
   7023SM  H19G 9207   5.160   1.245  15.117
   7023SM  C20F 9208   5.190   1.433  15.012
   7023SM  H20F 9209   5.291   1.407  14.976
   7023SM  H20G 9210   5.190   1.541  15.037
   7023SM  C21F 9211   5.088   1.407  14.900
   7023SM  H21F 9212   4.986   1.429  14.937
   7023SM  H21G 9213   5.092   1.299  14.873
   7023SM  C22F 9214   5.115   1.490  14.773
   7023SM  H22F 9215   5.051   1.451  14.692
   7023SM  H22G 9216   5.221   1.475  14.744
   7023SM  C23F 9217   5.089   1.640  14.789
   7023SM  H23F 9218   5.109   1.694  14.693
   7023SM  H23G 9219   5.154   1.684  14.867
   7023SM  H23H 9220   4.983   1.659  14.817
   7123SM     N 9221   5.046   7.215  17.630
   7123SM   C15 9222   5.184   7.221  17.689
   7123SM  H15A 9223   5.220   7.322  17.681
   7123SM  H15B 9224   5.252   7.158  17.634
   7123SM  H15C 9225   5.184   7.191  17.793
   7123SM   C14 9226   5.002   7.072  17.622
   7123SM  H14A 9227   5.068   7.014  17.559
   7123SM  H14B 9228   4.902   7.063  17.581
   7123SM  H14C 9229   5.001   7.026  17.720
   7123SM   C13 9230   4.953   7.291  17.720
   7123SM  H13A 9231   4.986   7.394  17.727
   7123SM  H13B 9232   4.951   7.250  17.820
   7123SM  H13C 9233   4.852   7.291  17.683
   7123SM   C12 9234   5.048   7.280  17.492
   7123SM  H12A 9235   4.954   7.262  17.443
   7123SM  H12B 9236   5.123   7.230  17.431
   7123SM   C11 9237   5.078   7.432  17.485
   7123SM  H11A 9238   5.000   7.489  17.539
   7123SM  H11B 9239   5.072   7.462  17.378
   7123SM     P 9240   5.291   7.585  17.494
   7123SM   O13 9241   5.209   7.708  17.508
   7123SM   O14 9242   5.422   7.583  17.562
   7123SM   O11 9243   5.311   7.559  17.340
   7123SM   O12 9244   5.206   7.461  17.541
   7123SM   C1S 9245   5.348   7.432  17.285
   7123SM   H1S 9246   5.320   7.348  17.352
   7123SM   H1T 9247   5.459   7.428  17.271
   7123SM    NF 9248   5.299   7.278  17.093
   7123SM   HNF 9249   5.346   7.271  17.005
   7123SM   C2S 9250   5.280   7.413  17.146
   7123SM   H2S 9251   5.171   7.429  17.159
   7123SM   C3S 9252   5.334   7.523  17.049
   7123SM   H3S 9253   5.445   7.516  17.048
   7123SM    O3 9254   5.301   7.656  17.088
   7123SM   HO3 9255   5.284   7.648  17.182
   7123SM   C4S 9256   5.281   7.502  16.910
   7123SM   H4S 9257   5.172   7.509  16.901
   7123SM   C5S 9258   5.356   7.480  16.800
   7123SM   H5S 9259   5.466   7.480  16.807
   7123SM   C6S 9260   5.301   7.461  16.661
   7123SM   H6S 9261   5.191   7.448  16.662
   7123SM   H6T 9262   5.344   7.369  16.614
   7123SM   C7S 9263   5.332   7.582  16.570
   7123SM   H7S 9264   5.442   7.598  16.565
   7123SM   H7T 9265   5.287   7.673  16.614
   7123SM   C8S 9266   5.278   7.564  16.427
   7123SM   H8S 9267   5.171   7.537  16.432
   7123SM   H8T 9268   5.332   7.480  16.378
   7123SM   C9S 9269   5.294   7.692  16.343
   7123SM   H9S 9270   5.401   7.722  16.343
   7123SM   H9T 9271   5.236   7.774  16.391
   7123SM  C10S 9272   5.247   7.674  16.198
   7123SM  H10S 9273   5.142   7.636  16.198
   7123SM  H10T 9274   5.311   7.598  16.149
   7123SM  C11S 9275   5.252   7.805  16.119
   7123SM  H11S 9276   5.353   7.850  16.128
   7123SM  H11T 9277   5.180   7.877  16.164
   7123SM  C12S 9278   5.218   7.789  15.970
   7123SM  H12S 9279   5.214   7.891  15.924
   7123SM  H12T 9280   5.118   7.743  15.957
   7123SM  C13S 9281   5.323   7.707  15.893
   7123SM  H13S 9282   5.313   7.599  15.918
   7123SM  H13T 9283   5.424   7.740  15.927
   7123SM  C14S 9284   5.315   7.726  15.741
   7123SM  H14S 9285   5.315   7.834  15.717
   7123SM  H14T 9286   5.220   7.683  15.704
   7123SM  C15S 9287   5.435   7.661  15.669
   7123SM  H15S 9288   5.435   7.552  15.689
   7123SM  H15T 9289   5.529   7.703  15.710
   7123SM  C16S 9290   5.435   7.683  15.516
   7123SM  H16S 9291   5.526   7.636  15.474
   7123SM  H16T 9292   5.441   7.792  15.495
   7123SM  C17S 9293   5.312   7.626  15.445
   7123SM  H17S 9294   5.222   7.683  15.474
   7123SM  H17T 9295   5.297   7.521  15.480
   7123SM  C18S 9296   5.325   7.626  15.293
   7123SM  H18S 9297   5.340   7.729  15.255
   7123SM  H18T 9298   5.234   7.584  15.246
   7123SM  H18U 9299   5.412   7.564  15.262
   7123SM   C1F 9300   5.244   7.167  17.146
   7123SM    OF 9301   5.203   7.163  17.261
   7123SM   C2F 9302   5.237   7.049  17.054
   7123SM   H2F 9303   5.251   6.956  17.114
   7123SM   H2G 9304   5.320   7.056  16.980
   7123SM   C3F 9305   5.101   7.043  16.981
   7123SM   H3F 9306   5.077   7.142  16.936
   7123SM   H3G 9307   5.022   7.022  17.056
   7123SM   C4F 9308   5.092   6.936  16.871
   7123SM   H4F 9309   4.988   6.933  16.832
   7123SM   H4G 9310   5.113   6.836  16.916
   7123SM   C5F 9311   5.188   6.956  16.752
   7123SM   H5F 9312   5.173   6.873  16.680
   7123SM   H5G 9313   5.293   6.947  16.788
   7123SM   C6F 9314   5.173   7.089  16.676
   7123SM   H6F 9315   5.257   7.098  16.604
   7123SM   H6G 9316   5.182   7.174  16.747
   7123SM   C7F 9317   5.042   7.102  16.596
   7123SM   H7F 9318   4.955   7.086  16.664
   7123SM   H7G 9319   5.040   7.021  16.519
   7123SM   C8F 9320   5.028   7.239  16.529
   7123SM   H8F 9321   5.118   7.260  16.468
   7123SM   H8G 9322   5.023   7.316  16.609
   7123SM   C9F 9323   4.902   7.254  16.441
   7123SM   H9F 9324   4.890   7.361  16.414
   7123SM   H9G 9325   4.813   7.225  16.502
   7123SM  C10F 9326   4.902   7.170  16.312
   7123SM  H10F 9327   4.801   7.176  16.266
   7123SM  H10G 9328   4.920   7.064  16.338
   7123SM  C11F 9329   5.004   7.214  16.206
   7123SM  H11F 9330   5.018   7.130  16.135
   7123SM  H11G 9331   5.103   7.235  16.253
   7123SM  C12F 9332   4.957   7.337  16.126
   7123SM  H12F 9333   4.930   7.419  16.196
   7123SM  H12G 9334   4.866   7.310  16.069
   7123SM  C13F 9335   5.063   7.391  16.028
   7123SM  H13F 9336   5.148   7.432  16.088
   7123SM  H13G 9337   5.020   7.475  15.970
   7123SM  C14F 9338   5.122   7.287  15.931
   7123SM  H14F 9339   5.174   7.208  15.989
   7123SM  H14G 9340   5.200   7.338  15.870
   7123SM  C15F 9341   5.020   7.220  15.837
   7123SM  H15F 9342   4.940   7.173  15.898
   7123SM  H15G 9343   5.071   7.138  15.782
   7123SM  C16F 9344   4.956   7.312  15.732
   7123SM  H16F 9345   4.895   7.389  15.784
   7123SM  H16G 9346   4.885   7.251  15.672
   7123SM  C17F 9347   5.053   7.382  15.636
   7123SM  H17F 9348   5.113   7.458  15.691
   7123SM  H17G 9349   4.991   7.438  15.562
   7123SM  C18F 9350   5.148   7.289  15.557
   7123SM  H18F 9351   5.166   7.337  15.459
   7123SM  H18G 9352   5.099   7.191  15.537
   7123SM  C19F 9353   5.285   7.269  15.624
   7123SM  H19F 9354   5.280   7.188  15.700
   7123SM  H19G 9355   5.311   7.363  15.677
   7123SM  C20F 9356   5.399   7.241  15.525
   7123SM  H20F 9357   5.496   7.250  15.578
   7123SM  H20G 9358   5.398   7.319  15.445
   7123SM  C21F 9359   5.392   7.103  15.460
   7123SM  H21F 9360   5.291   7.085  15.418
   7123SM  H21G 9361   5.411   7.025  15.536
   7123SM  C22F 9362   5.494   7.090  15.346
   7123SM  H22F 9363   5.595   7.116  15.384
   7123SM  H22G 9364   5.468   7.163  15.267
   7123SM  C23F 9365   5.499   6.950  15.285
   7123SM  H23F 9366   5.543   6.878  15.358
   7123SM  H23G 9367   5.562   6.949  15.194
   7123SM  H23H 9368   5.397   6.915  15.258
   7223SM     N 9369   7.333   2.994  17.627
   7223SM   C15 9370   7.405   3.033  17.752
   7223SM  H15A 9371   7.337   3.067  17.828
   7223SM  H15B 9372   7.472   3.115  17.728
   7223SM  H15C 9373   7.466   2.952  17.789
   7223SM   C14 9374   7.435   2.962  17.522
   7223SM  H14A 9375   7.499   2.879  17.551
   7223SM  H14B 9376   7.498   3.048  17.508
   7223SM  H14C 9377   7.391   2.940  17.426
   7223SM   C13 9378   7.248   2.873  17.652
   7223SM  H13A 9379   7.201   2.839  17.561
   7223SM  H13B 9380   7.169   2.895  17.722
   7223SM  H13C 9381   7.308   2.791  17.690
   7223SM   C12 9382   7.244   3.109  17.580
   7223SM  H12A 9383   7.157   3.113  17.643
   7223SM  H12B 9384   7.210   3.087  17.480
   7223SM   C11 9385   7.305   3.252  17.576
   7223SM  H11A 9386   7.332   3.285  17.679
   7223SM  H11B 9387   7.226   3.322  17.542
   7223SM     P 9388   7.558   3.309  17.527
   7223SM   O13 9389   7.552   3.441  17.592
   7223SM   O14 9390   7.624   3.198  17.599
   7223SM   O11 9391   7.628   3.325  17.386
   7223SM   O12 9392   7.414   3.261  17.484
   7223SM   C1S 9393   7.621   3.219  17.289
   7223SM   H1S 9394   7.613   3.119  17.336
   7223SM   H1T 9395   7.715   3.220  17.231
   7223SM    NF 9396   7.518   3.128  17.088
   7223SM   HNF 9397   7.543   3.154  16.995
   7223SM   C2S 9398   7.504   3.235  17.187
   7223SM   H2S 9399   7.406   3.223  17.238
   7223SM   C3S 9400   7.509   3.380  17.127
   7223SM   H3S 9401   7.615   3.411  17.119
   7223SM    O3 9402   7.442   3.477  17.208
   7223SM   HO3 9403   7.434   3.436  17.295
   7223SM   C4S 9404   7.451   3.381  16.988
   7223SM   H4S 9405   7.529   3.398  16.912
   7223SM   C5S 9406   7.322   3.370  16.948
   7223SM   H5S 9407   7.243   3.362  17.024
   7223SM   C6S 9408   7.275   3.372  16.805
   7223SM   H6S 9409   7.199   3.452  16.791
   7223SM   H6T 9410   7.224   3.276  16.781
   7223SM   C7S 9411   7.386   3.393  16.699
   7223SM   H7S 9412   7.468   3.320  16.714
   7223SM   H7T 9413   7.429   3.495  16.712
   7223SM   C8S 9414   7.338   3.379  16.554
   7223SM   H8S 9415   7.244   3.435  16.539
   7223SM   H8T 9416   7.317   3.272  16.532
   7223SM   C9S 9417   7.444   3.432  16.456
   7223SM   H9S 9418   7.541   3.383  16.477
   7223SM   H9T 9419   7.456   3.541  16.473
   7223SM  C10S 9420   7.407   3.410  16.309
   7223SM  H10S 9421   7.306   3.450  16.289
   7223SM  H10T 9422   7.405   3.300  16.288
   7223SM  C11S 9423   7.507   3.479  16.215
   7223SM  H11S 9424   7.610   3.452  16.244
   7223SM  H11T 9425   7.496   3.589  16.227
   7223SM  C12S 9426   7.485   3.442  16.068
   7223SM  H12S 9427   7.379   3.461  16.040
   7223SM  H12T 9428   7.505   3.333  16.054
   7223SM  C13S 9429   7.575   3.522  15.973
   7223SM  H13S 9430   7.681   3.514  16.006
   7223SM  H13T 9431   7.546   3.629  15.978
   7223SM  C14S 9432   7.564   3.473  15.828
   7223SM  H14S 9433   7.457   3.468  15.800
   7223SM  H14T 9434   7.606   3.371  15.821
   7223SM  C15S 9435   7.636   3.565  15.728
   7223SM  H15S 9436   7.743   3.577  15.757
   7223SM  H15T 9437   7.589   3.665  15.731
   7223SM  C16S 9438   7.628   3.509  15.585
   7223SM  H16S 9439   7.522   3.484  15.562
   7223SM  H16T 9440   7.688   3.416  15.579
   7223SM  C17S 9441   7.678   3.607  15.478
   7223SM  H17S 9442   7.785   3.630  15.496
   7223SM  H17T 9443   7.622   3.703  15.488
   7223SM  C18S 9444   7.659   3.553  15.336
   7223SM  H18S 9445   7.720   3.462  15.321
   7223SM  H18T 9446   7.691   3.629  15.261
   7223SM  H18U 9447   7.553   3.528  15.318
   7223SM   C1F 9448   7.492   3.001  17.118
   7223SM    OF 9449   7.429   2.972  17.218
   7223SM   C2F 9450   7.540   2.894  17.022
   7223SM   H2F 9451   7.469   2.809  17.029
   7223SM   H2G 9452   7.639   2.858  17.057
   7223SM   C3F 9453   7.549   2.941  16.875
   7223SM   H3F 9454   7.625   3.022  16.864
   7223SM   H3G 9455   7.451   2.982  16.844
   7223SM   C4F 9456   7.585   2.826  16.780
   7223SM   H4F 9457   7.518   2.740  16.803
   7223SM   H4G 9458   7.689   2.791  16.799
   7223SM   C5F 9459   7.567   2.860  16.631
   7223SM   H5F 9460   7.464   2.900  16.616
   7223SM   H5G 9461   7.574   2.766  16.572
   7223SM   C6F 9462   7.669   2.960  16.574
   7223SM   H6F 9463   7.771   2.919  16.587
   7223SM   H6G 9464   7.662   3.056  16.629
   7223SM   C7F 9465   7.643   2.986  16.425
   7223SM   H7F 9466   7.541   3.027  16.413
   7223SM   H7G 9467   7.647   2.890  16.369
   7223SM   C8F 9468   7.743   3.084  16.361
   7223SM   H8F 9469   7.845   3.040  16.362
   7223SM   H8G 9470   7.745   3.178  16.420
   7223SM   C9F 9471   7.704   3.119  16.216
   7223SM   H9F 9472   7.601   3.162  16.218
   7223SM   H9G 9473   7.699   3.027  16.154
   7223SM  C10F 9474   7.796   3.223  16.150
   7223SM  H10F 9475   7.812   3.307  16.221
   7223SM  H10G 9476   7.745   3.265  16.061
   7223SM  C11F 9477   7.933   3.168  16.105
   7223SM  H11F 9478   7.984   3.122  16.193
   7223SM  H11G 9479   7.995   3.254  16.072
   7223SM  C12F 9480   7.929   3.067  15.990
   7223SM  H12F 9481   7.872   2.976  16.021
   7223SM  H12G 9482   8.033   3.034  15.968
   7223SM  C13F 9483   7.868   3.122  15.860
   7223SM  H13F 9484   7.918   3.218  15.834
   7223SM  H13G 9485   7.760   3.143  15.876
   7223SM  C14F 9486   7.883   3.025  15.742
   7223SM  H14F 9487   7.833   2.929  15.766
   7223SM  H14G 9488   7.991   3.004  15.728
   7223SM  C15F 9489   7.827   3.078  15.609
   7223SM  H15F 9490   7.858   3.009  15.528
   7223SM  H15G 9491   7.871   3.178  15.587
   7223SM  C16F 9492   7.673   3.089  15.607
   7223SM  H16F 9493   7.641   3.161  15.685
   7223SM  H16G 9494   7.629   2.990  15.632
   7223SM  C17F 9495   7.615   3.137  15.472
   7223SM  H17F 9496   7.656   3.238  15.450
   7223SM  H17G 9497   7.505   3.149  15.483
   7223SM  C18F 9498   7.645   3.047  15.350
   7223SM  H18F 9499   7.755   3.046  15.334
   7223SM  H18G 9500   7.599   3.094  15.261
   7223SM  C19F 9501   7.596   2.901  15.362
   7223SM  H19F 9502   7.641   2.858  15.454
   7223SM  H19G 9503   7.635   2.842  15.276
   7223SM  C20F 9504   7.443   2.882  15.371
   7223SM  H20F 9505   7.396   2.968  15.423
   7223SM  H20G 9506   7.425   2.792  15.433
   7223SM  C21F 9507   7.374   2.857  15.236
   7223SM  H21F 9508   7.269   2.824  15.256
   7223SM  H21G 9509   7.424   2.774  15.183
   7223SM  C22F 9510   7.367   2.979  15.143
   7223SM  H22F 9511   7.470   3.008  15.113
   7223SM  H22G 9512   7.324   3.065  15.200
   7223SM  C23F 9513   7.283   2.956  15.018
   7223SM  H23F 9514   7.178   2.929  15.045
   7223SM  H23G 9515   7.326   2.874  14.957
   7223SM  H23H 9516   7.279   3.048  14.955
   7323SM     N 9517   5.846   1.116  17.801
   7323SM   C15 9518   5.927   1.231  17.749
   7323SM  H15A 9519   5.990   1.274  17.826
   7323SM  H15B 9520   5.862   1.308  17.711
   7323SM  H15C 9521   5.986   1.198  17.665
   7323SM   C14 9522   5.937   1.013  17.860
   7323SM  H14A 9523   5.990   1.053  17.945
   7323SM  H14B 9524   6.009   0.980  17.787
   7323SM  H14C 9525   5.880   0.927  17.892
   7323SM   C13 9526   5.754   1.167  17.908
   7323SM  H13A 9527   5.810   1.213  17.988
   7323SM  H13B 9528   5.693   1.088  17.949
   7323SM  H13C 9529   5.688   1.243  17.869
   7323SM   C12 9530   5.759   1.055  17.691
   7323SM  H12A 9531   5.682   1.126  17.665
   7323SM  H12B 9532   5.708   0.970  17.733
   7323SM   C11 9533   5.827   1.011  17.559
   7323SM  H11A 9534   5.755   0.949  17.501
   7323SM  H11B 9535   5.913   0.944  17.584
   7323SM     P 9536   5.771   1.226  17.423
   7323SM   O13 9537   5.665   1.153  17.349
   7323SM   O14 9538   5.727   1.315  17.533
   7323SM   O11 9539   5.857   1.309  17.320
   7323SM   O12 9540   5.875   1.120  17.479
   7323SM   C1S 9541   5.943   1.246  17.224
   7323SM   H1S 9542   5.947   1.135  17.237
   7323SM   H1T 9543   6.047   1.282  17.238
   7323SM    NF 9544   5.956   1.186  16.982
   7323SM   HNF 9545   6.024   1.222  16.919
   7323SM   C2S 9546   5.898   1.279  17.079
   7323SM   H2S 9547   5.787   1.269  17.073
   7323SM   C3S 9548   5.936   1.428  17.051
   7323SM   H3S 9549   6.046   1.438  17.060
   7323SM    O3 9550   5.880   1.520  17.145
   7323SM   HO3 9551   5.855   1.465  17.219
   7323SM   C4S 9552   5.899   1.467  16.909
   7323SM   H4S 9553   5.978   1.443  16.836
   7323SM   C5S 9554   5.787   1.529  16.864
   7323SM   H5S 9555   5.710   1.558  16.937
   7323SM   C6S 9556   5.757   1.566  16.720
   7323SM   H6S 9557   5.737   1.675  16.715
   7323SM   H6T 9558   5.664   1.515  16.687
   7323SM   C7S 9559   5.867   1.536  16.616
   7323SM   H7S 9560   5.882   1.426  16.611
   7323SM   H7T 9561   5.963   1.583  16.647
   7323SM   C8S 9562   5.831   1.588  16.476
   7323SM   H8S 9563   5.820   1.698  16.481
   7323SM   H8T 9564   5.732   1.546  16.446
   7323SM   C9S 9565   5.934   1.553  16.367
   7323SM   H9S 9566   6.032   1.601  16.390
   7323SM   H9T 9567   5.898   1.598  16.271
   7323SM  C10S 9568   5.954   1.402  16.346
   7323SM  H10S 9569   5.854   1.354  16.335
   7323SM  H10T 9570   6.002   1.359  16.437
   7323SM  C11S 9571   6.040   1.365  16.224
   7323SM  H11S 9572   6.050   1.255  16.223
   7323SM  H11T 9573   6.142   1.408  16.235
   7323SM  C12S 9574   5.980   1.410  16.090
   7323SM  H12S 9575   6.001   1.518  16.073
   7323SM  H12T 9576   5.869   1.398  16.094
   7323SM  C13S 9577   6.030   1.327  15.970
   7323SM  H13S 9578   5.979   1.362  15.878
   7323SM  H13T 9579   6.001   1.221  15.986
   7323SM  C14S 9580   6.183   1.333  15.949
   7323SM  H14S 9581   6.234   1.314  16.045
   7323SM  H14T 9582   6.212   1.435  15.914
   7323SM  C15S 9583   6.232   1.227  15.849
   7323SM  H15S 9584   6.195   1.128  15.881
   7323SM  H15T 9585   6.343   1.224  15.853
   7323SM  C16S 9586   6.190   1.253  15.703
   7323SM  H16S 9587   6.241   1.345  15.667
   7323SM  H16T 9588   6.081   1.271  15.697
   7323SM  C17S 9589   6.227   1.135  15.612
   7323SM  H17S 9590   6.165   1.047  15.641
   7323SM  H17T 9591   6.333   1.109  15.631
   7323SM  C18S 9592   6.212   1.163  15.463
   7323SM  H18S 9593   6.276   1.249  15.432
   7323SM  H18T 9594   6.106   1.187  15.438
   7323SM  H18U 9595   6.243   1.074  15.404
   7323SM   C1F 9596   5.923   1.057  16.973
   7323SM    OF 9597   5.864   0.998  17.064
   7323SM   C2F 9598   5.964   0.986  16.847
   7323SM   H2F 9599   6.040   0.910  16.872
   7323SM   H2G 9600   6.009   1.059  16.777
   7323SM   C3F 9601   5.844   0.917  16.777
   7323SM   H3F 9602   5.807   0.833  16.840
   7323SM   H3G 9603   5.881   0.874  16.682
   7323SM   C4F 9604   5.726   1.012  16.746
   7323SM   H4F 9605   5.765   1.106  16.701
   7323SM   H4G 9606   5.677   1.040  16.842
   7323SM   C5F 9607   5.620   0.950  16.654
   7323SM   H5F 9608   5.524   1.005  16.668
   7323SM   H5G 9609   5.602   0.845  16.686
   7323SM   C6F 9610   5.656   0.951  16.504
   7323SM   H6F 9611   5.582   0.890  16.449
   7323SM   H6G 9612   5.755   0.902  16.491
   7323SM   C7F 9613   5.661   1.091  16.439
   7323SM   H7F 9614   5.701   1.078  16.336
   7323SM   H7G 9615   5.732   1.156  16.494
   7323SM   C8F 9616   5.524   1.161  16.429
   7323SM   H8F 9617   5.478   1.164  16.530
   7323SM   H8G 9618   5.457   1.102  16.364
   7323SM   C9F 9619   5.533   1.306  16.378
   7323SM   H9F 9620   5.602   1.361  16.446
   7323SM   H9G 9621   5.434   1.354  16.386
   7323SM  C10F 9622   5.583   1.321  16.234
   7323SM  H10F 9623   5.676   1.262  16.220
   7323SM  H10G 9624   5.609   1.427  16.216
   7323SM  C11F 9625   5.479   1.279  16.128
   7323SM  H11F 9626   5.392   1.348  16.136
   7323SM  H11G 9627   5.443   1.177  16.149
   7323SM  C12F 9628   5.534   1.285  15.985
   7323SM  H12F 9629   5.591   1.380  15.970
   7323SM  H12G 9630   5.449   1.286  15.914
   7323SM  C13F 9631   5.623   1.165  15.950
   7323SM  H13F 9632   5.561   1.072  15.959
   7323SM  H13G 9633   5.706   1.157  16.023
   7323SM  C14F 9634   5.681   1.172  15.808
   7323SM  H14F 9635   5.757   1.253  15.804
   7323SM  H14G 9636   5.600   1.198  15.736
   7323SM  C15F 9637   5.744   1.039  15.765
   7323SM  H15F 9638   5.665   0.961  15.762
   7323SM  H15G 9639   5.820   1.007  15.840
   7323SM  C16F 9640   5.811   1.046  15.627
   7323SM  H16F 9641   5.903   1.108  15.634
   7323SM  H16G 9642   5.742   1.095  15.555
   7323SM  C17F 9643   5.848   0.906  15.573
   7323SM  H17F 9644   5.754   0.852  15.548
   7323SM  H17G 9645   5.899   0.850  15.654
   7323SM  C18F 9646   5.940   0.908  15.450
   7323SM  H18F 9647   5.959   0.803  15.420
   7323SM  H18G 9648   6.038   0.951  15.480
   7323SM  C19F 9649   5.885   0.987  15.330
   7323SM  H19F 9650   5.866   1.091  15.364
   7323SM  H19G 9651   5.787   0.945  15.297
   7323SM  C20F 9652   5.982   0.995  15.210
   7323SM  H20F 9653   6.086   0.999  15.247
   7323SM  H20G 9654   5.962   1.090  15.157
   7323SM  C21F 9655   5.968   0.882  15.106
   7323SM  H21F 9656   6.037   0.905  15.022
   7323SM  H21G 9657   5.865   0.881  15.066
   7323SM  C22F 9658   6.004   0.742  15.158
   7323SM  H22F 9659   5.926   0.709  15.230
   7323SM  H22G 9660   6.100   0.748  15.213
   7323SM  C23F 9661   6.016   0.637  15.048
   7323SM  H23F 9662   6.096   0.666  14.976
   7323SM  H23G 9663   5.921   0.629  14.992
   7323SM  H23H 9664   6.041   0.538  15.090
   7423SM     N 9665   0.516   4.921  17.639
   7423SM   C15 9666   0.610   4.993  17.732
   7423SM  H15A 9667   0.666   5.069  17.680
   7423SM  H15B 9668   0.678   4.924  17.778
   7423SM  H15C 9669   0.555   5.042  17.811
   7423SM   C14 9670   0.438   4.821  17.718
   7423SM  H14A 9671   0.503   4.753  17.771
   7423SM  H14B 9672   0.381   4.759  17.650
   7423SM  H14C 9673   0.372   4.868  17.789
   7423SM   C13 9674   0.420   5.020  17.580
   7423SM  H13A 9675   0.347   4.969  17.519
   7423SM  H13B 9676   0.470   5.094  17.519
   7423SM  H13C 9677   0.366   5.072  17.658
   7423SM   C12 9678   0.593   4.850  17.529
   7423SM  H12A 9679   0.669   4.788  17.574
   7423SM  H12B 9680   0.643   4.923  17.468
   7423SM   C11 9681   0.512   4.755  17.437
   7423SM  H11A 9682   0.568   4.737  17.343
   7423SM  H11B 9683   0.417   4.803  17.407
   7423SM     P 9684   0.599   4.525  17.521
   7423SM   O13 9685   0.714   4.591  17.588
   7423SM   O14 9686   0.547   4.401  17.584
   7423SM   O11 9687   0.640   4.494  17.371
   7423SM   O12 9688   0.483   4.632  17.504
   7423SM   C1S 9689   0.543   4.457  17.272
   7423SM   H1S 9690   0.450   4.515  17.283
   7423SM   H1T 9691   0.517   4.349  17.283
   7423SM    NF 9692   0.495   4.458  17.025
   7423SM   HNF 9693   0.513   4.387  16.957
   7423SM   C2S 9694   0.598   4.480  17.127
   7423SM   H2S 9695   0.631   4.585  17.119
   7423SM   C3S 9696   0.723   4.388  17.105
   7423SM   H3S 9697   0.691   4.283  17.122
   7423SM    O3 9698   0.828   4.415  17.197
   7423SM   HO3 9699   0.784   4.458  17.270
   7423SM   C4S 9700   0.775   4.403  16.964
   7423SM   H4S 9701   0.811   4.504  16.939
   7423SM   C5S 9702   0.785   4.303  16.873
   7423SM   H5S 9703   0.757   4.201  16.902
   7423SM   C6S 9704   0.837   4.313  16.732
   7423SM   H6S 9705   0.759   4.275  16.663
   7423SM   H6T 9706   0.923   4.245  16.721
   7423SM   C7S 9707   0.881   4.452  16.680
   7423SM   H7S 9708   0.967   4.485  16.742
   7423SM   H7T 9709   0.799   4.526  16.692
   7423SM   C8S 9710   0.925   4.450  16.532
   7423SM   H8S 9711   0.994   4.364  16.517
   7423SM   H8T 9712   0.981   4.543  16.509
   7423SM   C9S 9713   0.808   4.438  16.433
   7423SM   H9S 9714   0.738   4.523  16.449
   7423SM   H9T 9715   0.752   4.345  16.454
   7423SM  C10S 9716   0.852   4.436  16.286
   7423SM  H10S 9717   0.921   4.350  16.271
   7423SM  H10T 9718   0.908   4.529  16.262
   7423SM  C11S 9719   0.733   4.422  16.189
   7423SM  H11S 9720   0.666   4.509  16.200
   7423SM  H11T 9721   0.675   4.331  16.217
   7423SM  C12S 9722   0.776   4.409  16.042
   7423SM  H12S 9723   0.842   4.320  16.032
   7423SM  H12T 9724   0.835   4.498  16.013
   7423SM  C13S 9725   0.657   4.394  15.946
   7423SM  H13S 9726   0.593   4.484  15.953
   7423SM  H13T 9727   0.596   4.306  15.977
   7423SM  C14S 9728   0.702   4.375  15.800
   7423SM  H14S 9729   0.762   4.281  15.793
   7423SM  H14T 9730   0.767   4.460  15.771
   7423SM  C15S 9731   0.585   4.364  15.701
   7423SM  H15S 9732   0.523   4.456  15.707
   7423SM  H15T 9733   0.520   4.279  15.730
   7423SM  C16S 9734   0.634   4.345  15.557
   7423SM  H16S 9735   0.701   4.256  15.553
   7423SM  H16T 9736   0.695   4.433  15.527
   7423SM  C17S 9737   0.520   4.326  15.456
   7423SM  H17S 9738   0.450   4.412  15.464
   7423SM  H17T 9739   0.463   4.234  15.484
   7423SM  C18S 9740   0.570   4.314  15.312
   7423SM  H18S 9741   0.640   4.228  15.302
   7423SM  H18T 9742   0.624   4.406  15.282
   7423SM  H18U 9743   0.485   4.299  15.242
   7423SM   C1F 9744   0.387   4.536  17.011
   7423SM    OF 9745   0.361   4.624  17.091
   7423SM   C2F 9746   0.301   4.511  16.890
   7423SM   H2F 9747   0.232   4.427  16.912
   7423SM   H2G 9748   0.366   4.481  16.805
   7423SM   C3F 9749   0.220   4.636  16.850
   7423SM   H3F 9750   0.288   4.721  16.827
   7423SM   H3G 9751   0.157   4.667  16.936
   7423SM   C4F 9752   0.125   4.613  16.731
   7423SM   H4F 9753   0.057   4.701  16.721
   7423SM   H4G 9754   0.061   4.525  16.752
   7423SM   C5F 9755   0.195   4.592  16.595
   7423SM   H5F 9756   0.116   4.575  16.518
   7423SM   H5G 9757   0.257   4.500  16.599
   7423SM   C6F 9758   0.283   4.709  16.547
   7423SM   H6F 9759   0.321   4.683  16.446
   7423SM   H6G 9760   0.371   4.719  16.614
   7423SM   C7F 9761   0.210   4.844  16.540
   7423SM   H7F 9762   0.183   4.875  16.643
   7423SM   H7G 9763   0.115   4.832  16.483
   7423SM   C8F 9764   0.294   4.957  16.477
   7423SM   H8F 9765   0.391   4.962  16.530
   7423SM   H8G 9766   0.243   5.054  16.494
   7423SM   C9F 9767   0.319   4.943  16.326
   7423SM   H9F 9768   0.366   4.845  16.304
   7423SM   H9G 9769   0.391   5.022  16.296
   7423SM  C10F 9770   0.192   4.959  16.240
   7423SM  H10F 9771   0.151   5.061  16.255
   7423SM  H10G 9772   0.115   4.887  16.273
   7423SM  C11F 9773   0.217   4.936  16.090
   7423SM  H11F 9774   0.119   4.940  16.037
   7423SM  H11G 9775   0.258   4.834  16.076
   7423SM  C12F 9776   0.311   5.039  16.025
   7423SM  H12F 9777   0.412   5.031  16.072
   7423SM  H12G 9778   0.272   5.141  16.045
   7423SM  C13F 9779   0.326   5.020  15.873
   7423SM  H13F 9780   0.392   5.101  15.833
   7423SM  H13G 9781   0.227   5.031  15.824
   7423SM  C14F 9782   0.386   4.884  15.833
   7423SM  H14F 9783   0.317   4.803  15.864
   7423SM  H14G 9784   0.482   4.870  15.888
   7423SM  C15F 9785   0.413   4.872  15.683
   7423SM  H15F 9786   0.483   4.952  15.651
   7423SM  H15G 9787   0.318   4.887  15.628
   7423SM  C16F 9788   0.472   4.735  15.646
   7423SM  H16F 9789   0.402   4.655  15.677
   7423SM  H16G 9790   0.567   4.721  15.703
   7423SM  C17F 9791   0.503   4.719  15.496
   7423SM  H17F 9792   0.563   4.627  15.483
   7423SM  H17G 9793   0.566   4.805  15.462
   7423SM  C18F 9794   0.377   4.707  15.409
   7423SM  H18F 9795   0.321   4.803  15.411
   7423SM  H18G 9796   0.312   4.629  15.453
   7423SM  C19F 9797   0.407   4.668  15.263
   7423SM  H19F 9798   0.311   4.650  15.211
   7423SM  H19G 9799   0.463   4.573  15.263
   7423SM  C20F 9800   0.485   4.775  15.185
   7423SM  H20F 9801   0.582   4.796  15.236
   7423SM  H20G 9802   0.426   4.869  15.185
   7423SM  C21F 9803   0.513   4.734  15.040
   7423SM  H21F 9804   0.548   4.823  14.984
   7423SM  H21G 9805   0.418   4.700  14.992
   7423SM  C22F 9806   0.619   4.624  15.027
   7423SM  H22F 9807   0.584   4.533  15.080
   7423SM  H22G 9808   0.712   4.658  15.077
   7423SM  C23F 9809   0.651   4.587  14.882
   7423SM  H23F 9810   0.691   4.675  14.827
   7423SM  H23G 9811   0.560   4.551  14.830
   7423SM  H23H 9812   0.728   4.506  14.878
   7523SM     N 9813   7.438   5.956  17.620
   7523SM   C15 9814   7.327   5.905  17.706
   7523SM  H15A 9815   7.255   5.852  17.646
   7523SM  H15B 9816   7.274   5.986  17.754
   7523SM  H15C 9817   7.364   5.837  17.783
   7523SM   C14 9818   7.499   5.841  17.545
   7523SM  H14A 9819   7.588   5.875  17.494
   7523SM  H14B 9820   7.430   5.800  17.473
   7523SM  H14C 9821   7.530   5.762  17.612
   7523SM   C13 9822   7.377   6.050  17.520
   7523SM  H13A 9823   7.330   6.134  17.569
   7523SM  H13B 9824   7.301   6.001  17.461
   7523SM  H13C 9825   7.452   6.088  17.452
   7523SM   C12 9826   7.545   6.026  17.702
   7523SM  H12A 9827   7.587   5.955  17.772
   7523SM  H12B 9828   7.498   6.104  17.760
   7523SM   C11 9829   7.665   6.089  17.626
   7523SM  H11A 9830   7.723   6.148  17.700
   7523SM  H11B 9831   7.627   6.159  17.549
   7523SM     P 9832   7.872   6.029  17.480
   7523SM   O13 9833   7.959   6.119  17.559
   7523SM   O14 9834   7.933   5.908  17.422
   7523SM   O11 9835   7.799   6.110  17.365
   7523SM   O12 9836   7.747   5.986  17.570
   7523SM   C1S 9837   7.697   6.047  17.287
   7523SM   H1S 9838   7.600   6.099  17.308
   7523SM   H1T 9839   7.681   5.939  17.310
   7523SM    NF 9840   7.800   5.948  17.085
   7523SM   HNF 9841   7.899   5.954  17.091
   7523SM   C2S 9842   7.722   6.061  17.134
   7523SM   H2S 9843   7.623   6.060  17.084
   7523SM   C3S 9844   7.788   6.198  17.103
   7523SM   H3S 9845   7.890   6.201  17.147
   7523SM    O3 9846   7.716   6.307  17.158
   7523SM   HO3 9847   7.719   6.288  17.252
   7523SM   C4S 9848   7.799   6.212  16.954
   7523SM   H4S 9849   7.707   6.184  16.900
   7523SM   C5S 9850   7.906   6.255  16.884
   7523SM   H5S 9851   7.995   6.290  16.938
   7523SM   C6S 9852   7.912   6.266  16.733
   7523SM   H6S 9853   8.016   6.245  16.700
   7523SM   H6T 9854   7.890   6.370  16.701
   7523SM   C7S 9855   7.819   6.169  16.656
   7523SM   H7S 9856   7.713   6.184  16.686
   7523SM   H7T 9857   7.847   6.064  16.682
   7523SM   C8S 9858   7.828   6.185  16.503
   7523SM   H8S 9859   7.935   6.174  16.474
   7523SM   H8T 9860   7.796   6.287  16.473
   7523SM   C9S 9861   7.746   6.080  16.427
   7523SM   H9S 9862   7.639   6.110  16.425
   7523SM   H9T 9863   7.753   5.983  16.482
   7523SM  C10S 9864   7.795   6.055  16.283
   7523SM  H10S 9865   7.736   5.971  16.239
   7523SM  H10T 9866   7.901   6.022  16.286
   7523SM  C11S 9867   7.782   6.177  16.191
   7523SM  H11S 9868   7.827   6.265  16.240
   7523SM  H11T 9869   7.674   6.198  16.176
   7523SM  C12S 9870   7.850   6.158  16.054
   7523SM  H12S 9871   7.815   6.063  16.007
   7523SM  H12T 9872   7.960   6.149  16.070
   7523SM  C13S 9873   7.821   6.275  15.960
   7523SM  H13S 9874   7.835   6.370  16.015
   7523SM  H13T 9875   7.714   6.270  15.929
   7523SM  C14S 9876   7.909   6.280  15.835
   7523SM  H14S 9877   7.910   6.182  15.783
   7523SM  H14T 9878   8.014   6.302  15.866
   7523SM  C15S 9879   7.861   6.389  15.737
   7523SM  H15S 9880   7.831   6.479  15.795
   7523SM  H15T 9881   7.772   6.352  15.683
   7523SM  C16S 9882   7.968   6.433  15.636
   7523SM  H16S 9883   8.007   6.344  15.582
   7523SM  H16T 9884   8.054   6.478  15.691
   7523SM  C17S 9885   7.914   6.534  15.534
   7523SM  H17S 9886   7.865   6.617  15.589
   7523SM  H17T 9887   7.836   6.484  15.473
   7523SM  C18S 9888   8.022   6.591  15.441
   7523SM  H18S 9889   8.095   6.652  15.498
   7523SM  H18T 9890   7.976   6.656  15.364
   7523SM  H18U 9891   8.076   6.509  15.390
   7523SM   C1F 9892   7.740   5.831  17.063
   7523SM    OF 9893   7.620   5.819  17.081
   7523SM   C2F 9894   7.825   5.717  17.015
   7523SM   H2F 9895   7.862   5.661  17.104
   7523SM   H2G 9896   7.913   5.756  16.960
   7523SM   C3F 9897   7.742   5.622  16.926
   7523SM   H3F 9898   7.702   5.676  16.837
   7523SM   H3G 9899   7.656   5.588  16.986
   7523SM   C4F 9900   7.815   5.495  16.880
   7523SM   H4F 9901   7.737   5.417  16.867
   7523SM   H4G 9902   7.882   5.461  16.962
   7523SM   C5F 9903   7.889   5.505  16.745
   7523SM   H5F 9904   7.815   5.537  16.669
   7523SM   H5G 9905   7.923   5.403  16.716
   7523SM   C6F 9906   8.009   5.600  16.740
   7523SM   H6F 9907   8.076   5.582  16.827
   7523SM   H6G 9908   7.973   5.705  16.747
   7523SM   C7F 9909   8.092   5.585  16.611
   7523SM   H7F 9910   8.118   5.478  16.596
   7523SM   H7G 9911   8.188   5.640  16.622
   7523SM   C8F 9912   8.019   5.637  16.486
   7523SM   H8F 9913   8.008   5.747  16.491
   7523SM   H8G 9914   7.917   5.594  16.483
   7523SM   C9F 9915   8.086   5.599  16.352
   7523SM   H9F 9916   8.020   5.634  16.270
   7523SM   H9G 9917   8.091   5.489  16.345
   7523SM  C10F 9918   8.229   5.651  16.331
   7523SM  H10F 9919   8.293   5.564  16.304
   7523SM  H10G 9920   8.269   5.694  16.425
   7523SM  C11F 9921   8.243   5.756  16.218
   7523SM  H11F 9922   8.347   5.794  16.217
   7523SM  H11G 9923   8.176   5.842  16.241
   7523SM  C12F 9924   8.207   5.703  16.078
   7523SM  H12F 9925   8.103   5.666  16.079
   7523SM  H12G 9926   8.272   5.617  16.052
   7523SM  C13F 9927   8.220   5.812  15.971
   7523SM  H13F 9928   8.327   5.822  15.943
   7523SM  H13G 9929   8.187   5.909  16.012
   7523SM  C14F 9930   8.137   5.784  15.845
   7523SM  H14F 9931   8.157   5.681  15.809
   7523SM  H14G 9932   8.168   5.853  15.764
   7523SM  C15F 9933   7.986   5.804  15.867
   7523SM  H15F 9934   7.967   5.906  15.906
   7523SM  H15G 9935   7.951   5.732  15.944
   7523SM  C16F 9936   7.903   5.782  15.739
   7523SM  H16F 9937   7.944   5.694  15.685
   7523SM  H16G 9938   7.913   5.870  15.672
   7523SM  C17F 9939   7.755   5.754  15.770
   7523SM  H17F 9940   7.706   5.844  15.811
   7523SM  H17G 9941   7.751   5.675  15.848
   7523SM  C18F 9942   7.678   5.702  15.648
   7523SM  H18F 9943   7.585   5.652  15.682
   7523SM  H18G 9944   7.739   5.626  15.595
   7523SM  C19F 9945   7.637   5.814  15.550
   7523SM  H19F 9946   7.726   5.875  15.524
   7523SM  H19G 9947   7.565   5.880  15.602
   7523SM  C20F 9948   7.573   5.760  15.421
   7523SM  H20F 9949   7.520   5.844  15.371
   7523SM  H20G 9950   7.497   5.683  15.447
   7523SM  C21F 9951   7.676   5.702  15.323
   7523SM  H21F 9952   7.728   5.616  15.369
   7523SM  H21G 9953   7.752   5.780  15.302
   7523SM  C22F 9954   7.613   5.658  15.190
   7523SM  H22F 9955   7.561   5.745  15.145
   7523SM  H22G 9956   7.537   5.580  15.210
   7523SM  C23F 9957   7.716   5.604  15.091
   7523SM  H23F 9958   7.667   5.574  14.996
   7523SM  H23G 9959   7.769   5.516  15.133
   7523SM  H23H 9960   7.792   5.682  15.068
   7623SM     N 9961   0.683   6.566  17.764
   7623SM   C15 9962   0.652   6.430  17.819
   7623SM  H15A 9963   0.589   6.378  17.749
   7623SM  H15B 9964   0.603   6.436  17.915
   7623SM  H15C 9965   0.742   6.372  17.828
   7623SM   C14 9966   0.560   6.652  17.770
   7623SM  H14A 9967   0.526   6.667  17.872
   7623SM  H14B 9968   0.479   6.607  17.714
   7623SM  H14C 9969   0.581   6.749  17.727
   7623SM   C13 9970   0.792   6.630  17.845
   7623SM  H13A 9971   0.882   6.572  17.841
   7623SM  H13B 9972   0.764   6.640  17.949
   7623SM  H13C 9973   0.814   6.729  17.806
   7623SM   C12 9974   0.728   6.554  17.619
   7623SM  H12A 9975   0.825   6.508  17.616
   7623SM  H12B 9976   0.741   6.654  17.580
   7623SM   C11 9977   0.637   6.475  17.522
   7623SM  H11A 9978   0.669   6.498  17.418
   7623SM  H11B 9979   0.532   6.512  17.530
   7623SM     P 9980   0.747   6.240  17.484
   7623SM   O13 9981   0.881   6.285  17.530
   7623SM   O14 9982   0.714   6.098  17.509
   7623SM   O11 9983   0.734   6.270  17.329
   7623SM   O12 9984   0.638   6.335  17.549
   7623SM   C1S 9985   0.607   6.265  17.263
   7623SM   H1S 9986   0.570   6.368  17.249
   7623SM   H1T 9987   0.529   6.212  17.323
   7623SM    NF 9988   0.572   6.060  17.125
   7623SM   HNF 9989   0.642   5.990  17.114
   7623SM   C2S 9990   0.615   6.199  17.121
   7623SM   H2S 9991   0.545   6.254  17.054
   7623SM   C3S 9992   0.760   6.216  17.065
   7623SM   H3S 9993   0.831   6.163  17.131
   7623SM    O3 9994   0.803   6.352  17.061
   7623SM   HO3 9995   0.758   6.392  17.136
   7623SM   C4S 9996   0.772   6.160  16.925
   7623SM   H4S 9997   0.703   6.201  16.851
   7623SM   C5S 9998   0.864   6.067  16.890
   7623SM   H5S 9999   0.934   6.032  16.967
   7623SM   C6S10000   0.887   6.004  16.755
   7623SM   H6S10001   0.877   5.894  16.763
   7623SM   H6T10002   0.993   6.023  16.729
   7623SM   C7S10003   0.805   6.049  16.633
   7623SM   H7S10004   0.801   6.160  16.627
   7623SM   H7T10005   0.701   6.011  16.641
   7623SM   C8S10006   0.870   5.997  16.503
   7623SM   H8S10007   0.885   5.887  16.510
   7623SM   H8T10008   0.971   6.043  16.495
   7623SM   C9S10009   0.793   6.029  16.375
   7623SM   H9S10010   0.766   6.136  16.374
   7623SM   H9T10011   0.699   5.970  16.373
   7623SM  C10S10012   0.875   5.998  16.248
   7623SM  H10S10013   0.909   5.893  16.249
   7623SM  H10T10014   0.965   6.063  16.248
   7623SM  C11S10015   0.796   6.024  16.119
   7623SM  H11S10016   0.748   6.124  16.126
   7623SM  H11T10017   0.715   5.948  16.109
   7623SM  C12S10018   0.884   6.023  15.993
   7623SM  H12S10019   0.939   5.927  15.987
   7623SM  H12T10020   0.958   6.105  16.000
   7623SM  C13S10021   0.802   6.042  15.864
   7623SM  H13S10022   0.755   6.143  15.865
   7623SM  H13T10023   0.719   5.968  15.862
   7623SM  C14S10024   0.886   6.025  15.737
   7623SM  H14S10025   0.941   5.929  15.742
   7623SM  H14T10026   0.961   6.107  15.731
   7623SM  C15S10027   0.799   6.025  15.609
   7623SM  H15S10028   0.741   6.119  15.605
   7623SM  H15T10029   0.727   5.940  15.615
   7623SM  C16S10030   0.882   6.012  15.481
   7623SM  H16S10031   0.942   5.919  15.484
   7623SM  H16T10032   0.954   6.098  15.477
   7623SM  C17S10033   0.798   6.013  15.353
   7623SM  H17S10034   0.866   6.020  15.265
   7623SM  H17T10035   0.734   6.104  15.352
   7623SM  C18S10036   0.710   5.889  15.335
   7623SM  H18S10037   0.655   5.893  15.238
   7623SM  H18T10038   0.635   5.881  15.416
   7623SM  H18U10039   0.772   5.797  15.335
   7623SM   C1F10040   0.445   6.026  17.145
   7623SM    OF10041   0.360   6.110  17.174
   7623SM   C2F10042   0.411   5.880  17.132
   7623SM   H2F10043   0.374   5.841  17.229
   7623SM   H2G10044   0.503   5.824  17.104
   7623SM   C3F10045   0.304   5.857  17.022
   7623SM   H3F10046   0.204   5.886  17.060
   7623SM   H3G10047   0.301   5.748  17.000
   7623SM   C4F10048   0.333   5.933  16.892
   7623SM   H4F10049   0.443   5.946  16.880
   7623SM   H4G10050   0.288   6.035  16.899
   7623SM   C5F10051   0.282   5.862  16.766
   7623SM   H5F10052   0.177   5.830  16.777
   7623SM   H5G10053   0.343   5.770  16.752
   7623SM   C6F10054   0.296   5.952  16.642
   7623SM   H6F10055   0.377   6.026  16.663
   7623SM   H6G10056   0.202   6.009  16.627
   7623SM   C7F10057   0.332   5.874  16.516
   7623SM   H7F10058   0.255   5.796  16.498
   7623SM   H7G10059   0.429   5.823  16.533
   7623SM   C8F10060   0.345   5.962  16.390
   7623SM   H8F10061   0.243   5.994  16.357
   7623SM   H8G10062   0.389   5.901  16.309
   7623SM   C9F10063   0.430   6.088  16.411
   7623SM   H9F10064   0.521   6.063  16.470
   7623SM   H9G10065   0.372   6.162  16.470
   7623SM  C10F10066   0.472   6.151  16.278
   7623SM  H10F10067   0.386   6.148  16.208
   7623SM  H10G10068   0.552   6.088  16.232
   7623SM  C11F10069   0.519   6.297  16.287
   7623SM  H11F10070   0.601   6.308  16.361
   7623SM  H11G10071   0.433   6.358  16.322
   7623SM  C12F10072   0.565   6.348  16.150
   7623SM  H12F10073   0.503   6.297  16.073
   7623SM  H12G10074   0.670   6.317  16.132
   7623SM  C13F10075   0.552   6.499  16.127
   7623SM  H13F10076   0.638   6.552  16.174
   7623SM  H13G10077   0.459   6.535  16.174
   7623SM  C14F10078   0.544   6.533  15.976
   7623SM  H14F10079   0.529   6.642  15.963
   7623SM  H14G10080   0.454   6.482  15.936
   7623SM  C15F10081   0.667   6.489  15.895
   7623SM  H15F10082   0.704   6.390  15.928
   7623SM  H15G10083   0.749   6.562  15.912
   7623SM  C16F10084   0.639   6.478  15.744
   7623SM  H16F10085   0.735   6.472  15.689
   7623SM  H16G10086   0.586   6.569  15.709
   7623SM  C17F10087   0.556   6.353  15.708
   7623SM  H17F10088   0.461   6.353  15.765
   7623SM  H17G10089   0.613   6.262  15.737
   7623SM  C18F10090   0.521   6.344  15.558
   7623SM  H18F10091   0.614   6.342  15.497
   7623SM  H18G10092   0.465   6.436  15.531
   7623SM  C19F10093   0.435   6.221  15.526
   7623SM  H19F10094   0.360   6.210  15.607
   7623SM  H19G10095   0.498   6.129  15.525
   7623SM  C20F10096   0.359   6.235  15.393
   7623SM  H20F10097   0.306   6.332  15.394
   7623SM  H20G10098   0.282   6.155  15.387
   7623SM  C21F10099   0.448   6.225  15.268
   7623SM  H21F10100   0.491   6.123  15.264
   7623SM  H21G10101   0.532   6.297  15.275
   7623SM  C22F10102   0.369   6.253  15.139
   7623SM  H22F10103   0.276   6.192  15.139
   7623SM  H22G10104   0.430   6.218  15.052
   7623SM  C23F10105   0.334   6.401  15.119
   7623SM  H23F10106   0.276   6.414  15.025
   7623SM  H23G10107   0.427   6.462  15.112
   7623SM  H23H10108   0.274   6.439  15.203
   7723SM     N10109   0.346   2.168  17.792
   7723SM   C1510110   0.352   2.022  17.759
   7723SM  H15A10111   0.254   1.978  17.755
   7723SM  H15B10112   0.410   1.966  17.830
   7723SM  H15C10113   0.398   2.011  17.662
   7723SM   C1410114   0.274   2.187  17.922
   7723SM  H14A10115   0.324   2.134  18.002
   7723SM  H14B10116   0.173   2.149  17.916
   7723SM  H14C10117   0.270   2.292  17.949
   7723SM   C1310118   0.488   2.216  17.808
   7723SM  H13A10119   0.542   2.158  17.881
   7723SM  H13B10120   0.492   2.320  17.837
   7723SM  H13C10121   0.540   2.206  17.714
   7723SM   C1210122   0.278   2.245  17.679
   7723SM  H12A10123   0.312   2.347  17.680
   7723SM  H12B10124   0.171   2.249  17.698
   7723SM   C1110125   0.298   2.192  17.535
   7723SM  H11A10126   0.246   2.261  17.465
   7723SM  H11B10127   0.247   2.094  17.523
   7723SM     P10128   0.524   2.302  17.465
   7723SM   O1310129   0.456   2.424  17.513
   7723SM   O1410130   0.660   2.278  17.519
   7723SM   O1110131   0.529   2.299  17.307
   7723SM   O1210132   0.436   2.176  17.501
   7723SM   C1S10133   0.407   2.316  17.233
   7723SM   H1S10134   0.356   2.410  17.262
   7723SM   H1T10135   0.337   2.232  17.252
   7723SM    NF10136   0.313   2.355  17.005
   7723SM   HNF10137   0.276   2.286  16.943
   7723SM   C2S10138   0.434   2.320  17.079
   7723SM   H2S10139   0.510   2.398  17.060
   7723SM   C3S10140   0.493   2.182  17.034
   7723SM   H3S10141   0.416   2.104  17.054
   7723SM    O310142   0.609   2.142  17.107
   7723SM   HO310143   0.608   2.203  17.181
   7723SM   C4S10144   0.523   2.186  16.887
   7723SM   H4S10145   0.601   2.259  16.858
   7723SM   C5S10146   0.466   2.107  16.793
   7723SM   H5S10147   0.393   2.031  16.826
   7723SM   C6S10148   0.493   2.108  16.645
   7723SM   H6S10149   0.396   2.108  16.591
   7723SM   H6T10150   0.543   2.013  16.618
   7723SM   C7S10151   0.575   2.226  16.587
   7723SM   H7S10152   0.677   2.228  16.631
   7723SM   H7T10153   0.524   2.321  16.613
   7723SM   C8S10154   0.588   2.218  16.433
   7723SM   H8S10155   0.623   2.316  16.393
   7723SM   H8T10156   0.487   2.200  16.391
   7723SM   C9S10157   0.684   2.109  16.385
   7723SM   H9S10158   0.679   2.023  16.455
   7723SM   H9T10159   0.789   2.146  16.386
   7723SM  C10S10160   0.650   2.052  16.246
   7723SM  H10S10161   0.541   2.030  16.241
   7723SM  H10T10162   0.704   1.956  16.233
   7723SM  C11S10163   0.688   2.142  16.127
   7723SM  H11S10164   0.796   2.166  16.132
   7723SM  H11T10165   0.632   2.238  16.133
   7723SM  C12S10166   0.658   2.072  15.994
   7723SM  H12S10167   0.548   2.053  15.986
   7723SM  H12T10168   0.709   1.973  15.994
   7723SM  C13S10169   0.704   2.151  15.870
   7723SM  H13S10170   0.812   2.174  15.880
   7723SM  H13T10171   0.649   2.247  15.865
   7723SM  C14S10172   0.681   2.071  15.741
   7723SM  H14S10173   0.572   2.050  15.730
   7723SM  H14T10174   0.733   1.974  15.748
   7723SM  C15S10175   0.730   2.144  15.615
   7723SM  H15S10176   0.839   2.163  15.623
   7723SM  H15T10177   0.680   2.243  15.608
   7723SM  C16S10178   0.701   2.065  15.487
   7723SM  H16S10179   0.592   2.046  15.479
   7723SM  H16T10180   0.751   1.966  15.494
   7723SM  C17S10181   0.748   2.135  15.359
   7723SM  H17S10182   0.857   2.154  15.366
   7723SM  H17T10183   0.697   2.233  15.351
   7723SM  C18S10184   0.720   2.052  15.233
   7723SM  H18S10185   0.769   1.953  15.239
   7723SM  H18T10186   0.758   2.105  15.143
   7723SM  H18U10187   0.611   2.037  15.220
   7723SM   C1F10188   0.258   2.476  17.011
   7723SM    OF10189   0.299   2.563  17.086
   7723SM   C2F10190   0.144   2.503  16.917
   7723SM   H2F10191   0.049   2.509  16.974
   7723SM   H2G10192   0.137   2.419  16.845
   7723SM   C3F10193   0.169   2.637  16.842
   7723SM   H3F10194   0.273   2.638  16.803
   7723SM   H3G10195   0.160   2.721  16.915
   7723SM   C4F10196   0.075   2.660  16.723
   7723SM   H4F10197   0.106   2.755  16.673
   7723SM   H4G10198   8.419   2.672  16.757
   7723SM   C5F10199   0.083   2.547  16.620
   7723SM   H5F10200   0.007   2.470  16.646
   7723SM   H5G10201   0.183   2.499  16.625
   7723SM   C6F10202   0.061   2.593  16.476
   7723SM   H6F10203   0.152   2.648  16.442
   7723SM   H6G10204   8.425   2.665  16.472
   7723SM   C7F10205   0.031   2.478  16.379
   7723SM   H7F10206   0.042   2.515  16.274
   7723SM   H7G10207   8.374   2.448  16.392
   7723SM   C8F10208   0.119   2.354  16.398
   7723SM   H8F10209   0.103   2.311  16.499
   7723SM   H8G10210   0.226   2.381  16.389
   7723SM   C9F10211   0.085   2.245  16.295
   7723SM   H9F10212   0.109   2.286  16.194
   7723SM   H9G10213   8.425   2.225  16.298
   7723SM  C10F10214   0.160   2.113  16.318
   7723SM  H10F10215   0.142   2.078  16.421
   7723SM  H10G10216   0.270   2.130  16.307
   7723SM  C11F10217   0.116   2.003  16.220
   7723SM  H11F10218   0.007   1.986  16.232
   7723SM  H11G10219   0.167   1.908  16.245
   7723SM  C12F10220   0.146   2.038  16.074
   7723SM  H12F10221   0.255   2.048  16.059
   7723SM  H12G10222   0.099   2.136  16.049
   7723SM  C13F10223   0.090   1.936  15.974
   7723SM  H13F10224   8.431   1.918  15.996
   7723SM  H13G10225   0.144   1.839  15.984
   7723SM  C14F10226   0.103   1.988  15.831
   7723SM  H14F10227   0.210   2.012  15.811
   7723SM  H14G10228   0.045   2.082  15.820
   7723SM  C15F10229   0.053   1.887  15.727
   7723SM  H15F10230   8.398   1.856  15.754
   7723SM  H15G10231   0.116   1.796  15.732
   7723SM  C16F10232   0.051   1.941  15.583
   7723SM  H16F10233   8.414   2.010  15.570
   7723SM  H16G10234   0.035   1.855  15.515
   7723SM  C17F10235   0.180   2.014  15.542
   7723SM  H17F10236   0.267   1.969  15.593
   7723SM  H17G10237   0.174   2.120  15.575
   7723SM  C18F10238   0.205   2.007  15.391
   7723SM  H18F10239   0.113   2.041  15.337
   7723SM  H18G10240   0.222   1.901  15.363
   7723SM  C19F10241   0.325   2.092  15.346
   7723SM  H19F10242   0.394   2.029  15.286
   7723SM  H19G10243   0.381   2.125  15.436
   7723SM  C20F10244   0.286   2.216  15.264
   7723SM  H20F10245   0.375   2.282  15.253
   7723SM  H20G10246   0.210   2.273  15.322
   7723SM  C21F10247   0.231   2.184  15.124
   7723SM  H21F10248   0.187   2.277  15.082
   7723SM  H21G10249   0.149   2.110  15.132
   7723SM  C22F10250   0.337   2.134  15.026
   7723SM  H22F10251   0.381   2.039  15.064
   7723SM  H22G10252   0.419   2.208  15.020
   7723SM  C23F10253   0.281   2.109  14.885
   7723SM  H23F10254   0.201   2.032  14.888
   7723SM  H23G10255   0.361   2.074  14.817
   7723SM  H23H10256   0.238   2.202  14.844
   7823SM     N10257   1.394   7.823  17.759
   7823SM   C1510258   1.498   7.722  17.723
   7823SM  H15A10259   1.504   7.713  17.616
   7823SM  H15B10260   1.474   7.624  17.760
   7823SM  H15C10261   1.595   7.752  17.759
   7823SM   C1410262   1.262   7.778  17.704
   7823SM  H14A10263   1.268   7.779  17.596
   7823SM  H14B10264   1.182   7.844  17.733
   7823SM  H14C10265   1.238   7.677  17.735
   7823SM   C1310266   1.385   7.834  17.909
   7823SM  H13A10267   1.351   7.741  17.952
   7823SM  H13B10268   1.317   7.912  17.939
   7823SM  H13C10269   1.482   7.857  17.951
   7823SM   C1210270   1.431   7.957  17.698
   7823SM  H12A10271   1.517   7.997  17.750
   7823SM  H12B10272   1.351   8.028  17.713
   7823SM   C1110273   1.469   7.959  17.547
   7823SM  H11A10274   1.568   7.911  17.536
   7823SM  H11B10275   1.484   8.066  17.518
   7823SM     P10276   1.407   7.793  17.354
   7823SM   O1310277   1.453   7.671  17.425
   7823SM   O1410278   1.296   7.777  17.258
   7823SM   O1110279   1.532   7.858  17.280
   7823SM   O1210280   1.368   7.902  17.463
   7823SM   C1S10281   1.530   7.994  17.233
   7823SM   H1S10282   1.628   8.040  17.258
   7823SM   H1T10283   1.453   8.056  17.283
   7823SM    NF10284   1.373   7.990  17.041
   7823SM   HNF10285   1.348   7.901  17.006
   7823SM   C2S10286   1.513   8.006  17.078
   7823SM   H2S10287   1.544   8.109  17.049
   7823SM   C3S10288   1.604   7.904  17.004
   7823SM   H3S10289   1.571   7.801  17.025
   7823SM    O310290   1.743   7.909  17.041
   7823SM   HO310291   1.762   8.000  17.062
   7823SM   C4S10292   1.596   7.931  16.857
   7823SM   H4S10293   1.627   8.033  16.830
   7823SM   C5S10294   1.556   7.847  16.760
   7823SM   H5S10295   1.522   7.745  16.786
   7823SM   C6S10296   1.549   7.882  16.613
   7823SM   H6S10297   1.455   7.841  16.570
   7823SM   H6T10298   1.633   7.834  16.558
   7823SM   C7S10299   1.551   8.033  16.581
   7823SM   H7S10300   1.648   8.078  16.612
   7823SM   H7T10301   1.471   8.083  16.640
   7823SM   C8S10302   1.526   8.066  16.433
   7823SM   H8S10303   1.430   8.019  16.402
   7823SM   H8T10304   1.607   8.023  16.370
   7823SM   C9S10305   1.516   8.217  16.410
   7823SM   H9S10306   1.617   8.263  16.421
   7823SM   H9T10307   1.451   8.260  16.488
   7823SM  C10S10308   1.457   8.255  16.273
   7823SM  H10S10309   1.437   8.365  16.272
   7823SM  H10T10310   1.359   8.204  16.260
   7823SM  C11S10311   1.546   8.221  16.153
   7823SM  H11S10312   1.568   8.112  16.152
   7823SM  H11T10313   1.643   8.274  16.165
   7823SM  C12S10314   1.483   8.263  16.020
   7823SM  H12S10315   1.449   8.368  16.027
   7823SM  H12T10316   1.393   8.200  16.002
   7823SM  C13S10317   1.580   8.250  15.902
   7823SM  H13S10318   1.625   8.148  15.903
   7823SM  H13T10319   1.662   8.323  15.915
   7823SM  C14S10320   1.511   8.271  15.767
   7823SM  H14S10321   1.461   8.371  15.765
   7823SM  H14T10322   1.432   8.194  15.755
   7823SM  C15S10323   1.610   8.262  15.650
   7823SM  H15S10324   1.671   8.170  15.661
   7823SM  H15T10325   1.678   8.349  15.655
   7823SM  C16S10326   1.543   8.259  15.511
   7823SM  H16S10327   1.621   8.277  15.434
   7823SM  H16T10328   1.469   8.342  15.504
   7823SM  C17S10329   1.475   8.125  15.481
   7823SM  H17S10330   1.395   8.106  15.556
   7823SM  H17T10331   1.550   8.044  15.491
   7823SM  C18S10332   1.413   8.119  15.341
   7823SM  H18S10333   1.366   8.020  15.323
   7823SM  H18T10334   1.492   8.135  15.263
   7823SM  H18U10335   1.336   8.198  15.329
   7823SM   C1F10336   1.277   8.075  17.075
   7823SM    OF10337   1.302   8.181  17.132
   7823SM   C2F10338   1.136   8.031  17.048
   7823SM   H2F10339   1.084   8.021  17.145
   7823SM   H2G10340   1.139   7.931  16.999
   7823SM   C3F10341   1.060   8.129  16.956
   7823SM   H3F10342   1.052   8.228  17.006
   7823SM   H3G10343   0.957   8.090  16.942
   7823SM   C4F10344   1.123   8.148  16.818
   7823SM   H4F10345   1.142   8.049  16.771
   7823SM   H4G10346   1.221   8.199  16.830
   7823SM   C5F10347   1.035   8.232  16.724
   7823SM   H5F10348   0.999   8.321  16.780
   7823SM   H5G10349   0.946   8.173  16.693
   7823SM   C6F10350   1.110   8.282  16.599
   7823SM   H6F10351   1.199   8.338  16.633
   7823SM   H6G10352   1.045   8.354  16.545
   7823SM   C7F10353   1.154   8.173  16.501
   7823SM   H7F10354   1.213   8.095  16.554
   7823SM   H7G10355   1.222   8.221  16.428
   7823SM   C8F10356   1.039   8.109  16.422
   7823SM   H8F10357   0.976   8.191  16.382
   7823SM   H8G10358   0.976   8.047  16.488
   7823SM   C9F10359   1.087   8.025  16.302
   7823SM   H9F10360   1.160   8.084  16.242
   7823SM   H9G10361   1.001   8.003  16.236
   7823SM  C10F10362   1.151   7.891  16.341
   7823SM  H10F10363   1.075   7.828  16.392
   7823SM  H10G10364   1.234   7.909  16.413
   7823SM  C11F10365   1.207   7.814  16.219
   7823SM  H11F10366   1.283   7.878  16.169
   7823SM  H11G10367   1.124   7.797  16.147
   7823SM  C12F10368   1.270   7.680  16.258
   7823SM  H12F10369   1.192   7.612  16.300
   7823SM  H12G10370   1.343   7.701  16.339
   7823SM  C13F10371   1.345   7.610  16.143
   7823SM  H13F10372   1.421   7.544  16.191
   7823SM  H13G10373   1.401   7.684  16.082
   7823SM  C14F10374   1.259   7.519  16.053
   7823SM  H14F10375   1.180   7.471  16.115
   7823SM  H14G10376   1.324   7.438  16.013
   7823SM  C15F10377   1.196   7.589  15.932
   7823SM  H15F10378   1.276   7.625  15.863
   7823SM  H15G10379   1.138   7.678  15.965
   7823SM  C16F10380   1.101   7.494  15.855
   7823SM  H16F10381   1.020   7.465  15.925
   7823SM  H16G10382   1.155   7.401  15.827
   7823SM  C17F10383   1.035   7.557  15.731
   7823SM  H17F10384   1.000   7.659  15.756
   7823SM  H17G10385   0.946   7.497  15.705
   7823SM  C18F10386   1.125   7.562  15.606
   7823SM  H18F10387   1.217   7.621  15.628
   7823SM  H18G10388   1.070   7.616  15.526
   7823SM  C19F10389   1.164   7.423  15.553
   7823SM  H19F10390   1.074   7.360  15.548
   7823SM  H19G10391   1.236   7.375  15.623
   7823SM  C20F10392   1.227   7.429  15.413
   7823SM  H20F10393   1.316   7.496  15.414
   7823SM  H20G10394   1.154   7.471  15.342
   7823SM  C21F10395   1.271   7.290  15.363
   7823SM  H21F10396   1.185   7.220  15.368
   7823SM  H21G10397   1.351   7.251  15.429
   7823SM  C22F10398   1.322   7.293  15.218
   7823SM  H22F10399   1.405   7.367  15.211
   7823SM  H22G10400   1.241   7.329  15.152
   7823SM  C23F10401   1.372   7.157  15.168
   7823SM  H23F10402   1.291   7.082  15.172
   7823SM  H23G10403   1.457   7.121  15.230
   7823SM  H23H10404   1.408   7.165  15.063
   7923SM     N10405   7.636   0.532  17.781
   7923SM   C1510406   7.611   0.672  17.826
   7923SM  H15A10407   7.545   0.677  17.912
   7923SM  H15B10408   7.566   0.729  17.746
   7923SM  H15C10409   7.703   0.722  17.854
   7923SM   C1410410   7.732   0.535  17.666
   7923SM  H14A10411   7.766   0.436  17.641
   7923SM  H14B10412   7.819   0.595  17.687
   7923SM  H14C10413   7.682   0.573  17.579
   7923SM   C1310414   7.701   0.454  17.892
   7923SM  H13A10415   7.721   0.353  17.859
   7923SM  H13B10416   7.638   0.449  17.979
   7923SM  H13C10417   7.795   0.499  17.921
   7923SM   C1210418   7.507   0.464  17.737
   7923SM  H12A10419   7.440   0.458  17.821
   7923SM  H12B10420   7.531   0.362  17.708
   7923SM   C1110421   7.432   0.525  17.616
   7923SM  H11A10422   7.415   0.634  17.634
   7923SM  H11B10423   7.331   0.479  17.609
   7923SM     P10424   7.509   0.365  17.427
   7923SM   O1310425   7.527   0.263  17.532
   7923SM   O1410426   7.393   0.355  17.336
   7923SM   O1110427   7.642   0.371  17.341
   7923SM   O1210428   7.506   0.509  17.495
   7923SM   C1S10429   7.687   0.490  17.276
   7923SM   H1S10430   7.798   0.486  17.270
   7923SM   H1T10431   7.664   0.582  17.333
   7923SM    NF10432   7.495   0.550  17.136
   7923SM   HNF10433   7.430   0.479  17.161
   7923SM   C2S10434   7.633   0.507  17.130
   7923SM   H2S10435   7.694   0.586  17.081
   7923SM   C3S10436   7.651   0.376  17.047
   7923SM   H3S10437   7.589   0.296  17.093
   7923SM    O310438   7.785   0.327  17.045
   7923SM   HO310439   7.826   0.359  17.126
   7923SM   C4S10440   7.600   0.401  16.907
   7923SM   H4S10441   7.500   0.358  16.889
   7923SM   C5S10442   7.662   0.466  16.806
   7923SM   H5S10443   7.763   0.506  16.823
   7923SM   C6S10444   7.604   0.488  16.669
   7923SM   H6S10445   7.554   0.587  16.665
   7923SM   H6T10446   7.526   0.412  16.645
   7923SM   C7S10447   7.711   0.484  16.558
   7923SM   H7S10448   7.757   0.383  16.553
   7923SM   H7T10449   7.792   0.557  16.582
   7923SM   C8S10450   7.654   0.520  16.420
   7923SM   H8S10451   7.606   0.620  16.426
   7923SM   H8T10452   7.575   0.447  16.393
   7923SM   C9S10453   7.760   0.523  16.309
   7923SM   H9S10454   7.800   0.420  16.293
   7923SM   H9T10455   7.845   0.587  16.340
   7923SM  C10S10456   7.704   0.577  16.177
   7923SM  H10S10457   7.673   0.682  16.192
   7923SM  H10T10458   7.614   0.518  16.150
   7923SM  C11S10459   7.804   0.573  16.060
   7923SM  H11S10460   7.831   0.467  16.039
   7923SM  H11T10461   7.897   0.626  16.091
   7923SM  C12S10462   7.751   0.638  15.931
   7923SM  H12S10463   7.830   0.633  15.853
   7923SM  H12T10464   7.730   0.746  15.950
   7923SM  C13S10465   7.623   0.572  15.876
   7923SM  H13S10466   7.541   0.584  15.950
   7923SM  H13T10467   7.642   0.463  15.863
   7923SM  C14S10468   7.576   0.631  15.742
   7923SM  H14S10469   7.655   0.615  15.666
   7923SM  H14T10470   7.563   0.741  15.754
   7923SM  C15S10471   7.444   0.571  15.691
   7923SM  H15S10472   7.371   0.565  15.773
   7923SM  H15T10473   7.464   0.468  15.654
   7923SM  C16S10474   7.383   0.654  15.576
   7923SM  H16S10475   7.463   0.684  15.505
   7923SM  H16T10476   7.339   0.747  15.618
   7923SM  C17S10477   7.277   0.578  15.496
   7923SM  H17S10478   7.201   0.536  15.566
   7923SM  H17T10479   7.326   0.491  15.446
   7923SM  C18S10480   7.208   0.665  15.391
   7923SM  H18S10481   7.283   0.709  15.322
   7923SM  H18T10482   7.153   0.748  15.440
   7923SM  H18U10483   7.136   0.605  15.331
   7923SM   C1F10484   7.463   0.678  17.156
   7923SM    OF10485   7.551   0.763  17.166
   7923SM   C2F10486   7.318   0.711  17.168
   7923SM   H2F10487   7.298   0.746  17.272
   7923SM   H2G10488   7.257   0.620  17.151
   7923SM   C3F10489   7.277   0.822  17.068
   7923SM   H3F10490   7.335   0.914  17.090
   7923SM   H3G10491   7.170   0.847  17.084
   7923SM   C4F10492   7.298   0.786  16.920
   7923SM   H4F10493   7.404   0.757  16.902
   7923SM   H4G10494   7.279   0.877  16.859
   7923SM   C5F10495   7.205   0.676  16.868
   7923SM   H5F10496   7.100   0.702  16.894
   7923SM   H5G10497   7.229   0.579  16.917
   7923SM   C6F10498   7.214   0.659  16.715
   7923SM   H6F10499   7.316   0.622  16.689
   7923SM   H6G10500   7.200   0.758  16.666
   7923SM   C7F10501   7.108   0.563  16.660
   7923SM   H7F10502   7.007   0.604  16.682
   7923SM   H7G10503   7.116   0.465  16.713
   7923SM   C8F10504   7.118   0.538  16.509
   7923SM   H8F10505   7.119   0.634  16.453
   7923SM   H8G10506   7.027   0.483  16.477
   7923SM   C9F10507   7.240   0.454  16.469
   7923SM   H9F10508   7.258   0.378  16.548
   7923SM   H9G10509   7.331   0.517  16.463
   7923SM  C10F10510   7.221   0.376  16.337
   7923SM  H10F10511   7.129   0.315  16.346
   7923SM  H10G10512   7.306   0.306  16.325
   7923SM  C11F10513   7.210   0.465  16.212
   7923SM  H11F10514   7.307   0.519  16.197
   7923SM  H11G10515   7.132   0.542  16.229
   7923SM  C12F10516   7.174   0.387  16.084
   7923SM  H12F10517   7.171   0.459  15.999
   7923SM  H12G10518   7.071   0.347  16.096
   7923SM  C13F10519   7.268   0.271  16.048
   7923SM  H13F10520   7.235   0.228  15.952
   7923SM  H13G10521   7.261   0.191  16.125
   7923SM  C14F10522   7.415   0.314  16.035
   7923SM  H14F10523   7.453   0.342  16.135
   7923SM  H14G10524   7.420   0.404  15.970
   7923SM  C15F10525   7.506   0.205  15.976
   7923SM  H15F10526   7.483   0.107  16.022
   7923SM  H15G10527   7.611   0.230  16.003
   7923SM  C16F10528   7.500   0.195  15.823
   7923SM  H16F10529   7.519   0.297  15.782
   7923SM  H16G10530   7.398   0.165  15.790
   7923SM  C17F10531   7.604   0.098  15.765
   7923SM  H17F10532   7.573   8.443  15.790
   7923SM  H17G10533   7.702   0.116  15.814
   7923SM  C18F10534   7.624   0.111  15.613
   7923SM  H18F10535   7.526   0.102  15.562
   7923SM  H18G10536   7.687   0.026  15.580
   7923SM  C19F10537   7.694   0.241  15.570
   7923SM  H19F10538   7.779   0.259  15.639
   7923SM  H19G10539   7.624   0.327  15.581
   7923SM  C20F10540   7.748   0.238  15.427
   7923SM  H20F10541   7.818   0.152  15.416
   7923SM  H20G10542   7.806   0.331  15.409
   7923SM  C21F10543   7.640   0.226  15.318
   7923SM  H21F10544   7.573   0.315  15.324
   7923SM  H21G10545   7.577   0.137  15.339
   7923SM  C22F10546   7.696   0.214  15.176
   7923SM  H22F10547   7.611   0.197  15.106
   7923SM  H22G10548   7.761   0.125  15.171
   7923SM  C23F10549   7.775   0.337  15.128
   7923SM  H23F10550   7.808   0.323  15.023
   7923SM  H23G10551   7.866   0.352  15.190
   7923SM  H23H10552   7.712   0.428  15.134
   8023SM     N10553   0.657   0.461  17.708
   8023SM   C1510554   0.786   0.500  17.774
   8023SM  H15A10555   0.845   0.412  17.799
   8023SM  H15B10556   0.770   0.556  17.865
   8023SM  H15C10557   0.848   0.559  17.709
   8023SM   C1410558   0.687   0.388  17.580
   8023SM  H14A10559   0.747   0.449  17.513
   8023SM  H14B10560   0.595   0.367  17.529
   8023SM  H14C10561   0.740   0.296  17.598
   8023SM   C1310562   0.583   0.365  17.797
   8023SM  H13A10563   0.642   0.276  17.814
   8023SM  H13B10564   0.493   0.333  17.747
   8023SM  H13C10565   0.558   0.409  17.892
   8023SM   C1210566   0.572   0.583  17.678
   8023SM  H12A10567   0.618   0.634  17.594
   8023SM  H12B10568   0.576   0.650  17.763
   8023SM   C1110569   0.423   0.560  17.641
   8023SM  H11A10570   0.378   0.658  17.613
   8023SM  H11B10571   0.370   0.522  17.730
   8023SM     P10572   0.273   0.412  17.486
   8023SM   O1310573   0.285   0.264  17.483
   8023SM   O1410574   0.165   0.469  17.570
   8023SM   O1110575   0.259   0.464  17.338
   8023SM   O1210576   0.413   0.469  17.532
   8023SM   C1S10577   0.368   0.507  17.255
   8023SM   H1S10578   0.460   0.530  17.313
   8023SM   H1T10579   0.339   0.602  17.204
   8023SM    NF10580   0.515   0.454  17.062
   8023SM   HNF10581   0.493   0.479  16.968
   8023SM   C2S10582   0.405   0.405  17.143
   8023SM   H2S10583   0.437   0.310  17.192
   8023SM   C3S10584   0.278   0.374  17.057
   8023SM   H3S10585   0.239   0.470  17.017
   8023SM    O310586   0.172   0.314  17.131
   8023SM   HO310587   0.181   0.356  17.217
   8023SM   C4S10588   0.313   0.282  16.942
   8023SM   H4S10589   0.353   0.184  16.973
   8023SM   C5S10590   0.296   0.309  16.810
   8023SM   H5S10591   0.253   0.405  16.780
   8023SM   C6S10592   0.332   0.214  16.698
   8023SM   H6S10593   0.242   0.158  16.665
   8023SM   H6T10594   0.407   0.139  16.731
   8023SM   C7S10595   0.389   0.287  16.574
   8023SM   H7S10596   0.477   0.348  16.603
   8023SM   H7T10597   0.312   0.356  16.533
   8023SM   C8S10598   0.432   0.190  16.463
   8023SM   H8S10599   0.347   0.123  16.436
   8023SM   H8T10600   0.514   0.126  16.502
   8023SM   C9S10601   0.481   0.261  16.335
   8023SM   H9S10602   0.557   0.337  16.364
   8023SM   H9T10603   0.396   0.316  16.289
   8023SM  C10S10604   0.544   0.165  16.232
   8023SM  H10S10605   0.468   0.091  16.198
   8023SM  H10T10606   0.626   0.110  16.282
   8023SM  C11S10607   0.602   0.239  16.110
   8023SM  H11S10608   0.662   0.324  16.149
   8023SM  H11T10609   0.520   0.281  16.048
   8023SM  C12S10610   0.695   0.153  16.023
   8023SM  H12S10611   0.748   0.080  16.089
   8023SM  H12T10612   0.773   0.218  15.978
   8023SM  C13S10613   0.624   0.077  15.910
   8023SM  H13S10614   0.530   0.032  15.947
   8023SM  H13T10615   0.691   8.442  15.878
   8023SM  C14S10616   0.596   0.163  15.785
   8023SM  H14S10617   0.683   0.228  15.765
   8023SM  H14T10618   0.508   0.229  15.805
   8023SM  C15S10619   0.571   0.077  15.660
   8023SM  H15S10620   0.484   0.011  15.678
   8023SM  H15T10621   0.660   0.013  15.642
   8023SM  C16S10622   0.544   0.160  15.533
   8023SM  H16S10623   0.624   0.235  15.520
   8023SM  H16T10624   0.448   0.214  15.546
   8023SM  C17S10625   0.536   0.074  15.406
   8023SM  H17S10626   0.459   8.443  15.421
   8023SM  H17T10627   0.634   0.023  15.392
   8023SM  C18S10628   0.501   0.154  15.281
   8023SM  H18S10629   0.502   0.088  15.191
   8023SM  H18T10630   0.575   0.235  15.265
   8023SM  H18U10631   0.400   0.199  15.290
   8023SM   C1F10632   0.641   0.470  17.104
   8023SM    OF10633   0.677   0.437  17.217
   8023SM   C2F10634   0.739   0.522  17.003
   8023SM   H2F10635   0.695   0.513  16.901
   8023SM   H2G10636   0.829   0.458  17.006
   8023SM   C3F10637   0.781   0.668  17.029
   8023SM   H3F10638   0.855   0.697  16.951
   8023SM   H3G10639   0.833   0.674  17.127
   8023SM   C4F10640   0.666   0.771  17.027
   8023SM   H4F10641   0.711   0.873  17.037
   8023SM   H4G10642   0.602   0.755  17.117
   8023SM   C5F10643   0.576   0.768  16.902
   8023SM   H5F10644   0.497   0.846  16.911
   8023SM   H5G10645   0.523   0.670  16.899
   8023SM   C6F10646   0.650   0.788  16.769
   8023SM   H6F10647   0.722   0.705  16.753
   8023SM   H6G10648   0.709   0.882  16.774
   8023SM   C7F10649   0.556   0.796  16.647
   8023SM   H7F10650   0.617   0.815  16.556
   8023SM   H7G10651   0.488   0.882  16.660
   8023SM   C8F10652   0.472   0.668  16.625
   8023SM   H8F10653   0.412   0.649  16.717
   8023SM   H8G10654   0.540   0.581  16.610
   8023SM   C9F10655   0.374   0.678  16.508
   8023SM   H9F10656   0.313   0.771  16.519
   8023SM   H9G10657   0.304   0.592  16.514
   8023SM  C10F10658   0.440   0.677  16.370
   8023SM  H10F10659   0.503   0.586  16.360
   8023SM  H10G10660   0.506   0.765  16.359
   8023SM  C11F10661   0.336   0.679  16.256
   8023SM  H11F10662   0.271   0.769  16.270
   8023SM  H11G10663   0.271   0.589  16.264
   8023SM  C12F10664   0.398   0.686  16.116
   8023SM  H12F10665   0.470   0.770  16.113
   8023SM  H12G10666   0.317   0.707  16.043
   8023SM  C13F10667   0.470   0.557  16.074
   8023SM  H13F10668   0.398   0.472  16.079
   8023SM  H13G10669   0.551   0.537  16.146
   8023SM  C14F10670   0.531   0.563  15.932
   8023SM  H14F10671   0.592   0.471  15.918
   8023SM  H14G10672   0.600   0.650  15.925
   8023SM  C15F10673   0.428   0.569  15.819
   8023SM  H15F10674   0.380   0.669  15.818
   8023SM  H15G10675   0.348   0.494  15.840
   8023SM  C16F10676   0.489   0.539  15.681
   8023SM  H16F10677   0.528   0.435  15.680
   8023SM  H16G10678   0.575   0.607  15.665
   8023SM  C17F10679   0.391   0.557  15.563
   8023SM  H17F10680   0.446   0.536  15.469
   8023SM  H17G10681   0.359   0.663  15.560
   8023SM  C18F10682   0.267   0.466  15.569
   8023SM  H18F10683   0.212   0.483  15.664
   8023SM  H18G10684   0.300   0.360  15.568
   8023SM  C19F10685   0.170   0.490  15.452
   8023SM  H19F10686   0.227   0.493  15.357
   8023SM  H19G10687   0.124   0.590  15.467
   8023SM  C20F10688   0.058   0.385  15.443
   8023SM  H20F10689   8.414   0.434  15.406
   8023SM  H20G10690   0.036   0.347  15.545
   8023SM  C21F10691   0.090   0.268  15.349
   8023SM  H21F10692   0.016   0.187  15.367
   8023SM  H21G10693   0.191   0.227  15.374
   8023SM  C22F10694   0.084   0.306  15.200
   8023SM  H22F10695   0.159   0.386  15.179
   8023SM  H22G10696   8.432   0.348  15.179
   8023SM  C23F10697   0.110   0.189  15.105
   8023SM  H23F10698   0.212   0.147  15.122
   8023SM  H23G10699   0.102   0.222  15.000
   8023SM  H23H10700   0.036   0.108  15.123
   8123SM     N10701   3.744   4.132  12.193
   8123SM   C1510702   3.681   3.997  12.179
   8123SM  H15A10703   3.752   3.924  12.144
   8123SM  H15B10704   3.598   3.998  12.110
   8123SM  H15C10705   3.645   3.963  12.276
   8123SM   C1410706   3.789   4.178  12.058
   8123SM  H14A10707   3.835   4.276  12.064
   8123SM  H14B10708   3.707   4.184  11.988
   8123SM  H14C10709   3.864   4.111  12.018
   8123SM   C1310710   3.642   4.228  12.247
   8123SM  H13A10711   3.552   4.230  12.188
   8123SM  H13B10712   3.682   4.328  12.252
   8123SM  H13C10713   3.616   4.200  12.348
   8123SM   C1210714   3.862   4.125  12.289
   8123SM  H12A10715   3.895   4.225  12.311
   8123SM  H12B10716   3.946   4.078  12.239
   8123SM   C1110717   3.841   4.054  12.425
   8123SM  H11A10718   3.938   4.050  12.479
   8123SM  H11B10719   3.811   3.948  12.408
   8123SM     P10720   3.780   4.253  12.579
   8123SM   O1310721   3.887   4.324  12.505
   8123SM   O1410722   3.655   4.330  12.604
   8123SM   O1110723   3.835   4.196  12.716
   8123SM   O1210724   3.740   4.120  12.503
   8123SM   C1S10725   3.744   4.124  12.800
   8123SM   H1S10726   3.707   4.033  12.748
   8123SM   H1T10727   3.656   4.187  12.827
   8123SM    NF10728   3.705   4.021  13.022
   8123SM   HNF10729   3.695   4.060  13.113
   8123SM   C2S10730   3.808   4.079  12.936
   8123SM   H2S10731   3.884   4.001  12.915
   8123SM   C3S10732   3.881   4.202  12.999
   8123SM   H3S10733   3.809   4.287  13.001
   8123SM    O310734   3.995   4.246  12.925
   8123SM   HO310735   3.976   4.217  12.836
   8123SM   C4S10736   3.921   4.174  13.142
   8123SM   H4S10737   3.860   4.231  13.213
   8123SM   C5S10738   4.021   4.096  13.190
   8123SM   H5S10739   4.085   4.041  13.120
   8123SM   C6S10740   4.053   4.078  13.337
   8123SM   H6S10741   4.163   4.072  13.349
   8123SM   H6T10742   4.012   3.981  13.373
   8123SM   C7S10743   4.004   4.192  13.429
   8123SM   H7S10744   3.893   4.203  13.421
   8123SM   H7T10745   4.050   4.287  13.395
   8123SM   C8S10746   4.036   4.172  13.578
   8123SM   H8S10747   4.143   4.145  13.590
   8123SM   H8T10748   3.974   4.089  13.617
   8123SM   C9S10749   4.008   4.300  13.660
   8123SM   H9S10750   3.908   4.340  13.631
   8123SM   H9T10751   4.083   4.376  13.631
   8123SM  C10S10752   4.010   4.281  13.812
   8123SM  H10S10753   4.010   4.381  13.859
   8123SM  H10T10754   4.104   4.230  13.843
   8123SM  C11S10755   3.888   4.204  13.865
   8123SM  H11S10756   3.898   4.096  13.839
   8123SM  H11T10757   3.798   4.243  13.813
   8123SM  C12S10758   3.863   4.219  14.016
   8123SM  H12S10759   3.764   4.175  14.039
   8123SM  H12T10760   3.859   4.326  14.042
   8123SM  C13S10761   3.968   4.149  14.105
   8123SM  H13S10762   4.067   4.196  14.089
   8123SM  H13T10763   3.975   4.042  14.074
   8123SM  C14S10764   3.930   4.156  14.253
   8123SM  H14S10765   3.831   4.108  14.268
   8123SM  H14T10766   3.921   4.262  14.283
   8123SM  C15S10767   4.032   4.085  14.345
   8123SM  H15S10768   4.129   4.139  14.340
   8123SM  H15T10769   4.048   3.983  14.306
   8123SM  C16S10770   3.986   4.075  14.491
   8123SM  H16S10771   4.062   4.018  14.548
   8123SM  H16T10772   3.891   4.018  14.496
   8123SM  C17S10773   3.964   4.211  14.560
   8123SM  H17S10774   3.883   4.266  14.508
   8123SM  H17T10775   4.057   4.272  14.549
   8123SM  C18S10776   3.929   4.198  14.709
   8123SM  H18S10777   4.011   4.148  14.764
   8123SM  H18T10778   3.836   4.139  14.722
   8123SM  H18U10779   3.914   4.299  14.754
   8123SM   C1F10780   3.635   3.911  12.992
   8123SM    OF10781   3.655   3.847  12.889
   8123SM   C2F10782   3.527   3.870  13.087
   8123SM   H2F10783   3.441   3.832  13.027
   8123SM   H2G10784   3.491   3.958  13.144
   8123SM   C3F10785   3.573   3.757  13.183
   8123SM   H3F10786   3.617   3.674  13.125
   8123SM   H3G10787   3.483   3.717  13.235
   8123SM   C4F10788   3.674   3.800  13.291
   8123SM   H4F10789   3.767   3.838  13.244
   8123SM   H4G10790   3.701   3.711  13.350
   8123SM   C5F10791   3.617   3.905  13.388
   8123SM   H5F10792   3.521   3.868  13.428
   8123SM   H5G10793   3.598   4.000  13.333
   8123SM   C6F10794   3.712   3.934  13.505
   8123SM   H6F10795   3.813   3.956  13.464
   8123SM   H6G10796   3.721   3.843  13.568
   8123SM   C7F10797   3.668   4.054  13.592
   8123SM   H7F10798   3.664   4.144  13.527
   8123SM   H7G10799   3.746   4.071  13.669
   8123SM   C8F10800   3.531   4.037  13.661
   8123SM   H8F10801   3.454   4.018  13.584
   8123SM   H8G10802   3.505   4.132  13.711
   8123SM   C9F10803   3.526   3.924  13.766
   8123SM   H9F10804   3.559   3.828  13.721
   8123SM   H9G10805   3.420   3.912  13.797
   8123SM  C10F10806   3.607   3.954  13.893
   8123SM  H10F10807   3.573   4.052  13.932
   8123SM  H10G10808   3.715   3.964  13.868
   8123SM  C11F10809   3.590   3.847  14.002
   8123SM  H11F10810   3.660   3.764  13.981
   8123SM  H11G10811   3.487   3.805  13.997
   8123SM  C12F10812   3.614   3.902  14.143
   8123SM  H12F10813   3.703   3.968  14.141
   8123SM  H12G10814   3.636   3.818  14.212
   8123SM  C13F10815   3.492   3.979  14.197
   8123SM  H13F10816   3.409   3.907  14.215
   8123SM  H13G10817   3.457   4.051  14.119
   8123SM  C14F10818   3.519   4.059  14.326
   8123SM  H14F10819   3.427   4.114  14.353
   8123SM  H14G10820   3.598   4.134  14.305
   8123SM  C15F10821   3.563   3.972  14.444
   8123SM  H15F10822   3.656   3.918  14.417
   8123SM  H15G10823   3.485   3.896  14.466
   8123SM  C16F10824   3.592   4.054  14.572
   8123SM  H16F10825   3.664   4.134  14.546
   8123SM  H16G10826   3.641   3.987  14.646
   8123SM  C17F10827   3.466   4.114  14.637
   8123SM  H17F10828   3.396   4.032  14.661
   8123SM  H17G10829   3.415   4.182  14.566
   8123SM  C18F10830   3.498   4.192  14.766
   8123SM  H18F10831   3.563   4.129  14.831
   8123SM  H18G10832   3.403   4.210  14.822
   8123SM  C19F10833   3.566   4.327  14.741
   8123SM  H19F10834   3.493   4.396  14.692
   8123SM  H19G10835   3.651   4.313  14.671
   8123SM  C20F10836   3.620   4.393  14.869
   8123SM  H20F10837   3.692   4.322  14.916
   8123SM  H20G10838   3.537   4.409  14.941
   8123SM  C21F10839   3.691   4.526  14.841
   8123SM  H21F10840   3.616   4.602  14.812
   8123SM  H21G10841   3.759   4.511  14.754
   8123SM  C22F10842   3.775   4.577  14.959
   8123SM  H22F10843   3.830   4.668  14.925
   8123SM  H22G10844   3.852   4.501  14.984
   8123SM  C23F10845   3.695   4.612  15.085
   8123SM  H23F10846   3.762   4.650  15.165
   8123SM  H23G10847   3.642   4.522  15.123
   8123SM  H23H10848   3.620   4.690  15.062
   8223SM     N10849   4.389   4.737  12.315
   8223SM   C1510850   4.267   4.806  12.262
   8223SM  H15A10851   4.262   4.802  12.154
   8223SM  H15B10852   4.271   4.910  12.291
   8223SM  H15C10853   4.177   4.764  12.304
   8223SM   C1410854   4.380   4.590  12.290
   8223SM  H14A10855   4.469   4.540  12.324
   8223SM  H14B10856   4.368   4.570  12.184
   8223SM  H14C10857   4.295   4.548  12.342
   8223SM   C1310858   4.509   4.794  12.245
   8223SM  H13A10859   4.504   4.778  12.138
   8223SM  H13B10860   4.602   4.751  12.282
   8223SM  H13C10861   4.514   4.900  12.261
   8223SM   C1210862   4.400   4.764  12.464
   8223SM  H12A10863   4.471   4.695  12.508
   8223SM  H12B10864   4.305   4.741  12.510
   8223SM   C1110865   4.441   4.906  12.509
   8223SM  H11A10866   4.548   4.922  12.483
   8223SM  H11B10867   4.433   4.912  12.620
   8223SM     P10868   4.400   5.155  12.447
   8223SM   O1310869   4.528   5.165  12.374
   8223SM   O1410870   4.286   5.233  12.394
   8223SM   O1110871   4.421   5.187  12.602
   8223SM   O1210872   4.356   5.004  12.450
   8223SM   C1S10873   4.303   5.193  12.683
   8223SM   H1S10874   4.226   5.119  12.652
   8223SM   H1T10875   4.257   5.294  12.676
   8223SM    NF10876   4.205   5.162  12.906
   8223SM   HNF10877   4.181   5.245  12.957
   8223SM   C2S10878   4.331   5.164  12.834
   8223SM   H2S10879   4.378   5.063  12.841
   8223SM   C3S10880   4.432   5.268  12.892
   8223SM   H3S10881   4.386   5.368  12.884
   8223SM    O310882   4.557   5.277  12.822
   8223SM   HO310883   4.537   5.237  12.737
   8223SM   C4S10884   4.454   5.238  13.039
   8223SM   H4S10885   4.391   5.299  13.105
   8223SM   C5S10886   4.539   5.150  13.096
   8223SM   H5S10887   4.607   5.090  13.033
   8223SM   C6S10888   4.551   5.129  13.245
   8223SM   H6S10889   4.526   5.024  13.270
   8223SM   H6T10890   4.480   5.194  13.301
   8223SM   C7S10891   4.694   5.158  13.296
   8223SM   H7S10892   4.722   5.263  13.271
   8223SM   H7T10893   4.765   5.091  13.244
   8223SM   C8S10894   4.710   5.138  13.448
   8223SM   H8S10895   4.818   5.153  13.473
   8223SM   H8T10896   4.684   5.034  13.475
   8223SM   C9S10897   4.627   5.236  13.533
   8223SM   H9S10898   4.520   5.209  13.527
   8223SM   H9T10899   4.639   5.337  13.488
   8223SM  C10S10900   4.671   5.244  13.680
   8223SM  H10S10901   4.617   5.328  13.728
   8223SM  H10T10902   4.779   5.267  13.685
   8223SM  C11S10903   4.642   5.117  13.762
   8223SM  H11S10904   4.698   5.031  13.718
   8223SM  H11T10905   4.534   5.093  13.757
   8223SM  C12S10906   4.683   5.134  13.909
   8223SM  H12S10907   4.631   5.223  13.951
   8223SM  H12T10908   4.792   5.154  13.914
   8223SM  C13S10909   4.651   5.012  13.997
   8223SM  H13S10910   4.704   4.923  13.957
   8223SM  H13T10911   4.542   4.992  13.994
   8223SM  C14S10912   4.693   5.034  14.144
   8223SM  H14S10913   4.642   5.125  14.183
   8223SM  H14T10914   4.803   5.054  14.147
   8223SM  C15S10915   4.661   4.916  14.236
   8223SM  H15S10916   4.712   4.825  14.197
   8223SM  H15T10917   4.552   4.896  14.233
   8223SM  C16S10918   4.705   4.941  14.381
   8223SM  H16S10919   4.654   5.032  14.419
   8223SM  H16T10920   4.815   4.960  14.382
   8223SM  C17S10921   4.674   4.823  14.474
   8223SM  H17S10922   4.724   4.732  14.435
   8223SM  H17T10923   4.565   4.804  14.472
   8223SM  C18S10924   4.719   4.847  14.619
   8223SM  H18S10925   4.828   4.864  14.623
   8223SM  H18T10926   4.694   4.759  14.682
   8223SM  H18U10927   4.668   4.936  14.661
   8223SM   C1F10928   4.118   5.062  12.896
   8223SM    OF10929   4.143   4.962  12.831
   8223SM   C2F10930   3.986   5.080  12.964
   8223SM   H2F10931   3.906   5.058  12.890
   8223SM   H2G10932   3.974   5.185  12.997
   8223SM   C3F10933   3.970   4.984  13.085
   8223SM   H3F10934   3.975   4.879  13.049
   8223SM   H3G10935   3.870   4.999  13.129
   8223SM   C4F10936   4.076   5.002  13.196
   8223SM   H4F10937   4.174   4.968  13.159
   8223SM   H4G10938   4.049   4.936  13.281
   8223SM   C5F10939   4.092   5.146  13.249
   8223SM   H5F10940   4.135   5.209  13.168
   8223SM   H5G10941   4.166   5.146  13.332
   8223SM   C6F10942   3.962   5.213  13.297
   8223SM   H6F10943   3.886   5.209  13.216
   8223SM   H6G10944   3.983   5.320  13.317
   8223SM   C7F10945   3.902   5.152  13.425
   8223SM   H7F10946   3.885   5.043  13.412
   8223SM   H7G10947   3.804   5.199  13.442
   8223SM   C8F10948   3.990   5.177  13.548
   8223SM   H8F10949   4.022   5.283  13.545
   8223SM   H8G10950   4.082   5.114  13.546
   8223SM   C9F10951   3.914   5.154  13.680
   8223SM   H9F10952   3.807   5.176  13.662
   8223SM   H9G10953   3.948   5.229  13.755
   8223SM  C10F10954   3.929   5.013  13.737
   8223SM  H10F10955   3.922   4.938  13.656
   8223SM  H10G10956   3.843   4.995  13.806
   8223SM  C11F10957   4.057   4.990  13.820
   8223SM  H11F10958   4.146   4.989  13.754
   8223SM  H11G10959   4.049   4.889  13.867
   8223SM  C12F10960   4.077   5.095  13.931
   8223SM  H12F10961   3.977   5.129  13.966
   8223SM  H12G10962   4.129   5.183  13.888
   8223SM  C13F10963   4.154   5.044  14.054
   8223SM  H13F10964   4.251   5.000  14.023
   8223SM  H13G10965   4.094   4.964  14.101
   8223SM  C14F10966   4.178   5.157  14.154
   8223SM  H14F10967   4.087   5.219  14.163
   8223SM  H14G10968   4.259   5.222  14.114
   8223SM  C15F10969   4.217   5.109  14.295
   8223SM  H15F10970   4.260   5.196  14.349
   8223SM  H15G10971   4.296   5.031  14.288
   8223SM  C16F10972   4.097   5.056  14.376
   8223SM  H16F10973   4.056   4.967  14.323
   8223SM  H16G10974   4.017   5.133  14.377
   8223SM  C17F10975   4.132   5.016  14.520
   8223SM  H17F10976   4.216   4.944  14.516
   8223SM  H17G10977   4.045   4.963  14.565
   8223SM  C18F10978   4.171   5.133  14.612
   8223SM  H18F10979   4.248   5.195  14.561
   8223SM  H18G10980   4.219   5.091  14.704
   8223SM  C19F10981   4.053   5.222  14.655
   8223SM  H19F10982   3.988   5.164  14.724
   8223SM  H19G10983   3.992   5.247  14.565
   8223SM  C20F10984   4.096   5.354  14.721
   8223SM  H20F10985   4.005   5.410  14.751
   8223SM  H20G10986   4.150   5.415  14.646
   8223SM  C21F10987   4.187   5.337  14.844
   8223SM  H21F10988   4.279   5.282  14.815
   8223SM  H21G10989   4.134   5.277  14.921
   8223SM  C22F10990   4.228   5.472  14.905
   8223SM  H22F10991   4.137   5.523  14.943
   8223SM  H22G10992   4.270   5.536  14.824
   8223SM  C23F10993   4.332   5.460  15.017
   8223SM  H23F10994   4.293   5.396  15.099
   8223SM  H23G10995   4.356   5.560  15.059
   8223SM  H23H10996   4.425   5.415  14.978
   8323SM     N10997   5.310   4.958  12.218
   8323SM   C1510998   5.418   5.060  12.243
   8323SM  H15A10999   5.389   5.158  12.210
   8323SM  H15B11000   5.509   5.033  12.192
   8323SM  H15C11001   5.443   5.065  12.348
   8323SM   C1411002   5.290   4.945  12.070
   8323SM  H14A11003   5.260   5.039  12.025
   8323SM  H14B11004   5.213   4.872  12.047
   8323SM  H14C11005   5.380   4.911  12.022
   8323SM   C1311006   5.357   4.827  12.272
   8323SM  H13A11007   5.459   4.805  12.241
   8323SM  H13B11008   5.294   4.746  12.236
   8323SM  H13C11009   5.352   4.829  12.379
   8323SM   C1211010   5.181   4.999  12.287
   8323SM  H12A11011   5.106   4.924  12.266
   8323SM  H12B11012   5.145   5.091  12.244
   8323SM   C1111013   5.184   5.016  12.441
   8323SM  H11A11014   5.089   5.064  12.472
   8323SM  H11B11015   5.265   5.087  12.469
   8323SM     P11016   5.092   4.815  12.585
   8323SM   O1311017   4.987   4.775  12.489
   8323SM   O1411018   5.151   4.705  12.666
   8323SM   O1111019   5.034   4.924  12.684
   8323SM   O1211020   5.207   4.891  12.508
   8323SM   C1S11021   5.117   5.008  12.766
   8323SM   H1S11022   5.059   5.099  12.791
   8323SM   H1T11023   5.207   5.044  12.712
   8323SM    NF11024   5.282   4.866  12.880
   8323SM   HNF11025   5.267   4.775  12.841
   8323SM   C2S11026   5.161   4.944  12.902
   8323SM   H2S11027   5.185   5.026  12.973
   8323SM   C3S11028   5.044   4.861  12.964
   8323SM   H3S11029   5.019   4.777  12.896
   8323SM    O311030   4.924   4.936  12.980
   8323SM   HO311031   4.933   5.010  12.920
   8323SM   C4S11032   5.083   4.805  13.099
   8323SM   H4S11033   5.095   4.880  13.178
   8323SM   C5S11034   5.102   4.674  13.126
   8323SM   H5S11035   5.088   4.602  13.045
   8323SM   C6S11036   5.140   4.612  13.259
   8323SM   H6S11037   5.241   4.567  13.250
   8323SM   H6T11038   5.070   4.528  13.277
   8323SM   C7S11039   5.138   4.698  13.388
   8323SM   H7S11040   5.040   4.750  13.397
   8323SM   H7T11041   5.218   4.775  13.383
   8323SM   C8S11042   5.159   4.609  13.511
   8323SM   H8S11043   5.256   4.556  13.500
   8323SM   H8T11044   5.079   4.532  13.512
   8323SM   C9S11045   5.157   4.679  13.648
   8323SM   H9S11046   5.061   4.735  13.660
   8323SM   H9T11047   5.240   4.753  13.654
   8323SM  C10S11048   5.170   4.576  13.762
   8323SM  H10S11049   5.252   4.506  13.736
   8323SM  H10T11050   5.076   4.517  13.768
   8323SM  C11S11051   5.201   4.635  13.901
   8323SM  H11S11052   5.125   4.711  13.928
   8323SM  H11T11053   5.300   4.685  13.897
   8323SM  C12S11054   5.207   4.525  14.009
   8323SM  H12S11055   5.271   4.442  13.972
   8323SM  H12T11056   5.105   4.485  14.023
   8323SM  C13S11057   5.263   4.571  14.144
   8323SM  H13S11058   5.203   4.658  14.181
   8323SM  H13T11059   5.368   4.605  14.131
   8323SM  C14S11060   5.258   4.458  14.248
   8323SM  H14S11061   5.315   4.371  14.211
   8323SM  H14T11062   5.152   4.426  14.259
   8323SM  C15S11063   5.310   4.496  14.388
   8323SM  H15S11064   5.279   4.416  14.459
   8323SM  H15T11065   5.262   4.591  14.422
   8323SM  C16S11066   5.463   4.509  14.396
   8323SM  H16S11067   5.496   4.599  14.338
   8323SM  H16T11068   5.510   4.420  14.349
   8323SM  C17S11069   5.513   4.521  14.541
   8323SM  H17S11070   5.482   4.430  14.596
   8323SM  H17T11071   5.463   4.607  14.589
   8323SM  C18S11072   5.665   4.537  14.552
   8323SM  H18S11073   5.699   4.627  14.497
   8323SM  H18T11074   5.717   4.448  14.510
   8323SM  H18U11075   5.695   4.547  14.659
   8323SM   C1F11076   5.400   4.926  12.865
   8323SM    OF11077   5.410   5.047  12.883
   8323SM   C2F11078   5.514   4.842  12.815
   8323SM   H2F11079   5.563   4.898  12.733
   8323SM   H2G11080   5.475   4.747  12.773
   8323SM   C3F11081   5.620   4.812  12.925
   8323SM   H3F11082   5.651   4.906  12.975
   8323SM   H3G11083   5.709   4.772  12.874
   8323SM   C4F11084   5.574   4.709  13.029
   8323SM   H4F11085   5.541   4.618  12.974
   8323SM   H4G11086   5.488   4.747  13.087
   8323SM   C5F11087   5.688   4.667  13.125
   8323SM   H5F11088   5.784   4.672  13.069
   8323SM   H5G11089   5.673   4.561  13.154
   8323SM   C6F11090   5.698   4.752  13.252
   8323SM   H6F11091   5.680   4.859  13.228
   8323SM   H6G11092   5.801   4.743  13.292
   8323SM   C7F11093   5.602   4.704  13.363
   8323SM   H7F11094   5.617   4.595  13.378
   8323SM   H7G11095   5.497   4.719  13.330
   8323SM   C8F11096   5.623   4.774  13.498
   8323SM   H8F11097   5.595   4.881  13.488
   8323SM   H8G11098   5.731   4.769  13.526
   8323SM   C9F11099   5.540   4.708  13.609
   8323SM   H9F11100   5.570   4.602  13.617
   8323SM   H9G11101   5.434   4.710  13.579
   8323SM  C10F11102   5.555   4.773  13.748
   8323SM  H10F11103   5.661   4.767  13.780
   8323SM  H10G11104   5.497   4.711  13.819
   8323SM  C11F11105   5.506   4.919  13.756
   8323SM  H11F11106   5.454   4.944  13.662
   8323SM  H11G11107   5.593   4.987  13.765
   8323SM  C12F11108   5.409   4.950  13.873
   8323SM  H12F11109   5.313   4.897  13.854
   8323SM  H12G11110   5.387   5.059  13.871
   8323SM  C13F11111   5.460   4.913  14.013
   8323SM  H13F11112   5.556   4.964  14.032
   8323SM  H13G11113   5.478   4.804  14.020
   8323SM  C14F11114   5.358   4.953  14.121
   8323SM  H14F11115   5.259   4.911  14.093
   8323SM  H14G11116   5.348   5.064  14.122
   8323SM  C15F11117   5.390   4.905  14.264
   8323SM  H15F11118   5.389   4.794  14.269
   8323SM  H15G11119   5.309   4.942  14.330
   8323SM  C16F11120   5.525   4.957  14.318
   8323SM  H16F11121   5.556   5.043  14.256
   8323SM  H16G11122   5.603   4.878  14.307
   8323SM  C17F11123   5.517   5.005  14.464
   8323SM  H17F11124   5.439   5.082  14.471
   8323SM  H17G11125   5.614   5.053  14.490
   8323SM  C18F11126   5.490   4.893  14.565
   8323SM  H18F11127   5.568   4.815  14.552
   8323SM  H18G11128   5.391   4.846  14.544
   8323SM  C19F11129   5.493   4.939  14.712
   8323SM  H19F11130   5.590   4.991  14.731
   8323SM  H19G11131   5.490   4.850  14.778
   8323SM  C20F11132   5.377   5.033  14.750
   8323SM  H20F11133   5.282   4.976  14.746
   8323SM  H20G11134   5.370   5.115  14.675
   8323SM  C21F11135   5.391   5.099  14.889
   8323SM  H21F11136   5.303   5.164  14.906
   8323SM  H21G11137   5.481   5.164  14.890
   8323SM  C22F11138   5.401   4.999  15.005
   8323SM  H22F11139   5.496   4.942  14.996
   8323SM  H22G11140   5.318   4.926  14.996
   8323SM  C23F11141   5.395   5.066  15.142
   8323SM  H23F11142   5.477   5.139  15.154
   8323SM  H23G11143   5.403   4.990  15.223
   8323SM  H23H11144   5.298   5.120  15.155
   8423SM     N11145   4.636   2.525  12.264
   8423SM   C1511146   4.544   2.416  12.220
   8423SM  H15A11147   4.480   2.448  12.138
   8423SM  H15B11148   4.478   2.389  12.302
   8423SM  H15C11149   4.598   2.328  12.190
   8423SM   C1411150   4.718   2.473  12.378
   8423SM  H14A11151   4.653   2.454  12.462
   8423SM  H14B11152   4.792   2.546  12.410
   8423SM  H14C11153   4.770   2.382  12.353
   8423SM   C1311154   4.729   2.562  12.152
   8423SM  H13A11155   4.794   2.478  12.128
   8423SM  H13B11156   4.795   2.642  12.181
   8423SM  H13C11157   4.676   2.591  12.063
   8423SM   C1211158   4.555   2.647  12.309
   8423SM  H12A11159   4.513   2.694  12.221
   8423SM  H12B11160   4.621   2.718  12.355
   8423SM   C1111161   4.440   2.622  12.410
   8423SM  H11A11162   4.364   2.555  12.364
   8423SM  H11B11163   4.388   2.718  12.430
   8423SM     P11164   4.541   2.648  12.649
   8423SM   O1311165   4.627   2.564  12.735
   8423SM   O1411166   4.599   2.774  12.596
   8423SM   O1111167   4.407   2.683  12.727
   8423SM   O1211168   4.488   2.561  12.529
   8423SM   C1S11169   4.409   2.786  12.827
   8423SM   H1S11170   4.307   2.830  12.832
   8423SM   H1T11171   4.477   2.870  12.803
   8423SM    NF11172   4.588   2.721  12.982
   8423SM   HNF11173   4.627   2.640  12.939
   8423SM   C2S11174   4.444   2.733  12.969
   8423SM   H2S11175   4.408   2.810  13.042
   8423SM   C3S11176   4.370   2.599  13.000
   8423SM   H3S11177   4.415   2.517  12.940
   8423SM    O311178   4.231   2.603  12.966
   8423SM   HO311179   4.230   2.654  12.885
   8423SM   C4S11180   4.386   2.573  13.146
   8423SM   H4S11181   4.327   2.642  13.209
   8423SM   C5S11182   4.461   2.478  13.205
   8423SM   H5S11183   4.520   2.410  13.143
   8423SM   C6S11184   4.474   2.460  13.355
   8423SM   H6S11185   4.581   2.438  13.379
   8423SM   H6T11186   4.415   2.373  13.390
   8423SM   C7S11187   4.436   2.585  13.438
   8423SM   H7S11188   4.325   2.599  13.436
   8423SM   H7T11189   4.482   2.675  13.391
   8423SM   C8S11190   4.484   2.582  13.584
   8423SM   H8S11191   4.467   2.682  13.628
   8423SM   H8T11192   4.594   2.564  13.585
   8423SM   C9S11193   4.416   2.477  13.672
   8423SM   H9S11194   4.434   2.375  13.631
   8423SM   H9T11195   4.306   2.495  13.672
   8423SM  C10S11196   4.468   2.484  13.816
   8423SM  H10S11197   4.458   2.589  13.853
   8423SM  H10T11198   4.576   2.458  13.817
   8423SM  C11S11199   4.392   2.392  13.913
   8423SM  H11S11200   4.401   2.287  13.878
   8423SM  H11T11201   4.285   2.419  13.911
   8423SM  C12S11202   4.445   2.403  14.056
   8423SM  H12S11203   4.445   2.510  14.086
   8423SM  H12T11204   4.550   2.367  14.060
   8423SM  C13S11205   4.360   2.324  14.156
   8423SM  H13S11206   4.358   2.217  14.126
   8423SM  H13T11207   4.255   2.362  14.152
   8423SM  C14S11208   4.411   2.335  14.301
   8423SM  H14S11209   4.419   2.442  14.330
   8423SM  H14T11210   4.512   2.290  14.307
   8423SM  C15S11211   4.317   2.262  14.398
   8423SM  H15S11212   4.301   2.159  14.360
   8423SM  H15T11213   4.218   2.314  14.398
   8423SM  C16S11214   4.369   2.252  14.542
   8423SM  H16S11215   4.471   2.210  14.539
   8423SM  H16T11216   4.304   2.182  14.598
   8423SM  C17S11217   4.371   2.386  14.617
   8423SM  H17S11218   4.270   2.432  14.613
   8423SM  H17T11219   4.442   2.455  14.566
   8423SM  C18S11220   4.413   2.369  14.764
   8423SM  H18S11221   4.513   2.320  14.770
   8423SM  H18T11222   4.340   2.306  14.818
   8423SM  H18U11223   4.419   2.468  14.814
   8423SM   C1F11224   4.666   2.827  13.005
   8423SM    OF11225   4.617   2.934  13.038
   8423SM   C2F11226   4.814   2.810  12.986
   8423SM   H2F11227   4.849   2.891  12.918
   8423SM   H2G11228   4.834   2.712  12.937
   8423SM   C3F11229   4.889   2.819  13.121
   8423SM   H3F11230   4.866   2.916  13.169
   8423SM   H3G11231   4.998   2.816  13.101
   8423SM   C4F11232   4.853   2.705  13.218
   8423SM   H4F11233   4.877   2.607  13.170
   8423SM   H4G11234   4.743   2.706  13.237
   8423SM   C5F11235   4.925   2.713  13.353
   8423SM   H5F11236   4.901   2.810  13.402
   8423SM   H5G11237   5.035   2.708  13.339
   8423SM   C6F11238   4.880   2.599  13.447
   8423SM   H6F11239   4.906   2.502  13.400
   8423SM   H6G11240   4.770   2.603  13.457
   8423SM   C7F11241   4.944   2.605  13.587
   8423SM   H7F11242   4.919   2.702  13.635
   8423SM   H7G11243   5.054   2.598  13.577
   8423SM   C8F11244   4.895   2.489  13.676
   8423SM   H8F11245   4.915   2.394  13.623
   8423SM   H8G11246   4.785   2.498  13.690
   8423SM   C9F11247   4.964   2.484  13.813
   8423SM   H9F11248   4.943   2.578  13.868
   8423SM   H9G11249   5.073   2.476  13.798
   8423SM  C10F11250   4.916   2.364  13.897
   8423SM  H10F11251   4.925   2.273  13.834
   8423SM  H10G11252   4.809   2.377  13.922
   8423SM  C11F11253   4.996   2.341  14.026
   8423SM  H11F11254   5.103   2.325  14.000
   8423SM  H11G11255   4.960   2.248  14.074
   8423SM  C12F11256   4.986   2.455  14.128
   8423SM  H12F11257   4.878   2.473  14.150
   8423SM  H12G11258   5.027   2.548  14.083
   8423SM  C13F11259   5.061   2.424  14.258
   8423SM  H13F11260   5.166   2.400  14.234
   8423SM  H13G11261   5.016   2.334  14.305
   8423SM  C14F11262   5.060   2.540  14.360
   8423SM  H14F11263   5.107   2.629  14.314
   8423SM  H14G11264   5.122   2.510  14.447
   8423SM  C15F11265   4.919   2.577  14.409
   8423SM  H15F11266   4.869   2.486  14.448
   8423SM  H15G11267   4.859   2.615  14.323
   8423SM  C16F11268   4.920   2.685  14.519
   8423SM  H16F11269   4.984   2.769  14.485
   8423SM  H16G11270   4.966   2.644  14.611
   8423SM  C17F11271   4.780   2.741  14.551
   8423SM  H17F11272   4.737   2.782  14.457
   8423SM  H17G11273   4.789   2.826  14.622
   8423SM  C18F11274   4.681   2.638  14.609
   8423SM  H18F11275   4.685   2.546  14.547
   8423SM  H18G11276   4.578   2.678  14.600
   8423SM  C19F11277   4.707   2.602  14.756
   8423SM  H19F11278   4.816   2.584  14.773
   8423SM  H19G11279   4.655   2.505  14.777
   8423SM  C20F11280   4.653   2.706  14.854
   8423SM  H20F11281   4.551   2.736  14.822
   8423SM  H20G11282   4.717   2.797  14.851
   8423SM  C21F11283   4.643   2.655  14.999
   8423SM  H21F11284   4.577   2.566  15.002
   8423SM  H21G11285   4.595   2.733  15.062
   8423SM  C22F11286   4.779   2.618  15.061
   8423SM  H22F11287   4.846   2.707  15.056
   8423SM  H22G11288   4.825   2.538  15.001
   8423SM  C23F11289   4.767   2.572  15.206
   8423SM  H23F11290   4.866   2.538  15.244
   8423SM  H23G11291   4.696   2.487  15.215
   8423SM  H23H11292   4.731   2.655  15.271
   8523SM     N11293   6.514   3.964  12.307
   8523SM   C1511294   6.401   4.029  12.232
   8523SM  H15A11295   6.397   4.133  12.261
   8523SM  H15B11296   6.306   3.983  12.253
   8523SM  H15C11297   6.419   4.027  12.126
   8523SM   C1411298   6.474   3.952  12.451
   8523SM  H14A11299   6.379   3.900  12.460
   8523SM  H14B11300   6.461   4.050  12.493
   8523SM  H14C11301   6.549   3.900  12.509
   8523SM   C1311302   6.535   3.829  12.246
   8523SM  H13A11303   6.564   3.840  12.142
   8523SM  H13B11304   6.445   3.770  12.249
   8523SM  H13C11305   6.613   3.774  12.297
   8523SM   C1211306   6.639   4.050  12.291
   8523SM  H12A11307   6.654   4.066  12.185
   8523SM  H12B11308   6.726   3.995  12.325
   8523SM   C1111309   6.640   4.188  12.361
   8523SM  H11A11310   6.735   4.240  12.332
   8523SM  H11B11311   6.641   4.174  12.471
   8523SM     P11312   6.514   4.418  12.355
   8523SM   O1311313   6.614   4.493  12.275
   8523SM   O1411314   6.372   4.453  12.338
   8523SM   O1111315   6.553   4.423  12.510
   8523SM   O1211316   6.527   4.265  12.323
   8523SM   C1S11317   6.451   4.391  12.606
   8523SM   H1S11318   6.410   4.289  12.587
   8523SM   H1T11319   6.366   4.463  12.599
   8523SM    NF11320   6.392   4.365  12.843
   8523SM   HNF11321   6.342   4.441  12.884
   8523SM   C2S11322   6.503   4.395  12.753
   8523SM   H2S11323   6.580   4.316  12.765
   8523SM   C3S11324   6.570   4.532  12.781
   8523SM   H3S11325   6.500   4.613  12.751
   8523SM    O311326   6.690   4.550  12.707
   8523SM   HO311327   6.668   4.511  12.622
   8523SM   C4S11328   6.603   4.547  12.928
   8523SM   H4S11329   6.666   4.467  12.969
   8523SM   C5S11330   6.564   4.650  13.006
   8523SM   H5S11331   6.505   4.730  12.960
   8523SM   C6S11332   6.595   4.670  13.153
   8523SM   H6S11333   6.502   4.696  13.207
   8523SM   H6T11334   6.665   4.756  13.164
   8523SM   C7S11335   6.659   4.550  13.228
   8523SM   H7S11336   6.750   4.517  13.173
   8523SM   H7T11337   6.588   4.465  13.231
   8523SM   C8S11338   6.704   4.583  13.372
   8523SM   H8S11339   6.778   4.666  13.369
   8523SM   H8T11340   6.756   4.494  13.413
   8523SM   C9S11341   6.590   4.620  13.469
   8523SM   H9S11342   6.514   4.539  13.469
   8523SM   H9T11343   6.540   4.714  13.434
   8523SM  C10S11344   6.641   4.641  13.613
   8523SM  H10S11345   6.718   4.721  13.613
   8523SM  H10T11346   6.690   4.548  13.647
   8523SM  C11S11347   6.530   4.678  13.713
   8523SM  H11S11348   6.451   4.600  13.709
   8523SM  H11T11349   6.483   4.775  13.683
   8523SM  C12S11350   6.582   4.690  13.857
   8523SM  H12S11351   6.658   4.770  13.863
   8523SM  H12T11352   6.631   4.594  13.884
   8523SM  C13S11353   6.470   4.717  13.958
   8523SM  H13S11354   6.391   4.641  13.944
   8523SM  H13T11355   6.424   4.817  13.939
   8523SM  C14S11356   6.517   4.710  14.105
   8523SM  H14S11357   6.584   4.796  14.127
   8523SM  H14T11358   6.576   4.617  14.118
   8523SM  C15S11359   6.399   4.708  14.203
   8523SM  H15S11360   6.334   4.622  14.177
   8523SM  H15T11361   6.338   4.800  14.192
   8523SM  C16S11362   6.441   4.690  14.350
   8523SM  H16S11363   6.477   4.787  14.391
   8523SM  H16T11364   6.526   4.619  14.355
   8523SM  C17S11365   6.326   4.636  14.436
   8523SM  H17S11366   6.295   4.537  14.395
   8523SM  H17T11367   6.239   4.704  14.424
   8523SM  C18S11368   6.359   4.620  14.584
   8523SM  H18S11369   6.384   4.719  14.629
   8523SM  H18T11370   6.447   4.553  14.598
   8523SM  H18U11371   6.273   4.577  14.639
   8523SM   C1F11372   6.346   4.240  12.855
   8523SM    OF11373   6.410   4.147  12.807
   8523SM   C2F11374   6.213   4.221  12.921
   8523SM   H2F11375   6.144   4.180  12.844
   8523SM   H2G11376   6.172   4.319  12.954
   8523SM   C3F11377   6.216   4.123  13.040
   8523SM   H3F11378   6.274   4.031  13.014
   8523SM   H3G11379   6.111   4.091  13.057
   8523SM   C4F11380   6.267   4.182  13.174
   8523SM   H4F11381   6.226   4.116  13.254
   8523SM   H4G11382   6.222   4.282  13.190
   8523SM   C5F11383   6.419   4.188  13.190
   8523SM   H5F11384   6.458   4.274  13.130
   8523SM   H5G11385   6.465   4.096  13.147
   8523SM   C6F11386   6.466   4.202  13.336
   8523SM   H6F11387   6.412   4.285  13.386
   8523SM   H6G11388   6.574   4.227  13.337
   8523SM   C7F11389   6.446   4.072  13.417
   8523SM   H7F11390   6.499   3.989  13.364
   8523SM   H7G11391   6.338   4.047  13.419
   8523SM   C8F11392   6.494   4.074  13.563
   8523SM   H8F11393   6.470   3.974  13.605
   8523SM   H8G11394   6.436   4.149  13.621
   8523SM   C9F11395   6.644   4.100  13.582
   8523SM   H9F11396   6.662   4.210  13.586
   8523SM   H9G11397   6.699   4.060  13.494
   8523SM  C10F11398   6.703   4.033  13.708
   8523SM  H10F11399   6.809   4.065  13.721
   8523SM  H10G11400   6.703   3.923  13.693
   8523SM  C11F11401   6.625   4.062  13.838
   8523SM  H11F11402   6.520   4.029  13.824
   8523SM  H11G11403   6.624   4.172  13.856
   8523SM  C12F11404   6.683   3.990  13.961
   8523SM  H12F11405   6.777   4.042  13.990
   8523SM  H12G11406   6.709   3.886  13.935
   8523SM  C13F11407   6.586   3.989  14.081
   8523SM  H13F11408   6.535   4.088  14.086
   8523SM  H13G11409   6.644   3.976  14.175
   8523SM  C14F11410   6.480   3.878  14.071
   8523SM  H14F11411   6.529   3.780  14.089
   8523SM  H14G11412   6.441   3.878  13.967
   8523SM  C15F11413   6.360   3.895  14.165
   8523SM  H15F11414   6.290   3.810  14.149
   8523SM  H15G11415   6.305   3.987  14.135
   8523SM  C16F11416   6.394   3.902  14.314
   8523SM  H16F11417   6.468   3.984  14.331
   8523SM  H16G11418   6.442   3.807  14.345
   8523SM  C17F11419   6.270   3.929  14.401
   8523SM  H17F11420   6.195   3.849  14.382
   8523SM  H17G11421   6.225   4.026  14.370
   8523SM  C18F11422   6.302   3.933  14.551
   8523SM  H18F11423   6.374   4.015  14.572
   8523SM  H18G11424   6.350   3.837  14.578
   8523SM  C19F11425   6.178   3.952  14.640
   8523SM  H19F11426   6.207   3.931  14.746
   8523SM  H19G11427   6.101   3.877  14.611
   8523SM  C20F11428   6.114   4.091  14.635
   8523SM  H20F11429   6.081   4.112  14.531
   8523SM  H20G11430   6.191   4.168  14.661
   8523SM  C21F11431   5.994   4.103  14.730
   8523SM  H21F11432   6.029   4.085  14.834
   8523SM  H21G11433   5.921   4.024  14.705
   8523SM  C22F11434   5.925   4.240  14.724
   8523SM  H22F11435   5.891   4.258  14.620
   8523SM  H22G11436   5.999   4.319  14.749
   8523SM  C23F11437   5.805   4.251  14.819
   8523SM  H23F11438   5.729   4.174  14.794
   8523SM  H23G11439   5.759   4.351  14.812
   8523SM  H23H11440   5.838   4.234  14.924
   8623SM     N11441   4.103   1.811  12.212
   8623SM   C1511442   3.955   1.834  12.198
   8623SM  H15A11443   3.901   1.762  12.258
   8623SM  H15B11444   3.922   1.829  12.096
   8623SM  H15C11445   3.931   1.931  12.240
   8623SM   C1411446   4.136   1.675  12.157
   8623SM  H14A11447   4.083   1.598  12.212
   8623SM  H14B11448   4.242   1.654  12.164
   8623SM  H14C11449   4.108   1.667  12.053
   8623SM   C1311450   4.177   1.916  12.134
   8623SM  H13A11451   4.147   2.014  12.167
   8623SM  H13B11452   4.156   1.909  12.029
   8623SM  H13C11453   4.283   1.907  12.150
   8623SM   C1211454   4.141   1.819  12.359
   8623SM  H12A11455   4.245   1.795  12.370
   8623SM  H12B11456   4.083   1.745  12.414
   8623SM   C1111457   4.118   1.953  12.434
   8623SM  H11A11458   4.174   2.034  12.382
   8623SM  H11B11459   4.164   1.943  12.534
   8623SM     P11460   3.881   1.909  12.539
   8623SM   O1311461   3.746   1.966  12.521
   8623SM   O1411462   3.897   1.766  12.509
   8623SM   O1111463   3.932   1.940  12.685
   8623SM   O1211464   3.980   1.991  12.444
   8623SM   C1S11465   3.990   2.067  12.718
   8623SM   H1S11466   3.913   2.146  12.711
   8623SM   H1T11467   4.072   2.096  12.649
   8623SM    NF11468   4.169   1.985  12.870
   8623SM   HNF11469   4.161   1.891  12.900
   8623SM   C2S11470   4.049   2.067  12.863
   8623SM   H2S11471   4.078   2.171  12.889
   8623SM   C3S11472   3.940   2.023  12.963
   8623SM   H3S11473   3.907   1.918  12.947
   8623SM    O311474   3.826   2.108  12.949
   8623SM   HO311475   3.779   2.066  12.876
   8623SM   C4S11476   3.992   2.040  13.103
   8623SM   H4S11477   3.982   2.143  13.143
   8623SM   C5S11478   4.047   1.946  13.182
   8623SM   H5S11479   4.058   1.843  13.146
   8623SM   C6S11480   4.098   1.973  13.321
   8623SM   H6S11481   4.057   2.069  13.361
   8623SM   H6T11482   4.209   1.984  13.320
   8623SM   C7S11483   4.064   1.860  13.419
   8623SM   H7S11484   4.111   1.766  13.383
   8623SM   H7T11485   3.954   1.843  13.422
   8623SM   C8S11486   4.114   1.886  13.562
   8623SM   H8S11487   4.221   1.916  13.558
   8623SM   H8T11488   4.108   1.792  13.620
   8623SM   C9S11489   4.033   1.993  13.636
   8623SM   H9S11490   3.927   1.960  13.642
   8623SM   H9T11491   4.036   2.089  13.581
   8623SM  C10S11492   4.086   2.016  13.778
   8623SM  H10S11493   4.189   2.055  13.774
   8623SM  H10T11494   4.090   1.918  13.830
   8623SM  C11S11495   3.998   2.111  13.861
   8623SM  H11S11496   3.893   2.077  13.856
   8623SM  H11T11497   4.003   2.214  13.817
   8623SM  C12S11498   4.043   2.114  14.007
   8623SM  H12S11499   4.150   2.142  14.013
   8623SM  H12T11500   4.034   2.011  14.048
   8623SM  C13S11501   3.961   2.209  14.096
   8623SM  H13S11502   3.853   2.195  14.077
   8623SM  H13T11503   3.988   2.314  14.071
   8623SM  C14S11504   3.989   2.180  14.244
   8623SM  H14S11505   4.099   2.171  14.258
   8623SM  H14T11506   3.945   2.082  14.270
   8623SM  C15S11507   3.936   2.287  14.340
   8623SM  H15S11508   3.830   2.309  14.316
   8623SM  H15T11509   3.993   2.381  14.325
   8623SM  C16S11510   3.947   2.243  14.486
   8623SM  H16S11511   4.050   2.205  14.506
   8623SM  H16T11512   3.877   2.158  14.503
   8623SM  C17S11513   3.918   2.356  14.586
   8623SM  H17S11514   3.820   2.402  14.561
   8623SM  H17T11515   3.995   2.434  14.573
   8623SM  C18S11516   3.916   2.309  14.732
   8623SM  H18S11517   4.015   2.265  14.759
   8623SM  H18T11518   3.838   2.231  14.747
   8623SM  H18U11519   3.895   2.394  14.800
   8623SM   C1F11520   4.283   2.026  12.816
   8623SM    OF11521   4.288   2.135  12.760
   8623SM   C2F11522   4.405   1.939  12.834
   8623SM   H2F11523   4.426   1.930  12.943
   8623SM   H2G11524   4.490   1.991  12.787
   8623SM   C3F11525   4.394   1.797  12.771
   8623SM   H3F11526   4.494   1.751  12.780
   8623SM   H3G11527   4.374   1.807  12.662
   8623SM   C4F11528   4.292   1.699  12.832
   8623SM   H4F11529   4.311   1.599  12.787
   8623SM   H4G11530   4.189   1.728  12.801
   8623SM   C5F11531   4.298   1.684  12.985
   8623SM   H5F11532   4.263   1.777  13.034
   8623SM   H5G11533   4.404   1.668  13.015
   8623SM   C6F11534   4.217   1.565  13.039
   8623SM   H6F11535   4.223   1.563  13.150
   8623SM   H6G11536   4.263   1.471  13.003
   8623SM   C7F11537   4.069   1.565  12.997
   8623SM   H7F11538   4.065   1.557  12.886
   8623SM   H7G11539   4.020   1.661  13.025
   8623SM   C8F11540   3.988   1.447  13.054
   8623SM   H8F11541   4.056   1.364  13.082
   8623SM   H8G11542   3.923   1.409  12.972
   8623SM   C9F11543   3.897   1.483  13.172
   8623SM   H9F11544   3.820   1.404  13.183
   8623SM   H9G11545   3.844   1.579  13.150
   8623SM  C10F11546   3.969   1.494  13.307
   8623SM  H10F11547   4.052   1.568  13.300
   8623SM  H10G11548   4.016   1.396  13.331
   8623SM  C11F11549   3.875   1.534  13.422
   8623SM  H11F11550   3.785   1.468  13.420
   8623SM  H11G11551   3.841   1.639  13.406
   8623SM  C12F11552   3.941   1.522  13.560
   8623SM  H12F11553   4.038   1.576  13.559
   8623SM  H12G11554   3.963   1.415  13.579
   8623SM  C13F11555   3.853   1.577  13.673
   8623SM  H13F11556   3.751   1.535  13.664
   8623SM  H13G11557   3.845   1.688  13.663
   8623SM  C14F11558   3.909   1.541  13.812
   8623SM  H14F11559   4.014   1.578  13.820
   8623SM  H14G11560   3.912   1.431  13.820
   8623SM  C15F11561   3.827   1.596  13.929
   8623SM  H15F11562   3.863   1.545  14.021
   8623SM  H15G11563   3.720   1.570  13.917
   8623SM  C16F11564   3.842   1.748  13.949
   8623SM  H16F11565   3.777   1.800  13.875
   8623SM  H16G11566   3.947   1.778  13.930
   8623SM  C17F11567   3.804   1.795  14.091
   8623SM  H17F11568   3.708   1.748  14.121
   8623SM  H17G11569   3.790   1.905  14.090
   8623SM  C18F11570   3.913   1.764  14.196
   8623SM  H18F11571   4.005   1.819  14.168
   8623SM  H18G11572   3.937   1.655  14.194
   8623SM  C19F11573   3.873   1.802  14.339
   8623SM  H19F11574   3.786   1.740  14.370
   8623SM  H19G11575   3.840   1.908  14.341
   8623SM  C20F11576   3.989   1.783  14.437
   8623SM  H20F11577   4.079   1.834  14.396
   8623SM  H20G11578   4.013   1.675  14.445
   8623SM  C21F11579   3.962   1.840  14.578
   8623SM  H21F11580   3.944   1.949  14.570
   8623SM  H21G11581   4.054   1.826  14.639
   8623SM  C22F11582   3.844   1.775  14.650
   8623SM  H22F11583   3.860   1.665  14.653
   8623SM  H22G11584   3.751   1.794  14.593
   8623SM  C23F11585   3.826   1.827  14.793
   8623SM  H23F11586   3.916   1.806  14.854
   8623SM  H23G11587   3.739   1.777  14.842
   8623SM  H23H11588   3.808   1.936  14.793
   8723SM     N11589   5.015   1.875  12.133
   8723SM   C1511590   5.066   2.013  12.105
   8723SM  H15A11591   5.172   2.011  12.085
   8723SM  H15B11592   5.048   2.077  12.190
   8723SM  H15C11593   5.017   2.056  12.019
   8723SM   C1411594   4.866   1.880  12.144
   8723SM  H14A11595   4.827   1.784  12.174
   8723SM  H14B11596   4.820   1.914  12.053
   8723SM  H14C11597   4.840   1.947  12.225
   8723SM   C1311598   5.053   1.786  12.018
   8723SM  H13A11599   5.159   1.789  12.002
   8723SM  H13B11600   5.006   1.821  11.927
   8723SM  H13C11601   5.023   1.684  12.035
   8723SM   C1211602   5.075   1.820  12.263
   8723SM  H12A11603   5.179   1.796  12.246
   8723SM  H12B11604   5.024   1.728  12.286
   8723SM   C1111605   5.065   1.907  12.391
   8723SM  H11A11606   5.125   1.999  12.376
   8723SM  H11B11607   5.116   1.853  12.474
   8723SM     P11608   4.839   1.823  12.486
   8723SM   O1311609   4.703   1.877  12.508
   8723SM   O1411610   4.850   1.705  12.397
   8723SM   O1111611   4.912   1.795  12.624
   8723SM   O1211612   4.930   1.940  12.425
   8723SM   C1S11613   4.890   1.885  12.733
   8723SM   H1S11614   4.782   1.887  12.760
   8723SM   H1T11615   4.919   1.988  12.705
   8723SM    NF11616   4.877   1.802  12.965
   8723SM   HNF11617   4.848   1.869  13.033
   8723SM   C2S11618   4.971   1.844  12.861
   8723SM   H2S11619   5.037   1.759  12.836
   8723SM   C3S11620   5.061   1.964  12.903
   8723SM   H3S11621   4.998   2.055  12.909
   8723SM    O311622   5.165   1.992  12.808
   8723SM   HO311623   5.149   1.932  12.735
   8723SM   C4S11624   5.124   1.937  13.037
   8723SM   H4S11625   5.198   1.856  13.037
   8723SM   C5S11626   5.098   2.005  13.150
   8723SM   H5S11627   5.025   2.088  13.149
   8723SM   C6S11628   5.161   1.977  13.284
   8723SM   H6S11629   5.211   2.069  13.322
   8723SM   H6T11630   5.239   1.899  13.277
   8723SM   C7S11631   5.057   1.931  13.388
   8723SM   H7S11632   5.008   1.837  13.354
   8723SM   H7T11633   4.977   2.008  13.399
   8723SM   C8S11634   5.120   1.907  13.526
   8723SM   H8S11635   5.171   2.001  13.558
   8723SM   H8T11636   5.198   1.828  13.516
   8723SM   C9S11637   5.019   1.866  13.634
   8723SM   H9S11638   4.969   1.771  13.604
   8723SM   H9T11639   4.941   1.944  13.642
   8723SM  C10S11640   5.087   1.847  13.771
   8723SM  H10S11641   5.144   1.940  13.793
   8723SM  H10T11642   5.159   1.763  13.765
   8723SM  C11S11643   4.988   1.822  13.885
   8723SM  H11S11644   4.931   1.729  13.863
   8723SM  H11T11645   4.915   1.906  13.889
   8723SM  C12S11646   5.055   1.808  14.023
   8723SM  H12S11647   5.128   1.725  14.020
   8723SM  H12T11648   4.977   1.783  14.098
   8723SM  C13S11649   5.126   1.937  14.068
   8723SM  H13S11650   5.055   2.022  14.063
   8723SM  H13T11651   5.210   1.959  13.999
   8723SM  C14S11652   5.183   1.928  14.210
   8723SM  H14S11653   5.251   1.840  14.217
   8723SM  H14T11654   5.100   1.913  14.283
   8723SM  C15S11655   5.261   2.055  14.248
   8723SM  H15S11656   5.194   2.143  14.243
   8723SM  H15T11657   5.341   2.070  14.172
   8723SM  C16S11658   5.327   2.047  14.386
   8723SM  H16S11659   5.391   1.956  14.390
   8723SM  H16T11660   5.249   2.038  14.464
   8723SM  C17S11661   5.415   2.170  14.414
   8723SM  H17S11662   5.351   2.260  14.416
   8723SM  H17T11663   5.487   2.182  14.330
   8723SM  C18S11664   5.493   2.160  14.545
   8723SM  H18S11665   5.424   2.142  14.631
   8723SM  H18T11666   5.549   2.254  14.564
   8723SM  H18U11667   5.566   2.076  14.541
   8723SM   C1F11668   4.820   1.681  12.961
   8723SM    OF11669   4.874   1.590  12.901
   8723SM   C2F11670   4.687   1.665  13.028
   8723SM   H2F11671   4.613   1.643  12.948
   8723SM   H2G11672   4.657   1.759  13.077
   8723SM   C3F11673   4.685   1.547  13.129
   8723SM   H3F11674   4.716   1.454  13.076
   8723SM   H3G11675   4.580   1.531  13.161
   8723SM   C4F11676   4.773   1.566  13.254
   8723SM   H4F11677   4.879   1.567  13.222
   8723SM   H4G11678   4.759   1.477  13.319
   8723SM   C5F11679   4.745   1.693  13.336
   8723SM   H5F11680   4.771   1.782  13.276
   8723SM   H5G11681   4.813   1.692  13.424
   8723SM   C6F11682   4.600   1.706  13.386
   8723SM   H6F11683   4.573   1.619  13.449
   8723SM   H6G11684   4.532   1.705  13.297
   8723SM   C7F11685   4.574   1.837  13.463
   8723SM   H7F11686   4.465   1.857  13.464
   8723SM   H7G11687   4.622   1.919  13.407
   8723SM   C8F11688   4.625   1.836  13.608
   8723SM   H8F11689   4.642   1.941  13.639
   8723SM   H8G11690   4.722   1.783  13.614
   8723SM   C9F11691   4.525   1.773  13.707
   8723SM   H9F11692   4.501   1.670  13.672
   8723SM   H9G11693   4.431   1.832  13.706
   8723SM  C10F11694   4.577   1.765  13.852
   8723SM  H10F11695   4.668   1.701  13.853
   8723SM  H10G11696   4.500   1.715  13.914
   8723SM  C11F11697   4.611   1.901  13.915
   8723SM  H11F11698   4.522   1.967  13.911
   8723SM  H11G11699   4.692   1.949  13.855
   8723SM  C12F11700   4.659   1.887  14.060
   8723SM  H12F11701   4.737   1.808  14.064
   8723SM  H12G11702   4.574   1.854  14.124
   8723SM  C13F11703   4.720   2.017  14.116
   8723SM  H13F11704   4.643   2.097  14.120
   8723SM  H13G11705   4.800   2.050  14.046
   8723SM  C14F11706   4.784   1.999  14.255
   8723SM  H14F11707   4.851   2.085  14.275
   8723SM  H14G11708   4.847   1.907  14.254
   8723SM  C15F11709   4.682   1.991  14.369
   8723SM  H15F11710   4.606   1.912  14.347
   8723SM  H15G11711   4.628   2.088  14.374
   8723SM  C16F11712   4.746   1.961  14.505
   8723SM  H16F11713   4.836   2.026  14.517
   8723SM  H16G11714   4.781   1.855  14.508
   8723SM  C17F11715   4.651   1.988  14.622
   8723SM  H17F11716   4.557   1.931  14.609
   8723SM  H17G11717   4.625   2.096  14.619
   8723SM  C18F11718   4.711   1.960  14.761
   8723SM  H18F11719   4.653   2.019  14.835
   8723SM  H18G11720   4.816   1.996  14.764
   8723SM  C19F11721   4.705   1.814  14.804
   8723SM  H19F11722   4.766   1.751  14.736
   8723SM  H19G11723   4.600   1.778  14.798
   8723SM  C20F11724   4.755   1.796  14.949
   8723SM  H20F11725   4.697   1.865  15.015
   8723SM  H20G11726   4.861   1.827  14.954
   8723SM  C21F11727   4.739   1.653  15.002
   8723SM  H21F11728   4.802   1.585  14.941
   8723SM  H21G11729   4.633   1.622  14.989
   8723SM  C22F11730   4.776   1.639  15.151
   8723SM  H22F11731   4.761   1.532  15.180
   8723SM  H22G11732   4.706   1.700  15.211
   8723SM  C23F11733   4.920   1.680  15.184
   8723SM  H23F11734   4.992   1.624  15.121
   8723SM  H23G11735   4.943   1.658  15.291
   8723SM  H23H11736   4.935   1.788  15.167
   8823SM     N11737   2.010   2.569  12.221
   8823SM   C1511738   2.060   2.516  12.090
   8823SM  H15A11739   1.980   2.515  12.017
   8823SM  H15B11740   2.099   2.417  12.101
   8823SM  H15C11741   2.138   2.580  12.051
   8823SM   C1411742   2.122   2.565  12.321
   8823SM  H14A11743   2.151   2.463  12.344
   8823SM  H14B11744   2.091   2.610  12.414
   8823SM  H14C11745   2.209   2.618  12.286
   8823SM   C1311746   1.968   2.712  12.203
   8823SM  H13A11747   1.941   2.753  12.300
   8823SM  H13B11748   1.880   2.718  12.141
   8823SM  H13C11749   2.047   2.771  12.160
   8823SM   C1211750   1.895   2.484  12.274
   8823SM  H12A11751   1.934   2.386  12.296
   8823SM  H12B11752   1.819   2.474  12.197
   8823SM   C1111753   1.822   2.533  12.401
   8823SM  H11A11754   1.897   2.559  12.478
   8823SM  H11B11755   1.761   2.448  12.441
   8823SM     P11756   1.720   2.770  12.456
   8823SM   O1311757   1.855   2.811  12.501
   8823SM   O1411758   1.641   2.869  12.379
   8823SM   O1111759   1.633   2.725  12.580
   8823SM   O1211760   1.734   2.640  12.368
   8823SM   C1S11761   1.673   2.629  12.678
   8823SM   H1S11762   1.773   2.586  12.656
   8823SM   H1T11763   1.601   2.545  12.679
   8823SM    NF11764   1.713   2.588  12.919
   8823SM   HNF11765   1.645   2.567  12.989
   8823SM   C2S11766   1.678   2.690  12.822
   8823SM   H2S11767   1.758   2.768  12.823
   8823SM   C3S11768   1.542   2.760  12.854
   8823SM   H3S11769   1.461   2.684  12.846
   8823SM    O311770   1.508   2.863  12.762
   8823SM   HO311771   1.564   2.840  12.687
   8823SM   C4S11772   1.545   2.817  12.993
   8823SM   H4S11773   1.607   2.907  13.005
   8823SM   C5S11774   1.477   2.768  13.099
   8823SM   H5S11775   1.412   2.680  13.085
   8823SM   C6S11776   1.480   2.825  13.238
   8823SM   H6S11777   1.378   2.824  13.281
   8823SM   H6T11778   1.514   2.931  13.239
   8823SM   C7S11779   1.574   2.743  13.330
   8823SM   H7S11780   1.679   2.761  13.297
   8823SM   H7T11781   1.553   2.635  13.320
   8823SM   C8S11782   1.562   2.780  13.479
   8823SM   H8S11783   1.564   2.890  13.490
   8823SM   H8T11784   1.650   2.739  13.533
   8823SM   C9S11785   1.435   2.722  13.544
   8823SM   H9S11786   1.436   2.612  13.535
   8823SM   H9T11787   1.347   2.760  13.487
   8823SM  C10S11788   1.416   2.761  13.691
   8823SM  H10S11789   1.314   2.731  13.721
   8823SM  H10T11790   1.423   2.872  13.701
   8823SM  C11S11791   1.514   2.694  13.788
   8823SM  H11S11792   1.618   2.728  13.766
   8823SM  H11T11793   1.511   2.584  13.774
   8823SM  C12S11794   1.480   2.726  13.935
   8823SM  H12S11795   1.375   2.696  13.955
   8823SM  H12T11796   1.487   2.836  13.951
   8823SM  C13S11797   1.572   2.655  14.035
   8823SM  H13S11798   1.677   2.684  14.016
   8823SM  H13T11799   1.564   2.545  14.020
   8823SM  C14S11800   1.536   2.687  14.181
   8823SM  H14S11801   1.430   2.660  14.199
   8823SM  H14T11802   1.546   2.797  14.197
   8823SM  C15S11803   1.624   2.613  14.282
   8823SM  H15S11804   1.731   2.639  14.263
   8823SM  H15T11805   1.613   2.504  14.266
   8823SM  C16S11806   1.589   2.647  14.428
   8823SM  H16S11807   1.483   2.621  14.447
   8823SM  H16T11808   1.600   2.756  14.443
   8823SM  C17S11809   1.678   2.573  14.528
   8823SM  H17S11810   1.784   2.598  14.508
   8823SM  H17T11811   1.667   2.463  14.513
   8823SM  C18S11812   1.646   2.607  14.674
   8823SM  H18S11813   1.541   2.579  14.699
   8823SM  H18T11814   1.658   2.716  14.692
   8823SM  H18U11815   1.714   2.552  14.743
   8823SM   C1F11816   1.830   2.524  12.922
   8823SM    OF11817   1.920   2.553  12.844
   8823SM   C2F11818   1.844   2.413  13.021
   8823SM   H2F11819   1.886   2.325  12.968
   8823SM   H2G11820   1.743   2.385  13.059
   8823SM   C3F11821   1.936   2.450  13.139
   8823SM   H3F11822   1.895   2.538  13.194
   8823SM   H3G11823   2.036   2.477  13.101
   8823SM   C4F11824   1.950   2.333  13.238
   8823SM   H4F11825   1.985   2.244  13.180
   8823SM   H4G11826   1.851   2.307  13.282
   8823SM   C5F11827   2.052   2.357  13.350
   8823SM   H5F11828   2.144   2.404  13.309
   8823SM   H5G11829   2.080   2.258  13.392
   8823SM   C6F11830   1.999   2.442  13.468
   8823SM   H6F11831   1.907   2.394  13.507
   8823SM   H6G11832   1.973   2.544  13.433
   8823SM   C7F11833   2.104   2.451  13.580
   8823SM   H7F11834   2.186   2.517  13.546
   8823SM   H7G11835   2.147   2.350  13.596
   8823SM   C8F11836   2.051   2.500  13.716
   8823SM   H8F11837   2.011   2.604  13.707
   8823SM   H8G11838   2.137   2.503  13.785
   8823SM   C9F11839   1.944   2.408  13.777
   8823SM   H9F11840   1.960   2.305  13.739
   8823SM   H9G11841   1.843   2.441  13.743
   8823SM  C10F11842   1.949   2.402  13.930
   8823SM  H10F11843   1.942   2.504  13.974
   8823SM  H10G11844   2.048   2.361  13.959
   8823SM  C11F11845   1.839   2.313  13.990
   8823SM  H11F11846   1.811   2.238  13.913
   8823SM  H11G11847   1.749   2.374  14.011
   8823SM  C12F11848   1.883   2.236  14.115
   8823SM  H12F11849   1.973   2.176  14.089
   8823SM  H12G11850   1.803   2.164  14.142
   8823SM  C13F11851   1.914   2.322  14.238
   8823SM  H13F11852   1.821   2.374  14.271
   8823SM  H13G11853   1.989   2.400  14.211
   8823SM  C14F11854   1.969   2.236  14.353
   8823SM  H14F11855   2.064   2.189  14.318
   8823SM  H14G11856   1.897   2.154  14.373
   8823SM  C15F11857   1.995   2.311  14.484
   8823SM  H15F11858   1.898   2.339  14.530
   8823SM  H15G11859   2.051   2.404  14.464
   8823SM  C16F11860   2.076   2.224  14.581
   8823SM  H16F11861   2.178   2.212  14.540
   8823SM  H16G11862   2.030   2.122  14.586
   8823SM  C17F11863   2.086   2.278  14.724
   8823SM  H17F11864   2.117   2.385  14.723
   8823SM  H17G11865   2.166   2.221  14.776
   8823SM  C18F11866   1.957   2.261  14.805
   8823SM  H18F11867   1.918   2.158  14.787
   8823SM  H18G11868   1.880   2.332  14.770
   8823SM  C19F11869   1.977   2.276  14.957
   8823SM  H19F11870   2.058   2.208  14.990
   8823SM  H19G11871   1.884   2.245  15.009
   8823SM  C20F11872   2.011   2.419  15.000
   8823SM  H20F11873   1.931   2.488  14.965
   8823SM  H20G11874   2.106   2.451  14.952
   8823SM  C21F11875   2.025   2.433  15.153
   8823SM  H21F11876   2.103   2.362  15.188
   8823SM  H21G11877   1.929   2.403  15.201
   8823SM  C22F11878   2.063   2.574  15.198
   8823SM  H22F11879   1.986   2.646  15.160
   8823SM  H22G11880   2.160   2.602  15.151
   8823SM  C23F11881   2.075   2.590  15.350
   8823SM  H23F11882   2.102   2.694  15.376
   8823SM  H23G11883   2.154   2.522  15.389
   8823SM  H23H11884   1.979   2.565  15.399
   8923SM     N11885   6.665   2.799  12.154
   8923SM   C1511886   6.570   2.845  12.047
   8923SM  H15A11887   6.470   2.808  12.066
   8923SM  H15B11888   6.601   2.808  11.951
   8923SM  H15C11889   6.565   2.953  12.042
   8923SM   C1411890   6.664   2.649  12.154
   8923SM  H14A11891   6.564   2.610  12.166
   8923SM  H14B11892   6.721   2.613  12.239
   8923SM  H14C11893   6.706   2.608  12.063
   8923SM   C1311894   6.805   2.844  12.123
   8923SM  H13A11895   6.873   2.805  12.197
   8923SM  H13B11896   6.813   2.951  12.123
   8923SM  H13C11897   6.836   2.806  12.026
   8923SM   C1211898   6.621   2.850  12.291
   8923SM  H12A11899   6.522   2.811  12.311
   8923SM  H12B11900   6.613   2.957  12.288
   8923SM   C1111901   6.708   2.810  12.413
   8923SM  H11A11902   6.678   2.872  12.500
   8923SM  H11B11903   6.815   2.835  12.394
   8923SM     P11904   6.567   2.615  12.512
   8923SM   O1311905   6.450   2.651  12.428
   8923SM   O1411906   6.587   2.473  12.547
   8923SM   O1111907   6.560   2.703  12.643
   8923SM   O1211908   6.697   2.671  12.441
   8923SM   C1S11909   6.668   2.700  12.737
   8923SM   H1S11910   6.758   2.750  12.694
   8923SM   H1T11911   6.696   2.596  12.764
   8923SM    NF11912   6.745   2.772  12.960
   8923SM   HNF11913   6.748   2.702  13.030
   8923SM   C2S11914   6.630   2.772  12.870
   8923SM   H2S11915   6.604   2.878  12.846
   8923SM   C3S11916   6.504   2.704  12.930
   8923SM   H3S11917   6.525   2.595  12.942
   8923SM    O311918   6.389   2.715  12.846
   8923SM   HO311919   6.428   2.719  12.759
   8923SM   C4S11920   6.468   2.762  13.064
   8923SM   H4S11921   6.461   2.872  13.066
   8923SM   C5S11922   6.441   2.692  13.176
   8923SM   H5S11923   6.443   2.582  13.172
   8923SM   C6S11924   6.404   2.750  13.310
   8923SM   H6S11925   6.427   2.858  13.317
   8923SM   H6T11926   6.460   2.699  13.391
   8923SM   C7S11927   6.252   2.731  13.335
   8923SM   H7S11928   6.225   2.624  13.322
   8923SM   H7T11929   6.196   2.789  13.259
   8923SM   C8S11930   6.205   2.775  13.475
   8923SM   H8S11931   6.094   2.771  13.475
   8923SM   H8T11932   6.235   2.880  13.494
   8923SM   C9S11933   6.255   2.683  13.588
   8923SM   H9S11934   6.363   2.704  13.607
   8923SM   H9T11935   6.247   2.578  13.555
   8923SM  C10S11936   6.176   2.698  13.720
   8923SM  H10S11937   6.218   2.625  13.793
   8923SM  H10T11938   6.070   2.669  13.702
   8923SM  C11S11939   6.180   2.839  13.780
   8923SM  H11S11940   6.131   2.910  13.709
   8923SM  H11T11941   6.286   2.870  13.791
   8923SM  C12S11942   6.111   2.850  13.917
   8923SM  H12S11943   6.004   2.818  13.908
   8923SM  H12T11944   6.112   2.957  13.947
   8923SM  C13S11945   6.180   2.768  14.026
   8923SM  H13S11946   6.290   2.783  14.017
   8923SM  H13T11947   6.161   2.660  14.011
   8923SM  C14S11948   6.139   2.807  14.169
   8923SM  H14S11949   6.031   2.783  14.185
   8923SM  H14T11950   6.151   2.917  14.181
   8923SM  C15S11951   6.224   2.737  14.275
   8923SM  H15S11952   6.331   2.758  14.256
   8923SM  H15T11953   6.209   2.627  14.267
   8923SM  C16S11954   6.190   2.781  14.419
   8923SM  H16S11955   6.082   2.764  14.438
   8923SM  H16T11956   6.210   2.890  14.429
   8923SM  C17S11957   6.272   2.705  14.524
   8923SM  H17S11958   6.380   2.719  14.502
   8923SM  H17T11959   6.250   2.597  14.514
   8923SM  C18S11960   6.244   2.750  14.667
   8923SM  H18S11961   6.304   2.691  14.739
   8923SM  H18T11962   6.136   2.735  14.692
   8923SM  H18U11963   6.268   2.858  14.680
   8923SM   C1F11964   6.853   2.847  12.937
   8923SM    OF11965   6.847   2.945  12.862
   8923SM   C2F11966   6.979   2.804  13.007
   8923SM   H2F11967   7.012   2.708  12.962
   8923SM   H2G11968   6.955   2.784  13.114
   8923SM   C3F11969   7.096   2.904  12.999
   8923SM   H3F11970   7.125   2.918  12.892
   8923SM   H3G11971   7.183   2.858  13.049
   8923SM   C4F11972   7.074   3.043  13.062
   8923SM   H4F11973   6.999   3.101  13.005
   8923SM   H4G11974   7.170   3.098  13.054
   8923SM   C5F11975   7.035   3.042  13.211
   8923SM   H5F11976   7.075   3.135  13.256
   8923SM   H5G11977   7.083   2.956  13.264
   8923SM   C6F11978   6.883   3.043  13.234
   8923SM   H6F11979   6.836   2.946  13.206
   8923SM   H6G11980   6.842   3.122  13.167
   8923SM   C7F11981   6.843   3.083  13.376
   8923SM   H7F11982   6.737   3.118  13.372
   8923SM   H7G11983   6.904   3.171  13.406
   8923SM   C8F11984   6.851   2.972  13.482
   8923SM   H8F11985   6.834   3.020  13.581
   8923SM   H8G11986   6.953   2.928  13.484
   8923SM   C9F11987   6.744   2.863  13.463
   8923SM   H9F11988   6.782   2.788  13.391
   8923SM   H9G11989   6.654   2.910  13.419
   8923SM  C10F11990   6.701   2.795  13.594
   8923SM  H10F11991   6.626   2.717  13.571
   8923SM  H10G11992   6.651   2.870  13.659
   8923SM  C11F11993   6.817   2.732  13.673
   8923SM  H11F11994   6.887   2.811  13.706
   8923SM  H11G11995   6.873   2.662  13.607
   8923SM  C12F11996   6.766   2.654  13.796
   8923SM  H12F11997   6.702   2.571  13.761
   8923SM  H12G11998   6.704   2.723  13.857
   8923SM  C13F11999   6.880   2.598  13.882
   8923SM  H13F12000   6.934   2.682  13.930
   8923SM  H13G12001   6.952   2.544  13.817
   8923SM  C14F12002   6.832   2.500  13.991
   8923SM  H14F12003   6.920   2.466  14.049
   8923SM  H14G12004   6.787   2.411  13.942
   8923SM  C15F12005   6.728   2.560  14.087
   8923SM  H15F12006   6.640   2.594  14.029
   8923SM  H15G12007   6.770   2.650  14.137
   8923SM  C16F12008   6.677   2.460  14.193
   8923SM  H16F12009   6.643   2.368  14.141
   8923SM  H16G12010   6.589   2.505  14.244
   8923SM  C17F12011   6.780   2.422  14.300
   8923SM  H17F12012   6.869   2.374  14.254
   8923SM  H17G12013   6.733   2.347  14.367
   8923SM  C18F12014   6.825   2.540  14.387
   8923SM  H18F12015   6.737   2.605  14.408
   8923SM  H18G12016   6.900   2.602  14.332
   8923SM  C19F12017   6.883   2.494  14.522
   8923SM  H19F12018   6.972   2.429  14.504
   8923SM  H19G12019   6.806   2.432  14.572
   8923SM  C20F12020   6.920   2.610  14.616
   8923SM  H20F12021   6.841   2.687  14.609
   8923SM  H20G12022   7.016   2.656  14.583
   8923SM  C21F12023   6.930   2.565  14.763
   8923SM  H21F12024   6.833   2.521  14.793
   8923SM  H21G12025   6.947   2.655  14.827
   8923SM  C22F12026   7.041   2.463  14.791
   8923SM  H22F12027   7.140   2.511  14.776
   8923SM  H22G12028   7.034   2.380  14.718
   8923SM  C23F12029   7.033   2.405  14.933
   8923SM  H23F12030   7.043   2.485  15.009
   8923SM  H23G12031   7.115   2.331  14.949
   8923SM  H23H12032   6.936   2.354  14.948
   9023SM     N12033   6.276   2.149  12.186
   9023SM   C1512034   6.351   2.033  12.129
   9023SM  H15A12035   6.457   2.043  12.143
   9023SM  H15B12036   6.331   2.023  12.023
   9023SM  H15C12037   6.319   1.942  12.178
   9023SM   C1412038   6.321   2.274  12.115
   9023SM  H14A12039   6.427   2.288  12.123
   9023SM  H14B12040   6.275   2.362  12.156
   9023SM  H14C12041   6.295   2.269  12.010
   9023SM   C1312042   6.130   2.129  12.161
   9023SM  H13A12043   6.097   2.043  12.217
   9023SM  H13B12044   6.109   2.114  12.056
   9023SM  H13C12045   6.073   2.212  12.198
   9023SM   C1212046   6.300   2.161  12.336
   9023SM  H12A12047   6.231   2.233  12.377
   9023SM  H12B12048   6.399   2.199  12.355
   9023SM   C1112049   6.279   2.033  12.421
   9023SM  H11A12050   6.311   2.055  12.525
   9023SM  H11B12051   6.347   1.952  12.385
   9023SM     P12052   6.035   2.060  12.506
   9023SM   O1312053   6.062   2.206  12.496
   9023SM   O1412054   5.901   2.015  12.461
   9023SM   O1112055   6.065   2.008  12.653
   9023SM   O1212056   6.144   1.986  12.416
   9023SM   C1S12057   6.134   1.886  12.682
   9023SM   H1S12058   6.216   1.867  12.609
   9023SM   H1T12059   6.064   1.800  12.676
   9023SM    NF12060   6.312   1.795  12.831
   9023SM   HNF12061   6.296   1.711  12.882
   9023SM   C2S12062   6.200   1.889  12.824
   9023SM   H2S12063   6.240   1.992  12.840
   9023SM   C3S12064   6.092   1.860  12.932
   9023SM   H3S12065   6.062   1.753  12.923
   9023SM    O312066   5.974   1.937  12.913
   9023SM   HO312067   5.985   1.980  12.828
   9023SM   C4S12068   6.152   1.880  13.071
   9023SM   H4S12069   6.247   1.827  13.086
   9023SM   C5S12070   6.105   1.952  13.175
   9023SM   H5S12071   6.010   2.007  13.165
   9023SM   C6S12072   6.175   1.965  13.309
   9023SM   H6S12073   6.150   2.063  13.355
   9023SM   H6T12074   6.285   1.966  13.294
   9023SM   C7S12075   6.145   1.854  13.412
   9023SM   H7S12076   6.210   1.871  13.501
   9023SM   H7T12077   6.172   1.755  13.370
   9023SM   C8S12078   5.999   1.850  13.461
   9023SM   H8S12079   5.934   1.831  13.373
   9023SM   H8T12080   5.970   1.949  13.502
   9023SM   C9S12081   5.972   1.740  13.566
   9023SM   H9S12082   6.027   1.648  13.537
   9023SM   H9T12083   5.864   1.716  13.563
   9023SM  C10S12084   6.008   1.779  13.710
   9023SM  H10S12085   5.944   1.865  13.740
   9023SM  H10T12086   6.114   1.811  13.716
   9023SM  C11S12087   5.984   1.663  13.809
   9023SM  H11S12088   6.063   1.586  13.795
   9023SM  H11T12089   5.887   1.615  13.783
   9023SM  C12S12090   5.977   1.704  13.957
   9023SM  H12S12091   5.947   1.615  14.016
   9023SM  H12T12092   5.898   1.781  13.970
   9023SM  C13S12093   6.109   1.758  14.015
   9023SM  H13S12094   6.134   1.852  13.961
   9023SM  H13T12095   6.190   1.685  13.995
   9023SM  C14S12096   6.100   1.788  14.166
   9023SM  H14S12097   6.004   1.841  14.186
   9023SM  H14T12098   6.182   1.859  14.193
   9023SM  C15S12099   6.111   1.665  14.257
   9023SM  H15S12100   6.038   1.588  14.224
   9023SM  H15T12101   6.082   1.696  14.360
   9023SM  C16S12102   6.252   1.603  14.263
   9023SM  H16S12103   6.324   1.680  14.297
   9023SM  H16T12104   6.281   1.572  14.161
   9023SM  C17S12105   6.263   1.481  14.357
   9023SM  H17S12106   6.363   1.435  14.341
   9023SM  H17T12107   6.187   1.406  14.327
   9023SM  C18S12108   6.248   1.514  14.506
   9023SM  H18S12109   6.262   1.422  14.567
   9023SM  H18T12110   6.147   1.555  14.527
   9023SM  H18U12111   6.324   1.589  14.537
   9023SM   C1F12112   6.430   1.814  12.771
   9023SM    OF12113   6.453   1.912  12.702
   9023SM   C2F12114   6.534   1.706  12.789
   9023SM   H2F12115   6.593   1.701  12.695
   9023SM   H2G12116   6.485   1.608  12.804
   9023SM   C3F12117   6.629   1.738  12.907
   9023SM   H3F12118   6.663   1.843  12.901
   9023SM   H3G12119   6.719   1.673  12.898
   9023SM   C4F12120   6.566   1.711  13.045
   9023SM   H4F12121   6.551   1.602  13.057
   9023SM   H4G12122   6.467   1.760  13.051
   9023SM   C5F12123   6.651   1.763  13.162
   9023SM   H5F12124   6.654   1.874  13.156
   9023SM   H5G12125   6.755   1.726  13.154
   9023SM   C6F12126   6.592   1.721  13.297
   9023SM   H6F12127   6.614   1.613  13.314
   9023SM   H6G12128   6.481   1.732  13.293
   9023SM   C7F12129   6.643   1.803  13.416
   9023SM   H7F12130   6.612   1.909  13.401
   9023SM   H7G12131   6.754   1.801  13.419
   9023SM   C8F12132   6.587   1.752  13.549
   9023SM   H8F12133   6.639   1.657  13.576
   9023SM   H8G12134   6.480   1.728  13.535
   9023SM   C9F12135   6.599   1.853  13.664
   9023SM   H9F12136   6.540   1.943  13.638
   9023SM   H9G12137   6.705   1.884  13.677
   9023SM  C10F12138   6.546   1.794  13.796
   9023SM  H10F12139   6.617   1.716  13.831
   9023SM  H10G12140   6.448   1.745  13.776
   9023SM  C11F12141   6.526   1.899  13.906
   9023SM  H11F12142   6.447   1.971  13.874
   9023SM  H11G12143   6.620   1.956  13.920
   9023SM  C12F12144   6.483   1.834  14.038
   9023SM  H12F12145   6.564   1.766  14.073
   9023SM  H12G12146   6.394   1.771  14.018
   9023SM  C13F12147   6.448   1.933  14.150
   9023SM  H13F12148   6.406   1.874  14.234
   9023SM  H13G12149   6.369   2.003  14.115
   9023SM  C14F12150   6.568   2.013  14.203
   9023SM  H14F12151   6.606   2.078  14.122
   9023SM  H14G12152   6.649   1.942  14.230
   9023SM  C15F12153   6.536   2.099  14.326
   9023SM  H15F12154   6.455   2.172  14.303
   9023SM  H15G12155   6.628   2.157  14.349
   9023SM  C16F12156   6.500   2.018  14.452
   9023SM  H16F12157   6.550   2.066  14.539
   9023SM  H16G12158   6.540   1.915  14.443
   9023SM  C17F12159   6.349   2.013  14.481
   9023SM  H17F12160   6.295   1.969  14.395
   9023SM  H17G12161   6.312   2.117  14.494
   9023SM  C18F12162   6.313   1.932  14.608
   9023SM  H18F12163   6.341   1.826  14.594
   9023SM  H18G12164   6.203   1.937  14.621
   9023SM  C19F12165   6.381   1.986  14.735
   9023SM  H19F12166   6.371   2.097  14.736
   9023SM  H19G12167   6.489   1.962  14.732
   9023SM  C20F12168   6.320   1.931  14.864
   9023SM  H20F12169   6.330   1.821  14.867
   9023SM  H20G12170   6.211   1.955  14.865
   9023SM  C21F12171   6.385   1.994  14.989
   9023SM  H21F12172   6.392   2.103  14.974
   9023SM  H21G12173   6.488   1.955  15.000
   9023SM  C22F12174   6.306   1.969  15.118
   9023SM  H22F12175   6.203   2.008  15.105
   9023SM  H22G12176   6.353   2.028  15.200
   9023SM  C23F12177   6.298   1.822  15.162
   9023SM  H23F12178   6.400   1.780  15.172
   9023SM  H23G12179   6.242   1.762  15.087
   9023SM  H23H12180   6.247   1.814  15.260
   9123SM     N12181   7.167   4.883  12.305
   9123SM   C1512182   7.246   4.762  12.265
   9123SM  H15A12183   7.352   4.786  12.259
   9123SM  H15B12184   7.216   4.725  12.168
   9123SM  H15C12185   7.236   4.683  12.337
   9123SM   C1412186   7.216   4.931  12.438
   9123SM  H14A12187   7.152   5.011  12.470
   9123SM  H14B12188   7.318   4.968  12.431
   9123SM  H14C12189   7.213   4.853  12.512
   9123SM   C1312190   7.186   4.994  12.206
   9123SM  H13A12191   7.138   5.083  12.243
   9123SM  H13B12192   7.141   4.970  12.111
   9123SM  H13C12193   7.290   5.016  12.191
   9123SM   C1212194   7.018   4.850  12.317
   9123SM  H12A12195   7.003   4.786  12.402
   9123SM  H12B12196   6.987   4.794  12.229
   9123SM   C1112197   6.918   4.968  12.331
   9123SM  H11A12198   6.816   4.926  12.343
   9123SM  H11B12199   6.917   5.024  12.235
   9123SM     P12200   6.946   5.208  12.431
   9123SM   O1312201   7.067   5.248  12.356
   9123SM   O1412202   6.815   5.252  12.380
   9123SM   O1112203   6.962   5.251  12.584
   9123SM   O1212204   6.948   5.050  12.444
   9123SM   C1S12205   7.079   5.203  12.652
   9123SM   H1S12206   7.168   5.262  12.621
   9123SM   H1T12207   7.100   5.096  12.631
   9123SM    NF12208   7.194   5.167  12.865
   9123SM   HNF12209   7.206   5.069  12.877
   9123SM   C2S12210   7.067   5.211  12.807
   9123SM   H2S12211   7.049   5.317  12.835
   9123SM   C3S12212   6.946   5.127  12.857
   9123SM   H3S12213   6.962   5.020  12.828
   9123SM    O312214   6.821   5.166  12.801
   9123SM   HO312215   6.846   5.208  12.719
   9123SM   C4S12216   6.934   5.137  13.007
   9123SM   H4S12217   6.902   5.237  13.041
   9123SM   C5S12218   6.958   5.039  13.096
   9123SM   H5S12219   6.990   4.941  13.060
   9123SM   C6S12220   6.945   5.052  13.246
   9123SM   H6S12221   7.044   5.034  13.293
   9123SM   H6T12222   6.878   4.972  13.284
   9123SM   C7S12223   6.892   5.187  13.299
   9123SM   H7S12224   6.791   5.206  13.259
   9123SM   H7T12225   6.959   5.269  13.263
   9123SM   C8S12226   6.887   5.196  13.453
   9123SM   H8S12227   6.852   5.298  13.480
   9123SM   H8T12228   6.990   5.185  13.493
   9123SM   C9S12229   6.794   5.093  13.518
   9123SM   H9S12230   6.838   4.991  13.506
   9123SM   H9T12231   6.696   5.095  13.465
   9123SM  C10S12232   6.769   5.119  13.668
   9123SM  H10S12233   6.696   5.044  13.704
   9123SM  H10T12234   6.724   5.219  13.680
   9123SM  C11S12235   6.896   5.111  13.754
   9123SM  H11S12236   6.969   5.186  13.717
   9123SM  H11T12237   6.943   5.010  13.743
   9123SM  C12S12238   6.872   5.139  13.903
   9123SM  H12S12239   6.821   5.238  13.913
   9123SM  H12T12240   6.970   5.148  13.954
   9123SM  C13S12241   6.787   5.032  13.973
   9123SM  H13S12242   6.841   4.935  13.969
   9123SM  H13T12243   6.691   5.020  13.920
   9123SM  C14S12244   6.755   5.066  14.120
   9123SM  H14S12245   6.688   4.987  14.158
   9123SM  H14T12246   6.700   5.162  14.125
   9123SM  C15S12247   6.879   5.073  14.211
   9123SM  H15S12248   6.940   5.162  14.185
   9123SM  H15T12249   6.941   4.983  14.193
   9123SM  C16S12250   6.841   5.078  14.359
   9123SM  H16S12251   6.779   4.988  14.381
   9123SM  H16T12252   6.780   5.168  14.380
   9123SM  C17S12253   6.963   5.076  14.452
   9123SM  H17S12254   7.024   5.167  14.433
   9123SM  H17T12255   7.025   4.988  14.425
   9123SM  C18S12256   6.928   5.068  14.601
   9123SM  H18S12257   6.872   4.975  14.623
   9123SM  H18T12258   6.865   5.155  14.631
   9123SM  H18U12259   7.020   5.069  14.663
   9123SM   C1F12260   7.301   5.247  12.865
   9123SM    OF12261   7.291   5.364  12.832
   9123SM   C2F12262   7.432   5.185  12.901
   9123SM   H2F12263   7.493   5.175  12.808
   9123SM   H2G12264   7.416   5.083  12.942
   9123SM   C3F12265   7.510   5.271  13.003
   9123SM   H3F12266   7.525   5.373  12.963
   9123SM   H3G12267   7.611   5.225  13.016
   9123SM   C4F12268   7.443   5.278  13.141
   9123SM   H4F12269   7.439   5.175  13.185
   9123SM   H4G12270   7.339   5.313  13.131
   9123SM   C5F12271   7.517   5.371  13.238
   9123SM   H5F12272   7.511   5.475  13.198
   9123SM   H5G12273   7.624   5.344  13.244
   9123SM   C6F12274   7.458   5.369  13.380
   9123SM   H6F12275   7.347   5.372  13.374
   9123SM   H6G12276   7.491   5.461  13.434
   9123SM   C7F12277   7.503   5.248  13.462
   9123SM   H7F12278   7.614   5.248  13.466
   9123SM   H7G12279   7.472   5.153  13.413
   9123SM   C8F12280   7.451   5.250  13.607
   9123SM   H8F12281   7.465   5.352  13.648
   9123SM   H8G12282   7.514   5.182  13.669
   9123SM   C9F12283   7.303   5.210  13.624
   9123SM   H9F12284   7.240   5.280  13.565
   9123SM   H9G12285   7.276   5.225  13.731
   9123SM  C10F12286   7.269   5.065  13.585
   9123SM  H10F12287   7.279   5.055  13.475
   9123SM  H10G12288   7.162   5.047  13.609
   9123SM  C11F12289   7.355   4.956  13.652
   9123SM  H11F12290   7.459   4.963  13.613
   9123SM  H11G12291   7.315   4.857  13.621
   9123SM  C12F12292   7.360   4.962  13.806
   9123SM  H12F12293   7.414   5.054  13.837
   9123SM  H12G12294   7.419   4.875  13.842
   9123SM  C13F12295   7.222   4.959  13.873
   9123SM  H13F12296   7.164   4.874  13.833
   9123SM  H13G12297   7.168   5.053  13.846
   9123SM  C14F12298   7.227   4.949  14.026
   9123SM  H14F12299   7.266   4.848  14.054
   9123SM  H14G12300   7.123   4.956  14.065
   9123SM  C15F12301   7.314   5.057  14.093
   9123SM  H15F12302   7.290   5.155  14.047
   9123SM  H15G12303   7.420   5.034  14.072
   9123SM  C16F12304   7.294   5.068  14.245
   9123SM  H16F12305   7.195   5.114  14.265
   9123SM  H16G12306   7.372   5.135  14.286
   9123SM  C17F12307   7.300   4.933  14.318
   9123SM  H17F12308   7.388   4.875  14.282
   9123SM  H17G12309   7.209   4.874  14.292
   9123SM  C18F12310   7.307   4.947  14.471
   9123SM  H18F12311   7.233   5.024  14.504
   9123SM  H18G12312   7.408   4.985  14.500
   9123SM  C19F12313   7.277   4.816  14.544
   9123SM  H19F12314   7.353   4.740  14.517
   9123SM  H19G12315   7.178   4.778  14.511
   9123SM  C20F12316   7.275   4.833  14.697
   9123SM  H20F12317   7.198   4.909  14.722
   9123SM  H20G12318   7.373   4.871  14.732
   9123SM  C21F12319   7.244   4.701  14.770
   9123SM  H21F12320   7.323   4.628  14.746
   9123SM  H21G12321   7.148   4.660  14.732
   9123SM  C22F12322   7.234   4.716  14.923
   9123SM  H22F12323   7.329   4.758  14.961
   9123SM  H22G12324   7.223   4.614  14.967
   9123SM  C23F12325   7.117   4.803  14.970
   9123SM  H23F12326   7.128   4.907  14.934
   9123SM  H23G12327   7.112   4.805  15.081
   9123SM  H23H12328   7.020   4.763  14.932
   9223SM     N12329   5.854   1.360  12.188
   9223SM   C1512330   5.724   1.287  12.178
   9223SM  H15A12331   5.668   1.318  12.091
   9223SM  H15B12332   5.664   1.310  12.265
   9223SM  H15C12333   5.738   1.180  12.175
   9223SM   C1412334   5.924   1.315  12.314
   9223SM  H14A12335   6.021   1.363  12.324
   9223SM  H14B12336   5.936   1.208  12.318
   9223SM  H14C12337   5.864   1.347  12.398
   9223SM   C1312338   5.939   1.331  12.068
   9223SM  H13A12339   6.034   1.380  12.075
   9223SM  H13B12340   5.890   1.367  11.979
   9223SM  H13C12341   5.955   1.225  12.056
   9223SM   C1212342   5.829   1.510  12.198
   9223SM  H12A12343   5.807   1.548  12.099
   9223SM  H12B12344   5.920   1.557  12.230
   9223SM   C1112345   5.716   1.557  12.294
   9223SM  H11A12346   5.620   1.534  12.244
   9223SM  H11B12347   5.721   1.668  12.303
   9223SM     P12348   5.597   1.460  12.502
   9223SM   O1312349   5.518   1.584  12.521
   9223SM   O1412350   5.533   1.350  12.426
   9223SM   O1112351   5.652   1.406  12.641
   9223SM   O1212352   5.729   1.498  12.424
   9223SM   C1S12353   5.582   1.447  12.760
   9223SM   H1S12354   5.473   1.426  12.751
   9223SM   H1T12355   5.594   1.557  12.777
   9223SM    NF12356   5.553   1.416  13.003
   9223SM   HNF12357   5.596   1.481  13.066
   9223SM   C2S12358   5.632   1.374  12.888
   9223SM   H2S12359   5.617   1.265  12.873
   9223SM   C3S12360   5.784   1.399  12.912
   9223SM   H3S12361   5.800   1.508  12.925
   9223SM    O312362   5.869   1.359  12.805
   9223SM   HO312363   5.810   1.355  12.730
   9223SM   C4S12364   5.829   1.327  13.037
   9223SM   H4S12365   5.825   1.217  13.029
   9223SM   C5S12366   5.869   1.385  13.152
   9223SM   H5S12367   5.870   1.495  13.159
   9223SM   C6S12368   5.914   1.311  13.275
   9223SM   H6S12369   6.016   1.345  13.303
   9223SM   H6T12370   5.921   1.202  13.257
   9223SM   C7S12371   5.823   1.333  13.398
   9223SM   H7S12372   5.727   1.278  13.384
   9223SM   H7T12373   5.799   1.440  13.411
   9223SM   C8S12374   5.891   1.283  13.527
   9223SM   H8S12375   5.982   1.345  13.544
   9223SM   H8T12376   5.924   1.178  13.513
   9223SM   C9S12377   5.803   1.290  13.653
   9223SM   H9S12378   5.725   1.211  13.647
   9223SM   H9T12379   5.752   1.389  13.657
   9223SM  C10S12380   5.888   1.273  13.780
   9223SM  H10S12381   5.954   1.361  13.790
   9223SM  H10T12382   5.953   1.184  13.770
   9223SM  C11S12383   5.806   1.259  13.909
   9223SM  H11S12384   5.759   1.158  13.912
   9223SM  H11T12385   5.724   1.334  13.910
   9223SM  C12S12386   5.893   1.279  14.034
   9223SM  H12S12387   5.928   1.384  14.035
   9223SM  H12T12388   5.983   1.214  14.028
   9223SM  C13S12389   5.820   1.249  14.166
   9223SM  H13S12390   5.807   1.140  14.177
   9223SM  H13T12391   5.719   1.296  14.163
   9223SM  C14S12392   5.896   1.305  14.288
   9223SM  H14S12393   5.906   1.415  14.275
   9223SM  H14T12394   5.999   1.263  14.290
   9223SM  C15S12395   5.826   1.278  14.422
   9223SM  H15S12396   5.827   1.168  14.442
   9223SM  H15T12397   5.720   1.310  14.414
   9223SM  C16S12398   5.891   1.352  14.539
   9223SM  H16S12399   5.886   1.462  14.519
   9223SM  H16T12400   5.999   1.325  14.544
   9223SM  C17S12401   5.825   1.322  14.674
   9223SM  H17S12402   5.834   1.213  14.694
   9223SM  H17T12403   5.716   1.346  14.666
   9223SM  C18S12404   5.885   1.401  14.791
   9223SM  H18S12405   5.994   1.379  14.800
   9223SM  H18T12406   5.835   1.373  14.886
   9223SM  H18U12407   5.873   1.510  14.774
   9223SM   C1F12408   5.428   1.379  13.024
   9223SM    OF12409   5.373   1.295  12.954
   9223SM   C2F12410   5.359   1.444  13.140
   9223SM   H2F12411   5.249   1.439  13.125
   9223SM   H2G12412   5.389   1.551  13.143
   9223SM   C3F12413   5.398   1.373  13.272
   9223SM   H3F12414   5.507   1.356  13.277
   9223SM   H3G12415   5.348   1.273  13.274
   9223SM   C4F12416   5.358   1.450  13.399
   9223SM   H4F12417   5.378   1.384  13.486
   9223SM   H4G12418   5.250   1.473  13.398
   9223SM   C5F12419   5.439   1.579  13.419
   9223SM   H5F12420   5.409   1.654  13.343
   9223SM   H5G12421   5.547   1.558  13.404
   9223SM   C6F12422   5.420   1.640  13.559
   9223SM   H6F12423   5.456   1.566  13.634
   9223SM   H6G12424   5.312   1.656  13.577
   9223SM   C7F12425   5.495   1.773  13.577
   9223SM   H7F12426   5.471   1.840  13.492
   9223SM   H7G12427   5.605   1.753  13.573
   9223SM   C8F12428   5.461   1.847  13.708
   9223SM   H8F12429   5.358   1.886  13.700
   9223SM   H8G12430   5.529   1.934  13.718
   9223SM   C9F12431   5.470   1.761  13.835
   9223SM   H9F12432   5.401   1.675  13.827
   9223SM   H9G12433   5.436   1.822  13.922
   9223SM  C10F12434   5.612   1.709  13.864
   9223SM  H10F12435   5.678   1.795  13.890
   9223SM  H10G12436   5.653   1.662  13.771
   9223SM  C11F12437   5.618   1.603  13.975
   9223SM  H11F12438   5.723   1.570  13.987
   9223SM  H11G12439   5.558   1.515  13.944
   9223SM  C12F12440   5.566   1.652  14.111
   9223SM  H12F12441   5.457   1.671  14.105
   9223SM  H12G12442   5.616   1.749  14.136
   9223SM  C13F12443   5.595   1.550  14.222
   9223SM  H13F12444   5.704   1.543  14.238
   9223SM  H13G12445   5.560   1.450  14.187
   9223SM  C14F12446   5.525   1.580  14.356
   9223SM  H14F12447   5.551   1.499  14.426
   9223SM  H14G12448   5.415   1.580  14.340
   9223SM  C15F12449   5.567   1.714  14.418
   9223SM  H15F12450   5.538   1.796  14.349
   9223SM  H15G12451   5.677   1.717  14.430
   9223SM  C16F12452   5.500   1.739  14.555
   9223SM  H16F12453   5.390   1.726  14.545
   9223SM  H16G12454   5.519   1.845  14.584
   9223SM  C17F12455   5.554   1.649  14.666
   9223SM  H17F12456   5.664   1.661  14.672
   9223SM  H17G12457   5.533   1.542  14.643
   9223SM  C18F12458   5.494   1.683  14.803
   9223SM  H18F12459   5.384   1.662  14.802
   9223SM  H18G12460   5.507   1.792  14.822
   9223SM  C19F12461   5.559   1.605  14.918
   9223SM  H19F12462   5.669   1.624  14.916
   9223SM  H19G12463   5.543   1.497  14.903
   9223SM  C20F12464   5.504   1.647  15.055
   9223SM  H20F12465   5.394   1.630  15.055
   9223SM  H20G12466   5.519   1.756  15.070
   9223SM  C21F12467   5.565   1.569  15.173
   9223SM  H21F12468   5.551   1.460  15.154
   9223SM  H21G12469   5.509   1.594  15.265
   9223SM  C22F12470   5.714   1.596  15.197
   9223SM  H22F12471   5.772   1.567  15.107
   9223SM  H22G12472   5.748   1.529  15.280
   9223SM  C23F12473   5.748   1.741  15.235
   9223SM  H23F12474   5.693   1.771  15.326
   9223SM  H23G12475   5.720   1.810  15.152
   9223SM  H23H12476   5.856   1.753  15.254
   9323SM     N12477   7.547   4.146  12.214
   9323SM   C1512478   7.458   4.067  12.305
   9323SM  H15A12479   7.504   3.976  12.339
   9323SM  H15B12480   7.364   4.044  12.256
   9323SM  H15C12481   7.434   4.128  12.391
   9323SM   C1412482   7.573   4.066  12.089
   9323SM  H14A12483   7.623   3.973  12.110
   9323SM  H14B12484   7.634   4.121  12.019
   9323SM  H14C12485   7.480   4.043  12.040
   9323SM   C1312486   7.472   4.270  12.176
   9323SM  H13A12487   7.452   4.327  12.266
   9323SM  H13B12488   7.378   4.246  12.130
   9323SM  H13C12489   7.529   4.334  12.110
   9323SM   C1212490   7.677   4.182  12.284
   9323SM  H12A12491   7.730   4.254  12.222
   9323SM  H12B12492   7.739   4.094  12.290
   9323SM   C1112493   7.670   4.243  12.427
   9323SM  H11A12494   7.774   4.259  12.463
   9323SM  H11B12495   7.625   4.167  12.495
   9323SM     P12496   7.476   4.391  12.523
   9323SM   O1312497   7.451   4.535  12.542
   9323SM   O1412498   7.364   4.311  12.470
   9323SM   O1112499   7.524   4.328  12.660
   9323SM   O1212500   7.601   4.369  12.429
   9323SM   C1S12501   7.599   4.403  12.755
   9323SM   H1S12502   7.528   4.462  12.817
   9323SM   H1T12503   7.668   4.475  12.706
   9323SM    NF12504   7.606   4.200  12.899
   9323SM   HNF12505   7.556   4.209  12.985
   9323SM   C2S12506   7.683   4.314  12.853
   9323SM   H2S12507   7.773   4.277  12.799
   9323SM   C3S12508   7.732   4.404  12.971
   9323SM   H3S12509   7.644   4.456  13.015
   9323SM    O312510   7.824   4.506  12.931
   9323SM   HO312511   7.835   4.496  12.837
   9323SM   C4S12512   7.798   4.319  13.076
   9323SM   H4S12513   7.895   4.277  13.048
   9323SM   C5S12514   7.746   4.291  13.197
   9323SM   H5S12515   7.648   4.333  13.226
   9323SM   C6S12516   7.810   4.203  13.302
   9323SM   H6S12517   7.917   4.184  13.279
   9323SM   H6T12518   7.760   4.104  13.301
   9323SM   C7S12519   7.799   4.259  13.445
   9323SM   H7S12520   7.696   4.296  13.463
   9323SM   H7T12521   7.868   4.345  13.457
   9323SM   C8S12522   7.828   4.151  13.550
   9323SM   H8S12523   7.932   4.113  13.537
   9323SM   H8T12524   7.759   4.066  13.532
   9323SM   C9S12525   7.809   4.199  13.695
   9323SM   H9S12526   7.812   4.110  13.761
   9323SM   H9T12527   7.708   4.245  13.706
   9323SM  C10S12528   7.917   4.297  13.742
   9323SM  H10S12529   7.910   4.391  13.682
   9323SM  H10T12530   8.016   4.252  13.723
   9323SM  C11S12531   7.904   4.330  13.891
   9323SM  H11S12532   7.901   4.235  13.948
   9323SM  H11T12533   7.809   4.384  13.909
   9323SM  C12S12534   8.022   4.414  13.943
   9323SM  H12S12535   8.025   4.511  13.889
   9323SM  H12T12536   8.117   4.360  13.921
   9323SM  C13S12537   8.013   4.440  14.094
   9323SM  H13S12538   8.010   4.342  14.146
   9323SM  H13T12539   7.919   4.493  14.117
   9323SM  C14S12540   8.132   4.521  14.147
   9323SM  H14S12541   8.141   4.615  14.088
   9323SM  H14T12542   8.225   4.463  14.131
   9323SM  C15S12543   8.122   4.559  14.296
   9323SM  H15S12544   8.214   4.614  14.322
   9323SM  H15T12545   8.036   4.628  14.311
   9323SM  C16S12546   8.108   4.438  14.391
   9323SM  H16S12547   8.162   4.462  14.485
   9323SM  H16T12548   8.158   4.349  14.347
   9323SM  C17S12549   7.963   4.407  14.429
   9323SM  H17S12550   7.905   4.380  14.338
   9323SM  H17T12551   7.918   4.499  14.470
   9323SM  C18S12552   7.949   4.294  14.531
   9323SM  H18S12553   7.842   4.277  14.556
   9323SM  H18T12554   8.003   4.320  14.625
   9323SM  H18U12555   7.991   4.199  14.491
   9323SM   C1F12556   7.588   4.091  12.825
   9323SM    OF12557   7.667   4.062  12.735
   9323SM   C2F12558   7.471   4.002  12.858
   9323SM   H2F12559   7.506   3.896  12.852
   9323SM   H2G12560   7.393   4.017  12.782
   9323SM   C3F12561   7.413   4.028  12.999
   9323SM   H3F12562   7.375   4.133  13.006
   9323SM   H3G12563   7.493   4.014  13.075
   9323SM   C4F12564   7.295   3.935  13.035
   9323SM   H4F12565   7.331   3.830  13.038
   9323SM   H4G12566   7.219   3.943  12.954
   9323SM   C5F12567   7.226   3.969  13.169
   9323SM   H5F12568   7.136   3.904  13.175
   9323SM   H5G12569   7.191   4.074  13.169
   9323SM   C6F12570   7.310   3.939  13.295
   9323SM   H6F12571   7.376   3.852  13.274
   9323SM   H6G12572   7.242   3.909  13.376
   9323SM   C7F12573   7.395   4.057  13.348
   9323SM   H7F12574   7.461   4.096  13.268
   9323SM   H7G12575   7.461   4.017  13.428
   9323SM   C8F12576   7.313   4.172  13.408
   9323SM   H8F12577   7.247   4.132  13.487
   9323SM   H8G12578   7.249   4.217  13.330
   9323SM   C9F12579   7.404   4.281  13.467
   9323SM   H9F12580   7.473   4.316  13.388
   9323SM   H9G12581   7.467   4.236  13.548
   9323SM  C10F12582   7.330   4.403  13.523
   9323SM  H10F12583   7.273   4.452  13.441
   9323SM  H10G12584   7.405   4.477  13.558
   9323SM  C11F12585   7.233   4.374  13.640
   9323SM  H11F12586   7.147   4.315  13.603
   9323SM  H11G12587   7.193   4.472  13.676
   9323SM  C12F12588   7.299   4.300  13.758
   9323SM  H12F12589   7.398   4.346  13.780
   9323SM  H12G12590   7.317   4.195  13.727
   9323SM  C13F12591   7.212   4.300  13.885
   9323SM  H13F12592   7.243   4.216  13.950
   9323SM  H13G12593   7.107   4.281  13.855
   9323SM  C14F12594   7.219   4.431  13.966
   9323SM  H14F12595   7.136   4.431  14.040
   9323SM  H14G12596   7.201   4.517  13.897
   9323SM  C15F12597   7.351   4.454  14.041
   9323SM  H15F12598   7.350   4.556  14.084
   9323SM  H15G12599   7.437   4.449  13.970
   9323SM  C16F12600   7.374   4.354  14.155
   9323SM  H16F12601   7.382   4.251  14.114
   9323SM  H16G12602   7.286   4.357  14.222
   9323SM  C17F12603   7.501   4.385  14.236
   9323SM  H17F12604   7.496   4.490  14.271
   9323SM  H17G12605   7.589   4.375  14.169
   9323SM  C18F12606   7.520   4.293  14.358
   9323SM  H18F12607   7.625   4.302  14.394
   9323SM  H18G12608   7.503   4.188  14.327
   9323SM  C19F12609   7.426   4.329  14.474
   9323SM  H19F12610   7.321   4.332  14.437
   9323SM  H19G12611   7.450   4.430  14.512
   9323SM  C20F12612   7.433   4.228  14.589
   9323SM  H20F12613   7.537   4.222  14.628
   9323SM  H20G12614   7.405   4.128  14.549
   9323SM  C21F12615   7.338   4.265  14.705
   9323SM  H21F12616   7.236   4.284  14.664
   9323SM  H21G12617   7.374   4.359  14.751
   9323SM  C22F12618   7.327   4.156  14.813
   9323SM  H22F12619   7.273   4.199  14.900
   9323SM  H22G12620   7.429   4.130  14.847
   9323SM  C23F12621   7.254   4.030  14.767
   9323SM  H23F12622   7.245   3.957  14.851
   9323SM  H23G12623   7.309   3.980  14.685
   9323SM  H23H12624   7.152   4.054  14.731
   9423SM     N12625   5.668   7.354  12.167
   9423SM   C1512626   5.528   7.393  12.205
   9423SM  H15A12627   5.505   7.356  12.304
   9423SM  H15B12628   5.455   7.354  12.136
   9423SM  H15C12629   5.516   7.500  12.209
   9423SM   C1412630   5.679   7.205  12.171
   9423SM  H14A12631   5.604   7.158  12.109
   9423SM  H14B12632   5.667   7.173  12.273
   9423SM  H14C12633   5.777   7.172  12.139
   9423SM   C1312634   5.694   7.400  12.027
   9423SM  H13A12635   5.680   7.507  12.018
   9423SM  H13B12636   5.624   7.354  11.958
   9423SM  H13C12637   5.794   7.375  11.996
   9423SM   C1212638   5.768   7.415  12.264
   9423SM  H12A12639   5.776   7.521  12.243
   9423SM  H12B12640   5.865   7.371  12.246
   9423SM   C1112641   5.738   7.399  12.415
   9423SM  H11A12642   5.644   7.451  12.440
   9423SM  H11B12643   5.818   7.450  12.473
   9423SM     P12644   5.850   7.177  12.497
   9423SM   O1312645   5.810   7.035  12.498
   9423SM   O1412646   5.964   7.214  12.410
   9423SM   O1112647   5.871   7.226  12.647
   9423SM   O1212648   5.725   7.261  12.451
   9423SM   C1S12649   5.761   7.284  12.719
   9423SM   H1S12650   5.664   7.238  12.691
   9423SM   H1T12651   5.753   7.393  12.698
   9423SM    NF12652   5.863   7.364  12.929
   9423SM   HNF12653   5.960   7.340  12.932
   9423SM   C2S12654   5.773   7.264  12.874
   9423SM   H2S12655   5.672   7.281  12.916
   9423SM   C3S12656   5.817   7.119  12.907
   9423SM   H3S12657   5.926   7.109  12.888
   9423SM    O312658   5.756   7.018  12.827
   9423SM   HO312659   5.753   7.058  12.739
   9423SM   C4S12660   5.789   7.091  13.053
   9423SM   H4S12661   5.685   7.110  13.082
   9423SM   C5S12662   5.875   7.047  13.146
   9423SM   H5S12663   5.979   7.024  13.119
   9423SM   C6S12664   5.836   7.023  13.290
   9423SM   H6S12665   5.739   7.071  13.313
   9423SM   H6T12666   5.912   7.069  13.357
   9423SM   C7S12667   5.823   6.873  13.324
   9423SM   H7S12668   5.923   6.824  13.317
   9423SM   H7T12669   5.756   6.824  13.250
   9423SM   C8S12670   5.764   6.848  13.464
   9423SM   H8S12671   5.751   6.739  13.478
   9423SM   H8T12672   5.664   6.895  13.470
   9423SM   C9S12673   5.851   6.902  13.579
   9423SM   H9S12674   5.865   7.011  13.568
   9423SM   H9T12675   5.952   6.854  13.572
   9423SM  C10S12676   5.792   6.873  13.717
   9423SM  H10S12677   5.777   6.764  13.729
   9423SM  H10T12678   5.692   6.922  13.725
   9423SM  C11S12679   5.882   6.924  13.830
   9423SM  H11S12680   5.897   7.033  13.820
   9423SM  H11T12681   5.982   6.876  13.820
   9423SM  C12S12682   5.828   6.894  13.971
   9423SM  H12S12683   5.810   6.784  13.980
   9423SM  H12T12684   5.731   6.946  13.985
   9423SM  C13S12685   5.926   6.938  14.080
   9423SM  H13S12686   5.939   7.048  14.074
   9423SM  H13T12687   6.025   6.891  14.058
   9423SM  C14S12688   5.884   6.899  14.222
   9423SM  H14S12689   5.860   6.790  14.225
   9423SM  H14T12690   5.792   6.955  14.250
   9423SM  C15S12691   5.996   6.928  14.323
   9423SM  H15S12692   6.021   7.036  14.319
   9423SM  H15T12693   6.086   6.871  14.293
   9423SM  C16S12694   5.960   6.890  14.467
   9423SM  H16S12695   5.924   6.785  14.471
   9423SM  H16T12696   5.877   6.956  14.502
   9423SM  C17S12697   6.079   6.906  14.563
   9423SM  H17S12698   6.123   7.007  14.551
   9423SM  H17T12699   6.158   6.833  14.534
   9423SM  C18S12700   6.042   6.885  14.710
   9423SM  H18S12701   6.131   6.895  14.775
   9423SM  H18T12702   5.998   6.784  14.725
   9423SM  H18U12703   5.966   6.960  14.741
   9423SM   C1F12704   5.825   7.492  12.940
   9423SM    OF12705   5.707   7.520  12.951
   9423SM   C2F12706   5.932   7.597  12.931
   9423SM   H2F12707   5.929   7.638  12.828
   9423SM   H2G12708   6.032   7.550  12.946
   9423SM   C3F12709   5.913   7.713  13.031
   9423SM   H3F12710   5.812   7.758  13.019
   9423SM   H3G12711   5.988   7.791  13.006
   9423SM   C4F12712   5.935   7.672  13.178
   9423SM   H4F12713   6.027   7.611  13.185
   9423SM   H4G12714   5.850   7.609  13.211
   9423SM   C5F12715   5.951   7.793  13.272
   9423SM   H5F12716   5.859   7.856  13.269
   9423SM   H5G12717   6.035   7.856  13.233
   9423SM   C6F12718   5.983   7.755  13.417
   9423SM   H6F12719   6.016   7.846  13.472
   9423SM   H6G12720   6.068   7.683  13.418
   9423SM   C7F12721   5.863   7.694  13.491
   9423SM   H7F12722   5.829   7.604  13.435
   9423SM   H7G12723   5.780   7.768  13.490
   9423SM   C8F12724   5.892   7.652  13.636
   9423SM   H8F12725   5.795   7.622  13.681
   9423SM   H8G12726   5.931   7.737  13.694
   9423SM   C9F12727   5.987   7.532  13.646
   9423SM   H9F12728   6.093   7.568  13.649
   9423SM   H9G12729   5.976   7.469  13.555
   9423SM  C10F12730   5.959   7.441  13.768
   9423SM  H10F12731   6.028   7.354  13.763
   9423SM  H10G12732   5.856   7.402  13.760
   9423SM  C11F12733   5.977   7.510  13.904
   9423SM  H11F12734   5.912   7.600  13.911
   9423SM  H11G12735   6.082   7.543  13.913
   9423SM  C12F12736   5.943   7.415  14.020
   9423SM  H12F12737   5.991   7.317  14.000
   9423SM  H12G12738   5.834   7.397  14.025
   9423SM  C13F12739   5.994   7.465  14.157
   9423SM  H13F12740   5.933   7.552  14.190
   9423SM  H13G12741   6.098   7.500  14.145
   9423SM  C14F12742   5.992   7.355  14.264
   9423SM  H14F12743   6.057   7.272  14.229
   9423SM  H14G12744   5.889   7.314  14.275
   9423SM  C15F12745   6.043   7.402  14.400
   9423SM  H15F12746   5.966   7.465  14.449
   9423SM  H15G12747   6.133   7.466  14.385
   9423SM  C16F12748   6.082   7.285  14.492
   9423SM  H16F12749   6.168   7.234  14.446
   9423SM  H16G12750   5.998   7.212  14.498
   9423SM  C17F12751   6.122   7.330  14.634
   9423SM  H17F12752   6.163   7.433  14.628
   9423SM  H17G12753   6.204   7.265  14.671
   9423SM  C18F12754   6.006   7.323  14.734
   9423SM  H18F12755   5.991   7.217  14.762
   9423SM  H18G12756   5.912   7.359  14.686
   9423SM  C19F12757   6.031   7.407  14.860
   9423SM  H19F12758   6.137   7.396  14.892
   9423SM  H19G12759   5.967   7.369  14.943
   9423SM  C20F12760   5.997   7.556  14.838
   9423SM  H20F12761   5.887   7.564  14.822
   9423SM  H20G12762   6.047   7.592  14.746
   9423SM  C21F12763   6.038   7.647  14.954
   9423SM  H21F12764   6.148   7.649  14.963
   9423SM  H21G12765   5.998   7.606  15.050
   9423SM  C22F12766   5.985   7.790  14.936
   9423SM  H22F12767   5.874   7.787  14.930
   9423SM  H22G12768   6.022   7.829  14.838
   9423SM  C23F12769   6.027   7.887  15.046
   9423SM  H23F12770   5.981   7.987  15.031
   9423SM  H23G12771   6.138   7.899  15.047
   9423SM  H23H12772   5.996   7.848  15.146
   9523SM     N12773   1.253   1.857  12.157
   9523SM   C1512774   1.108   1.880  12.123
   9523SM  H15A12775   1.086   1.985  12.112
   9523SM  H15B12776   1.043   1.840  12.199
   9523SM  H15C12777   1.082   1.830  12.030
   9523SM   C1412778   1.274   1.710  12.174
   9523SM  H14A12779   1.378   1.688  12.196
   9523SM  H14B12780   1.246   1.657  12.084
   9523SM  H14C12781   1.214   1.671  12.254
   9523SM   C1312782   1.336   1.906  12.041
   9523SM  H13A12783   1.441   1.889  12.059
   9523SM  H13B12784   1.321   2.012  12.026
   9523SM  H13C12785   1.308   1.855  11.950
   9523SM   C1212786   1.292   1.933  12.282
   9523SM  H12A12787   1.274   2.038  12.268
   9523SM  H12B12788   1.398   1.925  12.299
   9523SM   C1112789   1.223   1.891  12.413
   9523SM  H11A12790   1.249   1.787  12.442
   9523SM  H11B12791   1.113   1.896  12.402
   9523SM     P12792   1.402   1.970  12.588
   9523SM   O1312793   1.511   1.968  12.487
   9523SM   O1412794   1.406   2.074  12.692
   9523SM   O1112795   1.389   1.826  12.654
   9523SM   O1212796   1.263   1.985  12.512
   9523SM   C1S12797   1.490   1.773  12.742
   9523SM   H1S12798   1.569   1.849  12.765
   9523SM   H1T12799   1.541   1.687  12.693
   9523SM    NF12800   1.537   1.687  12.972
   9523SM   HNF12801   1.545   1.592  13.000
   9523SM   C2S12802   1.431   1.723  12.878
   9523SM   H2S12803   1.374   1.809  12.921
   9523SM   C3S12804   1.332   1.605  12.856
   9523SM   H3S12805   1.391   1.512  12.840
   9523SM    O312806   1.249   1.617  12.741
   9523SM   HO312807   1.285   1.694  12.696
   9523SM   C4S12808   1.243   1.589  12.977
   9523SM   H4S12809   1.167   1.668  12.986
   9523SM   C5S12810   1.248   1.492  13.071
   9523SM   H5S12811   1.326   1.414  13.067
   9523SM   C6S12812   1.155   1.486  13.189
   9523SM   H6S12813   1.130   1.380  13.212
   9523SM   H6T12814   1.059   1.538  13.168
   9523SM   C7S12815   1.217   1.549  13.315
   9523SM   H7S12816   1.242   1.656  13.295
   9523SM   H7T12817   1.311   1.496  13.340
   9523SM   C8S12818   1.124   1.542  13.438
   9523SM   H8S12819   1.102   1.434  13.457
   9523SM   H8T12820   1.028   1.593  13.417
   9523SM   C9S12821   1.189   1.601  13.564
   9523SM   H9S12822   1.197   1.711  13.555
   9523SM   H9T12823   1.292   1.560  13.570
   9523SM  C10S12824   1.115   1.563  13.694
   9523SM  H10S12825   1.087   1.456  13.687
   9523SM  H10T12826   1.022   1.622  13.704
   9523SM  C11S12827   1.204   1.581  13.818
   9523SM  H11S12828   1.235   1.687  13.827
   9523SM  H11T12829   1.296   1.521  13.802
   9523SM  C12S12830   1.139   1.534  13.949
   9523SM  H12S12831   1.094   1.434  13.933
   9523SM  H12T12832   1.057   1.604  13.977
   9523SM  C13S12833   1.242   1.524  14.063
   9523SM  H13S12834   1.293   1.622  14.074
   9523SM  H13T12835   1.319   1.449  14.034
   9523SM  C14S12836   1.181   1.484  14.198
   9523SM  H14S12837   1.125   1.388  14.188
   9523SM  H14T12838   1.108   1.563  14.227
   9523SM  C15S12839   1.286   1.470  14.310
   9523SM  H15S12840   1.235   1.473  14.408
   9523SM  H15T12841   1.354   1.557  14.305
   9523SM  C16S12842   1.368   1.340  14.301
   9523SM  H16S12843   1.402   1.326  14.196
   9523SM  H16T12844   1.302   1.254  14.327
   9523SM  C17S12845   1.492   1.339  14.391
   9523SM  H17S12846   1.561   1.419  14.358
   9523SM  H17T12847   1.545   1.242  14.376
   9523SM  C18S12848   1.463   1.357  14.540
   9523SM  H18S12849   1.396   1.276  14.577
   9523SM  H18T12850   1.415   1.455  14.560
   9523SM  H18U12851   1.558   1.353  14.599
   9523SM   C1F12852   1.622   1.777  13.022
   9523SM    OF12853   1.600   1.897  13.009
   9523SM   C2F12854   1.745   1.728  13.090
   9523SM   H2F12855   1.807   1.817  13.117
   9523SM   H2G12856   1.804   1.666  13.019
   9523SM   C3F12857   1.717   1.646  13.219
   9523SM   H3F12858   1.669   1.549  13.194
   9523SM   H3G12859   1.647   1.703  13.284
   9523SM   C4F12860   1.846   1.621  13.299
   9523SM   H4F12861   1.895   1.719  13.318
   9523SM   H4G12862   1.917   1.560  13.238
   9523SM   C5F12863   1.823   1.551  13.434
   9523SM   H5F12864   1.795   1.445  13.417
   9523SM   H5G12865   1.738   1.600  13.486
   9523SM   C6F12866   1.947   1.559  13.524
   9523SM   H6F12867   1.974   1.666  13.536
   9523SM   H6G12868   2.032   1.508  13.475
   9523SM   C7F12869   1.925   1.498  13.664
   9523SM   H7F12870   1.922   1.388  13.656
   9523SM   H7G12871   1.826   1.532  13.702
   9523SM   C8F12872   2.034   1.541  13.763
   9523SM   H8F12873   2.029   1.651  13.776
   9523SM   H8G12874   2.133   1.518  13.718
   9523SM   C9F12875   2.025   1.474  13.901
   9523SM   H9F12876   2.111   1.509  13.962
   9523SM   H9G12877   2.034   1.364  13.889
   9523SM  C10F12878   1.894   1.505  13.976
   9523SM  H10F12879   1.810   1.460  13.919
   9523SM  H10G12880   1.877   1.615  13.978
   9523SM  C11F12881   1.891   1.449  14.119
   9523SM  H11F12882   1.931   1.345  14.115
   9523SM  H11G12883   1.786   1.443  14.154
   9523SM  C12F12884   1.970   1.532  14.221
   9523SM  H12F12885   2.070   1.558  14.179
   9523SM  H12G12886   1.988   1.470  14.312
   9523SM  C13F12887   1.897   1.659  14.264
   9523SM  H13F12888   1.800   1.631  14.310
   9523SM  H13G12889   1.874   1.721  14.174
   9523SM  C14F12890   1.978   1.744  14.363
   9523SM  H14F12891   2.075   1.768  14.315
   9523SM  H14G12892   2.000   1.685  14.454
   9523SM  C15F12893   1.910   1.876  14.401
   9523SM  H15F12894   1.885   1.931  14.307
   9523SM  H15G12895   1.982   1.939  14.458
   9523SM  C16F12896   1.781   1.863  14.485
   9523SM  H16F12897   1.708   1.798  14.432
   9523SM  H16G12898   1.735   1.964  14.494
   9523SM  C17F12899   1.806   1.808  14.626
   9523SM  H17F12900   1.878   1.874  14.679
   9523SM  H17G12901   1.852   1.707  14.618
   9523SM  C18F12902   1.678   1.794  14.712
   9523SM  H18F12903   1.706   1.743  14.807
   9523SM  H18G12904   1.605   1.728  14.659
   9523SM  C19F12905   1.610   1.928  14.745
   9523SM  H19F12906   1.575   1.975  14.650
   9523SM  H19G12907   1.685   1.997  14.791
   9523SM  C20F12908   1.490   1.915  14.840
   9523SM  H20F12909   1.419   1.840  14.798
   9523SM  H20G12910   1.437   2.012  14.843
   9523SM  C21F12911   1.528   1.876  14.983
   9523SM  H21F12912   1.603   1.948  15.022
   9523SM  H21G12913   1.575   1.775  14.983
   9523SM  C22F12914   1.407   1.873  15.078
   9523SM  H22F12915   1.332   1.802  15.039
   9523SM  H22G12916   1.360   1.974  15.079
   9523SM  C23F12917   1.444   1.834  15.221
   9523SM  H23F12918   1.354   1.835  15.287
   9523SM  H23G12919   1.519   1.904  15.263
   9523SM  H23H12920   1.488   1.732  15.223
   9623SM     N12921   2.966   0.412  12.257
   9623SM   C1512922   3.107   0.464  12.249
   9623SM  H15A12923   3.139   0.474  12.146
   9623SM  H15B12924   3.174   0.396  12.298
   9623SM  H15C12925   3.117   0.560  12.297
   9623SM   C1412926   2.873   0.504  12.185
   9623SM  H14A12927   2.771   0.469  12.189
   9623SM  H14B12928   2.898   0.512  12.080
   9623SM  H14C12929   2.876   0.605  12.224
   9623SM   C1312930   2.962   0.277  12.191
   9623SM  H13A12931   3.024   0.209  12.247
   9623SM  H13B12932   2.996   0.280  12.088
   9623SM  H13C12933   2.862   0.236  12.192
   9623SM   C1212934   2.925   0.397  12.403
   9623SM  H12A12935   2.827   0.352  12.408
   9623SM  H12B12936   2.915   0.495  12.448
   9623SM   C1112937   3.016   0.313  12.496
   9623SM  H11A12938   2.971   0.315  12.597
   9623SM  H11B12939   3.116   0.361  12.502
   9623SM     P12940   3.147   0.088  12.490
   9623SM   O1312941   3.112   8.395  12.463
   9623SM   O1412942   3.267   0.144  12.424
   9623SM   O1112943   3.156   0.110  12.647
   9623SM   O1212944   3.023   0.177  12.450
   9623SM   C1S12945   3.064   0.035  12.728
   9623SM   H1S12946   3.086   8.375  12.716
   9623SM   H1T12947   2.958   0.053  12.698
   9623SM    NF12948   2.997   8.431  12.967
   9623SM   HNF12949   2.937   0.027  13.032
   9623SM   C2S12950   3.075   0.071  12.880
   9623SM   H2S12951   3.182   0.060  12.909
   9623SM   C3S12952   3.034   0.220  12.898
   9623SM   H3S12953   2.927   0.231  12.869
   9623SM    O312954   3.106   0.311  12.816
   9623SM   HO312955   3.147   0.254  12.750
   9623SM   C4S12956   3.052   0.265  13.040
   9623SM   H4S12957   3.157   0.276  13.072
   9623SM   C5S12958   2.953   0.296  13.126
   9623SM   H5S12959   2.848   0.289  13.094
   9623SM   C6S12960   2.975   0.342  13.268
   9623SM   H6S12961   2.916   0.434  13.286
   9623SM   H6T12962   3.082   0.369  13.285
   9623SM   C7S12963   2.936   0.236  13.372
   9623SM   H7S12964   2.992   0.142  13.352
   9623SM   H7T12965   2.828   0.212  13.365
   9623SM   C8S12966   2.968   0.278  13.517
   9623SM   H8S12967   3.076   0.307  13.522
   9623SM   H8T12968   2.954   0.191  13.584
   9623SM   C9S12969   2.883   0.396  13.567
   9623SM   H9S12970   2.776   0.364  13.572
   9623SM   H9T12971   2.890   0.479  13.495
   9623SM  C10S12972   2.927   0.450  13.704
   9623SM  H10S12973   2.870   0.543  13.724
   9623SM  H10T12974   3.034   0.477  13.701
   9623SM  C11S12975   2.901   0.352  13.820
   9623SM  H11S12976   2.969   0.265  13.812
   9623SM  H11T12977   2.797   0.315  13.812
   9623SM  C12S12978   2.919   0.419  13.958
   9623SM  H12S12979   2.859   0.513  13.959
   9623SM  H12T12980   3.025   0.447  13.974
   9623SM  C13S12981   2.870   0.329  14.072
   9623SM  H13S12982   2.940   0.244  14.086
   9623SM  H13T12983   2.772   0.287  14.040
   9623SM  C14S12984   2.847   0.401  14.205
   9623SM  H14S12985   2.781   0.489  14.186
   9623SM  H14T12986   2.943   0.439  14.245
   9623SM  C15S12987   2.779   0.310  14.308
   9623SM  H15S12988   2.850   0.230  14.339
   9623SM  H15T12989   2.692   0.260  14.260
   9623SM  C16S12990   2.729   0.387  14.431
   9623SM  H16S12991   2.664   0.470  14.394
   9623SM  H16T12992   2.815   0.433  14.484
   9623SM  C17S12993   2.646   0.302  14.529
   9623SM  H17S12994   2.559   0.259  14.474
   9623SM  H17T12995   2.605   0.369  14.607
   9623SM  C18S12996   2.725   0.189  14.596
   9623SM  H18S12997   2.661   0.135  14.668
   9623SM  H18T12998   2.812   0.231  14.650
   9623SM  H18U12999   2.762   0.117  14.520
   9623SM   C1F13000   3.011   8.298  12.977
   9623SM    OF13001   3.063   8.230  12.889
   9623SM   C2F13002   2.950   8.231  13.095
   9623SM   H2F13003   2.877   8.155  13.058
   9623SM   H2G13004   2.894   8.305  13.157
   9623SM   C3F13005   3.056   8.160  13.182
   9623SM   H3F13006   3.109   8.236  13.242
   9623SM   H3G13007   3.133   8.108  13.121
   9623SM   C4F13008   2.993   8.056  13.276
   9623SM   H4F13009   2.980   7.959  13.222
   9623SM   H4G13010   2.892   8.092  13.304
   9623SM   C5F13011   3.073   8.033  13.405
   9623SM   H5F13012   3.094   8.133  13.450
   9623SM   H5G13013   3.170   7.985  13.383
   9623SM   C6F13014   2.993   7.950  13.507
   9623SM   H6F13015   2.996   7.842  13.479
   9623SM   H6G13016   2.887   7.983  13.502
   9623SM   C7F13017   3.041   7.970  13.651
   9623SM   H7F13018   3.063   8.078  13.665
   9623SM   H7G13019   3.136   7.915  13.668
   9623SM   C8F13020   2.935   7.930  13.755
   9623SM   H8F13021   2.931   7.819  13.764
   9623SM   H8G13022   2.836   7.965  13.720
   9623SM   C9F13023   2.963   7.995  13.891
   9623SM   H9F13024   2.976   8.104  13.876
   9623SM   H9G13025   3.059   7.956  13.931
   9623SM  C10F13026   2.851   7.973  13.995
   9623SM  H10F13027   2.846   7.865  14.019
   9623SM  H10G13028   2.753   8.003  13.952
   9623SM  C11F13029   2.877   8.054  14.122
   9623SM  H11F13030   2.856   8.162  14.102
   9623SM  H11G13031   2.985   8.046  14.147
   9623SM  C12F13032   2.796   8.008  14.244
   9623SM  H12F13033   2.816   7.899  14.260
   9623SM  H12G13034   2.688   8.020  14.224
   9623SM  C13F13035   2.835   8.085  14.371
   9623SM  H13F13036   2.809   8.192  14.358
   9623SM  H13G13037   2.946   8.079  14.383
   9623SM  C14F13038   2.770   8.029  14.498
   9623SM  H14F13039   2.792   7.920  14.503
   9623SM  H14G13040   2.659   8.040  14.492
   9623SM  C15F13041   2.822   8.096  14.626
   9623SM  H15F13042   2.933   8.093  14.626
   9623SM  H15G13043   2.786   8.037  14.714
   9623SM  C16F13044   2.774   8.241  14.644
   9623SM  H16F13045   2.663   8.240  14.645
   9623SM  H16G13046   2.806   8.303  14.557
   9623SM  C17F13047   2.824   8.306  14.774
   9623SM  H17F13048   2.814   8.233  14.857
   9623SM  H17G13049   2.758   8.393  14.797
   9623SM  C18F13050   2.969   8.357  14.766
   9623SM  H18F13051   2.974   8.441  14.693
   9623SM  H18G13052   3.034   8.275  14.726
   9623SM  C19F13053   3.028   8.402  14.901
   9623SM  H19F13054   3.132   8.438  14.886
   9623SM  H19G13055   3.033   8.312  14.967
   9623SM  C20F13056   2.948   0.063  14.974
   9623SM  H20F13057   2.983   0.069  15.079
   9623SM  H20G13058   2.841   0.035  14.977
   9623SM  C21F13059   2.962   0.202  14.910
   9623SM  H21F13060   2.963   0.191  14.800
   9623SM  H21G13061   3.061   0.245  14.939
   9623SM  C22F13062   2.850   0.299  14.949
   9623SM  H22F13063   2.754   0.259  14.908
   9623SM  H22G13064   2.868   0.396  14.898
   9623SM  C23F13065   2.833   0.323  15.099
   9623SM  H23F13066   2.927   0.364  15.143
   9623SM  H23G13067   2.809   0.228  15.152
   9623SM  H23H13068   2.751   0.395  15.118
   9723SM     N13069   4.720   8.345  12.186
   9723SM   C1513070   4.574   8.330  12.154
   9723SM  H15A13071   4.555   8.356  12.051
   9723SM  H15B13072   4.516   8.396  12.217
   9723SM  H15C13073   4.540   8.229  12.170
   9723SM   C1413074   4.800   8.258  12.094
   9723SM  H14A13075   4.782   8.153  12.111
   9723SM  H14B13076   4.906   8.276  12.104
   9723SM  H14C13077   4.775   8.280  11.991
   9723SM   C1313078   4.760   0.040  12.164
   9723SM  H13A13079   4.735   0.074  12.064
   9723SM  H13B13080   4.866   0.054  12.178
   9723SM  H13C13081   4.711   0.103  12.236
   9723SM   C1213082   4.747   8.308  12.331
   9723SM  H12A13083   4.852   8.325  12.352
   9723SM  H12B13084   4.730   8.203  12.345
   9723SM   C1113085   4.668   8.385  12.441
   9723SM  H11A13086   4.684   8.334  12.538
   9723SM  H11B13087   4.559   8.377  12.421
   9723SM     P13088   4.824   0.122  12.537
   9723SM   O1313089   4.938   0.030  12.519
   9723SM   O1413090   4.849   0.267  12.519
   9723SM   O1113091   4.767   0.098  12.682
   9723SM   O1213092   4.704   0.075  12.445
   9723SM   C1S13093   4.633   0.132  12.717
   9723SM   H1S13094   4.564   0.051  12.685
   9723SM   H1T13095   4.599   0.226  12.668
   9723SM    NF13096   4.658   0.283  12.910
   9723SM   HNF13097   4.754   0.297  12.933
   9723SM   C2S13098   4.621   0.148  12.871
   9723SM   H2S13099   4.515   0.133  12.899
   9723SM   C3S13100   4.708   0.040  12.942
   9723SM   H3S13101   4.815   0.052  12.914
   9723SM    O313102   4.673   8.354  12.911
   9723SM   HO313103   4.608   8.361  12.841
   9723SM   C4S13104   4.697   0.058  13.092
   9723SM   H4S13105   4.597   0.036  13.133
   9723SM   C5S13106   4.797   0.097  13.174
   9723SM   H5S13107   4.897   0.114  13.133
   9723SM   C6S13108   4.782   0.115  13.324
   9723SM   H6S13109   4.681   0.085  13.359
   9723SM   H6T13110   4.794   0.222  13.349
   9723SM   C7S13111   4.886   0.033  13.403
   9723SM   H7S13112   4.989   0.063  13.375
   9723SM   H7T13113   4.874   8.374  13.378
   9723SM   C8S13114   4.871   0.048  13.556
   9723SM   H8S13115   4.936   8.422  13.605
   9723SM   H8T13116   4.766   0.023  13.584
   9723SM   C9S13117   4.906   0.187  13.609
   9723SM   H9S13118   4.838   0.262  13.563
   9723SM   H9T13119   5.010   0.213  13.580
   9723SM  C10S13120   4.892   0.199  13.762
   9723SM  H10S13121   4.962   0.129  13.812
   9723SM  H10T13122   4.789   0.169  13.790
   9723SM  C11S13123   4.917   0.342  13.812
   9723SM  H11S13124   4.855   0.411  13.751
   9723SM  H11T13125   5.024   0.370  13.796
   9723SM  C12S13126   4.879   0.363  13.960
   9723SM  H12S13127   4.779   0.319  13.979
   9723SM  H12T13128   4.871   0.472  13.978
   9723SM  C13S13129   4.980   0.306  14.060
   9723SM  H13S13130   5.080   0.350  14.040
   9723SM  H13T13131   4.989   0.196  14.046
   9723SM  C14S13132   4.941   0.336  14.205
   9723SM  H14S13133   4.845   0.285  14.228
   9723SM  H14T13134   4.924   0.446  14.216
   9723SM  C15S13135   5.047   0.293  14.307
   9723SM  H15S13136   5.143   0.346  14.285
   9723SM  H15T13137   5.065   0.184  14.298
   9723SM  C16S13138   5.005   0.326  14.452
   9723SM  H16S13139   4.910   0.273  14.474
   9723SM  H16T13140   4.987   0.435  14.461
   9723SM  C17S13141   5.110   0.284  14.556
   9723SM  H17S13142   5.205   0.337  14.535
   9723SM  H17T13143   5.130   0.175  14.545
   9723SM  C18S13144   5.066   0.312  14.700
   9723SM  H18S13145   5.041   0.420  14.712
   9723SM  H18T13146   5.146   0.286  14.772
   9723SM  H18U13147   4.975   0.253  14.725
   9723SM   C1F13148   4.577   0.388  12.894
   9723SM    OF13149   4.475   0.381  12.828
   9723SM   C2F13150   4.618   0.514  12.963
   9723SM   H2F13151   4.559   0.599  12.922
   9723SM   H2G13152   4.726   0.533  12.944
   9723SM   C3F13153   4.593   0.500  13.115
   9723SM   H3F13154   4.645   0.411  13.154
   9723SM   H3G13155   4.484   0.484  13.131
   9723SM   C4F13156   4.638   0.621  13.199
   9723SM   H4F13157   4.572   0.709  13.179
   9723SM   H4G13158   4.741   0.649  13.169
   9723SM   C5F13159   4.637   0.589  13.349
   9723SM   H5F13160   4.692   0.669  13.405
   9723SM   H5G13161   4.691   0.494  13.366
   9723SM   C6F13162   4.495   0.578  13.409
   9723SM   H6F13163   4.426   0.540  13.331
   9723SM   H6G13164   4.460   0.680  13.435
   9723SM   C7F13165   4.485   0.485  13.530
   9723SM   H7F13166   4.514   0.382  13.499
   9723SM   H7G13167   4.379   0.482  13.562
   9723SM   C8F13168   4.572   0.526  13.650
   9723SM   H8F13169   4.541   0.628  13.683
   9723SM   H8G13170   4.678   0.533  13.617
   9723SM   C9F13171   4.565   0.430  13.769
   9723SM   H9F13172   4.628   0.470  13.852
   9723SM   H9G13173   4.609   0.332  13.739
   9723SM  C10F13174   4.423   0.404  13.823
   9723SM  H10F13175   4.361   0.360  13.742
   9723SM  H10G13176   4.376   0.500  13.853
   9723SM  C11F13177   4.420   0.306  13.941
   9723SM  H11F13178   4.486   0.219  13.918
   9723SM  H11G13179   4.317   0.268  13.953
   9723SM  C12F13180   4.463   0.368  14.075
   9723SM  H12F13181   4.391   0.448  14.101
   9723SM  H12G13182   4.563   0.415  14.066
   9723SM  C13F13183   4.467   0.265  14.189
   9723SM  H13F13184   4.551   0.195  14.172
   9723SM  H13G13185   4.373   0.206  14.187
   9723SM  C14F13186   4.480   0.330  14.327
   9723SM  H14F13187   4.393   0.397  14.342
   9723SM  H14G13188   4.571   0.393  14.331
   9723SM  C15F13189   4.483   0.228  14.443
   9723SM  H15F13190   4.404   0.152  14.428
   9723SM  H15G13191   4.459   0.283  14.536
   9723SM  C16F13192   4.619   0.160  14.461
   9723SM  H16F13193   4.696   0.240  14.471
   9723SM  H16G13194   4.643   0.101  14.370
   9723SM  C17F13195   4.627   0.070  14.585
   9723SM  H17F13196   4.552   8.437  14.575
   9723SM  H17G13197   4.601   0.129  14.675
   9723SM  C18F13198   4.766   0.008  14.604
   9723SM  H18F13199   4.841   0.090  14.616
   9723SM  H18G13200   4.793   8.401  14.512
   9723SM  C19F13201   4.778   8.361  14.724
   9723SM  H19F13202   4.880   8.317  14.721
   9723SM  H19G13203   4.706   8.278  14.713
   9723SM  C20F13204   4.760   8.428  14.862
   9723SM  H20F13205   4.771   0.090  14.852
   9723SM  H20G13206   4.841   8.393  14.929
   9723SM  C21F13207   4.626   8.393  14.929
   9723SM  H21F13208   4.618   8.282  14.933
   9723SM  H21G13209   4.542   8.431  14.867
   9723SM  C22F13210   4.613   8.448  15.072
   9723SM  H22F13211   4.705   8.422  15.129
   9723SM  H22G13212   4.528   8.397  15.122
   9723SM  C23F13213   4.589   0.150  15.079
   9723SM  H23F13214   4.672   0.206  15.029
   9723SM  H23G13215   4.583   0.184  15.184
   9723SM  H23H13216   4.494   0.176  15.028
   9823SM     N13217   7.231   8.200  12.238
   9823SM   C1513218   7.300   8.330  12.213
   9823SM  H15A13219   7.266   8.404  12.284
   9823SM  H15B13220   7.281   8.366  12.113
   9823SM  H15C13221   7.406   8.318  12.226
   9823SM   C1413222   7.084   8.217  12.213
   9823SM  H14A13223   7.066   8.246  12.111
   9823SM  H14B13224   7.044   8.293  12.278
   9823SM  H14C13225   7.031   8.124  12.232
   9823SM   C1313226   7.285   8.095  12.146
   9823SM  H13A13227   7.276   8.120  12.041
   9823SM  H13B13228   7.236   8.000  12.162
   9823SM  H13C13229   7.389   8.078  12.169
   9823SM   C1213230   7.253   8.158  12.383
   9823SM  H12A13231   7.201   8.065  12.401
   9823SM  H12B13232   7.209   8.234  12.447
   9823SM   C1113233   7.399   8.136  12.430
   9823SM  H11A13234   7.400   8.122  12.541
   9823SM  H11B13235   7.458   8.228  12.412
   9823SM     P13236   7.420   7.878  12.400
   9823SM   O1313237   7.274   7.862  12.378
   9823SM   O1413238   7.508   7.784  12.327
   9823SM   O1113239   7.449   7.870  12.555
   9823SM   O1213240   7.461   8.026  12.363
   9823SM   C1S13241   7.580   7.901  12.605
   9823SM   H1S13242   7.623   7.989  12.554
   9823SM   H1T13243   7.648   7.815  12.589
   9823SM    NF13244   7.707   7.979  12.803
   9823SM   HNF13245   7.759   7.918  12.863
   9823SM   C2S13246   7.576   7.933  12.758
   9823SM   H2S13247   7.503   8.016  12.773
   9823SM   C3S13248   7.526   7.808  12.837
   9823SM   H3S13249   7.601   7.727  12.826
   9823SM    O313250   7.402   7.755  12.789
   9823SM   HO313251   7.399   7.787  12.699
   9823SM   C4S13252   7.509   7.840  12.983
   9823SM   H4S13253   7.441   7.924  13.003
   9823SM   C5S13254   7.564   7.775  13.088
   9823SM   H5S13255   7.627   7.687  13.072
   9823SM   C6S13256   7.539   7.813  13.232
   9823SM   H6S13257   7.469   7.741  13.278
   9823SM   H6T13258   7.488   7.912  13.238
   9823SM   C7S13259   7.664   7.821  13.323
   9823SM   H7S13260   7.632   7.874  13.415
   9823SM   H7T13261   7.743   7.883  13.276
   9823SM   C8S13262   7.721   7.684  13.364
   9823SM   H8S13263   7.770   7.637  13.276
   9823SM   H8T13264   7.637   7.618  13.395
   9823SM   C9S13265   7.823   7.689  13.480
   9823SM   H9S13266   7.905   7.759  13.454
   9823SM   H9T13267   7.868   7.589  13.492
   9823SM  C10S13268   7.760   7.730  13.614
   9823SM  H10S13269   7.682   7.655  13.640
   9823SM  H10T13270   7.710   7.829  13.605
   9823SM  C11S13271   7.858   7.739  13.732
   9823SM  H11S13272   7.936   7.816  13.711
   9823SM  H11T13273   7.910   7.641  13.746
   9823SM  C12S13274   7.783   7.776  13.861
   9823SM  H12S13275   7.710   7.695  13.882
   9823SM  H12T13276   7.725   7.869  13.842
   9823SM  C13S13277   7.870   7.797  13.986
   9823SM  H13S13278   7.946   7.875  13.964
   9823SM  H13T13279   7.923   7.703  14.011
   9823SM  C14S13280   7.784   7.843  14.106
   9823SM  H14S13281   7.710   7.764  14.131
   9823SM  H14T13282   7.728   7.934  14.075
   9823SM  C15S13283   7.865   7.877  14.233
   9823SM  H15S13284   7.800   7.936  14.301
   9823SM  H15T13285   7.951   7.942  14.204
   9823SM  C16S13286   7.916   7.754  14.308
   9823SM  H16S13287   7.976   7.692  14.238
   9823SM  H16T13288   7.831   7.693  14.344
   9823SM  C17S13289   8.006   7.789  14.428
   9823SM  H17S13290   8.075   7.871  14.398
   9823SM  H17T13291   8.069   7.701  14.452
   9823SM  C18S13292   7.930   7.829  14.554
   9823SM  H18S13293   8.001   7.863  14.633
   9823SM  H18T13294   7.872   7.743  14.594
   9823SM  H18U13295   7.859   7.912  14.533
   9823SM   C1F13296   7.761   8.093  12.760
   9823SM    OF13297   7.692   8.179  12.706
   9823SM   C2F13298   7.909   8.106  12.777
   9823SM   H2F13299   7.956   8.066  12.685
   9823SM   H2G13300   7.942   8.044  12.863
   9823SM   C3F13301   7.959   8.252  12.798
   9823SM   H3F13302   7.912   8.319  12.723
   9823SM   H3G13303   8.068   8.252  12.776
   9823SM   C4F13304   7.942   8.310  12.939
   9823SM   H4F13305   7.990   8.410  12.939
   9823SM   H4G13306   7.998   8.248  13.012
   9823SM   C5F13307   7.798   8.327  12.990
   9823SM   H5F13308   7.759   8.229  13.025
   9823SM   H5G13309   7.734   8.362  12.907
   9823SM   C6F13310   7.791   8.430  13.104
   9823SM   H6F13311   7.820   0.080  13.061
   9823SM   H6G13312   7.867   8.405  13.181
   9823SM   C7F13313   7.652   8.446  13.168
   9823SM   H7F13314   7.575   0.005  13.089
   9823SM   H7G13315   7.652   0.093  13.224
   9823SM   C8F13316   7.613   8.335  13.269
   9823SM   H8F13317   7.595   8.240  13.215
   9823SM   H8G13318   7.517   8.365  13.316
   9823SM   C9F13319   7.718   8.312  13.378
   9823SM   H9F13320   7.764   8.410  13.405
   9823SM   H9G13321   7.798   8.248  13.334
   9823SM  C10F13322   7.665   8.247  13.507
   9823SM  H10F13323   7.753   8.210  13.565
   9823SM  H10G13324   7.601   8.160  13.482
   9823SM  C11F13325   7.589   8.346  13.596
   9823SM  H11F13326   7.494   8.374  13.546
   9823SM  H11G13327   7.650   8.439  13.605
   9823SM  C12F13328   7.560   8.295  13.738
   9823SM  H12F13329   7.528   8.381  13.800
   9823SM  H12G13330   7.653   8.253  13.782
   9823SM  C13F13331   7.449   8.188  13.743
   9823SM  H13F13332   7.476   8.104  13.676
   9823SM  H13G13333   7.355   8.233  13.704
   9823SM  C14F13334   7.423   8.133  13.884
   9823SM  H14F13335   7.514   8.080  13.920
   9823SM  H14G13336   7.342   8.057  13.876
   9823SM  C15F13337   7.381   8.239  13.987
   9823SM  H15F13338   7.306   8.306  13.939
   9823SM  H15G13339   7.468   8.301  14.016
   9823SM  C16F13340   7.315   8.179  14.113
   9823SM  H16F13341   7.230   8.115  14.079
   9823SM  H16G13342   7.272   8.260  14.175
   9823SM  C17F13343   7.409   8.092  14.200
   9823SM  H17F13344   7.473   8.030  14.133
   9823SM  H17G13345   7.347   8.022  14.260
   9823SM  C18F13346   7.498   8.171  14.297
   9823SM  H18F13347   7.550   8.253  14.243
   9823SM  H18G13348   7.576   8.102  14.336
   9823SM  C19F13349   7.421   8.228  14.417
   9823SM  H19F13350   7.360   8.147  14.462
   9823SM  H19G13351   7.350   8.307  14.382
   9823SM  C20F13352   7.512   8.286  14.526
   9823SM  H20F13353   7.572   8.369  14.483
   9823SM  H20G13354   7.582   8.207  14.559
   9823SM  C21F13355   7.432   8.338  14.647
   9823SM  H21F13356   7.373   8.254  14.690
   9823SM  H21G13357   7.361   8.415  14.611
   9823SM  C22F13358   7.520   8.400  14.757
   9823SM  H22F13359   7.452   8.444  14.833
   9823SM  H22G13360   7.579   0.034  14.713
   9823SM  C23F13361   7.613   8.300  14.827
   9823SM  H23F13362   7.555   8.217  14.872
   9823SM  H23G13363   7.671   8.351  14.907
   9823SM  H23H13364   7.685   8.257  14.754
   9923SM     N13365   0.602   7.881  12.217
   9923SM   C1513366   0.569   7.754  12.288
   9923SM  H15A13367   0.636   7.740  12.372
   9923SM  H15B13368   0.581   7.668  12.223
   9923SM  H15C13369   0.468   7.756  12.325
   9923SM   C1413370   0.746   7.877  12.175
   9923SM  H14A13371   0.772   7.963  12.115
   9923SM  H14B13372   0.769   7.787  12.119
   9923SM  H14C13373   0.809   7.881  12.262
   9923SM   C1313374   0.516   7.894  12.095
   9923SM  H13A13375   0.548   7.978  12.034
   9923SM  H13B13376   0.413   7.910  12.122
   9923SM  H13C13377   0.523   7.806  12.033
   9923SM   C1213378   0.579   8.000  12.310
   9923SM  H12A13379   0.474   8.003  12.335
   9923SM  H12B13380   0.599   8.092  12.256
   9923SM   C1113381   0.661   8.007  12.441
   9923SM  H11A13382   0.645   7.913  12.499
   9923SM  H11B13383   0.621   8.090  12.503
   9923SM     P13384   0.885   8.148  12.451
   9923SM   O1313385   1.025   8.120  12.415
   9923SM   O1413386   0.822   8.269  12.392
   9923SM   O1113387   0.874   8.155  12.609
   9923SM   O1213388   0.800   8.021  12.413
   9923SM   C1S13389   0.894   8.036  12.687
   9923SM   H1S13390   1.003   8.020  12.703
   9923SM   H1T13391   0.855   7.944  12.638
   9923SM    NF13392   0.685   8.020  12.820
   9923SM   HNF13393   0.623   8.098  12.817
   9923SM   C2S13394   0.827   8.049  12.828
   9923SM   H2S13395   0.874   7.972  12.893
   9923SM   C3S13396   0.857   8.190  12.888
   9923SM   H3S13397   0.794   8.264  12.835
   9923SM    O313398   0.992   8.233  12.868
   9923SM   HO313399   1.013   8.198  12.782
   9923SM   C4S13400   0.816   8.190  13.034
   9923SM   H4S13401   0.709   8.213  13.047
   9923SM   C5S13402   0.892   8.168  13.143
   9923SM   H5S13403   0.999   8.148  13.130
   9923SM   C6S13404   0.845   8.170  13.287
   9923SM   H6S13405   0.894   8.254  13.341
   9923SM   H6T13406   0.878   8.077  13.337
   9923SM   C7S13407   0.693   8.184  13.311
   9923SM   H7S13408   0.639   8.100  13.261
   9923SM   H7T13409   0.658   8.279  13.266
   9923SM   C8S13410   0.653   8.184  13.460
   9923SM   H8S13411   0.545   8.209  13.468
   9923SM   H8T13412   0.710   8.265  13.512
   9923SM   C9S13413   0.676   8.050  13.531
   9923SM   H9S13414   0.785   8.031  13.539
   9923SM   H9T13415   0.632   7.969  13.470
   9923SM  C10S13416   0.614   8.043  13.672
   9923SM  H10S13417   0.618   7.938  13.707
   9923SM  H10T13418   0.507   8.073  13.667
   9923SM  C11S13419   0.687   8.131  13.775
   9923SM  H11S13420   0.684   8.237  13.744
   9923SM  H11T13421   0.794   8.101  13.780
   9923SM  C12S13422   0.626   8.119  13.916
   9923SM  H12S13423   0.629   8.012  13.947
   9923SM  H12T13424   0.520   8.151  13.913
   9923SM  C13S13425   0.701   8.203  14.020
   9923SM  H13S13426   0.699   8.310  13.988
   9923SM  H13T13427   0.807   8.170  14.022
   9923SM  C14S13428   0.643   8.193  14.161
   9923SM  H14S13429   0.637   8.085  14.188
   9923SM  H14T13430   0.539   8.234  14.161
   9923SM  C15S13431   0.727   8.266  14.266
   9923SM  H15S13432   0.737   8.373  14.238
   9923SM  H15T13433   0.829   8.222  14.268
   9923SM  C16S13434   0.666   8.257  14.406
   9923SM  H16S13435   0.655   8.149  14.433
   9923SM  H16T13436   0.565   8.302  14.406
   9923SM  C17S13437   0.752   8.324  14.514
   9923SM  H17S13438   0.771   8.430  14.486
   9923SM  H17T13439   0.850   8.272  14.515
   9923SM  C18S13440   0.689   8.318  14.653
   9923SM  H18S13441   0.760   8.355  14.730
   9923SM  H18T13442   0.662   8.213  14.679
   9923SM  H18U13443   0.597   8.379  14.657
   9923SM   C1F13444   0.637   7.898  12.795
   9923SM    OF13445   0.711   7.803  12.773
   9923SM   C2F13446   0.487   7.883  12.790
   9923SM   H2F13447   0.463   7.775  12.794
   9923SM   H2G13448   0.451   7.924  12.693
   9923SM   C3F13449   0.415   7.956  12.906
   9923SM   H3F13450   0.305   7.946  12.889
   9923SM   H3G13451   0.438   8.064  12.905
   9923SM   C4F13452   0.446   7.897  13.045
   9923SM   H4F13453   0.555   7.900  13.065
   9923SM   H4G13454   0.415   7.790  13.046
   9923SM   C5F13455   0.373   7.972  13.157
   9923SM   H5F13456   0.268   7.988  13.126
   9923SM   H5G13457   0.420   8.072  13.172
   9923SM   C6F13458   0.372   7.895  13.290
   9923SM   H6F13459   0.476   7.873  13.323
   9923SM   H6G13460   0.320   7.798  13.273
   9923SM   C7F13461   0.298   7.971  13.402
   9923SM   H7F13462   0.204   8.013  13.359
   9923SM   H7G13463   0.361   8.055  13.437
   9923SM   C8F13464   0.258   7.881  13.520
   9923SM   H8F13465   0.350   7.841  13.568
   9923SM   H8G13466   0.200   7.795  13.480
   9923SM   C9F13467   0.172   7.954  13.624
   9923SM   H9F13468   0.089   8.006  13.571
   9923SM   H9G13469   0.234   8.032  13.674
   9923SM  C10F13470   0.111   7.861  13.730
   9923SM  H10F13471   0.040   7.792  13.680
   9923SM  H10G13472   0.053   7.922  13.802
   9923SM  C11F13473   0.213   7.777  13.808
   9923SM  H11F13474   0.265   7.707  13.739
   9923SM  H11G13475   0.157   7.715  13.882
   9923SM  C12F13476   0.318   7.860  13.882
   9923SM  H12F13477   0.268   7.938  13.944
   9923SM  H12G13478   0.381   7.913  13.807
   9923SM  C13F13479   0.410   7.776  13.972
   9923SM  H13F13480   0.496   7.840  14.003
   9923SM  H13G13481   0.452   7.691  13.914
   9923SM  C14F13482   0.340   7.724  14.098
   9923SM  H14F13483   0.258   7.655  14.069
   9923SM  H14G13484   0.293   7.809  14.151
   9923SM  C15F13485   0.433   7.650  14.195
   9923SM  H15F13486   0.477   7.563  14.143
   9923SM  H15G13487   0.373   7.612  14.280
   9923SM  C16F13488   0.550   7.734  14.250
   9923SM  H16F13489   0.622   7.753  14.168
   9923SM  H16G13490   0.603   7.673  14.327
   9923SM  C17F13491   0.511   7.869  14.312
   9923SM  H17F13492   0.456   7.930  14.237
   9923SM  H17G13493   0.604   7.924  14.336
   9923SM  C18F13494   0.428   7.859  14.441
   9923SM  H18F13495   0.491   7.812  14.519
   9923SM  H18G13496   0.339   7.794  14.426
   9923SM  C19F13497   0.382   7.998  14.489
   9923SM  H19F13498   0.290   8.027  14.434
   9923SM  H19G13499   0.460   8.072  14.461
   9923SM  C20F13500   0.361   8.008  14.640
   9923SM  H20F13501   0.455   7.978  14.690
   9923SM  H20G13502   0.281   7.937  14.672
   9923SM  C21F13503   0.323   8.151  14.682
   9923SM  H21F13504   0.224   8.175  14.638
   9923SM  H21G13505   0.397   8.222  14.640
   9923SM  C22F13506   0.317   8.171  14.835
   9923SM  H22F13507   0.253   8.092  14.879
   9923SM  H22G13508   0.268   8.268  14.855
   9923SM  C23F13509   0.455   8.171  14.903
   9923SM  H23F13510   0.445   8.187  15.012
   9923SM  H23G13511   0.518   8.253  14.862
   9923SM  H23H13512   0.507   8.074  14.886
  10023SM     N13513   0.310   0.553  12.238
  10023SM   C1513514   0.394   0.502  12.125
  10023SM  H15A13515   0.489   0.552  12.122
  10023SM  H15B13516   0.345   0.514  12.029
  10023SM  H15C13517   0.414   0.397  12.141
  10023SM   C1413518   0.279   0.698  12.216
  10023SM  H14A13519   0.369   0.756  12.206
  10023SM  H14B13520   0.223   0.739  12.299
  10023SM  H14C13521   0.220   0.711  12.126
  10023SM   C1313522   0.183   0.474  12.243
  10023SM  H13A13523   0.206   0.371  12.263
  10023SM  H13B13524   0.128   0.480  12.150
  10023SM  H13C13525   0.119   0.507  12.323
  10023SM   C1213526   0.386   0.535  12.369
  10023SM  H12A13527   0.318   0.553  12.451
  10023SM  H12B13528   0.462   0.611  12.377
  10023SM   C1113529   0.457   0.399  12.394
  10023SM  H11A13530   0.504   0.401  12.494
  10023SM  H11B13531   0.541   0.389  12.321
  10023SM     P13532   0.287   0.226  12.496
  10023SM   O1313533   0.177   0.319  12.530
  10023SM   O1413534   0.250   0.087  12.460
  10023SM   O1113535   0.389   0.225  12.615
  10023SM   O1213536   0.369   0.287  12.377
  10023SM   C1S13537   0.491   0.126  12.627
  10023SM   H1S13538   0.583   0.160  12.575
  10023SM   H1T13539   0.462   0.028  12.583
  10023SM    NF13540   0.411   0.041  12.846
  10023SM   HNF13541   0.362   0.100  12.910
  10023SM   C2S13542   0.524   0.103  12.778
  10023SM   H2S13543   0.611   0.034  12.786
  10023SM   C3S13544   0.565   0.241  12.839
  10023SM   H3S13545   0.489   0.318  12.815
  10023SM    O313546   0.689   0.290  12.787
  10023SM   HO313547   0.714   0.228  12.717
  10023SM   C4S13548   0.575   0.228  12.989
  10023SM   H4S13549   0.671   0.187  13.026
  10023SM   C5S13550   0.481   0.269  13.076
  10023SM   H5S13551   0.391   0.319  13.039
  10023SM   C6S13552   0.490   0.255  13.226
  10023SM   H6S13553   0.490   0.355  13.274
  10023SM   H6T13554   0.585   0.205  13.256
  10023SM   C7S13555   0.370   0.176  13.280
  10023SM   H7S13556   0.366   0.076  13.232
  10023SM   H7T13557   0.276   0.230  13.253
  10023SM   C8S13558   0.372   0.157  13.432
  10023SM   H8S13559   0.277   0.108  13.464
  10023SM   H8T13560   0.377   0.256  13.482
  10023SM   C9S13561   0.490   0.070  13.479
  10023SM   H9S13562   0.584   0.128  13.468
  10023SM   H9T13563   0.498   8.430  13.412
  10023SM  C10S13564   0.479   0.020  13.624
  10023SM  H10S13565   0.568   8.406  13.644
  10023SM  H10T13566   0.389   8.404  13.635
  10023SM  C11S13567   0.476   0.132  13.728
  10023SM  H11S13568   0.382   0.190  13.720
  10023SM  H11T13569   0.560   0.201  13.708
  10023SM  C12S13570   0.491   0.076  13.871
  10023SM  H12S13571   0.585   0.017  13.874
  10023SM  H12T13572   0.408   0.007  13.893
  10023SM  C13S13573   0.498   0.185  13.978
  10023SM  H13S13574   0.401   0.240  13.980
  10023SM  H13T13575   0.577   0.259  13.951
  10023SM  C14S13576   0.528   0.128  14.117
  10023SM  H14S13577   0.623   0.071  14.113
  10023SM  H14T13578   0.447   0.057  14.145
  10023SM  C15S13579   0.539   0.236  14.225
  10023SM  H15S13580   0.448   0.300  14.223
  10023SM  H15T13581   0.626   0.302  14.203
  10023SM  C16S13582   0.553   0.177  14.366
  10023SM  H16S13583   0.644   0.113  14.370
  10023SM  H16T13584   0.466   0.112  14.387
  10023SM  C17S13585   0.563   0.285  14.474
  10023SM  H17S13586   0.478   0.356  14.461
  10023SM  H17T13587   0.657   0.343  14.458
  10023SM  C18S13588   0.562   0.231  14.617
  10023SM  H18S13589   0.468   0.174  14.636
  10023SM  H18T13590   0.567   0.314  14.691
  10023SM  H18U13591   0.648   0.164  14.634
  10023SM   C1F13592   0.365   8.368  12.819
  10023SM    OF13593   0.425   8.292  12.744
  10023SM   C2F13594   0.238   8.326  12.889
  10023SM   H2F13595   0.236   8.370  12.991
  10023SM   H2G13596   0.241   8.215  12.900
  10023SM   C3F13597   0.110   8.364  12.810
  10023SM   H3F13598   0.023   8.316  12.858
  10023SM   H3G13599   0.118   8.323  12.707
  10023SM   C4F13600   0.082   0.067  12.800
  10023SM   H4F13601   0.006   0.084  12.721
  10023SM   H4G13602   0.173   0.121  12.768
  10023SM   C5F13603   0.029   0.127  12.931
  10023SM   H5F13604   0.093   0.094  13.016
  10023SM   H5G13605   8.375   0.088  12.948
  10023SM   C6F13606   0.026   0.281  12.930
  10023SM   H6F13607   8.434   0.316  12.832
  10023SM   H6G13608   0.130   0.318  12.937
  10023SM   C7F13609   8.390   0.343  13.043
  10023SM   H7F13610   8.283   0.333  13.017
  10023SM   H7G13611   8.412   0.452  13.048
  10023SM   C8F13612   8.412   0.279  13.181
  10023SM   H8F13613   0.071   0.282  13.207
  10023SM   H8G13614   8.381   0.173  13.175
  10023SM   C9F13615   8.329   0.346  13.291
  10023SM   H9F13616   8.314   0.274  13.375
  10023SM   H9G13617   8.228   0.370  13.250
  10023SM  C10F13618   8.392   0.474  13.349
  10023SM  H10F13619   8.315   0.525  13.411
  10023SM  H10G13620   8.421   0.543  13.268
  10023SM  C11F13621   0.064   0.445  13.440
  10023SM  H11F13622   0.149   0.406  13.381
  10023SM  H11G13623   0.035   0.366  13.513
  10023SM  C12F13624   0.110   0.568  13.519
  10023SM  H12F13625   0.021   0.617  13.564
  10023SM  H12G13626   0.158   0.642  13.451
  10023SM  C13F13627   0.208   0.532  13.632
  10023SM  H13F13628   0.304   0.496  13.589
  10023SM  H13G13629   0.163   0.448  13.689
  10023SM  C14F13630   0.234   0.650  13.727
  10023SM  H14F13631   0.136   0.693  13.756
  10023SM  H14G13632   0.291   0.728  13.673
  10023SM  C15F13633   0.309   0.613  13.857
  10023SM  H15F13634   0.312   0.702  13.922
  10023SM  H15G13635   0.414   0.585  13.833
  10023SM  C16F13636   0.243   0.497  13.933
  10023SM  H16F13637   0.267   0.402  13.879
  10023SM  H16G13638   0.133   0.509  13.931
  10023SM  C17F13639   0.289   0.481  14.079
  10023SM  H17F13640   0.399   0.492  14.087
  10023SM  H17G13641   0.262   0.378  14.110
  10023SM  C18F13642   0.218   0.577  14.176
  10023SM  H18F13643   0.112   0.586  14.145
  10023SM  H18G13644   0.263   0.679  14.169
  10023SM  C19F13645   0.222   0.526  14.321
  10023SM  H19F13646   0.327   0.526  14.358
  10023SM  H19G13647   0.186   0.421  14.321
  10023SM  C20F13648   0.132   0.607  14.415
  10023SM  H20F13649   0.036   0.628  14.363
  10023SM  H20G13650   0.180   0.705  14.438
  10023SM  C21F13651   0.098   0.533  14.546
  10023SM  H21F13652   0.048   0.437  14.521
  10023SM  H21G13653   0.026   0.594  14.604
  10023SM  C22F13654   0.221   0.504  14.633
  10023SM  H22F13655   0.269   0.601  14.658
  10023SM  H22G13656   0.294   0.444  14.575
  10023SM  C23F13657   0.187   0.429  14.763
  10023SM  H23F13658   0.278   0.412  14.823
  10023SM  H23G13659   0.141   0.330  14.739
  10023SM  H23H13660   0.114   0.487  14.823
  101CHL1    C313661   4.338   5.072  16.743
  101CHL1    H313662   4.447   5.059  16.725
  101CHL1    O313663   4.318   5.100  16.881
  101CHL1   H3'13664   4.224   5.118  16.889
  101CHL1    C413665   4.287   5.191  16.659
  101CHL1   H4A13666   4.181   5.211  16.686
  101CHL1   H4B13667   4.345   5.281  16.689
  101CHL1    C513668   4.298   5.165  16.510
  101CHL1    C613669   4.367   5.247  16.429
  101CHL1    H613670   4.415   5.337  16.471
  101CHL1    C713671   4.378   5.229  16.280
  101CHL1   H7A13672   4.363   5.326  16.228
  101CHL1   H7B13673   4.479   5.192  16.254
  101CHL1    C813674   4.274   5.128  16.225
  101CHL1    H813675   4.174   5.178  16.228
  101CHL1   C1413676   4.307   5.090  16.081
  101CHL1   H1413677   4.405   5.039  16.085
  101CHL1   C1513678   4.325   5.205  15.980
  101CHL1  H15A13679   4.242   5.278  15.991
  101CHL1  H15B13680   4.422   5.257  15.993
  101CHL1   C1613681   4.315   5.134  15.844
  101CHL1  H16A13682   4.243   5.189  15.779
  101CHL1  H16B13683   4.413   5.130  15.793
  101CHL1   C1713684   4.264   4.988  15.871
  101CHL1   H1713685   4.354   4.923  15.872
  101CHL1   C1313686   4.210   4.991  16.016
  101CHL1   C1813687   4.066   5.049  16.014
  101CHL1  H18A13688   3.995   4.977  15.968
  101CHL1  H18B13689   4.029   5.070  16.116
  101CHL1  H18C13690   4.061   5.144  15.955
  101CHL1   C1213691   4.219   4.861  16.099
  101CHL1  H12A13692   4.150   4.784  16.059
  101CHL1  H12B13693   4.322   4.821  16.091
  101CHL1   C1113694   4.186   4.886  16.248
  101CHL1  H11A13695   4.077   4.909  16.252
  101CHL1  H11B13696   4.202   4.792  16.304
  101CHL1    C913697   4.269   5.002  16.313
  101CHL1    H913698   4.373   4.964  16.314
  101CHL1   C1013699   4.232   5.034  16.461
  101CHL1   C1913700   4.078   5.050  16.472
  101CHL1  H19A13701   4.027   4.953  16.453
  101CHL1  H19B13702   4.047   5.083  16.573
  101CHL1  H19C13703   4.041   5.124  16.398
  101CHL1    C113704   4.279   4.917  16.552
  101CHL1   H1A13705   4.221   4.825  16.527
  101CHL1   H1B13706   4.386   4.896  16.531
  101CHL1    C213707   4.265   4.943  16.704
  101CHL1   H2A13708   4.307   4.858  16.761
  101CHL1   H2B13709   4.157   4.952  16.729
  101CHL1   C2013710   4.173   4.937  15.757
  101CHL1   H2013711   4.084   5.004  15.751
  101CHL1   C2113712   4.124   4.794  15.786
  101CHL1  H21A13713   4.055   4.791  15.874
  101CHL1  H21B13714   4.210   4.726  15.805
  101CHL1  H21C13715   4.067   4.753  15.699
  101CHL1   C2213716   4.241   4.940  15.618
  101CHL1  H22A13717   4.306   5.031  15.608
  101CHL1  H22B13718   4.307   4.852  15.609
  101CHL1   C2313719   4.141   4.943  15.500
  101CHL1  H23A13720   4.063   4.866  15.517
  101CHL1  H23B13721   4.090   5.041  15.499
  101CHL1   C2413722   4.204   4.915  15.362
  101CHL1  H24A13723   4.245   4.812  15.363
  101CHL1  H24B13724   4.124   4.918  15.286
  101CHL1   C2513725   4.317   5.011  15.319
  101CHL1   H2513726   4.398   5.005  15.395
  101CHL1   C2613727   4.377   4.965  15.184
  101CHL1  H26A13728   4.461   5.032  15.155
  101CHL1  H26B13729   4.415   4.861  15.192
  101CHL1  H26C13730   4.300   4.968  15.105
  101CHL1   C2713731   4.271   5.157  15.308
  101CHL1  H27A13732   4.236   5.194  15.407
  101CHL1  H27B13733   4.354   5.221  15.274
  101CHL1  H27C13734   4.187   5.165  15.235
  102CHL1    C313735   2.924   5.074  16.743
  102CHL1    H313736   2.946   5.183  16.734
  102CHL1    O313737   2.929   5.037  16.880
  102CHL1   H3'13738   2.849   5.072  16.918
  102CHL1    C413739   2.783   5.046  16.689
  102CHL1   H4A13740   2.758   4.939  16.709
  102CHL1   H4B13741   2.710   5.106  16.748
  102CHL1    C513742   2.772   5.074  16.541
  102CHL1    C613743   2.681   5.161  16.493
  102CHL1    H613744   2.611   5.210  16.562
  102CHL1    C713745   2.662   5.190  16.347
  102CHL1   H7A13746   2.554   5.190  16.322
  102CHL1   H7B13747   2.702   5.290  16.322
  102CHL1    C813748   2.732   5.084  16.257
  102CHL1    H813749   2.672   4.991  16.263
  102CHL1   C1413750   2.735   5.132  16.113
  102CHL1   H1413751   2.798   5.224  16.112
  102CHL1   C1513752   2.601   5.174  16.050
  102CHL1  H15A13753   2.524   5.099  16.076
  102CHL1  H15B13754   2.568   5.274  16.085
  102CHL1   C1613755   2.629   5.171  15.900
  102CHL1  H16A13756   2.551   5.109  15.851
  102CHL1  H16B13757   2.627   5.273  15.855
  102CHL1   C1713758   2.771   5.108  15.879
  102CHL1   H1713759   2.843   5.192  15.872
  102CHL1   C1313760   2.800   5.036  16.014
  102CHL1   C1813761   2.727   4.899  16.013
  102CHL1  H18A13762   2.728   4.852  16.114
  102CHL1  H18B13763   2.621   4.910  15.981
  102CHL1  H18C13764   2.778   4.829  15.944
  102CHL1   C1213765   2.948   5.022  16.057
  102CHL1  H12A13766   3.002   4.951  15.992
  102CHL1  H12B13767   2.997   5.121  16.049
  102CHL1   C1113768   2.958   4.972  16.204
  102CHL1  H11A13769   2.924   4.867  16.204
  102CHL1  H11B13770   3.065   4.973  16.234
  102CHL1    C913771   2.874   5.056  16.306
  102CHL1    H913772   2.924   5.156  16.308
  102CHL1   C1013773   2.877   5.003  16.452
  102CHL1   C1913774   2.843   4.852  16.451
  102CHL1  H19A13775   2.923   4.794  16.400
  102CHL1  H19B13776   2.835   4.810  16.554
  102CHL1  H19C13777   2.746   4.832  16.399
  102CHL1    C113778   3.018   5.026  16.513
  102CHL1   H1A13779   3.091   4.962  16.458
  102CHL1   H1B13780   3.047   5.132  16.497
  102CHL1    C213781   3.029   4.995  16.664
  102CHL1   H2A13782   3.130   5.020  16.701
  102CHL1   H2B13783   3.013   4.886  16.680
  102CHL1   C2013784   2.780   5.027  15.748
  102CHL1   H2013785   2.714   4.938  15.757
  102CHL1   C2113786   2.924   4.979  15.723
  102CHL1  H21A13787   2.953   4.901  15.797
  102CHL1  H21B13788   2.996   5.064  15.729
  102CHL1  H21C13789   2.932   4.933  15.622
  102CHL1   C2213790   2.728   5.105  15.624
  102CHL1  H22A13791   2.635   5.160  15.650
  102CHL1  H22B13792   2.803   5.181  15.592
  102CHL1   C2313793   2.691   5.013  15.507
  102CHL1  H23A13794   2.781   4.989  15.447
  102CHL1  H23B13795   2.651   4.918  15.549
  102CHL1   C2413796   2.582   5.075  15.417
  102CHL1  H24A13797   2.494   5.100  15.480
  102CHL1  H24B13798   2.620   5.170  15.375
  102CHL1   C2513799   2.533   4.985  15.302
  102CHL1   H2513800   2.620   4.966  15.234
  102CHL1   C2613801   2.480   4.849  15.351
  102CHL1  H26A13802   2.440   4.791  15.265
  102CHL1  H26B13803   2.562   4.789  15.397
  102CHL1  H26C13804   2.399   4.864  15.425
  102CHL1   C2713805   2.424   5.056  15.221
  102CHL1  H27A13806   2.393   4.995  15.134
  102CHL1  H27B13807   2.334   5.074  15.284
  102CHL1  H27C13808   2.460   5.154  15.183
  103CHL1    C313809   2.829   3.135  16.731
  103CHL1    H313810   2.920   3.198  16.729
  103CHL1    O313811   2.785   3.122  16.866
  103CHL1   H3'13812   2.755   3.210  16.889
  103CHL1    C413813   2.718   3.203  16.649
  103CHL1   H4A13814   2.624   3.146  16.660
  103CHL1   H4B13815   2.699   3.304  16.691
  103CHL1    C513816   2.755   3.211  16.502
  103CHL1    C613817   2.758   3.329  16.437
  103CHL1    H613818   2.730   3.422  16.489
  103CHL1    C713819   2.786   3.341  16.290
  103CHL1   H7A13820   2.716   3.414  16.243
  103CHL1   H7B13821   2.889   3.380  16.275
  103CHL1    C813822   2.774   3.205  16.216
  103CHL1    H813823   2.666   3.178  16.213
  103CHL1   C1413824   2.825   3.217  16.074
  103CHL1   H1413825   2.933   3.245  16.082
  103CHL1   C1513826   2.762   3.325  15.984
  103CHL1  H15A13827   2.651   3.320  15.994
  103CHL1  H15B13828   2.796   3.427  16.010
  103CHL1   C1613829   2.804   3.283  15.843
  103CHL1  H16A13830   2.714   3.281  15.778
  103CHL1  H16B13831   2.878   3.353  15.799
  103CHL1   C1713832   2.866   3.140  15.854
  103CHL1   H1713833   2.976   3.154  15.860
  103CHL1   C1313834   2.823   3.087  15.993
  103CHL1   C1813835   2.678   3.033  15.981
  103CHL1  H18A13836   2.677   2.936  15.926
  103CHL1  H18B13837   2.633   3.014  16.081
  103CHL1  H18C13838   2.612   3.104  15.927
  103CHL1   C1213839   2.917   2.989  16.066
  103CHL1  H12A13840   2.922   2.891  16.014
  103CHL1  H12B13841   3.019   3.032  16.067
  103CHL1   C1113842   2.871   2.965  16.211
  103CHL1  H11A13843   2.776   2.908  16.205
  103CHL1  H11B13844   2.945   2.900  16.262
  103CHL1    C913845   2.851   3.097  16.293
  103CHL1    H913846   2.953   3.138  16.305
  103CHL1   C1013847   2.794   3.077  16.437
  103CHL1   C1913848   2.667   2.989  16.428
  103CHL1  H19A13849   2.593   3.032  16.357
  103CHL1  H19B13850   2.692   2.886  16.395
  103CHL1  H19C13851   2.616   2.978  16.526
  103CHL1    C113852   2.901   3.006  16.526
  103CHL1   H1A13853   2.919   2.904  16.486
  103CHL1   H1B13854   2.996   3.063  16.518
  103CHL1    C213855   2.862   2.996  16.674
  103CHL1   H2A13856   2.945   2.951  16.733
  103CHL1   H2B13857   2.773   2.931  16.685
  103CHL1   C2013858   2.839   3.055  15.728
  103CHL1   H2013859   2.730   3.040  15.717
  103CHL1   C2113860   2.906   2.916  15.741
  103CHL1  H21A13861   2.892   2.856  15.649
  103CHL1  H21B13862   2.859   2.858  15.824
  103CHL1  H21C13863   3.015   2.927  15.760
  103CHL1   C2213864   2.888   3.127  15.600
  103CHL1  H22A13865   2.833   3.223  15.589
  103CHL1  H22B13866   2.996   3.151  15.610
  103CHL1   C2313867   2.868   3.049  15.469
  103CHL1  H23A13868   2.936   2.961  15.468
  103CHL1  H23B13869   2.764   3.013  15.462
  103CHL1   C2413870   2.899   3.135  15.345
  103CHL1  H24A13871   2.828   3.221  15.345
  103CHL1  H24B13872   3.002   3.177  15.353
  103CHL1   C2513873   2.886   3.061  15.210
  103CHL1   H2513874   2.787   3.011  15.209
  103CHL1   C2613875   2.889   3.162  15.094
  103CHL1  H26A13876   2.809   3.239  15.107
  103CHL1  H26B13877   2.987   3.214  15.091
  103CHL1  H26C13878   2.873   3.111  14.997
  103CHL1   C2713879   2.994   2.954  15.191
  103CHL1  H27A13880   2.982   2.904  15.093
  103CHL1  H27B13881   3.095   3.001  15.194
  103CHL1  H27C13882   2.988   2.877  15.271
  104CHL1    C313883   6.802   4.535  16.776
  104CHL1    H313884   6.911   4.538  16.797
  104CHL1    O313885   6.733   4.523  16.900
  104CHL1   H3'13886   6.772   4.443  16.937
  104CHL1    C413887   6.759   4.664  16.704
  104CHL1   H4A13888   6.650   4.660  16.685
  104CHL1   H4B13889   6.777   4.750  16.773
  104CHL1    C513890   6.835   4.678  16.573
  104CHL1    C613891   6.913   4.785  16.551
  104CHL1    H613892   6.919   4.865  16.626
  104CHL1    C713893   6.991   4.806  16.425
  104CHL1   H7A13894   6.979   4.910  16.388
  104CHL1   H7B13895   7.099   4.791  16.448
  104CHL1    C813896   6.953   4.708  16.311
  104CHL1    H813897   6.859   4.745  16.264
  104CHL1   C1413898   7.065   4.703  16.209
  104CHL1   H1413899   7.151   4.658  16.262
  104CHL1   C1513900   7.118   4.837  16.156
  104CHL1  H15A13901   7.033   4.905  16.132
  104CHL1  H15B13902   7.185   4.886  16.230
  104CHL1   C1613903   7.193   4.799  16.028
  104CHL1  H16A13904   7.148   4.855  15.943
  104CHL1  H16B13905   7.301   4.822  16.034
  104CHL1   C1713906   7.172   4.645  16.009
  104CHL1   H1713907   7.254   4.597  16.067
  104CHL1   C1313908   7.042   4.614  16.086
  104CHL1   C1813909   6.921   4.665  16.003
  104CHL1  H18A13910   6.936   4.769  15.967
  104CHL1  H18B13911   6.905   4.599  15.916
  104CHL1  H18C13912   6.828   4.664  16.064
  104CHL1   C1213913   7.018   4.471  16.137
  104CHL1  H12A13914   6.987   4.405  16.053
  104CHL1  H12B13915   7.113   4.432  16.181
  104CHL1   C1113916   6.907   4.465  16.245
  104CHL1  H11A13917   6.811   4.488  16.195
  104CHL1  H11B13918   6.901   4.362  16.285
  104CHL1    C913919   6.929   4.566  16.362
  104CHL1    H913920   7.026   4.536  16.409
  104CHL1   C1013921   6.824   4.558  16.477
  104CHL1   C1913922   6.682   4.560  16.415
  104CHL1  H19A13923   6.668   4.650  16.351
  104CHL1  H19B13924   6.664   4.470  16.353
  104CHL1  H19C13925   6.603   4.560  16.494
  104CHL1    C113926   6.846   4.424  16.555
  104CHL1   H1A13927   6.818   4.339  16.490
  104CHL1   H1B13928   6.955   4.415  16.577
  104CHL1    C213929   6.771   4.414  16.688
  104CHL1   H2A13930   6.801   4.320  16.740
  104CHL1   H2B13931   6.661   4.409  16.670
  104CHL1   C2013932   7.190   4.601  15.863
  104CHL1   H2013933   7.099   4.626  15.805
  104CHL1   C2113934   7.213   4.448  15.859
  104CHL1  H21A13935   7.308   4.422  15.910
  104CHL1  H21B13936   7.217   4.412  15.754
  104CHL1  H21C13937   7.130   4.393  15.909
  104CHL1   C2213938   7.310   4.673  15.795
  104CHL1  H22A13939   7.290   4.782  15.790
  104CHL1  H22B13940   7.400   4.658  15.859
  104CHL1   C2313941   7.346   4.628  15.652
  104CHL1  H23A13942   7.437   4.686  15.623
  104CHL1  H23B13943   7.374   4.521  15.651
  104CHL1   C2413944   7.237   4.656  15.549
  104CHL1  H24A13945   7.144   4.604  15.579
  104CHL1  H24B13946   7.216   4.765  15.547
  104CHL1   C2513947   7.272   4.611  15.405
  104CHL1   H2513948   7.302   4.504  15.409
  104CHL1   C2613949   7.150   4.623  15.313
  104CHL1  H26A13950   7.066   4.560  15.351
  104CHL1  H26B13951   7.116   4.729  15.308
  104CHL1  H26C13952   7.175   4.589  15.210
  104CHL1   C2713953   7.390   4.691  15.347
  104CHL1  H27A13954   7.365   4.800  15.346
  104CHL1  H27B13955   7.482   4.676  15.406
  104CHL1  H27C13956   7.410   4.659  15.242
  105CHL1    C313957   6.638   3.567  16.743
  105CHL1    H313958   6.705   3.656  16.735
  105CHL1    O313959   6.602   3.548  16.879
  105CHL1   H3'13960   6.684   3.524  16.923
  105CHL1    C413961   6.512   3.593  16.659
  105CHL1   H4A13962   6.440   3.510  16.677
  105CHL1   H4B13963   6.463   3.685  16.698
  105CHL1    C513964   6.542   3.603  16.511
  105CHL1    C613965   6.508   3.712  16.439
  105CHL1    H613966   6.454   3.794  16.489
  105CHL1    C713967   6.531   3.726  16.292
  105CHL1   H7A13968   6.440   3.767  16.242
  105CHL1   H7B13969   6.614   3.798  16.274
  105CHL1    C813970   6.567   3.591  16.224
  105CHL1    H813971   6.474   3.530  16.218
  105CHL1   C1413972   6.620   3.616  16.083
  105CHL1   H1413973   6.714   3.673  16.097
  105CHL1   C1513974   6.533   3.700  15.988
  105CHL1  H15A13975   6.427   3.671  15.998
  105CHL1  H15B13976   6.543   3.809  16.010
  105CHL1   C1613977   6.586   3.665  15.849
  105CHL1  H16A13978   6.502   3.624  15.788
  105CHL1  H16B13979   6.628   3.754  15.797
  105CHL1   C1713980   6.696   3.556  15.869
  105CHL1   H1713981   6.791   3.611  15.884
  105CHL1   C1313982   6.661   3.491  16.005
  105CHL1   C1813983   6.540   3.396  15.985
  105CHL1  H18A13984   6.459   3.444  15.925
  105CHL1  H18B13985   6.572   3.304  15.933
  105CHL1  H18C13986   6.495   3.366  16.082
  105CHL1   C1213987   6.773   3.422  16.085
  105CHL1  H12A13988   6.803   3.327  16.037
  105CHL1  H12B13989   6.862   3.489  16.088
  105CHL1   C1113990   6.728   3.391  16.230
  105CHL1  H11A13991   6.651   3.311  16.223
  105CHL1  H11B13992   6.814   3.349  16.286
  105CHL1    C913993   6.671   3.514  16.306
  105CHL1    H913994   6.756   3.584  16.317
  105CHL1   C1013995   6.621   3.485  16.451
  105CHL1   C1913996   6.526   3.362  16.448
  105CHL1  H19A13997   6.581   3.270  16.419
  105CHL1  H19B13998   6.481   3.342  16.548
  105CHL1  H19C13999   6.443   3.377  16.376
  105CHL1    C114000   6.744   3.455  16.542
  105CHL1   H1A14001   6.793   3.361  16.508
  105CHL1   H1B14002   6.818   3.538  16.529
  105CHL1    C214003   6.712   3.443  16.692
  105CHL1   H2A14004   6.806   3.428  16.750
  105CHL1   H2B14005   6.647   3.354  16.708
  105CHL1   C2014006   6.716   3.465  15.746
  105CHL1   H2014007   6.633   3.391  15.742
  105CHL1   C2114008   6.849   3.387  15.758
  105CHL1  H21A14009   6.869   3.333  15.663
  105CHL1  H21B14010   6.844   3.312  15.839
  105CHL1  H21C14011   6.934   3.456  15.778
  105CHL1   C2214012   6.712   3.540  15.610
  105CHL1  H22A14013   6.727   3.464  15.530
  105CHL1  H22B14014   6.611   3.583  15.594
  105CHL1   C2314015   6.818   3.650  15.590
  105CHL1  H23A14016   6.800   3.733  15.662
  105CHL1  H23B14017   6.919   3.609  15.613
  105CHL1   C2414018   6.823   3.707  15.447
  105CHL1  H24A14019   6.904   3.782  15.441
  105CHL1  H24B14020   6.849   3.624  15.378
  105CHL1   C2514021   6.692   3.771  15.395
  105CHL1   H2514022   6.613   3.694  15.396
  105CHL1   C2614023   6.647   3.889  15.482
  105CHL1  H26A14024   6.623   3.855  15.585
  105CHL1  H26B14025   6.726   3.966  15.487
  105CHL1  H26C14026   6.555   3.936  15.439
  105CHL1   C2714027   6.711   3.817  15.249
  105CHL1  H27A14028   6.616   3.859  15.209
  105CHL1  H27B14029   6.790   3.894  15.242
  105CHL1  H27C14030   6.740   3.731  15.185
  106CHL1    C314031   2.175   2.734  16.738
  106CHL1    H314032   2.227   2.832  16.738
  106CHL1    O314033   2.170   2.684  16.871
  106CHL1   H3'14034   2.262   2.681  16.898
  106CHL1    C414035   2.033   2.751  16.683
  106CHL1   H4A14036   1.979   2.654  16.692
  106CHL1   H4B14037   1.979   2.822  16.749
  106CHL1    C514038   2.034   2.798  16.539
  106CHL1    C614039   1.974   2.912  16.503
  106CHL1    H614040   1.919   2.971  16.578
  106CHL1    C714041   1.969   2.961  16.361
  106CHL1   H7A14042   1.865   2.993  16.336
  106CHL1   H7B14043   2.035   3.050  16.351
  106CHL1    C814044   2.012   2.856  16.257
  106CHL1    H814045   1.928   2.785  16.243
  106CHL1   C1414046   2.045   2.924  16.125
  106CHL1   H1414047   2.136   2.985  16.144
  106CHL1   C1514048   1.941   3.024  16.072
  106CHL1  H15A14049   1.839   2.983  16.084
  106CHL1  H15B14050   1.948   3.122  16.125
  106CHL1   C1614051   1.974   3.036  15.923
  106CHL1  H16A14052   1.883   3.009  15.866
  106CHL1  H16B14053   2.006   3.139  15.896
  106CHL1   C1714054   2.089   2.934  15.893
  106CHL1   H1714055   2.184   2.990  15.909
  106CHL1   C1314056   2.081   2.831  16.009
  106CHL1   C1814057   1.965   2.733  15.978
  106CHL1  H18A14058   1.994   2.665  15.895
  106CHL1  H18B14059   1.941   2.669  16.066
  106CHL1  H18C14060   1.872   2.787  15.948
  106CHL1   C1214061   2.209   2.757  16.052
  106CHL1  H12A14062   2.238   2.682  15.976
  106CHL1  H12B14063   2.292   2.831  16.061
  106CHL1   C1114064   2.191   2.686  16.189
  106CHL1  H11A14065   2.120   2.602  16.172
  106CHL1  H11B14066   2.288   2.643  16.219
  106CHL1    C914067   2.136   2.778  16.302
  106CHL1    H914068   2.214   2.856  16.317
  106CHL1   C1014069   2.116   2.710  16.441
  106CHL1   C1914070   2.039   2.577  16.421
  106CHL1  H19A14071   2.016   2.528  16.518
  106CHL1  H19B14072   1.942   2.595  16.369
  106CHL1  H19C14073   2.099   2.506  16.361
  106CHL1    C114074   2.256   2.683  16.504
  106CHL1   H1A14075   2.307   2.608  16.440
  106CHL1   H1B14076   2.315   2.777  16.499
  106CHL1    C214077   2.254   2.636  16.650
  106CHL1   H2A14078   2.358   2.628  16.688
  106CHL1   H2B14079   2.207   2.535  16.656
  106CHL1   C2014080   2.087   2.888  15.746
  106CHL1   H2014081   2.003   2.817  15.730
  106CHL1   C2114082   2.220   2.817  15.713
  106CHL1  H21A14083   2.222   2.786  15.606
  106CHL1  H21B14084   2.233   2.725  15.774
  106CHL1  H21C14085   2.306   2.885  15.731
  106CHL1   C2214086   2.063   3.008  15.650
  106CHL1  H22A14087   1.964   3.055  15.672
  106CHL1  H22B14088   2.141   3.086  15.669
  106CHL1   C2314089   2.060   2.979  15.499
  106CHL1  H23A14090   2.161   2.946  15.466
  106CHL1  H23B14091   1.988   2.897  15.478
  106CHL1   C2414092   2.021   3.106  15.422
  106CHL1  H24A14093   1.915   3.131  15.444
  106CHL1  H24B14094   2.083   3.189  15.460
  106CHL1   C2514095   2.040   3.097  15.270
  106CHL1   H2514096   2.142   3.057  15.250
  106CHL1   C2614097   1.938   3.003  15.204
  106CHL1  H26A14098   1.950   2.900  15.242
  106CHL1  H26B14099   1.835   3.038  15.226
  106CHL1  H26C14100   1.952   3.002  15.094
  106CHL1   C2714101   2.034   3.238  15.207
  106CHL1  H27A14102   2.041   3.232  15.096
  106CHL1  H27B14103   1.938   3.287  15.234
  106CHL1  H27C14104   2.117   3.301  15.245
  107CHL1    C314105   4.442   6.815  16.718
  107CHL1    H314106   4.447   6.706  16.696
  107CHL1    O314107   4.427   6.834  16.857
  107CHL1   H3'14108   4.403   6.926  16.866
  107CHL1    C414109   4.572   6.882  16.671
  107CHL1   H4A14110   4.572   6.988  16.704
  107CHL1   H4B14111   4.657   6.833  16.724
  107CHL1    C514112   4.589   6.876  16.520
  107CHL1    C614113   4.698   6.821  16.464
  107CHL1    H614114   4.778   6.781  16.527
  107CHL1    C714115   4.722   6.817  16.315
  107CHL1   H7A14116   4.827   6.845  16.292
  107CHL1   H7B14117   4.706   6.714  16.278
  107CHL1    C814118   4.628   6.914  16.239
  107CHL1    H814119   4.661   7.017  16.261
  107CHL1   C1414120   4.637   6.890  16.089
  107CHL1   H1414121   4.602   6.786  16.071
  107CHL1   C1514122   4.776   6.897  16.024
  107CHL1  H15A14123   4.830   6.986  16.063
  107CHL1  H15B14124   4.837   6.807  16.045
  107CHL1   C1614125   4.746   6.915  15.875
  107CHL1  H16A14126   4.805   7.001  15.836
  107CHL1  H16B14127   4.774   6.824  15.817
  107CHL1   C1714128   4.593   6.942  15.861
  107CHL1   H1714129   4.545   6.844  15.838
  107CHL1   C1314130   4.546   6.979  16.004
  107CHL1   C1814131   4.580   7.129  16.028
  107CHL1  H18A14132   4.568   7.158  16.135
  107CHL1  H18B14133   4.684   7.153  15.997
  107CHL1  H18C14134   4.511   7.194  15.969
  107CHL1   C1214135   4.402   6.944  16.044
  107CHL1  H12A14136   4.328   7.005  15.988
  107CHL1  H12B14137   4.383   6.837  16.021
  107CHL1   C1114138   4.379   6.968  16.195
  107CHL1  H11A14139   4.381   7.078  16.210
  107CHL1  H11B14140   4.276   6.934  16.222
  107CHL1    C914141   4.483   6.898  16.287
  107CHL1    H914142   4.462   6.789  16.276
  107CHL1   C1014143   4.469   6.930  16.439
  107CHL1   C1914144   4.464   7.084  16.458
  107CHL1  H19A14145   4.372   7.126  16.413
  107CHL1  H19B14146   4.463   7.113  16.565
  107CHL1  H19C14147   4.552   7.133  16.410
  107CHL1    C114148   4.338   6.866  16.493
  107CHL1   H1A14149   4.251   6.915  16.444
  107CHL1   H1B14150   4.337   6.759  16.464
  107CHL1    C214151   4.321   6.875  16.646
  107CHL1   H2A14152   4.229   6.821  16.676
  107CHL1   H2B14153   4.308   6.981  16.675
  107CHL1   C2014154   4.560   7.038  15.745
  107CHL1   H2014155   4.602   7.138  15.768
  107CHL1   C2114156   4.407   7.051  15.728
  107CHL1  H21A14157   4.360   6.951  15.720
  107CHL1  H21B14158   4.382   7.109  15.637
  107CHL1  H21C14159   4.363   7.106  15.814
  107CHL1   C2214160   4.624   6.995  15.610
  107CHL1  H22A14161   4.733   6.976  15.625
  107CHL1  H22B14162   4.578   6.900  15.575
  107CHL1   C2314163   4.613   7.102  15.500
  107CHL1  H23A14164   4.508   7.109  15.466
  107CHL1  H23B14165   4.642   7.200  15.543
  107CHL1   C2414166   4.704   7.072  15.380
  107CHL1  H24A14167   4.808   7.062  15.418
  107CHL1  H24B14168   4.674   6.975  15.334
  107CHL1   C2514169   4.704   7.181  15.271
  107CHL1   H2514170   4.724   7.279  15.320
  107CHL1   C2614171   4.817   7.155  15.169
  107CHL1  H26A14172   4.820   7.236  15.093
  107CHL1  H26B14173   4.915   7.152  15.221
  107CHL1  H26C14174   4.801   7.058  15.118
  107CHL1   C2714175   4.569   7.189  15.198
  107CHL1  H27A14176   4.573   7.267  15.119
  107CHL1  H27B14177   4.545   7.092  15.150
  107CHL1  H27C14178   4.487   7.215  15.269
  108CHL1    C314179   6.691   2.712  16.784
  108CHL1    H314180   6.606   2.648  16.752
  108CHL1    O314181   6.704   2.702  16.926
  108CHL1   H3'14182   6.625   2.743  16.962
  108CHL1    C414183   6.821   2.665  16.718
  108CHL1   H4A14184   6.905   2.724  16.759
  108CHL1   H4B14185   6.838   2.559  16.748
  108CHL1    C514186   6.816   2.680  16.567
  108CHL1    C614187   6.837   2.575  16.486
  108CHL1    H614188   6.863   2.477  16.529
  108CHL1    C714189   6.838   2.584  16.336
  108CHL1   H7A14190   6.924   2.528  16.294
  108CHL1   H7B14191   6.745   2.536  16.296
  108CHL1    C814192   6.843   2.730  16.284
  108CHL1    H814193   6.947   2.766  16.297
  108CHL1   C1414194   6.806   2.734  16.136
  108CHL1   H1414195   6.700   2.699  16.131
  108CHL1   C1514196   6.883   2.641  16.041
  108CHL1  H15A14197   6.992   2.647  16.063
  108CHL1  H15B14198   6.850   2.535  16.049
  108CHL1   C1614199   6.854   2.700  15.902
  108CHL1  H16A14200   6.950   2.721  15.851
  108CHL1  H16B14201   6.795   2.631  15.839
  108CHL1   C1714202   6.775   2.833  15.926
  108CHL1   H1714203   6.667   2.806  15.925
  108CHL1   C1314204   6.806   2.872  16.072
  108CHL1   C1814205   6.947   2.936  16.077
  108CHL1  H18A14206   6.945   3.037  16.033
  108CHL1  H18B14207   6.983   2.946  16.182
  108CHL1  H18C14208   7.022   2.875  16.021
  108CHL1   C1214209   6.702   2.958  16.147
  108CHL1  H12A14210   6.701   3.062  16.109
  108CHL1  H12B14211   6.601   2.914  16.131
  108CHL1   C1114212   6.732   2.962  16.299
  108CHL1  H11A14213   6.825   3.020  16.312
  108CHL1  H11B14214   6.650   3.017  16.349
  108CHL1    C914215   6.748   2.820  16.363
  108CHL1    H914216   6.648   2.773  16.352
  108CHL1   C1014217   6.778   2.821  16.516
  108CHL1   C1914218   6.899   2.914  16.543
  108CHL1  H19A14219   6.987   2.885  16.481
  108CHL1  H19B14220   6.873   3.020  16.519
  108CHL1  H19C14221   6.930   2.912  16.650
  108CHL1    C114222   6.653   2.872  16.593
  108CHL1   H1A14223   6.637   2.979  16.568
  108CHL1   H1B14224   6.564   2.816  16.557
  108CHL1    C214225   6.661   2.857  16.746
  108CHL1   H2A14226   6.565   2.891  16.791
  108CHL1   H2B14227   6.742   2.923  16.785
  108CHL1   C2014228   6.798   2.936  15.814
  108CHL1   H2014229   6.902   2.972  15.818
  108CHL1   C2114230   6.704   3.057  15.832
  108CHL1  H21A14231   6.739   3.121  15.915
  108CHL1  H21B14232   6.600   3.023  15.854
  108CHL1  H21C14233   6.703   3.119  15.740
  108CHL1   C2214234   6.780   2.876  15.671
  108CHL1  H22A14235   6.799   2.957  15.597
  108CHL1  H22B14236   6.857   2.799  15.654
  108CHL1   C2314237   6.642   2.816  15.641
  108CHL1  H23A14238   6.616   2.742  15.720
  108CHL1  H23B14239   6.564   2.895  15.642
  108CHL1   C2414240   6.639   2.745  15.504
  108CHL1  H24A14241   6.671   2.817  15.426
  108CHL1  H24B14242   6.712   2.661  15.506
  108CHL1   C2514243   6.501   2.688  15.464
  108CHL1   H2514244   6.429   2.773  15.459
  108CHL1   C2614245   6.509   2.624  15.324
  108CHL1  H26A14246   6.582   2.540  15.325
  108CHL1  H26B14247   6.410   2.585  15.293
  108CHL1  H26C14248   6.542   2.699  15.249
  108CHL1   C2714249   6.446   2.586  15.565
  108CHL1  H27A14250   6.429   2.634  15.664
  108CHL1  H27B14251   6.350   2.545  15.530
  108CHL1  H27C14252   6.518   2.502  15.578
  109CHL1    C314253   3.015   6.909  16.701
  109CHL1    H314254   3.119   6.937  16.675
  109CHL1    O314255   3.001   6.913  16.842
  109CHL1   H3'14256   2.963   6.829  16.867
  109CHL1    C414257   2.918   7.011  16.636
  109CHL1   H4A14258   2.816   6.992  16.676
  109CHL1   H4B14259   2.947   7.112  16.671
  109CHL1    C514260   2.917   7.001  16.484
  109CHL1    C614261   2.943   7.107  16.406
  109CHL1    H614262   2.962   7.206  16.452
  109CHL1    C714263   2.942   7.103  16.256
  109CHL1   H7A14264   2.892   7.194  16.214
  109CHL1   H7B14265   3.046   7.103  16.217
  109CHL1    C814266   2.870   6.978  16.201
  109CHL1    H814267   2.761   6.992  16.217
  109CHL1   C1414268   2.897   6.961  16.052
  109CHL1   H1414269   3.006   6.940  16.042
  109CHL1   C1514270   2.871   7.081  15.960
  109CHL1  H15A14271   2.775   7.129  15.989
  109CHL1  H15B14272   2.952   7.157  15.966
  109CHL1   C1614273   2.857   7.020  15.820
  109CHL1  H16A14274   2.759   7.051  15.778
  109CHL1  H16B14275   2.938   7.054  15.752
  109CHL1   C1714276   2.861   6.865  15.838
  109CHL1   H1714277   2.967   6.834  15.825
  109CHL1   C1314278   2.827   6.842  15.987
  109CHL1   C1814279   2.673   6.852  16.004
  109CHL1  H18A14280   2.623   6.763  15.959
  109CHL1  H18B14281   2.643   6.855  16.111
  109CHL1  H18C14282   2.633   6.943  15.955
  109CHL1   C1214283   2.883   6.715  16.054
  109CHL1  H12A14284   2.834   6.624  16.015
  109CHL1  H12B14285   2.992   6.708  16.032
  109CHL1   C1114286   2.864   6.720  16.208
  109CHL1  H11A14287   2.755   6.708  16.226
  109CHL1  H11B14288   2.916   6.633  16.253
  109CHL1    C914289   2.916   6.852  16.274
  109CHL1    H914290   3.026   6.850  16.260
  109CHL1   C1014291   2.893   6.860  16.428
  109CHL1   C1914292   2.745   6.823  16.459
  109CHL1  H19A14293   2.724   6.718  16.433
  109CHL1  H19B14294   2.721   6.835  16.566
  109CHL1  H19C14295   2.676   6.888  16.401
  109CHL1    C114296   2.991   6.762  16.498
  109CHL1   H1A14297   2.971   6.658  16.465
  109CHL1   H1B14298   3.095   6.786  16.465
  109CHL1    C214299   2.987   6.767  16.652
  109CHL1   H2A14300   3.063   6.697  16.694
  109CHL1   H2B14301   2.887   6.734  16.686
  109CHL1   C2014302   2.779   6.792  15.730
  109CHL1   H2014303   2.671   6.810  15.749
  109CHL1   C2114304   2.803   6.640  15.737
  109CHL1  H21A14305   2.754   6.596  15.827
  109CHL1  H21B14306   2.912   6.619  15.741
  109CHL1  H21C14307   2.760   6.590  15.648
  109CHL1   C2214308   2.803   6.843  15.586
  109CHL1  H22A14309   2.736   6.786  15.518
  109CHL1  H22B14310   2.773   6.950  15.578
  109CHL1   C2314311   2.947   6.828  15.533
  109CHL1  H23A14312   3.018   6.879  15.602
  109CHL1  H23B14313   2.974   6.720  15.530
  109CHL1   C2414314   2.963   6.889  15.393
  109CHL1  H24A14315   2.890   6.842  15.323
  109CHL1  H24B14316   2.938   6.997  15.399
  109CHL1   C2514317   3.105   6.876  15.333
  109CHL1   H2514318   3.177   6.913  15.408
  109CHL1   C2614319   3.139   6.730  15.300
  109CHL1  H26A14320   3.065   6.688  15.229
  109CHL1  H26B14321   3.239   6.724  15.253
  109CHL1  H26C14322   3.139   6.667  15.392
  109CHL1   C2714323   3.119   6.963  15.207
  109CHL1  H27A14324   3.222   6.955  15.166
  109CHL1  H27B14325   3.048   6.930  15.129
  109CHL1  H27C14326   3.099   7.069  15.231
  110CHL1    C314327   1.359   5.883  16.696
  110CHL1    H314328   1.440   5.959  16.689
  110CHL1    O314329   1.327   5.864  16.833
  110CHL1   H3'14330   1.325   5.769  16.847
  110CHL1    C414331   1.236   5.932  16.620
  110CHL1   H4A14332   1.153   5.860  16.637
  110CHL1   H4B14333   1.204   6.028  16.666
  110CHL1    C514334   1.260   5.947  16.471
  110CHL1    C614335   1.236   6.062  16.407
  110CHL1    H614336   1.194   6.147  16.462
  110CHL1    C714337   1.255   6.080  16.259
  110CHL1   H7A14338   1.169   6.133  16.213
  110CHL1   H7B14339   1.345   6.143  16.243
  110CHL1    C814340   1.283   5.950  16.180
  110CHL1    H814341   1.187   5.897  16.164
  110CHL1   C1414342   1.346   5.986  16.046
  110CHL1   H1414343   1.442   6.037  16.070
  110CHL1   C1514344   1.269   6.084  15.957
  110CHL1  H15A14345   1.163   6.053  15.949
  110CHL1  H15B14346   1.274   6.189  15.994
  110CHL1   C1614347   1.338   6.069  15.821
  110CHL1  H16A14348   1.261   6.055  15.743
  110CHL1  H16B14349   1.399   6.159  15.796
  110CHL1   C1714350   1.431   5.944  15.831
  110CHL1   H1714351   1.533   5.982  15.855
  110CHL1   C1314352   1.383   5.868  15.957
  110CHL1   C1814353   1.258   5.785  15.921
  110CHL1  H18A14354   1.287   5.697  15.859
  110CHL1  H18B14355   1.207   5.746  16.012
  110CHL1  H18C14356   1.184   5.845  15.863
  110CHL1   C1214357   1.487   5.784  16.036
  110CHL1  H12A14358   1.516   5.694  15.979
  110CHL1  H12B14359   1.578   5.846  16.051
  110CHL1   C1114360   1.433   5.742  16.174
  110CHL1  H11A14361   1.351   5.668  16.157
  110CHL1  H11B14362   1.514   5.690  16.229
  110CHL1    C914363   1.379   5.861  16.259
  110CHL1    H914364   1.468   5.924  16.277
  110CHL1   C1014365   1.323   5.825  16.400
  110CHL1   C1914366   1.210   5.721  16.384
  110CHL1  H19A14367   1.168   5.691  16.483
  110CHL1  H19B14368   1.127   5.761  16.322
  110CHL1  H19C14369   1.249   5.630  16.335
  110CHL1    C114370   1.439   5.767  16.487
  110CHL1   H1A14371   1.467   5.668  16.445
  110CHL1   H1B14372   1.527   5.834  16.477
  110CHL1    C214373   1.408   5.751  16.637
  110CHL1   H2A14374   1.499   5.717  16.691
  110CHL1   H2B14375   1.329   5.674  16.650
  110CHL1   C2014376   1.441   5.870  15.697
  110CHL1   H2014377   1.340   5.831  15.671
  110CHL1   C2114378   1.539   5.752  15.706
  110CHL1  H21A14379   1.498   5.672  15.773
  110CHL1  H21B14380   1.637   5.786  15.745
  110CHL1  H21C14381   1.554   5.707  15.606
  110CHL1   C2214382   1.483   5.963  15.580
  110CHL1  H22A14383   1.434   6.062  15.588
  110CHL1  H22B14384   1.593   5.980  15.584
  110CHL1   C2314385   1.444   5.908  15.442
  110CHL1  H23A14386   1.499   5.814  15.421
  110CHL1  H23B14387   1.336   5.884  15.443
  110CHL1   C2414388   1.470   6.009  15.329
  110CHL1  H24A14389   1.428   6.107  15.359
  110CHL1  H24B14390   1.580   6.023  15.316
  110CHL1   C2514391   1.407   5.970  15.194
  110CHL1   H2514392   1.298   5.955  15.210
  110CHL1   C2614393   1.425   6.083  15.091
  110CHL1  H26A14394   1.380   6.177  15.130
  110CHL1  H26B14395   1.533   6.100  15.072
  110CHL1  H26C14396   1.375   6.057  14.995
  110CHL1   C2714397   1.464   5.838  15.138
  110CHL1  H27A14398   1.574   5.848  15.121
  110CHL1  H27B14399   1.446   5.754  15.208
  110CHL1  H27C14400   1.417   5.814  15.041
  111CHL1    C314401   3.591   0.709  16.792
  111CHL1    H314402   3.540   0.614  16.820
  111CHL1    O314403   3.588   0.797  16.902
  111CHL1   H3'14404   3.628   0.748  16.974
  111CHL1    C414405   3.737   0.680  16.754
  111CHL1   H4A14406   3.788   0.778  16.737
  111CHL1   H4B14407   3.787   0.634  16.841
  111CHL1    C514408   3.748   0.594  16.629
  111CHL1    C614409   3.818   0.479  16.629
  111CHL1    H614410   3.871   0.448  16.720
  111CHL1    C714411   3.838   0.393  16.507
  111CHL1   H7A14412   3.944   0.363  16.497
  111CHL1   H7B14413   3.778   0.300  16.517
  111CHL1    C814414   3.794   0.465  16.377
  111CHL1    H814415   3.873   0.540  16.353
  111CHL1   C1414416   3.786   0.366  16.261
  111CHL1   H1414417   3.710   0.291  16.289
  111CHL1   C1514418   3.913   0.286  16.228
  111CHL1  H15A14419   4.002   0.353  16.233
  111CHL1  H15B14420   3.929   0.201  16.298
  111CHL1   C1614421   3.891   0.239  16.084
  111CHL1  H16A14422   3.977   0.271  16.022
  111CHL1  H16B14423   3.882   0.128  16.078
  111CHL1   C1714424   3.759   0.307  16.033
  111CHL1   H1714425   3.676   0.236  16.053
  111CHL1   C1314426   3.738   0.427  16.129
  111CHL1   C1814427   3.832   0.542  16.084
  111CHL1  H18A14428   3.795   0.588  15.991
  111CHL1  H18B14429   3.839   0.622  16.161
  111CHL1  H18C14430   3.935   0.504  16.066
  111CHL1   C1214431   3.594   0.477  16.153
  111CHL1  H12A14432   3.551   0.522  16.061
  111CHL1  H12B14433   3.530   0.390  16.181
  111CHL1   C1114434   3.591   0.582  16.265
  111CHL1  H11A14435   3.640   0.674  16.226
  111CHL1  H11B14436   3.485   0.608  16.285
  111CHL1    C914437   3.660   0.536  16.397
  111CHL1    H914438   3.592   0.456  16.436
  111CHL1   C1014439   3.668   0.645  16.508
  111CHL1   C1914440   3.741   0.770  16.452
  111CHL1  H19A14441   3.841   0.744  16.413
  111CHL1  H19B14442   3.682   0.817  16.371
  111CHL1  H19C14443   3.753   0.848  16.531
  111CHL1    C114444   3.523   0.683  16.551
  111CHL1   H1A14445   3.472   0.735  16.466
  111CHL1   H1B14446   3.466   0.590  16.572
  111CHL1    C214447   3.516   0.773  16.675
  111CHL1   H2A14448   3.410   0.791  16.703
  111CHL1   H2B14449   3.561   0.873  16.653
  111CHL1   C2014450   3.763   0.334  15.881
  111CHL1   H2014451   3.846   0.405  15.860
  111CHL1   C2114452   3.631   0.397  15.833
  111CHL1  H21A14453   3.544   0.337  15.869
  111CHL1  H21B14454   3.627   0.401  15.722
  111CHL1  H21C14455   3.622   0.501  15.869
  111CHL1   C2214456   3.794   0.207  15.797
  111CHL1  H22A14457   3.873   0.145  15.846
  111CHL1  H22B14458   3.703   0.144  15.790
  111CHL1   C2314459   3.847   0.241  15.657
  111CHL1  H23A14460   3.772   0.302  15.602
  111CHL1  H23B14461   3.939   0.303  15.668
  111CHL1   C2414462   3.882   0.117  15.573
  111CHL1  H24A14463   3.950   0.052  15.632
  111CHL1  H24B14464   3.790   0.059  15.552
  111CHL1   C2514465   3.952   0.152  15.440
  111CHL1   H2514466   4.042   0.212  15.463
  111CHL1   C2614467   3.997   0.025  15.368
  111CHL1  H26A14468   4.066   8.415  15.432
  111CHL1  H26B14469   3.909   8.409  15.344
  111CHL1  H26C14470   4.048   0.049  15.273
  111CHL1   C2714471   3.862   0.237  15.348
  111CHL1  H27A14472   3.913   0.255  15.251
  111CHL1  H27B14473   3.766   0.184  15.328
  111CHL1  H27C14474   3.840   0.335  15.394
  112CHL1    C314475   5.150   0.754  16.788
  112CHL1    H314476   5.145   0.643  16.789
  112CHL1    O314477   5.163   0.803  16.921
  112CHL1   H3'14478   5.142   0.896  16.910
  112CHL1    C414479   5.272   0.799  16.706
  112CHL1   H4A14480   5.294   0.905  16.731
  112CHL1   H4B14481   5.360   0.741  16.743
  112CHL1    C514482   5.257   0.787  16.556
  112CHL1    C614483   5.347   0.725  16.478
  112CHL1    H614484   5.437   0.681  16.523
  112CHL1    C714485   5.340   0.722  16.327
  112CHL1   H7A14486   5.440   0.742  16.283
  112CHL1   H7B14487   5.308   0.622  16.293
  112CHL1    C814488   5.240   0.828  16.271
  112CHL1    H814489   5.285   0.928  16.286
  112CHL1   C1414490   5.215   0.806  16.122
  112CHL1   H1414491   5.172   0.704  16.113
  112CHL1   C1514492   5.338   0.806  16.029
  112CHL1  H15A14493   5.405   0.891  16.055
  112CHL1  H15B14494   5.395   0.711  16.036
  112CHL1   C1614495   5.277   0.827  15.889
  112CHL1  H16A14496   5.329   0.912  15.840
  112CHL1  H16B14497   5.288   0.737  15.825
  112CHL1   C1714498   5.126   0.860  15.910
  112CHL1   H1714499   5.071   0.763  15.901
  112CHL1   C1314500   5.114   0.901  16.058
  112CHL1   C1814501   5.161   1.048  16.071
  112CHL1  H18A14502   5.177   1.077  16.177
  112CHL1  H18B14503   5.256   1.066  16.016
  112CHL1  H18C14504   5.084   1.117  16.030
  112CHL1   C1214505   4.980   0.875  16.129
  112CHL1  H12A14506   4.899   0.941  16.090
  112CHL1  H12B14507   4.949   0.770  16.112
  112CHL1   C1114508   4.992   0.900  16.281
  112CHL1  H11A14509   5.006   1.009  16.295
  112CHL1  H11B14510   4.895   0.873  16.329
  112CHL1    C914511   5.108   0.820  16.349
  112CHL1    H914512   5.077   0.713  16.341
  112CHL1   C1014513   5.127   0.849  16.500
  112CHL1   C1914514   5.135   1.003  16.520
  112CHL1  H19A14515   5.035   1.048  16.498
  112CHL1  H19B14516   5.159   1.031  16.624
  112CHL1  H19C14517   5.210   1.048  16.453
  112CHL1    C114518   5.008   0.790  16.580
  112CHL1   H1A14519   4.913   0.837  16.545
  112CHL1   H1B14520   5.000   0.681  16.558
  112CHL1    C214521   5.018   0.810  16.732
  112CHL1   H2A14522   4.933   0.760  16.782
  112CHL1   H2B14523   5.010   0.919  16.754
  112CHL1   C2014524   5.070   0.952  15.799
  112CHL1   H2014525   5.123   1.050  15.804
  112CHL1   C2114526   4.919   0.979  15.821
  112CHL1  H21A14527   4.863   0.883  15.828
  112CHL1  H21B14528   4.877   1.038  15.737
  112CHL1  H21C14529   4.903   1.039  15.913
  112CHL1   C2214530   5.096   0.893  15.658
  112CHL1  H22A14531   5.206   0.887  15.641
  112CHL1  H22B14532   5.055   0.790  15.653
  112CHL1   C2314533   5.036   0.974  15.541
  112CHL1  H23A14534   4.926   0.965  15.544
  112CHL1  H23B14535   5.062   1.081  15.553
  112CHL1   C2414536   5.086   0.927  15.404
  112CHL1  H24A14537   5.196   0.944  15.399
  112CHL1  H24B14538   5.069   0.817  15.393
  112CHL1   C2514539   5.020   0.999  15.285
  112CHL1   H2514540   5.022   1.108  15.305
  112CHL1   C2614541   5.098   0.974  15.155
  112CHL1  H26A14542   5.105   0.865  15.134
  112CHL1  H26B14543   5.048   1.023  15.069
  112CHL1  H26C14544   5.201   1.015  15.164
  112CHL1   C2714545   4.873   0.957  15.266
  112CHL1  H27A14546   4.830   1.012  15.179
  112CHL1  H27B14547   4.866   0.848  15.246
  112CHL1  H27C14548   4.813   0.981  15.356
  113CHL1    C314549   0.558   5.433  16.690
  113CHL1    H314550   0.534   5.328  16.661
  113CHL1    O314551   0.542   5.447  16.831
  113CHL1   H3'14552   0.448   5.431  16.843
  113CHL1    C414553   0.703   5.464  16.649
  113CHL1   H4A14554   0.729   5.566  16.685
  113CHL1   H4B14555   0.770   5.395  16.704
  113CHL1    C514556   0.722   5.454  16.499
  113CHL1    C614557   0.810   5.369  16.443
  113CHL1    H614558   0.874   5.307  16.508
  113CHL1    C714559   0.833   5.358  16.295
  113CHL1   H7A14560   0.941   5.352  16.271
  113CHL1   H7B14561   0.786   5.264  16.258
  113CHL1    C814562   0.772   5.476  16.215
  113CHL1    H814563   0.836   5.565  16.232
  113CHL1   C1414564   0.769   5.444  16.066
  113CHL1   H1414565   0.703   5.355  16.055
  113CHL1   C1514566   0.901   5.404  15.998
  113CHL1  H15A14567   0.982   5.473  16.030
  113CHL1  H15B14568   0.931   5.300  16.023
  113CHL1   C1614569   0.873   5.423  15.848
  113CHL1  H16A14570   0.952   5.486  15.804
  113CHL1  H16B14571   0.871   5.326  15.794
  113CHL1   C1714572   0.733   5.493  15.837
  113CHL1   H1714573   0.658   5.413  15.824
  113CHL1   C1314574   0.708   5.552  15.978
  113CHL1   C1814575   0.788   5.684  15.990
  113CHL1  H18A14576   0.740   5.763  15.929
  113CHL1  H18B14577   0.792   5.720  16.095
  113CHL1  H18C14578   0.893   5.672  15.955
  113CHL1   C1214579   0.561   5.569  16.022
  113CHL1  H12A14580   0.510   5.648  15.964
  113CHL1  H12B14581   0.507   5.474  16.005
  113CHL1   C1114582   0.553   5.606  16.172
  113CHL1  H11A14583   0.593   5.708  16.183
  113CHL1  H11B14584   0.446   5.609  16.201
  113CHL1    C914585   0.630   5.506  16.264
  113CHL1    H914586   0.575   5.410  16.254
  113CHL1   C1014587   0.626   5.542  16.416
  113CHL1   C1914588   0.668   5.689  16.434
  113CHL1  H19A14589   0.595   5.758  16.386
  113CHL1  H19B14590   0.673   5.718  16.541
  113CHL1  H19C14591   0.768   5.708  16.389
  113CHL1    C114592   0.480   5.521  16.467
  113CHL1   H1A14593   0.415   5.598  16.420
  113CHL1   H1B14594   0.445   5.421  16.434
  113CHL1    C214595   0.463   5.529  16.620
  113CHL1   H2A14596   0.357   5.506  16.646
  113CHL1   H2B14597   0.485   5.632  16.654
  113CHL1   C2014598   0.725   5.586  15.714
  113CHL1   H2014599   0.798   5.668  15.726
  113CHL1   C2114600   0.585   5.650  15.702
  113CHL1  H21A14601   0.575   5.700  15.603
  113CHL1  H21B14602   0.569   5.727  15.780
  113CHL1  H21C14603   0.506   5.572  15.710
  113CHL1   C2214604   0.762   5.516  15.580
  113CHL1  H22A14605   0.750   5.592  15.500
  113CHL1  H22B14606   0.869   5.486  15.581
  113CHL1   C2314607   0.677   5.393  15.545
  113CHL1  H23A14608   0.697   5.313  15.619
  113CHL1  H23B14609   0.569   5.418  15.552
  113CHL1   C2414610   0.702   5.335  15.404
  113CHL1  H24A14611   0.810   5.310  15.391
  113CHL1  H24B14612   0.646   5.240  15.396
  113CHL1   C2514613   0.657   5.428  15.288
  113CHL1   H2514614   0.588   5.504  15.331
  113CHL1   C2614615   0.775   5.501  15.223
  113CHL1  H26A14616   0.846   5.428  15.178
  113CHL1  H26B14617   0.739   5.569  15.143
  113CHL1  H26C14618   0.831   5.561  15.298
  113CHL1   C2714619   0.579   5.349  15.182
  113CHL1  H27A14620   0.544   5.417  15.101
  113CHL1  H27B14621   0.643   5.271  15.137
  113CHL1  H27C14622   0.490   5.300  15.227
  114CHL1    C314623   5.940   7.847  16.724
  114CHL1    H314624   6.037   7.897  16.703
  114CHL1    O314625   5.930   7.823  16.863
  114CHL1   H3'14626   5.847   7.776  16.873
  114CHL1    C414627   5.824   7.938  16.679
  114CHL1   H4A14628   5.728   7.890  16.707
  114CHL1   H4B14629   5.830   8.032  16.737
  114CHL1    C514630   5.827   7.963  16.529
  114CHL1    C614631   5.832   8.087  16.480
  114CHL1    H614632   5.829   8.173  16.548
  114CHL1    C714633   5.832   8.119  16.333
  114CHL1   H7A14634   5.759   8.200  16.311
  114CHL1   H7B14635   5.932   8.156  16.303
  114CHL1    C814636   5.796   7.997  16.244
  114CHL1    H814637   5.686   7.982  16.249
  114CHL1   C1414638   5.837   8.024  16.100
  114CHL1   H1414639   5.948   8.034  16.102
  114CHL1   C1514640   5.786   8.154  16.034
  114CHL1  H15A14641   5.678   8.166  16.056
  114CHL1  H15B14642   5.841   8.243  16.071
  114CHL1   C1614643   5.809   8.129  15.885
  114CHL1  H16A14644   5.714   8.148  15.830
  114CHL1  H16B14645   5.887   8.196  15.843
  114CHL1   C1714646   5.853   7.980  15.869
  114CHL1   H1714647   5.964   7.980  15.872
  114CHL1   C1314648   5.808   7.912  16.001
  114CHL1   C1814649   5.656   7.884  15.992
  114CHL1  H18A14650   5.600   7.972  15.957
  114CHL1  H18B14651   5.637   7.800  15.921
  114CHL1  H18C14652   5.615   7.854  16.091
  114CHL1   C1214653   5.888   7.788  16.048
  114CHL1  H12A14654   5.868   7.700  15.984
  114CHL1  H12B14655   5.996   7.811  16.042
  114CHL1   C1114656   5.853   7.751  16.194
  114CHL1  H11A14657   5.748   7.714  16.194
  114CHL1  H11B14658   5.918   7.667  16.225
  114CHL1    C914659   5.867   7.870  16.294
  114CHL1    H914660   5.975   7.895  16.292
  114CHL1   C1014661   5.832   7.836  16.442
  114CHL1   C1914662   5.692   7.769  16.447
  114CHL1  H19A14663   5.616   7.834  16.400
  114CHL1  H19B14664   5.693   7.671  16.394
  114CHL1  H19C14665   5.661   7.749  16.552
  114CHL1    C114666   5.940   7.737  16.497
  114CHL1   H1A14667   5.928   7.640  16.445
  114CHL1   H1B14668   6.041   7.777  16.471
  114CHL1    C214669   5.935   7.714  16.649
  114CHL1   H2A14670   6.020   7.649  16.680
  114CHL1   H2B14671   5.841   7.660  16.674
  114CHL1   C2014672   5.812   7.921  15.732
  114CHL1   H2014673   5.702   7.930  15.721
  114CHL1   C2114674   5.851   7.772  15.721
  114CHL1  H21A14675   5.829   7.734  15.619
  114CHL1  H21B14676   5.790   7.711  15.791
  114CHL1  H21C14677   5.959   7.757  15.742
  114CHL1   C2214678   5.878   8.002  15.616
  114CHL1  H22A14679   5.859   8.110  15.630
  114CHL1  H22B14680   5.988   7.987  15.622
  114CHL1   C2314681   5.832   7.968  15.473
  114CHL1  H23A14682   5.892   8.029  15.403
  114CHL1  H23B14683   5.854   7.861  15.450
  114CHL1   C2414684   5.682   7.997  15.449
  114CHL1  H24A14685   5.622   7.924  15.508
  114CHL1  H24B14686   5.659   8.099  15.487
  114CHL1   C2514687   5.637   7.990  15.301
  114CHL1   H2514688   5.526   8.003  15.301
  114CHL1   C2614689   5.696   8.103  15.216
  114CHL1  H26A14690   5.673   8.202  15.262
  114CHL1  H26B14691   5.806   8.092  15.208
  114CHL1  H26C14692   5.653   8.101  15.114
  114CHL1   C2714693   5.666   7.853  15.237
  114CHL1  H27A14694   5.626   7.850  15.134
  114CHL1  H27B14695   5.776   7.835  15.232
  114CHL1  H27C14696   5.619   7.771  15.296
  115CHL1    C314697   2.050   0.721  16.752
  115CHL1    H314698   1.948   0.703  16.712
  115CHL1    O314699   2.045   0.723  16.894
  115CHL1   H3'14700   2.095   0.801  16.920
  115CHL1    C414701   2.144   0.608  16.706
  115CHL1   H4A14702   2.242   0.621  16.755
  115CHL1   H4B14703   2.102   0.512  16.744
  115CHL1    C514704   2.161   0.606  16.555
  115CHL1    C614705   2.131   0.497  16.483
  115CHL1    H614706   2.095   0.406  16.533
  115CHL1    C714707   2.150   0.488  16.334
  115CHL1   H7A14708   2.196   0.390  16.306
  115CHL1   H7B14709   2.051   0.494  16.284
  115CHL1    C814710   2.240   0.602  16.278
  115CHL1    H814711   2.345   0.580  16.307
  115CHL1   C1414712   2.229   0.607  16.126
  115CHL1   H1414713   2.123   0.630  16.104
  115CHL1   C1514714   2.258   0.478  16.047
  115CHL1  H15A14715   2.353   0.432  16.085
  115CHL1  H15B14716   2.176   0.404  16.057
  115CHL1   C1614717   2.277   0.527  15.903
  115CHL1  H16A14718   2.372   0.486  15.862
  115CHL1  H16B14719   2.193   0.495  15.837
  115CHL1   C1714720   2.283   0.683  15.909
  115CHL1   H1714721   2.180   0.720  15.889
  115CHL1   C1314722   2.310   0.717  16.058
  115CHL1   C1814723   2.462   0.698  16.086
  115CHL1  H18A14724   2.500   0.602  16.044
  115CHL1  H18B14725   2.520   0.781  16.041
  115CHL1  H18C14726   2.484   0.698  16.195
  115CHL1   C1214727   2.258   0.851  16.112
  115CHL1  H12A14728   2.315   0.936  16.070
  115CHL1  H12B14729   2.152   0.863  16.082
  115CHL1   C1114730   2.267   0.857  16.266
  115CHL1  H11A14731   2.375   0.861  16.292
  115CHL1  H11B14732   2.221   0.952  16.301
  115CHL1    C914733   2.198   0.737  16.337
  115CHL1    H914734   2.090   0.747  16.313
  115CHL1   C1014735   2.207   0.739  16.493
  115CHL1   C1914736   2.355   0.764  16.534
  115CHL1  H19A14737   2.368   0.758  16.645
  115CHL1  H19B14738   2.422   0.688  16.488
  115CHL1  H19C14739   2.388   0.865  16.503
  115CHL1    C114740   2.117   0.854  16.547
  115CHL1   H1A14741   2.158   0.952  16.514
  115CHL1   H1B14742   2.016   0.844  16.502
  115CHL1    C214743   2.101   0.857  16.701
  115CHL1   H2A14744   2.030   0.937  16.729
  115CHL1   H2B14745   2.199   0.880  16.747
  115CHL1   C2014746   2.374   0.743  15.802
  115CHL1   H2014747   2.478   0.708  15.820
  115CHL1   C2114748   2.375   0.897  15.808
  115CHL1  H21A14749   2.271   0.937  15.812
  115CHL1  H21B14750   2.425   0.939  15.718
  115CHL1  H21C14751   2.431   0.933  15.897
  115CHL1   C2214752   2.339   0.698  15.657
  115CHL1  H22A14753   2.410   0.749  15.589
  115CHL1  H22B14754   2.356   0.589  15.646
  115CHL1   C2314755   2.196   0.731  15.611
  115CHL1  H23A14756   2.124   0.658  15.654
  115CHL1  H23B14757   2.167   0.832  15.649
  115CHL1   C2414758   2.184   0.733  15.458
  115CHL1  H24A14759   2.251   0.812  15.418
  115CHL1  H24B14760   2.220   0.635  15.418
  115CHL1   C2514761   2.042   0.758  15.403
  115CHL1   H2514762   1.977   0.672  15.433
  115CHL1   C2614763   1.978   0.887  15.457
  115CHL1  H26A14764   1.879   0.903  15.411
  115CHL1  H26B14765   1.964   0.881  15.567
  115CHL1  H26C14766   2.042   0.975  15.434
  115CHL1   C2714767   2.046   0.764  15.249
  115CHL1  H27A14768   2.108   0.849  15.215
  115CHL1  H27B14769   2.089   0.670  15.208
  115CHL1  H27C14770   1.943   0.776  15.208
  116CHL1    C314771   2.870   0.359  16.714
  116CHL1    H314772   2.807   0.275  16.677
  116CHL1    O314773   2.869   0.358  16.856
  116CHL1   H3'14774   2.915   0.438  16.880
  116CHL1    C414775   3.015   0.340  16.665
  116CHL1   H4A14776   3.079   0.417  16.712
  116CHL1   H4B14777   3.050   0.242  16.703
  116CHL1    C514778   3.026   0.349  16.514
  116CHL1    C614779   3.079   0.250  16.442
  116CHL1    H614780   3.118   0.161  16.494
  116CHL1    C714781   3.096   0.254  16.293
  116CHL1   H7A14782   3.198   0.220  16.264
  116CHL1   H7B14783   3.023   0.184  16.246
  116CHL1    C814784   3.072   0.395  16.233
  116CHL1    H814785   3.162   0.456  16.252
  116CHL1   C1414786   3.050   0.383  16.083
  116CHL1   H1414787   2.957   0.323  16.070
  116CHL1   C1514788   3.157   0.308  16.002
  116CHL1  H15A14789   3.258   0.346  16.029
  116CHL1  H15B14790   3.154   0.198  16.017
  116CHL1   C1614791   3.123   0.347  15.857
  116CHL1  H16A14792   3.216   0.380  15.806
  116CHL1  H16B14793   3.079   0.261  15.802
  116CHL1   C1714794   3.018   0.462  15.863
  116CHL1   H1714795   2.918   0.414  15.852
  116CHL1   C1314796   3.024   0.514  16.009
  116CHL1   C1814797   3.145   0.610  16.022
  116CHL1  H18A14798   3.166   0.633  16.128
  116CHL1  H18B14799   3.236   0.567  15.976
  116CHL1  H18C14800   3.122   0.706  15.971
  116CHL1   C1214801   2.895   0.575  16.069
  116CHL1  H12A14802   2.873   0.673  16.022
  116CHL1  H12B14803   2.810   0.506  16.047
  116CHL1   C1114804   2.908   0.592  16.222
  116CHL1  H11A14805   2.982   0.673  16.240
  116CHL1  H11B14806   2.810   0.629  16.261
  116CHL1    C914807   2.950   0.462  16.296
  116CHL1    H914808   2.866   0.391  16.279
  116CHL1   C1014809   2.963   0.476  16.451
  116CHL1   C1914810   3.057   0.594  16.483
  116CHL1  H19A14811   3.077   0.603  16.592
  116CHL1  H19B14812   3.155   0.583  16.431
  116CHL1  H19C14813   3.011   0.690  16.451
  116CHL1    C114814   2.822   0.501  16.511
  116CHL1   H1A14815   2.787   0.602  16.479
  116CHL1   H1B14816   2.751   0.426  16.469
  116CHL1    C214817   2.814   0.492  16.664
  116CHL1   H2A14818   2.708   0.503  16.697
  116CHL1   H2B14819   2.872   0.576  16.708
  116CHL1   C2014820   3.034   0.560  15.745
  116CHL1   H2014821   3.132   0.610  15.755
  116CHL1   C2114822   2.923   0.667  15.746
  116CHL1  H21A14823   2.929   0.729  15.654
  116CHL1  H21B14824   2.935   0.735  15.833
  116CHL1  H21C14825   2.823   0.619  15.750
  116CHL1   C2214826   3.035   0.486  15.608
  116CHL1  H22A14827   3.099   0.395  15.614
  116CHL1  H22B14828   2.932   0.452  15.583
  116CHL1   C2314829   3.094   0.569  15.492
  116CHL1  H23A14830   3.020   0.645  15.458
  116CHL1  H23B14831   3.183   0.622  15.530
  116CHL1   C2414832   3.135   0.479  15.374
  116CHL1  H24A14833   3.210   0.405  15.410
  116CHL1  H24B14834   3.046   0.422  15.339
  116CHL1   C2514835   3.196   0.553  15.253
  116CHL1   H2514836   3.120   0.624  15.214
  116CHL1   C2614837   3.321   0.634  15.292
  116CHL1  H26A14838   3.365   0.682  15.201
  116CHL1  H26B14839   3.296   0.715  15.364
  116CHL1  H26C14840   3.398   0.568  15.337
  116CHL1   C2714841   3.232   0.454  15.141
  116CHL1  H27A14842   3.142   0.396  15.111
  116CHL1  H27B14843   3.270   0.508  15.052
  116CHL1  H27C14844   3.310   0.383  15.176
  117CHL1    C314845   5.986   0.377  16.709
  117CHL1    H314846   6.088   0.352  16.674
  117CHL1    O314847   5.990   0.400  16.849
  117CHL1   H3'14848   6.050   0.474  16.859
  117CHL1    C414849   5.937   0.504  16.638
  117CHL1   H4A14850   5.836   0.530  16.677
  117CHL1   H4B14851   6.004   0.588  16.667
  117CHL1    C514852   5.932   0.485  16.488
  117CHL1    C614853   6.003   0.564  16.406
  117CHL1    H614854   6.063   0.646  16.448
  117CHL1    C714855   6.001   0.553  16.256
  117CHL1   H7A14856   5.990   0.653  16.210
  117CHL1   H7B14857   6.097   0.510  16.221
  117CHL1    C814858   5.885   0.462  16.205
  117CHL1    H814859   5.791   0.520  16.214
  117CHL1   C1414860   5.909   0.426  16.059
  117CHL1   H1414861   6.003   0.368  16.056
  117CHL1   C1514862   5.932   0.542  15.960
  117CHL1  H15A14863   5.857   0.622  15.979
  117CHL1  H15B14864   6.034   0.586  15.969
  117CHL1   C1614865   5.908   0.479  15.823
  117CHL1  H16A14866   5.832   0.539  15.768
  117CHL1  H16B14867   6.001   0.474  15.763
  117CHL1   C1714868   5.853   0.334  15.848
  117CHL1   H1714869   5.941   0.267  15.847
  117CHL1   C1314870   5.803   0.336  15.995
  117CHL1   C1814871   5.664   0.404  15.998
  117CHL1  H18A14872   5.663   0.499  15.940
  117CHL1  H18B14873   5.587   0.336  15.955
  117CHL1  H18C14874   5.632   0.428  16.102
  117CHL1   C1214875   5.804   0.204  16.075
  117CHL1  H12A14876   5.727   0.134  16.037
  117CHL1  H12B14877   5.904   0.156  16.062
  117CHL1   C1114878   5.779   0.228  16.225
  117CHL1  H11A14879   5.674   0.261  16.236
  117CHL1  H11B14880   5.789   0.132  16.279
  117CHL1    C914881   5.875   0.334  16.289
  117CHL1    H914882   5.976   0.288  16.283
  117CHL1   C1014883   5.849   0.364  16.439
  117CHL1   C1914884   5.699   0.398  16.460
  117CHL1  H19A14885   5.667   0.482  16.395
  117CHL1  H19B14886   5.635   0.310  16.438
  117CHL1  H19C14887   5.678   0.425  16.566
  117CHL1    C114888   5.886   0.237  16.523
  117CHL1   H1A14889   5.812   0.157  16.502
  117CHL1   H1B14890   5.986   0.202  16.490
  117CHL1    C214891   5.892   0.260  16.676
  117CHL1   H2A14892   5.927   0.168  16.727
  117CHL1   H2B14893   5.790   0.284  16.713
  117CHL1   C2014894   5.758   0.287  15.736
  117CHL1   H2014895   5.666   0.350  15.739
  117CHL1   C2114896   5.717   0.140  15.759
  117CHL1  H21A14897   5.807   0.076  15.773
  117CHL1  H21B14898   5.660   0.101  15.672
  117CHL1  H21C14899   5.651   0.131  15.848
  117CHL1   C2214900   5.820   0.305  15.595
  117CHL1  H22A14901   5.852   0.411  15.581
  117CHL1  H22B14902   5.912   0.242  15.588
  117CHL1   C2314903   5.728   0.272  15.475
  117CHL1  H23A14904   5.786   0.294  15.383
  117CHL1  H23B14905   5.705   0.164  15.473
  117CHL1   C2414906   5.597   0.353  15.473
  117CHL1  H24A14907   5.537   0.325  15.562
  117CHL1  H24B14908   5.620   0.462  15.481
  117CHL1   C2514909   5.510   0.330  15.348
  117CHL1   H2514910   5.499   0.221  15.334
  117CHL1   C2614911   5.370   0.390  15.369
  117CHL1  H26A14912   5.376   0.499  15.384
  117CHL1  H26B14913   5.306   0.370  15.280
  117CHL1  H26C14914   5.321   0.344  15.457
  117CHL1   C2714915   5.574   0.389  15.221
  117CHL1  H27A14916   5.671   0.339  15.198
  117CHL1  H27B14917   5.507   0.374  15.134
  117CHL1  H27C14918   5.593   0.497  15.233
  118CHL1    C314919   8.148   1.693  16.750
  118CHL1    H314920   8.175   1.798  16.728
  118CHL1    O314921   8.112   1.681  16.887
  118CHL1   H3'14922   8.076   1.593  16.893
  118CHL1    C414923   8.027   1.651  16.664
  118CHL1   H4A14924   7.994   1.550  16.696
  118CHL1   H4B14925   7.943   1.720  16.687
  118CHL1    C514926   8.060   1.649  16.516
  118CHL1    C614927   7.988   1.720  16.427
  118CHL1    H614928   7.901   1.778  16.463
  118CHL1    C714929   8.013   1.719  16.279
  118CHL1   H7A14930   7.917   1.709  16.224
  118CHL1   H7B14931   8.059   1.816  16.249
  118CHL1    C814932   8.108   1.605  16.235
  118CHL1    H814933   8.050   1.510  16.238
  118CHL1   C1414934   8.158   1.629  16.094
  118CHL1   H1414935   8.218   1.723  16.098
  118CHL1   C1514936   8.053   1.655  15.984
  118CHL1  H15A14937   7.971   1.580  15.993
  118CHL1  H15B14938   8.010   1.757  15.990
  118CHL1   C1614939   8.131   1.633  15.854
  118CHL1  H16A14940   8.075   1.561  15.790
  118CHL1  H16B14941   8.144   1.727  15.798
  118CHL1   C1714942   8.270   1.574  15.894
  118CHL1   H1714943   8.340   1.660  15.901
  118CHL1   C1314944   8.253   1.523  16.038
  118CHL1   C1814945   8.183   1.385  16.033
  118CHL1  H18A14946   8.094   1.386  15.966
  118CHL1  H18B14947   8.253   1.308  15.994
  118CHL1  H18C14948   8.149   1.351  16.134
  118CHL1   C1214949   8.377   1.522  16.130
  118CHL1  H12A14950   0.001   1.443  16.099
  118CHL1  H12B14951   8.428   1.620  16.122
  118CHL1   C1114952   8.338   1.496  16.277
  118CHL1  H11A14953   8.303   1.391  16.283
  118CHL1  H11B14954   8.429   1.505  16.340
  118CHL1    C914955   8.228   1.593  16.330
  118CHL1    H914956   8.275   1.694  16.329
  118CHL1   C1014957   8.185   1.567  16.477
  118CHL1   C1914958   8.148   1.417  16.493
  118CHL1  H19A14959   8.239   1.354  16.482
  118CHL1  H19B14960   8.106   1.396  16.594
  118CHL1  H19C14961   8.073   1.386  16.417
  118CHL1    C114962   8.303   1.604  16.572
  118CHL1   H1A14963   8.387   1.533  16.555
  118CHL1   H1B14964   8.339   1.706  16.546
  118CHL1    C214965   8.268   1.602  16.722
  118CHL1   H2A14966   8.356   1.636  16.781
  118CHL1   H2B14967   8.244   1.498  16.753
  118CHL1   C2014968   8.327   1.481  15.784
  118CHL1   H2014969   8.259   1.394  15.770
  118CHL1   C2114970   0.017   1.427  15.825
  118CHL1  H21A14971   0.062   1.367  15.743
  118CHL1  H21B14972   0.009   1.359  15.913
  118CHL1  H21C14973   0.085   1.511  15.849
  118CHL1   C2214974   8.334   1.557  15.649
  118CHL1  H22A14975   8.231   1.587  15.618
  118CHL1  H22B14976   8.393   1.650  15.664
  118CHL1   C2314977   8.397   1.482  15.530
  118CHL1  H23A14978   0.055   1.460  15.552
  118CHL1  H23B14979   8.344   1.386  15.513
  118CHL1   C2414980   8.391   1.569  15.403
  118CHL1  H24A14981   8.286   1.578  15.369
  118CHL1  H24B14982   8.427   1.671  15.429
  118CHL1   C2514983   0.030   1.518  15.288
  118CHL1   H2514984   0.134   1.506  15.327
  118CHL1   C2614985   8.431   1.383  15.235
  118CHL1  H26A14986   0.045   1.350  15.149
  118CHL1  H26B14987   8.436   1.305  15.314
  118CHL1  H26C14988   8.326   1.391  15.200
  118CHL1   C2714989   0.035   1.621  15.174
  118CHL1  H27A14990   0.100   1.586  15.091
  118CHL1  H27B14991   8.381   1.638  15.133
  118CHL1  H27C14992   0.075   1.718  15.211
  119CHL1    C314993   1.355   0.271  16.781
  119CHL1    H314994   1.274   0.198  16.762
  119CHL1    O314995   1.397   0.261  16.916
  119CHL1   H3'14996   1.321   0.283  16.970
  119CHL1    C414997   1.475   0.237  16.688
  119CHL1   H4A14998   1.564   0.290  16.727
  119CHL1   H4B14999   1.496   0.129  16.700
  119CHL1    C515000   1.454   0.275  16.542
  119CHL1    C615001   1.474   0.189  16.441
  119CHL1    H615002   1.509   0.087  16.462
  119CHL1    C715003   1.464   0.228  16.295
  119CHL1   H7A15004   1.547   0.183  16.236
  119CHL1   H7B15005   1.369   0.189  16.253
  119CHL1    C815006   1.467   0.382  16.276
  119CHL1    H815007   1.570   0.417  16.300
  119CHL1   C1415008   1.436   0.422  16.132
  119CHL1   H1415009   1.335   0.382  16.110
  119CHL1   C1515010   1.527   0.368  16.020
  119CHL1  H15A15011   1.633   0.369  16.053
  119CHL1  H15B15012   1.500   0.264  15.992
  119CHL1   C1615013   1.508   0.467  15.903
  119CHL1  H16A15014   1.607   0.512  15.879
  119CHL1  H16B15015   1.468   0.417  15.812
  119CHL1   C1715016   1.408   0.576  15.955
  119CHL1   H1715017   1.308   0.533  15.935
  119CHL1   C1315018   1.428   0.573  16.108
  119CHL1   C1815019   1.563   0.641  16.143
  119CHL1  H18A15020   1.594   0.620  16.247
  119CHL1  H18B15021   1.645   0.609  16.076
  119CHL1  H18C15022   1.553   0.752  16.134
  119CHL1   C1215023   1.314   0.628  16.194
  119CHL1  H12A15024   1.307   0.738  16.181
  119CHL1  H12B15025   1.218   0.583  16.162
  119CHL1   C1115026   1.338   0.598  16.343
  119CHL1  H11A15027   1.424   0.661  16.373
  119CHL1  H11B15028   1.250   0.632  16.401
  119CHL1    C915029   1.368   0.448  16.373
  119CHL1    H915030   1.271   0.396  16.354
  119CHL1   C1015031   1.404   0.419  16.521
  119CHL1   C1915032   1.518   0.516  16.565
  119CHL1  H19A15033   1.602   0.515  16.492
  119CHL1  H19B15034   1.478   0.619  16.573
  119CHL1  H19C15035   1.559   0.491  16.665
  119CHL1    C115036   1.278   0.441  16.610
  119CHL1   H1A15037   1.244   0.546  16.600
  119CHL1   H1B15038   1.196   0.376  16.573
  119CHL1    C215039   1.301   0.412  16.759
  119CHL1   H2A15040   1.206   0.425  16.815
  119CHL1   H2B15041   1.374   0.487  16.799
  119CHL1   C2015042   1.413   0.714  15.886
  119CHL1   H2015043   1.481   0.781  15.942
  119CHL1   C2115044   1.270   0.773  15.893
  119CHL1  H21A15045   1.274   0.882  15.873
  119CHL1  H21B15046   1.222   0.759  15.992
  119CHL1  H21C15047   1.205   0.725  15.816
  119CHL1   C2215048   1.464   0.713  15.739
  119CHL1  H22A15049   1.564   0.666  15.738
  119CHL1  H22B15050   1.397   0.652  15.675
  119CHL1   C2315051   1.483   0.853  15.675
  119CHL1  H23A15052   1.517   0.925  15.752
  119CHL1  H23B15053   1.565   0.842  15.601
  119CHL1   C2415054   1.360   0.909  15.600
  119CHL1  H24A15055   1.327   0.835  15.525
  119CHL1  H24B15056   1.276   0.924  15.671
  119CHL1   C2515057   1.382   1.042  15.526
  119CHL1   H2515058   1.409   1.120  15.601
  119CHL1   C2615059   1.493   1.035  15.421
  119CHL1  H26A15060   1.471   0.954  15.347
  119CHL1  H26B15061   1.502   1.131  15.366
  119CHL1  H26C15062   1.592   1.013  15.468
  119CHL1   C2715063   1.250   1.085  15.458
  119CHL1  H27A15064   1.218   1.007  15.385
  119CHL1  H27B15065   1.170   1.099  15.533
  119CHL1  H27C15066   1.264   1.181  15.403
  120CHL1    C315067   8.084   8.252  16.692
  120CHL1    H315068   7.980   8.222  16.668
  120CHL1    O315069   8.094   8.278  16.831
  120CHL1   H3'15070   8.057   8.365  16.845
  120CHL1    C415071   8.182   8.139  16.655
  120CHL1   H4A15072   8.283   8.169  16.689
  120CHL1   H4B15073   8.154   8.049  16.714
  120CHL1    C515074   8.184   8.112  16.506
  120CHL1    C615075   8.157   7.990  16.457
  120CHL1    H615076   8.136   7.907  16.527
  120CHL1    C715077   8.162   7.955  16.311
  120CHL1   H7A15078   8.218   7.860  16.295
  120CHL1   H7B15079   8.059   7.939  16.274
  120CHL1    C815080   8.228   8.065  16.224
  120CHL1    H815081   8.339   8.057  16.234
  120CHL1   C1415082   8.188   8.045  16.078
  120CHL1   H1415083   8.078   8.058  16.077
  120CHL1   C1515084   8.211   7.906  16.014
  120CHL1  H15A15085   8.314   7.871  16.035
  120CHL1  H15B15086   8.139   7.830  16.052
  120CHL1   C1615087   8.193   7.934  15.864
  120CHL1  H16A15088   8.282   7.898  15.809
  120CHL1  H16B15089   8.103   7.883  15.823
  120CHL1   C1715090   8.179   8.089  15.849
  120CHL1   H1715091   8.071   8.111  15.858
  120CHL1   C1315092   8.242   8.147  15.977
  120CHL1   C1815093   8.396   8.139  15.968
  120CHL1  H18A15094   8.443   8.159  16.066
  120CHL1  H18B15095   8.430   8.039  15.933
  120CHL1  H18C15096   8.434   8.214  15.896
  120CHL1   C1215097   8.193   8.286  16.023
  120CHL1  H12A15098   8.236   8.366  15.959
  120CHL1  H12B15099   8.083   8.291  16.014
  120CHL1   C1115100   8.233   8.315  16.169
  120CHL1  H11A15101   8.343   8.323  16.174
  120CHL1  H11B15102   8.190   8.414  16.198
  120CHL1    C915103   8.184   8.205  16.268
  120CHL1    H915104   8.073   8.204  16.258
  120CHL1   C1015105   8.212   8.235  16.418
  120CHL1   C1915106   8.361   8.274  16.435
  120CHL1  H19A15107   8.383   8.368  16.381
  120CHL1  H19B15108   8.387   8.291  16.541
  120CHL1  H19C15109   8.428   8.194  16.395
  120CHL1    C115110   8.120   8.353  16.463
  120CHL1   H1A15111   8.151   8.445  16.411
  120CHL1   H1B15112   8.016   8.330  16.432
  120CHL1    C215113   8.119   8.380  16.615
  120CHL1   H2A15114   8.046   0.012  16.638
  120CHL1   H2B15115   8.220   8.415  16.646
  120CHL1   C2015116   8.219   8.138  15.708
  120CHL1   H2015117   8.321   8.102  15.684
  120CHL1   C2115118   8.222   8.292  15.701
  120CHL1  H21A15119   8.240   8.325  15.596
  120CHL1  H21B15120   8.304   8.334  15.763
  120CHL1  H21C15121   8.125   8.335  15.735
  120CHL1   C2215122   8.120   8.086  15.601
  120CHL1  H22A15123   8.022   8.066  15.648
  120CHL1  H22B15124   8.102   8.166  15.526
  120CHL1   C2315125   8.165   7.961  15.523
  120CHL1  H23A15126   8.215   7.889  15.591
  120CHL1  H23B15127   8.075   7.911  15.482
  120CHL1   C2415128   8.257   7.995  15.405
  120CHL1  H24A15129   8.202   8.066  15.338
  120CHL1  H24B15130   8.347   8.048  15.442
  120CHL1   C2515131   8.299   7.873  15.321
  120CHL1   H2515132   8.209   7.809  15.307
  120CHL1   C2615133   8.346   7.915  15.181
  120CHL1  H26A15134   8.433   7.983  15.187
  120CHL1  H26B15135   8.375   7.826  15.121
  120CHL1  H26C15136   8.264   7.968  15.126
  120CHL1   C2715137   8.407   7.790  15.392
  120CHL1  H27A15138   0.049   7.852  15.408
  120CHL1  H27B15139   8.370   7.754  15.491
  120CHL1  H27C15140   8.434   7.702  15.331
  121CHL1    C315141   4.739   4.195  13.199
  121CHL1    H315142   4.705   4.299  13.221
  121CHL1    O315143   4.734   4.174  13.059
  121CHL1   H3'15144   4.778   4.250  13.021
  121CHL1    C415145   4.884   4.177  13.247
  121CHL1   H4A15146   4.921   4.079  13.209
  121CHL1   H4B15147   4.946   4.254  13.198
  121CHL1    C515148   4.897   4.180  13.398
  121CHL1    C615149   4.982   4.265  13.459
  121CHL1    H615150   5.046   4.330  13.398
  121CHL1    C715151   5.004   4.268  13.608
  121CHL1   H7A15152   5.112   4.276  13.630
  121CHL1   H7B15153   4.954   4.357  13.650
  121CHL1    C815154   4.948   4.141  13.678
  121CHL1    H815155   5.015   4.056  13.652
  121CHL1   C1415156   4.948   4.160  13.829
  121CHL1   H1415157   4.880   4.246  13.849
  121CHL1   C1515158   5.081   4.199  13.895
  121CHL1  H15A15159   5.162   4.133  13.856
  121CHL1  H15B15160   5.108   4.305  13.875
  121CHL1   C1615161   5.057   4.171  14.044
  121CHL1  H16A15162   5.141   4.110  14.083
  121CHL1  H16B15163   5.051   4.265  14.103
  121CHL1   C1715164   4.922   4.092  14.054
  121CHL1   H1715165   4.844   4.168  14.076
  121CHL1   C1315166   4.894   4.043  13.910
  121CHL1   C1815167   4.978   3.915  13.885
  121CHL1  H18A15168   4.935   3.829  13.941
  121CHL1  H18B15169   4.980   3.888  13.778
  121CHL1  H18C15170   5.083   3.929  13.919
  121CHL1   C1215171   4.746   4.025  13.868
  121CHL1  H12A15172   4.699   3.939  13.920
  121CHL1  H12B15173   4.690   4.117  13.895
  121CHL1   C1115174   4.734   4.003  13.715
  121CHL1  H11A15175   4.776   3.902  13.695
  121CHL1  H11B15176   4.626   3.999  13.688
  121CHL1    C915177   4.806   4.111  13.629
  121CHL1    H915178   4.749   4.205  13.646
  121CHL1   C1015179   4.802   4.086  13.475
  121CHL1   C1915180   4.849   3.942  13.448
  121CHL1  H19A15181   4.950   3.924  13.491
  121CHL1  H19B15182   4.778   3.867  13.490
  121CHL1  H19C15183   4.855   3.921  13.339
  121CHL1    C115184   4.657   4.105  13.422
  121CHL1   H1A15185   4.591   4.029  13.467
  121CHL1   H1B15186   4.620   4.205  13.454
  121CHL1    C215187   4.645   4.096  13.268
  121CHL1   H2A15188   4.540   4.116  13.237
  121CHL1   H2B15189   4.672   3.994  13.234
  121CHL1   C2015190   4.923   3.993  14.172
  121CHL1   H2015191   5.002   3.917  14.155
  121CHL1   C2115192   4.788   3.919  14.181
  121CHL1  H21A15193   4.772   3.854  14.092
  121CHL1  H21B15194   4.704   3.991  14.189
  121CHL1  H21C15195   4.785   3.851  14.269
  121CHL1   C2215196   4.955   4.064  14.306
  121CHL1  H22A15197   5.055   4.113  14.299
  121CHL1  H22B15198   4.880   4.144  14.323
  121CHL1   C2315199   4.959   3.974  14.431
  121CHL1  H23A15200   4.857   3.935  14.451
  121CHL1  H23B15201   5.025   3.887  14.411
  121CHL1   C2415202   5.009   4.050  14.555
  121CHL1  H24A15203   5.115   4.080  14.537
  121CHL1  H24B15204   4.949   4.143  14.566
  121CHL1   C2515205   5.003   3.973  14.689
  121CHL1   H2515206   5.043   4.042  14.767
  121CHL1   C2615207   4.858   3.940  14.730
  121CHL1  H26A15208   4.796   4.032  14.732
  121CHL1  H26B15209   4.813   3.868  14.658
  121CHL1  H26C15210   4.856   3.894  14.831
  121CHL1   C2715211   5.090   3.847  14.690
  121CHL1  H27A15212   5.055   3.775  14.613
  121CHL1  H27B15213   5.196   3.874  14.668
  121CHL1  H27C15214   5.086   3.798  14.789
  122CHL1    C315215   2.880   4.148  13.226
  122CHL1    H315216   2.961   4.077  13.254
  122CHL1    O315217   2.864   4.143  13.085
  122CHL1   H3'15218   2.795   4.206  13.064
  122CHL1    C415219   2.749   4.108  13.296
  122CHL1   H4A15220   2.668   4.176  13.262
  122CHL1   H4B15221   2.722   4.006  13.262
  122CHL1    C515222   2.763   4.114  13.448
  122CHL1    C615223   2.741   4.007  13.524
  122CHL1    H615224   2.708   3.913  13.478
  122CHL1    C715225   2.753   4.006  13.674
  122CHL1   H7A15226   2.666   3.953  13.720
  122CHL1   H7B15227   2.844   3.951  13.703
  122CHL1    C815228   2.761   4.149  13.736
  122CHL1    H815229   2.658   4.192  13.735
  122CHL1   C1415230   2.811   4.140  13.879
  122CHL1   H1415231   2.915   4.100  13.872
  122CHL1   C1515232   2.739   4.045  13.977
  122CHL1  H15A15233   2.630   4.060  13.968
  122CHL1  H15B15234   2.763   3.939  13.956
  122CHL1   C1615235   2.789   4.091  14.115
  122CHL1  H16A15236   2.702   4.110  14.180
  122CHL1  H16B15237   2.854   4.015  14.162
  122CHL1   C1715238   2.870   4.224  14.092
  122CHL1   H1715239   2.976   4.194  14.079
  122CHL1   C1315240   2.825   4.274  13.953
  122CHL1   C1815241   2.686   4.343  13.967
  122CHL1  H18A15242   2.616   4.281  14.027
  122CHL1  H18B15243   2.697   4.441  14.018
  122CHL1  H18C15244   2.640   4.362  13.868
  122CHL1   C1215245   2.924   4.360  13.872
  122CHL1  H12A15246   2.935   4.462  13.915
  122CHL1  H12B15247   3.024   4.311  13.875
  122CHL1   C1115248   2.880   4.375  13.725
  122CHL1  H11A15249   2.788   4.436  13.724
  122CHL1  H11B15250   2.958   4.431  13.670
  122CHL1    C915251   2.854   4.238  13.654
  122CHL1    H915252   2.952   4.186  13.655
  122CHL1   C1015253   2.814   4.249  13.504
  122CHL1   C1915254   2.699   4.353  13.490
  122CHL1  H19A15255   2.615   4.327  13.557
  122CHL1  H19B15256   2.735   4.455  13.516
  122CHL1  H19C15257   2.661   4.358  13.386
  122CHL1    C115258   2.938   4.296  13.421
  122CHL1   H1A15259   2.963   4.401  13.450
  122CHL1   H1B15260   3.024   4.233  13.449
  122CHL1    C215261   2.921   4.289  13.268
  122CHL1   H2A15262   3.017   4.317  13.219
  122CHL1   H2B15263   2.843   4.362  13.236
  122CHL1   C2015264   2.865   4.316  14.215
  122CHL1   H2015265   2.759   4.342  14.237
  122CHL1   C2115266   2.941   4.448  14.188
  122CHL1  H21A15267   2.889   4.507  14.110
  122CHL1  H21B15268   3.045   4.427  14.156
  122CHL1  H21C15269   2.944   4.512  14.279
  122CHL1   C2215270   2.923   4.244  14.341
  122CHL1  H22A15271   2.863   4.153  14.361
  122CHL1  H22B15272   3.026   4.212  14.318
  122CHL1   C2315273   2.926   4.327  14.471
  122CHL1  H23A15274   2.993   4.414  14.458
  122CHL1  H23B15275   2.824   4.365  14.492
  122CHL1   C2415276   2.976   4.244  14.591
  122CHL1  H24A15277   2.907   4.158  14.604
  122CHL1  H24B15278   3.077   4.204  14.568
  122CHL1   C2515279   2.982   4.322  14.724
  122CHL1   H2515280   2.882   4.369  14.741
  122CHL1   C2615281   3.009   4.226  14.841
  122CHL1  H26A15282   2.930   4.148  14.846
  122CHL1  H26B15283   3.107   4.176  14.828
  122CHL1  H26C15284   3.009   4.282  14.937
  122CHL1   C2715285   3.088   4.433  14.722
  122CHL1  H27A15286   3.091   4.485  14.820
  122CHL1  H27B15287   3.189   4.390  14.703
  122CHL1  H27C15288   3.066   4.508  14.644
  123CHL1    C315289   5.713   4.187  13.254
  123CHL1    H315290   5.708   4.082  13.290
  123CHL1    O315291   5.639   4.198  13.133
  123CHL1   H3'15292   5.699   4.171  13.063
  123CHL1    C415293   5.652   4.281  13.359
  123CHL1   H4A15294   5.647   4.383  13.315
  123CHL1   H4B15295   5.547   4.249  13.376
  123CHL1    C515296   5.731   4.285  13.489
  123CHL1    C615297   5.674   4.259  13.608
  123CHL1    H615298   5.566   4.238  13.612
  123CHL1    C715299   5.747   4.264  13.739
  123CHL1   H7A15300   5.689   4.322  13.814
  123CHL1   H7B15301   5.759   4.161  13.778
  123CHL1    C815302   5.889   4.328  13.729
  123CHL1    H815303   5.877   4.438  13.724
  123CHL1   C1415304   5.972   4.291  13.851
  123CHL1   H1415305   5.982   4.181  13.849
  123CHL1   C1515306   5.915   4.324  13.990
  123CHL1  H15A15307   5.874   4.427  13.991
  123CHL1  H15B15308   5.834   4.253  14.019
  123CHL1   C1615309   6.037   4.314  14.083
  123CHL1  H16A15310   6.045   4.407  14.143
  123CHL1  H16B15311   6.029   4.228  14.153
  123CHL1   C1715312   6.162   4.296  13.991
  123CHL1   H1715313   6.179   4.187  13.981
  123CHL1   C1315314   6.116   4.345  13.852
  123CHL1   C1815315   6.117   4.500  13.850
  123CHL1  H18A15316   6.062   4.539  13.762
  123CHL1  H18B15317   6.069   4.542  13.941
  123CHL1  H18C15318   6.221   4.537  13.844
  123CHL1   C1215319   6.186   4.285  13.728
  123CHL1  H12A15320   6.291   4.322  13.718
  123CHL1  H12B15321   6.191   4.174  13.739
  123CHL1   C1115322   6.111   4.319  13.599
  123CHL1  H11A15323   6.121   4.429  13.582
  123CHL1  H11B15324   6.163   4.268  13.514
  123CHL1    C915325   5.961   4.279  13.602
  123CHL1    H915326   5.962   4.168  13.611
  123CHL1   C1015327   5.883   4.311  13.472
  123CHL1   C1915328   5.900   4.461  13.436
  123CHL1  H19A15329   6.006   4.484  13.413
  123CHL1  H19B15330   5.841   4.488  13.346
  123CHL1  H19C15331   5.867   4.526  13.520
  123CHL1    C115332   5.940   4.222  13.357
  123CHL1   H1A15333   6.043   4.255  13.335
  123CHL1   H1B15334   5.944   4.117  13.393
  123CHL1    C215335   5.858   4.225  13.227
  123CHL1   H2A15336   5.903   4.155  13.153
  123CHL1   H2B15337   5.862   4.327  13.182
  123CHL1   C2015338   6.290   4.355  14.054
  123CHL1   H2015339   6.276   4.465  14.065
  123CHL1   C2115340   6.411   4.332  13.962
  123CHL1  H21A15341   6.506   4.363  14.010
  123CHL1  H21B15342   6.402   4.394  13.870
  123CHL1  H21C15343   6.418   4.225  13.934
  123CHL1   C2215344   6.314   4.298  14.197
  123CHL1  H22A15345   6.238   4.341  14.266
  123CHL1  H22B15346   6.300   4.188  14.195
  123CHL1   C2315347   6.454   4.325  14.257
  123CHL1  H23A15348   6.530   4.267  14.201
  123CHL1  H23B15349   6.478   4.433  14.246
  123CHL1   C2415350   6.465   4.284  14.405
  123CHL1  H24A15351   6.409   4.356  14.468
  123CHL1  H24B15352   6.417   4.185  14.418
  123CHL1   C2515353   6.611   4.274  14.457
  123CHL1   H2515354   6.662   4.196  14.397
  123CHL1   C2615355   6.689   4.405  14.441
  123CHL1  H26A15356   6.642   4.486  14.500
  123CHL1  H26B15357   6.793   4.392  14.478
  123CHL1  H26C15358   6.694   4.436  14.334
  123CHL1   C2715359   6.612   4.230  14.604
  123CHL1  H27A15360   6.562   4.306  14.668
  123CHL1  H27B15361   6.559   4.133  14.617
  123CHL1  H27C15362   6.717   4.217  14.640
  124CHL1    C315363   3.917   5.747  13.258
  124CHL1    H315364   3.828   5.803  13.295
  124CHL1    O315365   3.920   5.754  13.116
  124CHL1   H3'15366   3.838   5.715  13.087
  124CHL1    C415367   4.044   5.812  13.315
  124CHL1   H4A15368   4.132   5.764  13.268
  124CHL1   H4B15369   4.045   5.918  13.283
  124CHL1    C515370   4.051   5.799  13.466
  124CHL1    C615371   4.059   5.907  13.545
  124CHL1    H615372   4.064   6.007  13.500
  124CHL1    C715373   4.070   5.900  13.695
  124CHL1   H7A15374   4.148   5.970  13.732
  124CHL1   H7B15375   3.973   5.931  13.740
  124CHL1    C815376   4.106   5.759  13.746
  124CHL1    H815377   4.214   5.742  13.724
  124CHL1   C1415378   4.080   5.749  13.896
  124CHL1   H1415379   3.970   5.757  13.908
  124CHL1   C1515380   4.138   5.858  13.987
  124CHL1  H15A15381   4.244   5.877  13.959
  124CHL1  H15B15382   4.081   5.953  13.981
  124CHL1   C1615383   4.132   5.795  14.128
  124CHL1  H16A15384   4.232   5.808  14.174
  124CHL1  H16B15385   4.056   5.845  14.192
  124CHL1   C1715386   4.093   5.645  14.107
  124CHL1   H1715387   3.982   5.643  14.115
  124CHL1   C1315388   4.119   5.615  13.958
  124CHL1   C1815389   4.271   5.587  13.939
  124CHL1  H18A15390   4.297   5.579  13.831
  124CHL1  H18B15391   4.333   5.667  13.984
  124CHL1  H18C15392   4.298   5.490  13.986
  124CHL1   C1215393   4.031   5.507  13.894
  124CHL1  H12A15394   4.059   5.407  13.934
  124CHL1  H12B15395   3.925   5.526  13.920
  124CHL1   C1115396   4.044   5.509  13.740
  124CHL1  H11A15397   4.145   5.469  13.715
  124CHL1  H11B15398   3.968   5.440  13.697
  124CHL1    C915399   4.024   5.650  13.675
  124CHL1    H915400   3.918   5.677  13.696
  124CHL1   C1015401   4.039   5.655  13.520
  124CHL1   C1915402   4.168   5.578  13.480
  124CHL1  H19A15403   4.158   5.470  13.503
  124CHL1  H19B15404   4.188   5.584  13.371
  124CHL1  H19C15405   4.256   5.619  13.534
  124CHL1    C115406   3.914   5.588  13.455
  124CHL1   H1A15407   3.911   5.480  13.483
  124CHL1   H1B15408   3.823   5.635  13.497
  124CHL1    C215409   3.907   5.601  13.301
  124CHL1   H2A15410   3.811   5.557  13.265
  124CHL1   H2B15411   3.991   5.544  13.256
  124CHL1   C2015412   4.146   5.544  14.210
  124CHL1   H2015413   4.168   5.448  14.157
  124CHL1   C2115414   4.033   5.514  14.311
  124CHL1  H21A15415   3.943   5.477  14.259
  124CHL1  H21B15416   4.007   5.607  14.367
  124CHL1  H21C15417   4.065   5.437  14.384
  124CHL1   C2215418   4.276   5.588  14.283
  124CHL1  H22A15419   4.349   5.622  14.207
  124CHL1  H22B15420   4.251   5.675  14.349
  124CHL1   C2315421   4.347   5.482  14.369
  124CHL1  H23A15422   4.278   5.445  14.449
  124CHL1  H23B15423   4.375   5.396  14.305
  124CHL1   C2415424   4.473   5.542  14.433
  124CHL1  H24A15425   4.536   5.583  14.351
  124CHL1  H24B15426   4.445   5.626  14.499
  124CHL1   C2515427   4.561   5.443  14.513
  124CHL1   H2515428   4.583   5.356  14.448
  124CHL1   C2615429   4.695   5.510  14.550
  124CHL1  H26A15430   4.760   5.438  14.605
  124CHL1  H26B15431   4.748   5.544  14.459
  124CHL1  H26C15432   4.677   5.598  14.615
  124CHL1   C2715433   4.491   5.393  14.640
  124CHL1  H27A15434   4.468   5.479  14.708
  124CHL1  H27B15435   4.396   5.342  14.615
  124CHL1  H27C15436   4.556   5.322  14.695
  125CHL1    C315437   4.704   5.744  13.177
  125CHL1    H315438   4.594   5.756  13.166
  125CHL1    O315439   4.759   5.713  13.050
  125CHL1   H3'15440   4.738   5.621  13.033
  125CHL1    C415441   4.766   5.875  13.227
  125CHL1   H4A15442   4.876   5.865  13.224
  125CHL1   H4B15443   4.740   5.955  13.154
  125CHL1    C515444   4.721   5.911  13.368
  125CHL1    C615445   4.663   6.028  13.396
  125CHL1    H615446   4.650   6.102  13.315
  125CHL1    C715447   4.621   6.071  13.533
  125CHL1   H7A15448   4.654   6.175  13.554
  125CHL1   H7B15449   4.510   6.069  13.540
  125CHL1    C815450   4.679   5.980  13.645
  125CHL1    H815451   4.786   6.007  13.659
  125CHL1   C1415452   4.603   6.003  13.775
  125CHL1   H1415453   4.499   5.969  13.755
  125CHL1   C1515454   4.589   6.147  13.827
  125CHL1  H15A15455   4.688   6.197  13.824
  125CHL1  H15B15456   4.516   6.206  13.768
  125CHL1   C1615457   4.543   6.128  13.973
  125CHL1  H16A15458   4.609   6.187  14.040
  125CHL1  H16B15459   4.438   6.160  13.987
  125CHL1   C1715460   4.557   5.975  14.004
  125CHL1   H1715461   4.458   5.930  13.982
  125CHL1   C1315462   4.650   5.919  13.895
  125CHL1   C1815463   4.797   5.953  13.931
  125CHL1  H18A15464   4.865   5.934  13.845
  125CHL1  H18B15465   4.808   6.060  13.959
  125CHL1  H18C15466   4.832   5.891  14.016
  125CHL1   C1215467   4.631   5.771  13.855
  125CHL1  H12A15468   4.668   5.702  13.935
  125CHL1  H12B15469   4.523   5.751  13.840
  125CHL1   C1115470   4.706   5.737  13.725
  125CHL1  H11A15471   4.814   5.744  13.746
  125CHL1  H11B15472   4.683   5.632  13.697
  125CHL1    C915473   4.669   5.832  13.606
  125CHL1    H915474   4.561   5.814  13.588
  125CHL1   C1015475   4.741   5.799  13.473
  125CHL1   C1915476   4.893   5.785  13.499
  125CHL1  H19A15477   4.933   5.876  13.549
  125CHL1  H19B15478   4.914   5.697  13.564
  125CHL1  H19C15479   4.950   5.769  13.405
  125CHL1    C115480   4.684   5.665  13.416
  125CHL1   H1A15481   4.711   5.582  13.485
  125CHL1   H1B15482   4.573   5.672  13.414
  125CHL1    C215483   4.732   5.629  13.274
  125CHL1   H2A15484   4.682   5.536  13.240
  125CHL1   H2B15485   4.842   5.610  13.277
  125CHL1   C2015486   4.584   5.948  14.154
  125CHL1   H2015487   4.674   6.004  14.186
  125CHL1   C2115488   4.610   5.799  14.179
  125CHL1  H21A15489   4.702   5.765  14.128
  125CHL1  H21B15490   4.524   5.737  14.144
  125CHL1  H21C15491   4.627   5.779  14.287
  125CHL1   C2215492   4.463   6.001  14.237
  125CHL1  H22A15493   4.467   6.112  14.240
  125CHL1  H22B15494   4.369   5.973  14.184
  125CHL1   C2315495   4.448   5.949  14.382
  125CHL1  H23A15496   4.450   5.838  14.383
  125CHL1  H23B15497   4.532   5.987  14.443
  125CHL1   C2415498   4.313   5.991  14.443
  125CHL1  H24A15499   4.306   6.102  14.449
  125CHL1  H24B15500   4.233   5.956  14.374
  125CHL1   C2515501   4.285   5.930  14.582
  125CHL1   H2515502   4.307   5.822  14.577
  125CHL1   C2615503   4.373   5.993  14.691
  125CHL1  H26A15504   4.354   6.102  14.698
  125CHL1  H26B15505   4.350   5.947  14.790
  125CHL1  H26C15506   4.481   5.977  14.668
  125CHL1   C2715507   4.136   5.946  14.618
  125CHL1  H27A15508   4.116   5.900  14.717
  125CHL1  H27B15509   4.109   6.054  14.623
  125CHL1  H27C15510   4.072   5.897  14.542
  126CHL1    C315511   2.789   5.710  13.228
  126CHL1    H315512   2.830   5.607  13.225
  126CHL1    O315513   2.774   5.759  13.096
  126CHL1   H3'15514   2.743   5.685  13.044
  126CHL1    C415515   2.651   5.709  13.298
  126CHL1   H4A15516   2.607   5.810  13.290
  126CHL1   H4B15517   2.584   5.641  13.241
  126CHL1    C515518   2.663   5.668  13.444
  126CHL1    C615519   2.595   5.563  13.493
  126CHL1    H615520   2.527   5.508  13.427
  126CHL1    C715521   2.600   5.520  13.636
  126CHL1   H7A15522   2.498   5.496  13.673
  126CHL1   H7B15523   2.661   5.427  13.644
  126CHL1    C815524   2.663   5.626  13.730
  126CHL1    H815525   2.587   5.706  13.745
  126CHL1   C1415526   2.701   5.563  13.863
  126CHL1   H1415527   2.783   5.491  13.839
  126CHL1   C1515528   2.595   5.479  13.936
  126CHL1  H15A15529   2.497   5.531  13.931
  126CHL1  H15B15530   2.584   5.378  13.890
  126CHL1   C1615531   2.646   5.473  14.080
  126CHL1  H16A15532   2.567   5.517  14.145
  126CHL1  H16B15533   2.668   5.369  14.114
  126CHL1   C1715534   2.774   5.562  14.087
  126CHL1   H1715535   2.858   5.494  14.061
  126CHL1   C1315536   2.759   5.659  13.966
  126CHL1   C1815537   2.656   5.769  14.003
  126CHL1  H18A15538   2.627   5.828  13.913
  126CHL1  H18B15539   2.563   5.726  14.047
  126CHL1  H18C15540   2.700   5.840  14.075
  126CHL1   C1215541   2.887   5.720  13.907
  126CHL1  H12A15542   2.926   5.799  13.975
  126CHL1  H12B15543   2.964   5.641  13.897
  126CHL1   C1115544   2.861   5.784  13.769
  126CHL1  H11A15545   2.799   5.874  13.786
  126CHL1  H11B15546   2.958   5.818  13.726
  126CHL1    C915547   2.788   5.689  13.668
  126CHL1    H915548   2.858   5.604  13.652
  126CHL1   C1015549   2.763   5.751  13.527
  126CHL1   C1915550   2.704   5.894  13.545
  126CHL1  H19A15551   2.677   5.940  13.447
  126CHL1  H19B15552   2.613   5.892  13.608
  126CHL1  H19C15553   2.778   5.962  13.592
  126CHL1    C115554   2.898   5.757  13.451
  126CHL1   H1A15555   2.965   5.828  13.504
  126CHL1   H1B15556   2.946   5.657  13.454
  126CHL1    C215557   2.887   5.800  13.303
  126CHL1   H2A15558   2.986   5.794  13.254
  126CHL1   H2B15559   2.851   5.905  13.298
  126CHL1   C2015560   2.806   5.621  14.226
  126CHL1   H2015561   2.749   5.715  14.239
  126CHL1   C2115562   2.957   5.652  14.233
  126CHL1  H21A15563   3.016   5.559  14.220
  126CHL1  H21B15564   2.983   5.695  14.332
  126CHL1  H21C15565   2.987   5.725  14.156
  126CHL1   C2215566   2.766   5.530  14.345
  126CHL1  H22A15567   2.660   5.497  14.335
  126CHL1  H22B15568   2.830   5.439  14.346
  126CHL1   C2315569   2.774   5.601  14.482
  126CHL1  H23A15570   2.879   5.625  14.507
  126CHL1  H23B15571   2.718   5.697  14.473
  126CHL1   C2415572   2.713   5.517  14.596
  126CHL1  H24A15573   2.611   5.485  14.565
  126CHL1  H24B15574   2.774   5.425  14.609
  126CHL1   C2515575   2.701   5.589  14.733
  126CHL1   H2515576   2.654   5.516  14.803
  126CHL1   C2615577   2.837   5.627  14.792
  126CHL1  H26A15578   2.890   5.699  14.726
  126CHL1  H26B15579   2.824   5.675  14.892
  126CHL1  H26C15580   2.901   5.537  14.805
  126CHL1   C2715581   2.608   5.712  14.727
  126CHL1  H27A15582   2.653   5.791  14.663
  126CHL1  H27B15583   2.509   5.684  14.684
  126CHL1  H27C15584   2.593   5.753  14.829
  127CHL1    C315585   3.698   7.037  13.210
  127CHL1    H315586   3.803   7.002  13.222
  127CHL1    O315587   3.665   7.033  13.071
  127CHL1   H3'15588   3.577   6.996  13.067
  127CHL1    C415589   3.604   6.944  13.288
  127CHL1   H4A15590   3.499   6.976  13.270
  127CHL1   H4B15591   3.613   6.842  13.246
  127CHL1    C515592   3.633   6.947  13.437
  127CHL1    C615593   3.663   6.835  13.504
  127CHL1    H615594   3.663   6.739  13.451
  127CHL1    C715595   3.690   6.830  13.652
  127CHL1   H7A15596   3.634   6.747  13.699
  127CHL1   H7B15597   3.798   6.811  13.668
  127CHL1    C815598   3.652   6.962  13.725
  127CHL1    H815599   3.542   6.963  13.737
  127CHL1   C1415600   3.718   6.965  13.862
  127CHL1   H1415601   3.827   6.970  13.843
  127CHL1   C1515602   3.700   6.843  13.953
  127CHL1  H15A15603   3.596   6.805  13.946
  127CHL1  H15B15604   3.772   6.762  13.926
  127CHL1   C1615605   3.726   6.896  14.095
  127CHL1  H16A15606   3.633   6.883  14.154
  127CHL1  H16B15607   3.809   6.842  14.146
  127CHL1   C1715608   3.758   7.048  14.079
  127CHL1   H1715609   3.867   7.056  14.058
  127CHL1   C1315610   3.687   7.089  13.947
  127CHL1   C1815611   3.535   7.101  13.975
  127CHL1  H18A15612   3.514   7.190  14.037
  127CHL1  H18B15613   3.477   7.112  13.880
  127CHL1  H18C15614   3.495   7.011  14.028
  127CHL1   C1215615   3.741   7.210  13.869
  127CHL1  H12A15616   3.717   7.306  13.921
  127CHL1  H12B15617   3.851   7.202  13.861
  127CHL1   C1115618   3.681   7.217  13.726
  127CHL1  H11A15619   3.573   7.243  13.737
  127CHL1  H11B15620   3.729   7.301  13.671
  127CHL1    C915621   3.696   7.085  13.645
  127CHL1    H915622   3.806   7.072  13.631
  127CHL1   C1015623   3.635   7.088  13.501
  127CHL1   C1915624   3.489   7.138  13.509
  127CHL1  H19A15625   3.429   7.076  13.580
  127CHL1  H19B15626   3.485   7.244  13.543
  127CHL1  H19C15627   3.439   7.135  13.410
  127CHL1    C115628   3.719   7.185  13.413
  127CHL1   H1A15629   3.706   7.289  13.450
  127CHL1   H1B15630   3.827   7.159  13.425
  127CHL1    C215631   3.687   7.180  13.262
  127CHL1   H2A15632   3.757   7.246  13.207
  127CHL1   H2B15633   3.583   7.217  13.245
  127CHL1   C2015634   3.732   7.125  14.209
  127CHL1   H2015635   3.624   7.119  14.236
  127CHL1   C2115636   3.767   7.274  14.191
  127CHL1  H21A15637   3.762   7.327  14.289
  127CHL1  H21B15638   3.694   7.324  14.124
  127CHL1  H21C15639   3.869   7.286  14.149
  127CHL1   C2215640   3.813   7.069  14.330
  127CHL1  H22A15641   3.907   7.021  14.293
  127CHL1  H22B15642   3.844   7.154  14.394
  127CHL1   C2315643   3.736   6.971  14.421
  127CHL1  H23A15644   3.647   7.024  14.462
  127CHL1  H23B15645   3.700   6.885  14.361
  127CHL1   C2415646   3.822   6.918  14.536
  127CHL1  H24A15647   3.908   6.861  14.495
  127CHL1  H24B15648   3.863   7.005  14.592
  127CHL1   C2515649   3.746   6.828  14.636
  127CHL1   H2515650   3.659   6.885  14.674
  127CHL1   C2615651   3.693   6.699  14.570
  127CHL1  H26A15652   3.621   6.723  14.489
  127CHL1  H26B15653   3.777   6.641  14.526
  127CHL1  H26C15654   3.642   6.635  14.645
  127CHL1   C2715655   3.836   6.792  14.756
  127CHL1  H27A15656   3.779   6.730  14.829
  127CHL1  H27B15657   3.924   6.734  14.722
  127CHL1  H27C15658   3.872   6.884  14.807
  128CHL1    C315659   2.309   1.872  13.180
  128CHL1    H315660   2.200   1.890  13.185
  128CHL1    O315661   2.351   1.871  13.044
  128CHL1   H3'15662   2.301   1.800  13.003
  128CHL1    C415663   2.383   1.985  13.253
  128CHL1   H4A15664   2.492   1.975  13.234
  128CHL1   H4B15665   2.353   2.081  13.206
  128CHL1    C515666   2.357   1.986  13.403
  128CHL1    C615667   2.308   2.094  13.465
  128CHL1    H615668   2.289   2.186  13.407
  128CHL1    C715669   2.285   2.103  13.613
  128CHL1   H7A15670   2.320   2.201  13.652
  128CHL1   H7B15671   2.176   2.095  13.635
  128CHL1    C815672   2.359   1.990  13.689
  128CHL1    H815673   2.467   2.014  13.686
  128CHL1   C1415674   2.313   1.985  13.835
  128CHL1   H1415675   2.205   1.957  13.832
  128CHL1   C1515676   2.319   2.115  13.916
  128CHL1  H15A15677   2.417   2.165  13.899
  128CHL1  H15B15678   2.237   2.185  13.890
  128CHL1   C1615679   2.310   2.067  14.062
  128CHL1  H16A15680   2.391   2.115  14.121
  128CHL1  H16B15681   2.212   2.094  14.107
  128CHL1   C1715682   2.327   1.912  14.061
  128CHL1   H1715683   2.225   1.868  14.066
  128CHL1   C1315684   2.382   1.879  13.920
  128CHL1   C1815685   2.535   1.902  13.920
  128CHL1  H18A15686   2.578   1.898  13.818
  128CHL1  H18B15687   2.562   2.000  13.965
  128CHL1  H18C15688   2.586   1.822  13.979
  128CHL1   C1215689   2.344   1.742  13.858
  128CHL1  H12A15690   2.391   1.658  13.914
  128CHL1  H12B15691   2.234   1.730  13.866
  128CHL1   C1115692   2.385   1.734  13.710
  128CHL1  H11A15693   2.496   1.728  13.709
  128CHL1  H11B15694   2.347   1.639  13.667
  128CHL1    C915695   2.335   1.854  13.622
  128CHL1    H915696   2.225   1.842  13.619
  128CHL1   C1015697   2.384   1.852  13.474
  128CHL1   C1915698   2.537   1.828  13.472
  128CHL1  H19A15699   2.589   1.904  13.535
  128CHL1  H19B15700   2.562   1.727  13.510
  128CHL1  H19C15701   2.579   1.834  13.369
  128CHL1    C115702   2.311   1.738  13.396
  128CHL1   H1A15703   2.340   1.640  13.440
  128CHL1   H1B15704   2.202   1.750  13.411
  128CHL1    C215705   2.340   1.736  13.245
  128CHL1   H2A15706   2.279   1.656  13.196
  128CHL1   H2B15707   2.447   1.711  13.228
  128CHL1   C2015708   2.405   1.861  14.184
  128CHL1   H2015709   2.508   1.904  14.179
  128CHL1   C2115710   2.417   1.707  14.184
  128CHL1  H21A15711   2.463   1.673  14.279
  128CHL1  H21B15712   2.483   1.672  14.101
  128CHL1  H21C15713   2.317   1.660  14.173
  128CHL1   C2215714   2.346   1.906  14.320
  128CHL1  H22A15715   2.274   1.990  14.309
  128CHL1  H22B15716   2.290   1.821  14.363
  128CHL1   C2315717   2.456   1.950  14.418
  128CHL1  H23A15718   2.542   1.880  14.409
  128CHL1  H23B15719   2.492   2.051  14.388
  128CHL1   C2415720   2.410   1.951  14.565
  128CHL1  H24A15721   2.322   2.018  14.577
  128CHL1  H24B15722   2.379   1.848  14.592
  128CHL1   C2515723   2.521   1.996  14.663
  128CHL1   H2515724   2.614   1.942  14.636
  128CHL1   C2615725   2.548   2.147  14.654
  128CHL1  H26A15726   2.581   2.175  14.552
  128CHL1  H26B15727   2.456   2.204  14.678
  128CHL1  H26C15728   2.628   2.176  14.726
  128CHL1   C2715729   2.486   1.957  14.808
  128CHL1  H27A15730   2.472   1.847  14.816
  128CHL1  H27B15731   2.567   1.987  14.877
  128CHL1  H27C15732   2.392   2.007  14.839
  129CHL1    C315733   6.325   6.622  13.221
  129CHL1    H315734   6.409   6.552  13.201
  129CHL1    O315735   6.250   6.639  13.102
  129CHL1   H3'15736   6.312   6.656  13.031
  129CHL1    C415737   6.234   6.562  13.330
  129CHL1   H4A15738   6.145   6.628  13.341
  129CHL1   H4B15739   6.197   6.464  13.293
  129CHL1    C515740   6.306   6.549  13.463
  129CHL1    C615741   6.318   6.430  13.525
  129CHL1    H615742   6.272   6.341  13.480
  129CHL1    C715743   6.386   6.411  13.657
  129CHL1   H7A15744   6.327   6.344  13.723
  129CHL1   H7B15745   6.484   6.362  13.639
  129CHL1    C815746   6.414   6.544  13.733
  129CHL1    H815747   6.319   6.577  13.779
  129CHL1   C1415748   6.521   6.520  13.839
  129CHL1   H1415749   6.614   6.496  13.784
  129CHL1   C1515750   6.503   6.402  13.936
  129CHL1  H15A15751   6.400   6.404  13.978
  129CHL1  H15B15752   6.520   6.304  13.887
  129CHL1   C1615753   6.606   6.432  14.046
  129CHL1  H16A15754   6.558   6.422  14.146
  129CHL1  H16B15755   6.692   6.361  14.040
  129CHL1   C1715756   6.658   6.577  14.022
  129CHL1   H1715757   6.751   6.568  13.962
  129CHL1   C1315758   6.555   6.642  13.926
  129CHL1   C1815759   6.432   6.687  14.008
  129CHL1  H18A15760   6.394   6.606  14.074
  129CHL1  H18B15761   6.458   6.774  14.072
  129CHL1  H18C15762   6.349   6.718  13.941
  129CHL1   C1215763   6.608   6.752  13.831
  129CHL1  H12A15764   6.627   6.846  13.886
  129CHL1  H12B15765   6.704   6.718  13.787
  129CHL1   C1115766   6.508   6.781  13.716
  129CHL1  H11A15767   6.419   6.829  13.762
  129CHL1  H11B15768   6.554   6.854  13.647
  129CHL1    C915769   6.465   6.653  13.638
  129CHL1    H915770   6.559   6.612  13.594
  129CHL1   C1015771   6.371   6.679  13.516
  129CHL1   C1915772   6.257   6.774  13.561
  129CHL1  H19A15773   6.183   6.791  13.479
  129CHL1  H19B15774   6.203   6.733  13.648
  129CHL1  H19C15775   6.298   6.874  13.588
  129CHL1    C115776   6.454   6.744  13.401
  129CHL1   H1A15777   6.489   6.844  13.434
  129CHL1   H1B15778   6.545   6.681  13.384
  129CHL1    C215779   6.381   6.757  13.267
  129CHL1   H2A15780   6.449   6.797  13.189
  129CHL1   H2B15781   6.296   6.828  13.278
  129CHL1   C2015782   6.700   6.645  14.154
  129CHL1   H2015783   6.615   6.643  14.225
  129CHL1   C2115784   6.740   6.792  14.130
  129CHL1  H21A15785   6.818   6.798  14.051
  129CHL1  H21B15786   6.779   6.839  14.222
  129CHL1  H21C15787   6.652   6.853  14.098
  129CHL1   C2215788   6.819   6.566  14.218
  129CHL1  H22A15789   6.789   6.460  14.233
  129CHL1  H22B15790   6.902   6.567  14.144
  129CHL1   C2315791   6.876   6.617  14.352
  129CHL1  H23A15792   6.968   6.559  14.372
  129CHL1  H23B15793   6.906   6.724  14.344
  129CHL1   C2415794   6.780   6.600  14.471
  129CHL1  H24A15795   6.689   6.661  14.453
  129CHL1  H24B15796   6.749   6.494  14.479
  129CHL1   C2515797   6.841   6.644  14.607
  129CHL1   H2515798   6.877   6.749  14.595
  129CHL1   C2615799   6.734   6.643  14.717
  129CHL1  H26A15800   6.695   6.540  14.732
  129CHL1  H26B15801   6.776   6.679  14.813
  129CHL1  H26C15802   6.649   6.709  14.688
  129CHL1   C2715803   6.961   6.557  14.650
  129CHL1  H27A15804   6.929   6.451  14.661
  129CHL1  H27B15805   7.043   6.562  14.575
  129CHL1  H27C15806   7.000   6.592  14.748
  130CHL1    C315807   2.896   7.171  13.234
  130CHL1    H315808   2.798   7.222  13.246
  130CHL1    O315809   2.924   7.158  13.095
  130CHL1   H3'15810   2.997   7.097  13.090
  130CHL1    C415811   3.005   7.257  13.300
  130CHL1   H4A15812   3.104   7.211  13.278
  130CHL1   H4B15813   3.005   7.356  13.251
  130CHL1    C515814   2.985   7.268  13.450
  130CHL1    C615815   2.975   7.387  13.511
  130CHL1    H615816   2.986   7.480  13.452
  130CHL1    C715817   2.959   7.405  13.660
  130CHL1   H7A15818   3.028   7.484  13.697
  130CHL1   H7B15819   2.855   7.438  13.681
  130CHL1    C815820   2.986   7.274  13.739
  130CHL1    H815821   3.096   7.259  13.741
  130CHL1   C1415822   2.933   7.286  13.882
  130CHL1   H1415823   2.823   7.299  13.873
  130CHL1   C1515824   2.980   7.406  13.966
  130CHL1  H15A15825   3.090   7.418  13.954
  130CHL1  H15B15826   2.930   7.500  13.937
  130CHL1   C1615827   2.948   7.364  14.111
  130CHL1  H16A15828   3.039   7.375  14.173
  130CHL1  H16B15829   2.867   7.427  14.154
  130CHL1   C1715830   2.902   7.214  14.106
  130CHL1   H1715831   2.791   7.215  14.099
  130CHL1   C1315832   2.954   7.162  13.969
  130CHL1   C1815833   3.105   7.130  13.983
  130CHL1  H18A15834   3.119   7.039  14.044
  130CHL1  H18B15835   3.152   7.111  13.884
  130CHL1  H18C15836   3.160   7.214  14.031
  130CHL1   C1215837   2.875   7.048  13.902
  130CHL1  H12A15838   2.888   6.952  13.958
  130CHL1  H12B15839   2.767   7.073  13.901
  130CHL1   C1115840   2.922   7.025  13.757
  130CHL1  H11A15841   3.026   6.984  13.762
  130CHL1  H11B15842   2.858   6.947  13.711
  130CHL1    C915843   2.920   7.154  13.670
  130CHL1    H915844   2.812   7.181  13.663
  130CHL1   C1015845   2.969   7.134  13.524
  130CHL1   C1915846   3.108   7.064  13.525
  130CHL1  H19A15847   3.100   6.961  13.566
  130CHL1  H19B15848   3.150   7.054  13.423
  130CHL1  H19C15849   3.180   7.121  13.587
  130CHL1    C115850   2.866   7.044  13.449
  130CHL1   H1A15851   2.867   6.942  13.492
  130CHL1   H1B15852   2.764   7.086  13.465
  130CHL1    C215853   2.889   7.032  13.297
  130CHL1   H2A15854   2.808   6.973  13.251
  130CHL1   H2B15855   2.985   6.978  13.279
  130CHL1   C2015856   2.939   7.136  14.234
  130CHL1   H2015857   3.050   7.130  14.240
  130CHL1   C2115858   2.882   6.993  14.228
  130CHL1  H21A15859   2.892   6.941  14.326
  130CHL1  H21B15860   2.937   6.932  14.153
  130CHL1  H21C15861   2.774   6.995  14.201
  130CHL1   C2215862   2.892   7.205  14.365
  130CHL1  H22A15863   2.905   7.315  14.360
  130CHL1  H22B15864   2.783   7.185  14.378
  130CHL1   C2315865   2.970   7.156  14.488
  130CHL1  H23A15866   2.964   7.045  14.496
  130CHL1  H23B15867   3.077   7.183  14.474
  130CHL1   C2415868   2.921   7.217  14.621
  130CHL1  H24A15869   2.911   7.327  14.607
  130CHL1  H24B15870   2.820   7.177  14.645
  130CHL1   C2515871   3.016   7.191  14.740
  130CHL1   H2515872   3.116   7.232  14.712
  130CHL1   C2615873   2.968   7.266  14.865
  130CHL1  H26A15874   2.869   7.226  14.897
  130CHL1  H26B15875   3.040   7.253  14.948
  130CHL1  H26C15876   2.957   7.374  14.843
  130CHL1   C2715877   3.033   7.041  14.770
  130CHL1  H27A15878   3.100   7.028  14.858
  130CHL1  H27B15879   2.935   6.995  14.794
  130CHL1  H27C15880   3.078   6.988  14.684
  131CHL1    C315881   1.032   5.532  13.243
  131CHL1    H315882   1.079   5.437  13.278
  131CHL1    O315883   1.012   5.525  13.103
  131CHL1   H3'15884   1.095   5.552  13.064
  131CHL1    C415885   0.896   5.550  13.312
  131CHL1   H4A15886   0.847   5.641  13.271
  131CHL1   H4B15887   0.831   5.464  13.284
  131CHL1    C515888   0.910   5.562  13.462
  131CHL1    C615889   0.844   5.480  13.545
  131CHL1    H615890   0.776   5.404  13.504
  131CHL1    C715891   0.851   5.488  13.695
  131CHL1   H7A15892   0.749   5.482  13.738
  131CHL1   H7B15893   0.908   5.400  13.732
  131CHL1    C815894   0.920   5.617  13.746
  131CHL1    H815895   0.848   5.701  13.739
  131CHL1   C1415896   0.960   5.597  13.891
  131CHL1   H1415897   1.031   5.512  13.891
  131CHL1   C1515898   0.849   5.557  13.988
  131CHL1  H15A15899   0.762   5.626  13.977
  131CHL1  H15B15900   0.814   5.453  13.970
  131CHL1   C1615901   0.915   5.576  14.125
  131CHL1  H16A15902   0.846   5.634  14.190
  131CHL1  H16B15903   0.937   5.478  14.172
  131CHL1   C1715904   1.049   5.654  14.102
  131CHL1   H1715905   1.129   5.577  14.095
  131CHL1   C1315906   1.035   5.713  13.959
  131CHL1   C1815907   0.946   5.840  13.965
  131CHL1  H18A15908   0.856   5.824  14.027
  131CHL1  H18B15909   1.004   5.924  14.008
  131CHL1  H18C15910   0.913   5.870  13.863
  131CHL1   C1215911   1.164   5.736  13.876
  131CHL1  H12A15912   1.221   5.823  13.915
  131CHL1  H12B15913   1.228   5.646  13.884
  131CHL1   C1115914   1.132   5.761  13.727
  131CHL1  H11A15915   1.079   5.859  13.719
  131CHL1  H11B15916   1.228   5.770  13.672
  131CHL1    C915917   1.045   5.649  13.663
  131CHL1    H915918   1.107   5.557  13.668
  131CHL1   C1015919   1.011   5.668  13.512
  131CHL1   C1915920   0.945   5.806  13.491
  131CHL1  H19A15921   1.014   5.888  13.519
  131CHL1  H19B15922   0.918   5.822  13.384
  131CHL1  H19C15923   0.852   5.816  13.551
  131CHL1    C115924   1.144   5.659  13.429
  131CHL1   H1A15925   1.207   5.747  13.452
  131CHL1   H1B15926   1.198   5.568  13.463
  131CHL1    C215927   1.125   5.649  13.277
  131CHL1   H2A15928   1.223   5.635  13.228
  131CHL1   H2B15929   1.080   5.743  13.239
  131CHL1   C2015930   1.086   5.745  14.221
  131CHL1   H2015931   1.004   5.819  14.238
  131CHL1   C2115932   1.215   5.825  14.189
  131CHL1  H21A15933   1.197   5.899  14.108
  131CHL1  H21B15934   1.296   5.756  14.158
  131CHL1  H21C15935   1.249   5.882  14.278
  131CHL1   C2215936   1.110   5.669  14.355
  131CHL1  H22A15937   1.178   5.583  14.336
  131CHL1  H22B15938   1.165   5.739  14.423
  131CHL1   C2315939   0.986   5.622  14.433
  131CHL1  H23A15940   0.915   5.707  14.444
  131CHL1  H23B15941   0.935   5.541  14.376
  131CHL1   C2415942   1.020   5.565  14.572
  131CHL1  H24A15943   1.094   5.484  14.561
  131CHL1  H24B15944   1.067   5.646  14.632
  131CHL1   C2515945   0.898   5.511  14.649
  131CHL1   H2515946   0.821   5.591  14.654
  131CHL1   C2615947   0.834   5.389  14.580
  131CHL1  H26A15948   0.791   5.417  14.481
  131CHL1  H26B15949   0.909   5.308  14.565
  131CHL1  H26C15950   0.752   5.348  14.643
  131CHL1   C2715951   0.936   5.474  14.793
  131CHL1  H27A15952   1.013   5.394  14.793
  131CHL1  H27B15953   0.978   5.563  14.846
  131CHL1  H27C15954   0.848   5.438  14.849
  132CHL1    C315955   4.139   7.796  13.247
  132CHL1    H315956   4.118   7.902  13.275
  132CHL1    O315957   4.114   7.781  13.108
  132CHL1   H3'15958   4.022   7.807  13.096
  132CHL1    C415959   4.287   7.763  13.277
  132CHL1   H4A15960   4.308   7.662  13.237
  132CHL1   H4B15961   4.350   7.834  13.219
  132CHL1    C515962   4.318   7.768  13.426
  132CHL1    C615963   4.414   7.848  13.475
  132CHL1    H615964   4.475   7.908  13.406
  132CHL1    C715965   4.451   7.855  13.621
  132CHL1   H7A15966   4.561   7.852  13.634
  132CHL1   H7B15967   4.416   7.952  13.662
  132CHL1    C815968   4.389   7.742  13.707
  132CHL1    H815969   4.449   7.649  13.690
  132CHL1   C1415970   4.392   7.780  13.855
  132CHL1   H1415971   4.325   7.868  13.863
  132CHL1   C1515972   4.525   7.826  13.917
  132CHL1  H15A15973   4.605   7.755  13.890
  132CHL1  H15B15974   4.553   7.928  13.883
  132CHL1   C1615975   4.497   7.820  14.068
  132CHL1  H16A15976   4.577   7.761  14.118
  132CHL1  H16B15977   4.493   7.922  14.114
  132CHL1   C1715978   4.358   7.750  14.085
  132CHL1   H1715979   4.282   7.830  14.088
  132CHL1   C1315980   4.334   7.677  13.951
  132CHL1   C1815981   4.417   7.546  13.949
  132CHL1  H18A15982   4.419   7.502  13.847
  132CHL1  H18B15983   4.522   7.563  13.981
  132CHL1  H18C15984   4.372   7.471  14.017
  132CHL1   C1215985   4.187   7.653  13.910
  132CHL1  H12A15986   4.140   7.574  13.972
  132CHL1  H12B15987   4.131   7.748  13.926
  132CHL1   C1115988   4.175   7.613  13.762
  132CHL1  H11A15989   4.220   7.513  13.750
  132CHL1  H11B15990   4.067   7.604  13.737
  132CHL1    C915991   4.243   7.715  13.666
  132CHL1    H915992   4.191   7.811  13.683
  132CHL1   C1015993   4.225   7.683  13.515
  132CHL1   C1915994   4.260   7.534  13.490
  132CHL1  H19A15995   4.187   7.468  13.542
  132CHL1  H19B15996   4.254   7.508  13.382
  132CHL1  H19C15997   4.362   7.511  13.526
  132CHL1    C115998   4.077   7.711  13.476
  132CHL1   H1A15999   4.010   7.639  13.528
  132CHL1   H1B16000   4.049   7.813  13.511
  132CHL1    C216001   4.046   7.704  13.325
  132CHL1   H2A16002   3.940   7.732  13.307
  132CHL1   H2B16003   4.060   7.599  13.290
  132CHL1   C2016004   4.347   7.673  14.218
  132CHL1   H2016005   4.426   7.594  14.220
  132CHL1   C2116006   4.211   7.603  14.232
  132CHL1  H21A16007   4.198   7.564  14.336
  132CHL1  H21B16008   4.203   7.516  14.163
  132CHL1  H21C16009   4.129   7.674  14.210
  132CHL1   C2216010   4.372   7.763  14.343
  132CHL1  H22A16011   4.370   7.697  14.432
  132CHL1  H22B16012   4.474   7.807  14.337
  132CHL1   C2316013   4.270   7.877  14.364
  132CHL1  H23A16014   4.267   7.940  14.272
  132CHL1  H23B16015   4.168   7.834  14.377
  132CHL1   C2416016   4.303   7.970  14.482
  132CHL1  H24A16017   4.404   8.013  14.465
  132CHL1  H24B16018   4.230   8.054  14.482
  132CHL1   C2516019   4.299   7.905  14.622
  132CHL1   H2516020   4.368   7.817  14.621
  132CHL1   C2616021   4.351   8.003  14.728
  132CHL1  H26A16022   4.352   7.955  14.828
  132CHL1  H26B16023   4.454   8.037  14.704
  132CHL1  H26C16024   4.285   8.092  14.733
  132CHL1   C2716025   4.159   7.855  14.660
  132CHL1  H27A16026   4.124   7.778  14.589
  132CHL1  H27B16027   4.160   7.811  14.762
  132CHL1  H27C16028   4.087   7.940  14.659
  133CHL1    C316029   0.998   2.621  13.196
  133CHL1    H316030   1.062   2.532  13.216
  133CHL1    O316031   0.987   2.639  13.056
  133CHL1   H3'16032   1.064   2.598  13.017
  133CHL1    C416033   0.858   2.599  13.257
  133CHL1   H4A16034   0.795   2.687  13.231
  133CHL1   H4B16035   0.813   2.512  13.206
  133CHL1    C516036   0.864   2.582  13.407
  133CHL1    C616037   0.817   2.471  13.466
  133CHL1    H616038   0.770   2.393  13.404
  133CHL1    C716039   0.819   2.447  13.614
  133CHL1   H7A16040   0.720   2.410  13.649
  133CHL1   H7B16041   0.894   2.368  13.636
  133CHL1    C816042   0.856   2.573  13.697
  133CHL1    H816043   0.766   2.637  13.705
  133CHL1   C1416044   0.903   2.530  13.836
  133CHL1   H1416045   0.996   2.472  13.819
  133CHL1   C1516046   0.812   2.435  13.916
  133CHL1  H15A16047   0.708   2.473  13.914
  133CHL1  H15B16048   0.814   2.332  13.876
  133CHL1   C1616049   0.870   2.444  14.058
  133CHL1  H16A16050   0.788   2.468  14.129
  133CHL1  H16B16051   0.917   2.348  14.089
  133CHL1   C1716052   0.977   2.559  14.057
  133CHL1   H1716053   1.074   2.510  14.034
  133CHL1   C1316054   0.943   2.643  13.932
  133CHL1   C1816055   0.821   2.734  13.964
  133CHL1  H18A16056   0.740   2.677  14.014
  133CHL1  H18B16057   0.852   2.816  14.031
  133CHL1  H18C16058   0.780   2.780  13.872
  133CHL1   C1216059   1.057   2.722  13.864
  133CHL1  H12A16060   1.085   2.811  13.924
  133CHL1  H12B16061   1.146   2.655  13.857
  133CHL1   C1116062   1.018   2.769  13.723
  133CHL1  H11A16063   0.937   2.845  13.733
  133CHL1  H11B16064   1.105   2.820  13.676
  133CHL1    C916065   0.969   2.653  13.631
  133CHL1    H916066   1.054   2.583  13.624
  133CHL1   C1016067   0.937   2.695  13.484
  133CHL1   C1916068   0.844   2.818  13.485
  133CHL1  H19A16069   0.751   2.798  13.541
  133CHL1  H19B16070   0.894   2.906  13.531
  133CHL1  H19C16071   0.816   2.849  13.382
  133CHL1    C116072   1.072   2.729  13.412
  133CHL1   H1A16073   1.113   2.823  13.456
  133CHL1   H1B16074   1.144   2.648  13.433
  133CHL1    C216075   1.063   2.745  13.259
  133CHL1   H2A16076   1.164   2.761  13.216
  133CHL1   H2B16077   1.001   2.834  13.235
  133CHL1   C2016078   0.992   2.625  14.195
  133CHL1   H2016079   0.897   2.673  14.224
  133CHL1   C2116080   1.102   2.734  14.192
  133CHL1  H21A16081   1.121   2.774  14.293
  133CHL1  H21B16082   1.070   2.819  14.129
  133CHL1  H21C16083   1.197   2.692  14.152
  133CHL1   C2216084   1.024   2.517  14.303
  133CHL1  H22A16085   0.941   2.444  14.307
  133CHL1  H22B16086   1.116   2.462  14.273
  133CHL1   C2316087   1.044   2.569  14.447
  133CHL1  H23A16088   1.138   2.627  14.453
  133CHL1  H23B16089   0.960   2.636  14.473
  133CHL1   C2416090   1.049   2.451  14.547
  133CHL1  H24A16091   0.951   2.401  14.546
  133CHL1  H24B16092   1.125   2.378  14.512
  133CHL1   C2516093   1.083   2.489  14.693
  133CHL1   H2516094   1.073   2.396  14.753
  133CHL1   C2616095   1.229   2.536  14.707
  133CHL1  H26A16096   1.245   2.630  14.650
  133CHL1  H26B16097   1.253   2.556  14.814
  133CHL1  H26C16098   1.299   2.459  14.669
  133CHL1   C2716099   0.986   2.592  14.751
  133CHL1  H27A16100   0.997   2.689  14.698
  133CHL1  H27B16101   0.881   2.558  14.739
  133CHL1  H27C16102   1.006   2.609  14.859
  134CHL1    C316103   7.592   2.746  13.213
  134CHL1    H316104   7.671   2.669  13.220
  134CHL1    O316105   7.551   2.756  13.077
  134CHL1   H3'16106   7.516   2.669  13.056
  134CHL1    C416107   7.471   2.707  13.298
  134CHL1   H4A16108   7.392   2.784  13.286
  134CHL1   H4B16109   7.429   2.612  13.258
  134CHL1    C516110   7.511   2.695  13.444
  134CHL1    C616111   7.495   2.579  13.509
  134CHL1    H616112   7.449   2.493  13.457
  134CHL1    C716113   7.530   2.559  13.653
  134CHL1   H7A16114   7.449   2.505  13.705
  134CHL1   H7B16115   7.621   2.495  13.659
  134CHL1    C816116   7.558   2.691  13.729
  134CHL1    H816117   7.460   2.738  13.751
  134CHL1   C1416118   7.631   2.660  13.858
  134CHL1   H1416119   7.730   2.619  13.828
  134CHL1   C1516120   7.571   2.551  13.948
  134CHL1  H15A16121   7.462   2.569  13.960
  134CHL1  H15B16122   7.586   2.449  13.906
  134CHL1   C1616123   7.643   2.572  14.081
  134CHL1  H16A16124   7.568   2.578  14.162
  134CHL1  H16B16125   7.713   2.488  14.103
  134CHL1   C1716126   7.723   2.706  14.070
  134CHL1   H1716127   7.826   2.679  14.040
  134CHL1   C1316128   7.661   2.779  13.948
  134CHL1   C1816129   7.530   2.849  13.993
  134CHL1  H18A16130   7.466   2.780  14.051
  134CHL1  H18B16131   7.554   2.937  14.056
  134CHL1  H18C16132   7.472   2.886  13.905
  134CHL1   C1216133   7.752   2.874  13.866
  134CHL1  H12A16134   7.773   2.967  13.922
  134CHL1  H12B16135   7.849   2.823  13.847
  134CHL1   C1116136   7.688   2.911  13.729
  134CHL1  H11A16137   7.600   2.976  13.751
  134CHL1  H11B16138   7.761   2.971  13.671
  134CHL1    C916139   7.643   2.787  13.645
  134CHL1    H916140   7.736   2.732  13.623
  134CHL1   C1016141   7.579   2.819  13.506
  134CHL1   C1916142   7.470   2.928  13.525
  134CHL1  H19A16143   7.417   2.950  13.430
  134CHL1  H19B16144   7.394   2.896  13.600
  134CHL1  H19C16145   7.515   3.024  13.559
  134CHL1    C116146   7.690   2.871  13.410
  134CHL1   H1A16147   7.724   2.971  13.445
  134CHL1   H1B16148   7.777   2.802  13.416
  134CHL1    C216149   7.648   2.881  13.261
  134CHL1   H2A16150   7.736   2.909  13.199
  134CHL1   H2B16151   7.570   2.959  13.250
  134CHL1   C2016152   7.732   2.779  14.206
  134CHL1   H2016153   7.630   2.809  14.237
  134CHL1   C2116154   7.820   2.905  14.195
  134CHL1  H21A16155   7.835   2.951  14.295
  134CHL1  H21B16156   7.772   2.981  14.130
  134CHL1  H21C16157   7.920   2.879  14.153
  134CHL1   C2216158   7.786   2.685  14.318
  134CHL1  H22A16159   7.733   2.588  14.315
  134CHL1  H22B16160   7.894   2.665  14.301
  134CHL1   C2316161   7.765   2.739  14.461
  134CHL1  H23A16162   7.837   2.821  14.482
  134CHL1  H23B16163   7.662   2.780  14.468
  134CHL1   C2416164   7.781   2.627  14.566
  134CHL1  H24A16165   7.706   2.548  14.545
  134CHL1  H24B16166   7.882   2.582  14.554
  134CHL1   C2516167   7.765   2.671  14.713
  134CHL1   H2516168   7.844   2.747  14.735
  134CHL1   C2616169   7.628   2.735  14.741
  134CHL1  H26A16170   7.619   2.761  14.848
  134CHL1  H26B16171   7.614   2.828  14.681
  134CHL1  H26C16172   7.546   2.664  14.715
  134CHL1   C2716173   7.786   2.551  14.806
  134CHL1  H27A16174   7.781   2.583  14.912
  134CHL1  H27B16175   7.707   2.474  14.789
  134CHL1  H27C16176   7.885   2.504  14.787
  135CHL1    C316177   7.961   3.557  13.237
  135CHL1    H316178   8.022   3.465  13.247
  135CHL1    O316179   7.941   3.585  13.100
  135CHL1   H3'16180   7.905   3.504  13.061
  135CHL1    C416181   7.824   3.536  13.305
  135CHL1   H4A16182   7.762   3.626  13.286
  135CHL1   H4B16183   7.773   3.451  13.255
  135CHL1    C516184   7.837   3.513  13.455
  135CHL1    C616185   7.786   3.404  13.514
  135CHL1    H616186   7.731   3.330  13.453
  135CHL1    C716187   7.793   3.377  13.661
  135CHL1   H7A16188   7.694   3.344  13.700
  135CHL1   H7B16189   7.865   3.294  13.679
  135CHL1    C816190   7.840   3.500  13.744
  135CHL1    H816191   7.753   3.570  13.752
  135CHL1   C1416192   7.884   3.456  13.882
  135CHL1   H1416193   7.972   3.390  13.866
  135CHL1   C1516194   7.785   3.371  13.965
  135CHL1  H15A16195   7.683   3.415  13.956
  135CHL1  H15B16196   7.782   3.266  13.930
  135CHL1   C1616197   7.837   3.385  14.108
  135CHL1  H16A16198   7.754   3.426  14.170
  135CHL1  H16B16199   7.870   3.287  14.151
  135CHL1   C1716200   7.956   3.486  14.104
  135CHL1   H1716201   8.048   3.426  14.086
  135CHL1   C1316202   7.933   3.567  13.975
  135CHL1   C1816203   7.821   3.671  14.001
  135CHL1  H18A16204   7.859   3.753  14.067
  135CHL1  H18B16205   7.787   3.718  13.906
  135CHL1  H18C16206   7.733   3.625  14.050
  135CHL1   C1216207   8.056   3.631  13.906
  135CHL1  H12A16208   8.095   3.717  13.964
  135CHL1  H12B16209   8.137   3.555  13.899
  135CHL1   C1116210   8.022   3.681  13.764
  135CHL1  H11A16211   7.953   3.768  13.775
  135CHL1  H11B16212   8.115   3.718  13.716
  135CHL1    C916213   7.956   3.572  13.674
  135CHL1    H916214   8.034   3.494  13.662
  135CHL1   C1016215   7.920   3.620  13.530
  135CHL1   C1916216   7.834   3.749  13.538
  135CHL1  H19A16217   7.744   3.733  13.601
  135CHL1  H19B16218   7.893   3.833  13.582
  135CHL1  H19C16219   7.802   3.782  13.438
  135CHL1    C116220   8.052   3.648  13.453
  135CHL1   H1A16221   8.104   3.735  13.499
  135CHL1   H1B16222   8.118   3.560  13.464
  135CHL1    C216223   8.035   3.674  13.302
  135CHL1   H2A16224   8.134   3.685  13.255
  135CHL1   H2B16225   7.978   3.767  13.285
  135CHL1   C2016226   7.976   3.559  14.239
  135CHL1   H2016227   7.887   3.620  14.262
  135CHL1   C2116228   8.098   3.654  14.232
  135CHL1  H21A16229   8.121   3.694  14.333
  135CHL1  H21B16230   8.075   3.741  14.167
  135CHL1  H21C16231   8.187   3.601  14.193
  135CHL1   C2216232   7.997   3.460  14.357
  135CHL1  H22A16233   8.036   3.363  14.319
  135CHL1  H22B16234   8.075   3.501  14.425
  135CHL1   C2316235   7.871   3.436  14.443
  135CHL1  H23A16236   7.841   3.533  14.490
  135CHL1  H23B16237   7.787   3.403  14.378
  135CHL1   C2416238   7.893   3.331  14.553
  135CHL1  H24A16239   7.919   3.234  14.505
  135CHL1  H24B16240   7.980   3.362  14.614
  135CHL1   C2516241   7.772   3.310  14.646
  135CHL1   H2516242   7.747   3.408  14.692
  135CHL1   C2616243   7.648   3.259  14.571
  135CHL1  H26A16244   7.614   3.334  14.496
  135CHL1  H26B16245   7.670   3.164  14.518
  135CHL1  H26C16246   7.564   3.242  14.642
  135CHL1   C2716247   7.808   3.212  14.759
  135CHL1  H27A16248   7.722   3.200  14.829
  135CHL1  H27B16249   7.833   3.112  14.717
  135CHL1  H27C16250   7.895   3.249  14.816
  136CHL1    C316251   6.083   0.489  13.214
  136CHL1    H316252   5.973   0.500  13.225
  136CHL1    O316253   6.114   0.466  13.077
  136CHL1   H3'16254   6.093   0.549  13.034
  136CHL1    C416255   6.153   0.618  13.260
  136CHL1   H4A16256   6.262   0.609  13.239
  136CHL1   H4B16257   6.116   0.702  13.197
  136CHL1    C516258   6.130   0.644  13.407
  136CHL1    C616259   6.074   0.759  13.449
  136CHL1    H616260   6.047   0.836  13.376
  136CHL1    C716261   6.052   0.793  13.594
  136CHL1   H7A16262   6.085   0.898  13.613
  136CHL1   H7B16263   5.943   0.787  13.617
  136CHL1    C816264   6.129   0.699  13.690
  136CHL1    H816265   6.236   0.729  13.686
  136CHL1   C1416266   6.076   0.714  13.832
  136CHL1   H1416267   5.970   0.679  13.828
  136CHL1   C1516268   6.069   0.856  13.890
  136CHL1  H15A16269   6.164   0.909  13.868
  136CHL1  H15B16270   5.985   0.915  13.847
  136CHL1   C1616271   6.053   0.833  14.041
  136CHL1  H16A16272   6.129   0.894  14.094
  136CHL1  H16B16273   5.952   0.861  14.076
  136CHL1   C1716274   6.077   0.680  14.066
  136CHL1   H1716275   5.977   0.632  14.068
  136CHL1   C1316276   6.145   0.628  13.937
  136CHL1   C1816277   6.297   0.662  13.943
  136CHL1  H18A16278   6.348   0.598  14.018
  136CHL1  H18B16279   6.347   0.645  13.846
  136CHL1  H18C16280   6.313   0.769  13.971
  136CHL1   C1216281   6.121   0.481  13.896
  136CHL1  H12A16282   6.171   0.411  13.966
  136CHL1  H12B16283   6.012   0.461  13.900
  136CHL1   C1116284   6.171   0.453  13.753
  136CHL1  H11A16285   6.282   0.458  13.756
  136CHL1  H11B16286   6.143   0.349  13.725
  136CHL1    C916287   6.116   0.552  13.646
  136CHL1    H916288   6.006   0.534  13.643
  136CHL1   C1016289   6.168   0.528  13.502
  136CHL1   C1916290   6.322   0.517  13.504
  136CHL1  H19A16291   6.367   0.607  13.551
  136CHL1  H19B16292   6.355   0.428  13.560
  136CHL1  H19C16293   6.365   0.508  13.401
  136CHL1    C116294   6.105   0.396  13.447
  136CHL1   H1A16295   6.145   0.310  13.506
  136CHL1   H1B16296   5.996   0.399  13.464
  136CHL1    C216297   6.130   0.369  13.298
  136CHL1   H2A16298   6.076   0.278  13.266
  136CHL1   H2B16299   6.239   0.353  13.281
  136CHL1   C2016300   6.144   0.653  14.202
  136CHL1   H2016301   6.244   0.701  14.202
  136CHL1   C2116302   6.163   0.502  14.225
  136CHL1  H21A16303   6.199   0.482  14.329
  136CHL1  H21B16304   6.239   0.460  14.156
  136CHL1  H21C16305   6.066   0.448  14.211
  136CHL1   C2216306   6.065   0.715  14.320
  136CHL1  H22A16307   6.030   0.818  14.295
  136CHL1  H22B16308   5.975   0.653  14.339
  136CHL1   C2316309   6.149   0.729  14.449
  136CHL1  H23A16310   6.183   0.629  14.484
  136CHL1  H23B16311   6.240   0.787  14.423
  136CHL1   C2416312   6.077   0.802  14.564
  136CHL1  H24A16313   6.148   0.814  14.648
  136CHL1  H24B16314   6.050   0.904  14.529
  136CHL1   C2516315   5.950   0.732  14.617
  136CHL1   H2516316   5.878   0.723  14.533
  136CHL1   C2616317   5.979   0.591  14.671
  136CHL1  H26A16318   6.056   0.596  14.751
  136CHL1  H26B16319   5.887   0.547  14.714
  136CHL1  H26C16320   6.016   0.525  14.590
  136CHL1   C2716321   5.884   0.819  14.726
  136CHL1  H27A16322   5.790   0.770  14.762
  136CHL1  H27B16323   5.953   0.831  14.812
  136CHL1  H27C16324   5.858   0.919  14.686
  137CHL1    C316325   0.443   1.857  13.240
  137CHL1    H316326   0.393   1.758  13.243
  137CHL1    O316327   0.450   1.902  13.105
  137CHL1   H3'16328   0.489   1.989  13.111
  137CHL1    C416329   0.363   1.959  13.322
  137CHL1   H4A16330   0.406   2.060  13.305
  137CHL1   H4B16331   0.260   1.961  13.282
  137CHL1    C516332   0.365   1.928  13.471
  137CHL1    C616333   0.251   1.911  13.540
  137CHL1    H616334   0.154   1.923  13.490
  137CHL1    C716335   0.246   1.886  13.688
  137CHL1   H7A16336   0.168   1.948  13.736
  137CHL1   H7B16337   0.220   1.779  13.707
  137CHL1    C816338   0.382   1.916  13.758
  137CHL1    H816339   0.393   2.027  13.763
  137CHL1   C1416340   0.382   1.860  13.900
  137CHL1   H1416341   0.375   1.750  13.888
  137CHL1   C1516342   0.265   1.898  13.992
  137CHL1  H15A16343   0.245   2.007  13.984
  137CHL1  H15B16344   0.172   1.843  13.967
  137CHL1   C1616345   0.317   1.863  14.132
  137CHL1  H16A16346   0.305   1.951  14.198
  137CHL1  H16B16347   0.262   1.777  14.176
  137CHL1   C1716348   0.469   1.827  14.117
  137CHL1   H1716349   0.474   1.717  14.104
  137CHL1   C1316350   0.510   1.886  13.979
  137CHL1   C1816351   0.535   2.038  13.996
  137CHL1  H18A16352   0.452   2.087  14.051
  137CHL1  H18B16353   0.629   2.056  14.053
  137CHL1  H18C16354   0.546   2.089  13.898
  137CHL1   C1216355   0.624   1.815  13.903
  137CHL1  H12A16356   0.722   1.831  13.952
  137CHL1  H12B16357   0.604   1.706  13.902
  137CHL1   C1116358   0.634   1.865  13.757
  137CHL1  H11A16359   0.669   1.971  13.762
  137CHL1  H11B16360   0.711   1.806  13.704
  137CHL1    C916361   0.499   1.857  13.679
  137CHL1    H916362   0.476   1.749  13.671
  137CHL1   C1016363   0.505   1.910  13.532
  137CHL1   C1916364   0.578   2.047  13.532
  137CHL1  H19A16365   0.576   2.095  13.432
  137CHL1  H19B16366   0.532   2.117  13.605
  137CHL1  H19C16367   0.685   2.034  13.558
  137CHL1    C116368   0.584   1.808  13.444
  137CHL1   H1A16369   0.689   1.802  13.481
  137CHL1   H1B16370   0.538   1.708  13.457
  137CHL1    C216371   0.586   1.842  13.294
  137CHL1   H2A16372   0.639   1.762  13.238
  137CHL1   H2B16373   0.642   1.937  13.279
  137CHL1   C2016374   0.550   1.861  14.243
  137CHL1   H2016375   0.545   1.971  14.261
  137CHL1   C2116376   0.698   1.822  14.225
  137CHL1  H21A16377   0.707   1.715  14.196
  137CHL1  H21B16378   0.756   1.839  14.318
  137CHL1  H21C16379   0.746   1.885  14.147
  137CHL1   C2216380   0.490   1.792  14.369
  137CHL1  H22A16381   0.385   1.827  14.383
  137CHL1  H22B16382   0.487   1.682  14.352
  137CHL1   C2316383   0.565   1.819  14.501
  137CHL1  H23A16384   0.665   1.771  14.496
  137CHL1  H23B16385   0.579   1.928  14.514
  137CHL1   C2416386   0.489   1.763  14.623
  137CHL1  H24A16387   0.391   1.815  14.630
  137CHL1  H24B16388   0.470   1.655  14.608
  137CHL1   C2516389   0.564   1.781  14.758
  137CHL1   H2516390   0.595   1.887  14.766
  137CHL1   C2616391   0.470   1.749  14.876
  137CHL1  H26A16392   0.381   1.815  14.873
  137CHL1  H26B16393   0.437   1.643  14.871
  137CHL1  H26C16394   0.523   1.766  14.972
  137CHL1   C2716395   0.689   1.692  14.766
  137CHL1  H27A16396   0.762   1.718  14.686
  137CHL1  H27B16397   0.739   1.705  14.864
  137CHL1  H27C16398   0.662   1.585  14.754
  138CHL1    C316399   7.516   1.207  13.180
  138CHL1    H316400   7.579   1.118  13.156
  138CHL1    O316401   7.461   1.258  13.059
  138CHL1   H3'16402   7.431   1.181  13.011
  138CHL1    C416403   7.403   1.165  13.276
  138CHL1   H4A16404   7.334   1.251  13.287
  138CHL1   H4B16405   7.344   1.084  13.226
  138CHL1    C516406   7.454   1.121  13.412
  138CHL1    C616407   7.422   1.002  13.466
  138CHL1    H616408   7.354   0.935  13.411
  138CHL1    C716409   7.466   0.957  13.603
  138CHL1   H7A16410   7.380   0.911  13.657
  138CHL1   H7B16411   7.545   0.879  13.593
  138CHL1    C816412   7.521   1.074  13.688
  138CHL1    H816413   7.434   1.137  13.716
  138CHL1   C1416414   7.590   1.024  13.815
  138CHL1   H1416415   7.675   0.961  13.782
  138CHL1   C1516416   7.507   0.935  13.909
  138CHL1  H15A16417   7.405   0.978  13.916
  138CHL1  H15B16418   7.501   0.830  13.873
  138CHL1   C1616419   7.578   0.947  14.045
  138CHL1  H16A16420   7.504   0.978  14.121
  138CHL1  H16B16421   7.624   0.851  14.076
  138CHL1   C1716422   7.689   1.057  14.030
  138CHL1   H1716423   7.783   1.003  14.005
  138CHL1   C1316424   7.649   1.135  13.902
  138CHL1   C1816425   7.538   1.237  13.941
  138CHL1  H18A16426   7.457   1.188  13.999
  138CHL1  H18B16427   7.581   1.318  14.003
  138CHL1  H18C16428   7.492   1.285  13.852
  138CHL1   C1216429   7.762   1.198  13.818
  138CHL1  H12A16430   7.816   1.277  13.874
  138CHL1  H12B16431   7.836   1.119  13.793
  138CHL1   C1116432   7.706   1.258  13.688
  138CHL1  H11A16433   7.646   1.347  13.716
  138CHL1  H11B16434   7.791   1.294  13.626
  138CHL1    C916435   7.619   1.158  13.604
  138CHL1    H916436   7.692   1.084  13.565
  138CHL1   C1016437   7.550   1.221  13.480
  138CHL1   C1916438   7.466   1.344  13.524
  138CHL1  H19A16439   7.393   1.317  13.604
  138CHL1  H19B16440   7.531   1.425  13.563
  138CHL1  H19C16441   7.409   1.387  13.439
  138CHL1    C116442   7.660   1.266  13.379
  138CHL1   H1A16443   7.720   1.348  13.424
  138CHL1   H1B16444   7.728   1.180  13.361
  138CHL1    C216445   7.605   1.314  13.244
  138CHL1   H2A16446   7.690   1.338  13.176
  138CHL1   H2B16447   7.546   1.407  13.258
  138CHL1   C2016448   7.713   1.137  14.159
  138CHL1   H2016449   7.622   1.195  14.182
  138CHL1   C2116450   7.831   1.235  14.142
  138CHL1  H21A16451   7.920   1.182  14.101
  138CHL1  H21B16452   7.860   1.280  14.239
  138CHL1  H21C16453   7.803   1.318  14.074
  138CHL1   C2216454   7.739   1.048  14.284
  138CHL1  H22A16455   7.669   0.962  14.284
  138CHL1  H22B16456   7.842   1.008  14.281
  138CHL1   C2316457   7.714   1.124  14.417
  138CHL1  H23A16458   7.788   1.206  14.427
  138CHL1  H23B16459   7.613   1.169  14.412
  138CHL1   C2416460   7.723   1.032  14.540
  138CHL1  H24A16461   7.652   0.947  14.526
  138CHL1  H24B16462   7.825   0.990  14.546
  138CHL1   C2516463   7.690   1.099  14.676
  138CHL1   H2516464   7.703   1.022  14.754
  138CHL1   C2616465   7.786   1.215  14.709
  138CHL1  H26A16466   7.891   1.179  14.705
  138CHL1  H26B16467   7.774   1.298  14.636
  138CHL1  H26C16468   7.765   1.254  14.810
  138CHL1   C2716469   7.543   1.147  14.683
  138CHL1  H27A16470   7.474   1.063  14.660
  138CHL1  H27B16471   7.520   1.185  14.784
  138CHL1  H27C16472   7.525   1.229  14.610
  139CHL1    C316473   0.141   7.168  13.254
  139CHL1    H316474   0.036   7.164  13.290
  139CHL1    O316475   0.141   7.177  13.112
  139CHL1   H3'16476   0.123   7.088  13.080
  139CHL1    C416477   0.211   7.292  13.313
  139CHL1   H4A16478   0.311   7.302  13.265
  139CHL1   H4B16479   0.152   7.381  13.282
  139CHL1    C516480   0.226   7.282  13.464
  139CHL1    C616481   0.176   7.376  13.546
  139CHL1    H616482   0.127   7.464  13.503
  139CHL1    C716483   0.189   7.373  13.695
  139CHL1   H7A16484   0.215   7.474  13.734
  139CHL1   H7B16485   0.093   7.343  13.740
  139CHL1    C816486   0.299   7.273  13.742
  139CHL1    H816487   0.397   7.319  13.719
  139CHL1   C1416488   0.287   7.248  13.892
  139CHL1   H1416489   0.190   7.196  13.907
  139CHL1   C1516490   0.279   7.370  13.985
  139CHL1  H15A16491   0.360   7.442  13.958
  139CHL1  H15B16492   0.181   7.423  13.979
  139CHL1   C1616493   0.305   7.310  14.124
  139CHL1  H16A16494   0.380   7.372  14.177
  139CHL1  H16B16495   0.212   7.307  14.184
  139CHL1   C1716496   0.359   7.165  14.103
  139CHL1   H1716497   0.273   7.097  14.119
  139CHL1   C1316498   0.393   7.156  13.952
  139CHL1   C1816499   0.535   7.216  13.929
  139CHL1  H18A16500   0.557   7.230  13.821
  139CHL1  H18B16501   0.545   7.315  13.980
  139CHL1  H18C16502   0.613   7.148  13.970
  139CHL1   C1216503   0.376   7.019  13.883
  139CHL1  H12A16504   0.454   6.947  13.917
  139CHL1  H12B16505   0.277   6.978  13.910
  139CHL1   C1116506   0.385   7.031  13.729
  139CHL1  H11A16507   0.490   7.057  13.705
  139CHL1  H11B16508   0.363   6.933  13.684
  139CHL1    C916509   0.288   7.139  13.669
  139CHL1    H916510   0.186   7.102  13.692
  139CHL1   C1016511   0.295   7.154  13.514
  139CHL1   C1916512   0.444   7.160  13.472
  139CHL1  H19A16513   0.498   7.240  13.527
  139CHL1  H19B16514   0.494   7.062  13.492
  139CHL1  H19C16515   0.456   7.179  13.363
  139CHL1    C116516   0.225   7.031  13.449
  139CHL1   H1A16517   0.281   6.939  13.476
  139CHL1   H1B16518   0.123   7.021  13.491
  139CHL1    C216519   0.213   7.039  13.295
  139CHL1   H2A16520   0.158   6.950  13.258
  139CHL1   H2B16521   0.315   7.037  13.250
  139CHL1   C2016522   0.467   7.127  14.206
  139CHL1   H2016523   0.555   7.194  14.190
  139CHL1   C2116524   0.513   6.981  14.188
  139CHL1  H21A16525   0.582   6.951  14.270
  139CHL1  H21B16526   0.566   6.967  14.092
  139CHL1  H21C16527   0.425   6.913  14.191
  139CHL1   C2216528   0.422   7.150  14.353
  139CHL1  H22A16529   0.362   7.244  14.362
  139CHL1  H22B16530   0.356   7.066  14.384
  139CHL1   C2316531   0.539   7.165  14.451
  139CHL1  H23A16532   0.597   7.070  14.455
  139CHL1  H23B16533   0.606   7.245  14.413
  139CHL1   C2416534   0.492   7.201  14.593
  139CHL1  H24A16535   0.427   7.292  14.587
  139CHL1  H24B16536   0.430   7.118  14.633
  139CHL1   C2516537   0.605   7.231  14.695
  139CHL1   H2516538   0.556   7.252  14.792
  139CHL1   C2616539   0.698   7.110  14.716
  139CHL1  H26A16540   0.754   7.088  14.622
  139CHL1  H26B16541   0.771   7.131  14.796
  139CHL1  H26C16542   0.639   7.020  14.744
  139CHL1   C2716543   0.686   7.356  14.657
  139CHL1  H27A16544   0.759   7.380  14.737
  139CHL1  H27B16545   0.742   7.339  14.563
  139CHL1  H27C16546   0.619   7.443  14.643
  140CHL1    C316547   7.917   0.463  13.231
  140CHL1    H316548   8.024   0.455  13.261
  140CHL1    O316549   7.910   0.471  13.089
  140CHL1   H3'16550   7.948   0.388  13.059
  140CHL1    C416551   7.839   0.340  13.279
  140CHL1   H4A16552   7.734   0.349  13.245
  140CHL1   H4B16553   7.882   0.250  13.229
  140CHL1    C516554   7.843   0.327  13.430
  140CHL1    C616555   7.891   0.216  13.489
  140CHL1    H616556   7.923   0.132  13.427
  140CHL1    C716557   7.896   0.195  13.638
  140CHL1   H7A16558   7.856   0.095  13.665
  140CHL1   H7B16559   8.002   0.199  13.671
  140CHL1    C816560   7.817   0.303  13.718
  140CHL1    H816561   7.709   0.277  13.711
  140CHL1   C1416562   7.861   0.301  13.863
  140CHL1   H1416563   7.969   0.328  13.861
  140CHL1   C1516564   7.854   0.167  13.940
  140CHL1  H15A16565   7.756   0.118  13.921
  140CHL1  H15B16566   7.936   0.099  13.910
  140CHL1   C1616567   7.864   0.209  14.088
  140CHL1  H16A16568   7.776   0.169  14.143
  140CHL1  H16B16569   7.957   0.170  14.136
  140CHL1   C1716570   7.865   0.365  14.088
  140CHL1   H1716571   7.971   0.392  14.071
  140CHL1   C1316572   7.796   0.405  13.955
  140CHL1   C1816573   7.643   0.381  13.961
  140CHL1  H18A16574   7.597   0.378  13.860
  140CHL1  H18B16575   7.618   0.285  14.013
  140CHL1  H18C16576   7.593   0.464  14.016
  140CHL1   C1216577   7.826   0.545  13.897
  140CHL1  H12A16578   7.774   0.623  13.957
  140CHL1  H12B16579   7.936   0.564  13.903
  140CHL1   C1116580   7.781   0.556  13.750
  140CHL1  H11A16581   7.670   0.552  13.748
  140CHL1  H11B16582   7.812   0.655  13.711
  140CHL1    C916583   7.839   0.443  13.659
  140CHL1    H916584   7.949   0.458  13.662
  140CHL1   C1016585   7.799   0.453  13.509
  140CHL1   C1916586   7.645   0.463  13.498
  140CHL1  H19A16587   7.595   0.378  13.548
  140CHL1  H19B16588   7.608   0.558  13.544
  140CHL1  H19C16589   7.612   0.465  13.392
  140CHL1    C116590   7.865   0.580  13.447
  140CHL1   H1A16591   7.817   0.671  13.491
  140CHL1   H1B16592   7.972   0.582  13.477
  140CHL1    C216593   7.859   0.590  13.294
  140CHL1   H2A16594   7.915   0.679  13.259
  140CHL1   H2B16595   7.753   0.601  13.261
  140CHL1   C2016596   7.834   0.432  14.224
  140CHL1   H2016597   7.902   0.381  14.295
  140CHL1   C2116598   7.691   0.407  14.276
  140CHL1  H21A16599   7.663   0.300  14.268
  140CHL1  H21B16600   7.617   0.468  14.220
  140CHL1  H21C16601   7.684   0.436  14.383
  140CHL1   C2216602   7.873   0.582  14.230
  140CHL1  H22A16603   7.973   0.595  14.184
  140CHL1  H22B16604   7.800   0.640  14.169
  140CHL1   C2316605   7.877   0.645  14.371
  140CHL1  H23A16606   7.910   0.750  14.360
  140CHL1  H23B16607   7.775   0.646  14.413
  140CHL1   C2416608   7.972   0.573  14.469
  140CHL1  H24A16609   7.928   0.474  14.494
  140CHL1  H24B16610   8.069   0.555  14.419
  140CHL1   C2516611   7.999   0.647  14.602
  140CHL1   H2516612   8.058   0.578  14.666
  140CHL1   C2616613   7.870   0.680  14.678
  140CHL1  H26A16614   7.808   0.589  14.692
  140CHL1  H26B16615   7.893   0.723  14.778
  140CHL1  H26C16616   7.810   0.755  14.622
  140CHL1   C2716617   8.084   0.773  14.582
  140CHL1  H27A16618   8.030   0.848  14.521
  140CHL1  H27B16619   8.109   0.819  14.680
  140CHL1  H27C16620   8.179   0.748  14.530
  141DOPC     N16621   4.310   3.063  17.077
  141DOPC   C1216622   4.391   2.933  17.068
  141DOPC  H12A16623   4.325   2.850  17.090
  141DOPC  H12B16624   4.465   2.933  17.145
  141DOPC   C1316625   4.223   3.079  16.956
  141DOPC  H13A16626   4.167   3.171  16.960
  141DOPC  H13B16627   4.284   3.082  16.867
  141DOPC  H13C16628   4.155   2.995  16.946
  141DOPC   C1416629   4.403   3.181  17.085
  141DOPC  H14A16630   4.473   3.178  17.003
  141DOPC  H14B16631   4.349   3.274  17.081
  141DOPC  H14C16632   4.461   3.180  17.177
  141DOPC   C1516633   4.224   3.061  17.199
  141DOPC  H15A16634   4.164   3.151  17.206
  141DOPC  H15B16635   4.284   3.058  17.289
  141DOPC  H15C16636   4.158   2.976  17.201
  141DOPC   C1116637   4.462   2.899  16.934
  141DOPC  H11A16638   4.511   2.800  16.946
  141DOPC  H11B16639   4.386   2.886  16.854
  141DOPC     P16640   4.554   3.088  16.772
  141DOPC   O1316641   4.629   3.210  16.808
  141DOPC   O1416642   4.414   3.099  16.727
  141DOPC   O1216643   4.563   2.995  16.900
  141DOPC   O1116644   4.640   3.001  16.670
  141DOPC    C116645   4.646   3.046  16.534
  141DOPC    HA16646   4.726   3.123  16.522
  141DOPC    HB16647   4.550   3.090  16.500
  141DOPC    C216648   4.674   2.928  16.436
  141DOPC    HS16649   4.778   2.893  16.450
  141DOPC   O2116650   4.651   2.970  16.300
  141DOPC   C2116651   4.743   3.051  16.251
  141DOPC   O2216652   4.849   3.078  16.304
  141DOPC   C2216653   4.693   3.107  16.118
  141DOPC   H2R16654   4.624   3.033  16.072
  141DOPC   H2S16655   4.782   3.120  16.052
  141DOPC    C316656   4.581   2.807  16.465
  141DOPC    HX16657   4.613   2.764  16.562
  141DOPC    HY16658   4.598   2.730  16.386
  141DOPC   O3116659   4.442   2.847  16.462
  141DOPC   C3116660   4.368   2.812  16.565
  141DOPC   O3216661   4.402   2.737  16.655
  141DOPC   C3216662   4.232   2.881  16.558
  141DOPC   H2X16663   4.195   2.888  16.663
  141DOPC   H2Y16664   4.247   2.984  16.520
  141DOPC   C2316665   4.622   3.243  16.136
  141DOPC   H3R16666   4.695   3.320  16.167
  141DOPC   H3S16667   4.545   3.234  16.216
  141DOPC   C2416668   4.550   3.290  16.009
  141DOPC   H4R16669   4.475   3.213  15.979
  141DOPC   H4S16670   4.624   3.297  15.926
  141DOPC   C2516671   4.480   3.425  16.028
  141DOPC   H5R16672   4.556   3.504  16.040
  141DOPC   H5S16673   4.421   3.421  16.122
  141DOPC   C2616674   4.384   3.462  15.914
  141DOPC   H6R16675   4.340   3.562  15.936
  141DOPC   H6S16676   4.300   3.389  15.913
  141DOPC   C2716677   4.449   3.467  15.775
  141DOPC   H7R16678   4.488   3.366  15.748
  141DOPC   H7S16679   4.535   3.536  15.778
  141DOPC   C2816680   4.354   3.515  15.663
  141DOPC   H8R16681   4.415   3.531  15.572
  141DOPC   H8S16682   4.313   3.615  15.691
  141DOPC   C2916683   4.241   3.418  15.638
  141DOPC   H9R16684   4.168   3.410  15.720
  141DOPC  C21016685   4.223   3.343  15.528
  141DOPC  H10R16686   4.137   3.274  15.524
  141DOPC  C21116687   4.312   3.340  15.406
  141DOPC  H11R16688   4.340   3.444  15.377
  141DOPC  H11S16689   4.258   3.296  15.320
  141DOPC  C21216690   4.443   3.260  15.428
  141DOPC  H12R16691   4.499   3.303  15.514
  141DOPC  H12S16692   4.506   3.274  15.338
  141DOPC  C21316693   4.420   3.110  15.451
  141DOPC  H13R16694   4.376   3.066  15.359
  141DOPC  H13S16695   4.346   3.097  15.533
  141DOPC  C21416696   4.548   3.034  15.490
  141DOPC  H14R16697   4.523   2.926  15.505
  141DOPC  H14S16698   4.584   3.074  15.587
  141DOPC  C21516699   4.663   3.045  15.388
  141DOPC  H15R16700   4.754   2.997  15.431
  141DOPC  H15S16701   4.687   3.152  15.372
  141DOPC  C21616702   4.633   2.977  15.253
  141DOPC  H16R16703   4.538   3.016  15.212
  141DOPC  H16S16704   4.620   2.868  15.271
  141DOPC  C21716705   4.744   2.998  15.149
  141DOPC  H17R16706   4.732   2.922  15.069
  141DOPC  H17S16707   4.843   2.980  15.197
  141DOPC  C21816708   4.743   3.137  15.083
  141DOPC  H18R16709   4.648   3.152  15.027
  141DOPC  H18S16710   4.828   3.147  15.012
  141DOPC  H18T16711   4.751   3.217  15.159
  141DOPC   C3316712   4.128   2.803  16.473
  141DOPC   H3X16713   4.029   2.850  16.488
  141DOPC   H3Y16714   4.121   2.698  16.509
  141DOPC   C3416715   4.157   2.803  16.321
  141DOPC   H4X16716   4.073   2.751  16.270
  141DOPC   H4Y16717   4.249   2.744  16.300
  141DOPC   C3516718   4.172   2.943  16.261
  141DOPC   H5X16719   4.268   2.987  16.296
  141DOPC   H5Y16720   4.090   3.008  16.298
  141DOPC   C3616721   4.170   2.943  16.107
  141DOPC   H6X16722   4.247   2.872  16.070
  141DOPC   H6Y16723   4.071   2.908  16.072
  141DOPC   C3716724   4.197   3.083  16.049
  141DOPC   H7X16725   4.128   3.155  16.099
  141DOPC   H7Y16726   4.301   3.114  16.076
  141DOPC   C3816727   4.176   3.093  15.897
  141DOPC   H8X16728   4.191   3.200  15.868
  141DOPC   H8Y16729   4.069   3.071  15.876
  141DOPC   C3916730   4.270   3.007  15.816
  141DOPC   H9X16731   4.377   3.026  15.835
  141DOPC  C31016732   4.236   2.912  15.727
  141DOPC  H10X16733   4.316   2.859  15.673
  141DOPC  C31116734   4.096   2.871  15.687
  141DOPC  H11X16735   4.022   2.904  15.762
  141DOPC  H11Y16736   4.089   2.760  15.683
  141DOPC  C31216737   4.053   2.928  15.550
  141DOPC  H12X16738   4.069   3.038  15.547
  141DOPC  H12Y16739   3.944   2.910  15.539
  141DOPC  C31316740   4.124   2.863  15.430
  141DOPC  H13X16741   4.231   2.892  15.428
  141DOPC  H13Y16742   4.120   2.752  15.443
  141DOPC  C31416743   4.057   2.898  15.296
  141DOPC  H14X16744   3.950   2.871  15.304
  141DOPC  H14Y16745   4.063   3.007  15.278
  141DOPC  C31516746   4.116   2.821  15.177
  141DOPC  H15X16747   4.042   2.819  15.094
  141DOPC  H15Y16748   4.134   2.716  15.208
  141DOPC  C31616749   4.247   2.880  15.121
  141DOPC  H16X16750   4.318   2.902  15.204
  141DOPC  H16Y16751   4.294   2.804  15.056
  141DOPC  C31716752   4.225   3.007  15.037
  141DOPC  H17X16753   4.143   2.988  14.965
  141DOPC  H17Y16754   4.193   3.090  15.103
  141DOPC  C31816755   4.350   3.049  14.959
  141DOPC  H18X16756   4.383   2.968  14.891
  141DOPC  H18Y16757   4.329   3.140  14.897
  141DOPC  H18Z16758   4.433   3.073  15.028
  142DOPC     N16759   4.847   3.548  16.982
  142DOPC   C1216760   4.898   3.610  16.852
  142DOPC  H12A16761   4.901   3.717  16.866
  142DOPC  H12B16762   4.828   3.591  16.772
  142DOPC   C1316763   4.728   3.626  17.030
  142DOPC  H13A16764   4.650   3.630  16.955
  142DOPC  H13B16765   4.686   3.583  17.120
  142DOPC  H13C16766   4.757   3.727  17.052
  142DOPC   C1416767   4.954   3.557  17.086
  142DOPC  H14A16768   5.045   3.513  17.050
  142DOPC  H14B16769   4.979   3.660  17.107
  142DOPC  H14C16770   4.926   3.510  17.180
  142DOPC   C1516771   4.812   3.404  16.959
  142DOPC  H15A16772   4.735   3.391  16.885
  142DOPC  H15B16773   4.778   3.358  17.051
  142DOPC  H15C16774   4.899   3.351  16.924
  142DOPC   C1116775   5.041   3.576  16.809
  142DOPC  H11A16776   5.068   3.472  16.837
  142DOPC  H11B16777   5.050   3.584  16.698
  142DOPC     P16778   5.260   3.648  16.936
  142DOPC   O1316779   5.257   3.509  16.990
  142DOPC   O1416780   5.280   3.755  17.037
  142DOPC   O1216781   5.122   3.676  16.869
  142DOPC   O1116782   5.363   3.664  16.817
  142DOPC    C116783   5.403   3.796  16.774
  142DOPC    HA16784   5.512   3.806  16.789
  142DOPC    HB16785   5.355   3.877  16.833
  142DOPC    C216786   5.370   3.827  16.625
  142DOPC    HS16787   5.389   3.936  16.613
  142DOPC   O2116788   5.233   3.794  16.597
  142DOPC   C2116789   5.177   3.861  16.499
  142DOPC   O2216790   5.225   3.955  16.439
  142DOPC   C2216791   5.039   3.801  16.468
  142DOPC   H2R16792   4.966   3.884  16.471
  142DOPC   H2S16793   5.013   3.729  16.548
  142DOPC    C316794   5.466   3.753  16.526
  142DOPC    HX16795   5.425   3.652  16.505
  142DOPC    HY16796   5.562   3.738  16.579
  142DOPC   O3116797   5.491   3.834  16.408
  142DOPC   C3116798   5.439   3.793  16.293
  142DOPC   O3216799   5.384   3.686  16.275
  142DOPC   C3216800   5.460   3.901  16.187
  142DOPC   H2X16801   5.410   3.994  16.223
  142DOPC   H2Y16802   5.569   3.921  16.183
  142DOPC   C2316803   5.035   3.732  16.329
  142DOPC   H3R16804   5.136   3.735  16.282
  142DOPC   H3S16805   4.969   3.791  16.262
  142DOPC   C2416806   4.989   3.585  16.332
  142DOPC   H4R16807   4.916   3.568  16.250
  142DOPC   H4S16808   4.937   3.564  16.427
  142DOPC   C2516809   5.105   3.485  16.313
  142DOPC   H5R16810   5.071   3.383  16.343
  142DOPC   H5S16811   5.189   3.514  16.379
  142DOPC   C2616812   5.156   3.477  16.167
  142DOPC   H6R16813   5.179   3.580  16.133
  142DOPC   H6S16814   5.075   3.438  16.102
  142DOPC   C2716815   5.283   3.393  16.150
  142DOPC   H7R16816   5.262   3.287  16.176
  142DOPC   H7S16817   5.360   3.431  16.221
  142DOPC   C2816818   5.339   3.403  16.006
  142DOPC   H8R16819   5.352   3.511  15.984
  142DOPC   H8S16820   5.261   3.365  15.937
  142DOPC   C2916821   5.466   3.326  15.980
  142DOPC   H9R16822   5.455   3.217  15.990
  142DOPC  C21016823   5.586   3.377  15.948
  142DOPC  H10R16824   5.670   3.307  15.930
  142DOPC  C21116825   5.622   3.523  15.933
  142DOPC  H11R16826   5.732   3.535  15.942
  142DOPC  H11S16827   5.578   3.581  16.016
  142DOPC  C21216828   5.578   3.588  15.800
  142DOPC  H12R16829   5.467   3.592  15.798
  142DOPC  H12S16830   5.610   3.526  15.713
  142DOPC  C21316831   5.634   3.731  15.784
  142DOPC  H13R16832   5.744   3.729  15.776
  142DOPC  H13S16833   5.610   3.786  15.878
  142DOPC  C21416834   5.574   3.809  15.666
  142DOPC  H14R16835   5.591   3.918  15.685
  142DOPC  H14S16836   5.464   3.793  15.663
  142DOPC  C21516837   5.636   3.775  15.530
  142DOPC  H15R16838   5.617   3.667  15.508
  142DOPC  H15S16839   5.746   3.790  15.535
  142DOPC  C21616840   5.579   3.863  15.417
  142DOPC  H16R16841   5.601   3.969  15.442
  142DOPC  H16S16842   5.468   3.852  15.414
  142DOPC  C21716843   5.637   3.832  15.278
  142DOPC  H17R16844   5.748   3.830  15.285
  142DOPC  H17S16845   5.609   3.915  15.210
  142DOPC  C21816846   5.586   3.701  15.217
  142DOPC  H18R16847   5.627   3.687  15.115
  142DOPC  H18S16848   5.476   3.701  15.211
  142DOPC  H18T16849   5.617   3.614  15.280
  142DOPC   C3316850   5.409   3.864  16.045
  142DOPC   H3X16851   5.442   3.761  16.019
  142DOPC   H3Y16852   5.457   3.934  15.973
  142DOPC   C3416853   5.257   3.874  16.027
  142DOPC   H4X16854   5.222   3.976  16.052
  142DOPC   H4Y16855   5.210   3.804  16.099
  142DOPC   C3516856   5.208   3.836  15.885
  142DOPC   H5X16857   5.099   3.815  15.891
  142DOPC   H5Y16858   5.260   3.742  15.855
  142DOPC   C3616859   5.230   3.945  15.780
  142DOPC   H6X16860   5.173   4.035  15.810
  142DOPC   H6Y16861   5.338   3.973  15.780
  142DOPC   C3716862   5.191   3.908  15.635
  142DOPC   H7X16863   5.221   3.994  15.572
  142DOPC   H7Y16864   5.252   3.821  15.601
  142DOPC   C3816865   5.042   3.877  15.610
  142DOPC   H8X16866   4.982   3.951  15.668
  142DOPC   H8Y16867   5.017   3.777  15.651
  142DOPC   C3916868   5.007   3.888  15.463
  142DOPC   H9X16869   5.065   3.965  15.410
  142DOPC  C31016870   4.916   3.818  15.391
  142DOPC  H10X16871   4.905   3.843  15.285
  142DOPC  C31116872   4.824   3.709  15.439
  142DOPC  H11X16873   4.733   3.754  15.485
  142DOPC  H11Y16874   4.872   3.650  15.520
  142DOPC  C31216875   4.777   3.613  15.327
  142DOPC  H12X16876   4.826   3.635  15.230
  142DOPC  H12Y16877   4.668   3.629  15.313
  142DOPC  C31316878   4.799   3.463  15.358
  142DOPC  H13X16879   4.783   3.445  15.467
  142DOPC  H13Y16880   4.724   3.403  15.303
  142DOPC  C31416881   4.939   3.413  15.316
  142DOPC  H14X16882   4.946   3.416  15.206
  142DOPC  H14Y16883   5.015   3.483  15.356
  142DOPC  C31516884   4.969   3.271  15.367
  142DOPC  H15X16885   4.904   3.197  15.316
  142DOPC  H15Y16886   4.944   3.268  15.475
  142DOPC  C31616887   5.116   3.229  15.352
  142DOPC  H16X16888   5.184   3.308  15.391
  142DOPC  H16Y16889   5.132   3.141  15.419
  142DOPC  C31716890   5.159   3.188  15.211
  142DOPC  H17X16891   5.239   3.111  15.220
  142DOPC  H17Y16892   5.074   3.139  15.158
  142DOPC  C31816893   5.215   3.302  15.126
  142DOPC  H18X16894   5.252   3.264  15.028
  142DOPC  H18Y16895   5.137   3.379  15.106
  142DOPC  H18Z16896   5.300   3.351  15.178
  143DOPC     N16897   2.799   4.091  17.089
  143DOPC   C1216898   2.929   4.015  17.067
  143DOPC  H12A16899   2.911   3.910  17.086
  143DOPC  H12B16900   3.003   4.047  17.139
  143DOPC   C1316901   2.690   4.020  17.015
  143DOPC  H13A16902   2.597   4.074  17.017
  143DOPC  H13B16903   2.721   4.010  16.912
  143DOPC  H13C16904   2.674   3.920  17.052
  143DOPC   C1416905   2.809   4.229  17.032
  143DOPC  H14A16906   2.887   4.286  17.080
  143DOPC  H14B16907   2.831   4.223  16.927
  143DOPC  H14C16908   2.716   4.283  17.043
  143DOPC   C1516909   2.765   4.097  17.235
  143DOPC  H15A16910   2.669   4.144  17.249
  143DOPC  H15B16911   2.838   4.155  17.289
  143DOPC  H15C16912   2.762   3.998  17.277
  143DOPC   C1116913   2.994   4.024  16.926
  143DOPC  H11A16914   3.031   4.128  16.912
  143DOPC  H11B16915   3.084   3.959  16.925
  143DOPC     P16916   2.897   4.067  16.689
  143DOPC   O1316917   3.031   4.067  16.628
  143DOPC   O1416918   2.838   4.197  16.729
  143DOPC   O1216919   2.904   3.981  16.823
  143DOPC   O1116920   2.795   3.986  16.599
  143DOPC    C116921   2.691   3.904  16.654
  143DOPC    HA16922   2.662   3.935  16.757
  143DOPC    HB16923   2.728   3.799  16.661
  143DOPC    C216924   2.559   3.906  16.570
  143DOPC    HS16925   2.490   3.830  16.612
  143DOPC   O2116926   2.585   3.878  16.431
  143DOPC   C2116927   2.627   3.757  16.403
  143DOPC   O2216928   2.630   3.661  16.478
  143DOPC   C2216929   2.667   3.752  16.255
  143DOPC   H2R16930   2.652   3.852  16.209
  143DOPC   H2S16931   2.600   3.679  16.206
  143DOPC    C316932   2.487   4.044  16.579
  143DOPC    HX16933   2.463   4.062  16.686
  143DOPC    HY16934   2.391   4.038  16.524
  143DOPC   O3116935   2.570   4.153  16.532
  143DOPC   C3116936   2.571   4.172  16.401
  143DOPC   O3216937   2.483   4.137  16.324
  143DOPC   C3216938   2.704   4.237  16.359
  143DOPC   H2X16939   2.760   4.263  16.452
  143DOPC   H2Y16940   2.764   4.160  16.306
  143DOPC   C2316941   2.814   3.707  16.240
  143DOPC   H3R16942   2.836   3.687  16.133
  143DOPC   H3S16943   2.829   3.613  16.296
  143DOPC   C2416944   2.915   3.811  16.292
  143DOPC   H4R16945   3.014   3.761  16.301
  143DOPC   H4S16946   2.887   3.847  16.393
  143DOPC   C2516947   2.934   3.931  16.199
  143DOPC   H5R16948   2.838   3.985  16.188
  143DOPC   H5S16949   2.963   3.893  16.098
  143DOPC   C2616950   3.042   4.028  16.251
  143DOPC   H6R16951   3.135   3.972  16.276
  143DOPC   H6S16952   3.005   4.072  16.346
  143DOPC   C2716953   3.076   4.140  16.151
  143DOPC   H7R16954   3.132   4.220  16.204
  143DOPC   H7S16955   2.979   4.184  16.118
  143DOPC   C2816956   3.158   4.092  16.031
  143DOPC   H8R16957   3.119   3.993  15.999
  143DOPC   H8S16958   3.263   4.074  16.064
  143DOPC   C2916959   3.155   4.190  15.916
  143DOPC   H9R16960   3.211   4.284  15.932
  143DOPC  C21016961   3.087   4.173  15.801
  143DOPC  H10R16962   3.090   4.251  15.724
  143DOPC  C21116963   3.004   4.051  15.769
  143DOPC  H11R16964   2.923   4.038  15.843
  143DOPC  H11S16965   3.067   3.960  15.775
  143DOPC  C21216966   2.941   4.055  15.628
  143DOPC  H12R16967   3.021   4.073  15.553
  143DOPC  H12S16968   2.869   4.139  15.621
  143DOPC  C21316969   2.871   3.924  15.592
  143DOPC  H13R16970   2.781   3.911  15.656
  143DOPC  H13S16971   2.940   3.839  15.615
  143DOPC  C21416972   2.831   3.915  15.444
  143DOPC  H14R16973   2.919   3.941  15.382
  143DOPC  H14S16974   2.751   3.990  15.424
  143DOPC  C21516975   2.782   3.775  15.405
  143DOPC  H15R16976   2.701   3.745  15.474
  143DOPC  H15S16977   2.865   3.702  15.418
  143DOPC  C21616978   2.729   3.766  15.261
  143DOPC  H16R16979   2.648   3.840  15.247
  143DOPC  H16S16980   2.685   3.665  15.245
  143DOPC  C21716981   2.838   3.788  15.154
  143DOPC  H17R16982   2.920   3.715  15.170
  143DOPC  H17S16983   2.881   3.890  15.166
  143DOPC  C21816984   2.785   3.774  15.011
  143DOPC  H18R16985   2.866   3.791  14.937
  143DOPC  H18S16986   2.704   3.847  14.991
  143DOPC  H18T16987   2.745   3.671  14.994
  143DOPC   C3316988   2.691   4.365  16.272
  143DOPC   H3X16989   2.792   4.410  16.261
  143DOPC   H3Y16990   2.628   4.439  16.326
  143DOPC   C3416991   2.634   4.343  16.131
  143DOPC   H4X16992   2.615   4.443  16.085
  143DOPC   H4Y16993   2.535   4.293  16.139
  143DOPC   C3516994   2.726   4.264  16.037
  143DOPC   H5X16995   2.752   4.166  16.084
  143DOPC   H5Y16996   2.821   4.320  16.026
  143DOPC   C3616997   2.668   4.238  15.897
  143DOPC   H6X16998   2.640   4.335  15.852
  143DOPC   H6Y16999   2.747   4.193  15.833
  143DOPC   C3717000   2.545   4.145  15.895
  143DOPC   H7X17001   2.468   4.185  15.964
  143DOPC   H7Y17002   2.501   4.146  15.793
  143DOPC   C3817003   2.578   3.999  15.932
  143DOPC   H8X17004   2.633   3.998  16.028
  143DOPC   H8Y17005   2.648   3.958  15.856
  143DOPC   C3917006   2.453   3.915  15.947
  143DOPC   H9X17007   2.400   3.931  16.041
  143DOPC  C31017008   2.403   3.827  15.858
  143DOPC  H10X17009   2.310   3.774  15.884
  143DOPC  C31117010   2.459   3.791  15.722
  143DOPC  H11X17011   2.487   3.684  15.720
  143DOPC  H11Y17012   2.550   3.850  15.698
  143DOPC  C31217013   2.355   3.817  15.611
  143DOPC  H12X17014   2.327   3.925  15.612
  143DOPC  H12Y17015   2.263   3.758  15.631
  143DOPC  C31317016   2.408   3.780  15.471
  143DOPC  H13X17017   2.497   3.843  15.448
  143DOPC  H13Y17018   2.441   3.674  15.473
  143DOPC  C31417019   2.304   3.797  15.360
  143DOPC  H14X17020   2.343   3.750  15.267
  143DOPC  H14Y17021   2.211   3.743  15.388
  143DOPC  C31517022   2.271   3.944  15.328
  143DOPC  H15X17023   2.363   3.996  15.293
  143DOPC  H15Y17024   2.237   3.995  15.421
  143DOPC  C31617025   2.161   3.957  15.223
  143DOPC  H16X17026   2.192   3.907  15.129
  143DOPC  H16Y17027   2.070   3.905  15.260
  143DOPC  C31717028   2.124   4.103  15.192
  143DOPC  H17X17029   2.106   4.156  15.288
  143DOPC  H17Y17030   2.211   4.152  15.143
  143DOPC  C31817031   2.001   4.115  15.102
  143DOPC  H18X17032   2.018   4.066  15.004
  143DOPC  H18Y17033   1.914   4.067  15.151
  143DOPC  H18Z17034   1.976   4.222  15.084
  144DOPC     N17035   3.452   2.883  16.837
  144DOPC   C1217036   3.583   2.813  16.804
  144DOPC  H12A17037   3.645   2.878  16.744
  144DOPC  H12B17038   3.561   2.725  16.744
  144DOPC   C1317039   3.475   2.983  16.946
  144DOPC  H13A17040   3.517   2.933  17.032
  144DOPC  H13B17041   3.543   3.062  16.916
  144DOPC  H13C17042   3.382   3.028  16.979
  144DOPC   C1417043   3.355   2.782  16.891
  144DOPC  H14A17044   3.326   2.709  16.817
  144DOPC  H14B17045   3.403   2.729  16.972
  144DOPC  H14C17046   3.267   2.829  16.932
  144DOPC   C1517047   3.392   2.949  16.717
  144DOPC  H15A17048   3.298   2.996  16.744
  144DOPC  H15B17049   3.371   2.878  16.638
  144DOPC  H15C17050   3.457   3.026  16.678
  144DOPC   C1117051   3.670   2.764  16.923
  144DOPC  H11A17052   3.754   2.703  16.882
  144DOPC  H11B17053   3.716   2.851  16.975
  144DOPC     P17054   3.644   2.563  17.091
  144DOPC   O1317055   3.545   2.531  17.197
  144DOPC   O1417056   3.784   2.588  17.133
  144DOPC   O1217057   3.591   2.691  17.017
  144DOPC   O1117058   3.638   2.454  16.976
  144DOPC    C117059   3.528   2.457  16.883
  144DOPC    HA17060   3.543   2.538  16.809
  144DOPC    HB17061   3.432   2.474  16.936
  144DOPC    C217062   3.512   2.325  16.803
  144DOPC    HS17063   3.498   2.244  16.878
  144DOPC   O2117064   3.629   2.302  16.722
  144DOPC   C2117065   3.642   2.176  16.682
  144DOPC   O2217066   3.575   2.082  16.719
  144DOPC   C2217067   3.756   2.166  16.581
  144DOPC   H2R17068   3.793   2.061  16.582
  144DOPC   H2S17069   3.837   2.233  16.617
  144DOPC    C317070   3.386   2.333  16.711
  144DOPC    HX17071   3.298   2.349  16.777
  144DOPC    HY17072   3.373   2.234  16.662
  144DOPC   O3117073   3.398   2.444  16.618
  144DOPC   C3117074   3.395   2.413  16.488
  144DOPC   O3217075   3.367   2.304  16.442
  144DOPC   C3217076   3.435   2.537  16.406
  144DOPC   H2X17077   3.383   2.625  16.449
  144DOPC   H2Y17078   3.545   2.550  16.419
  144DOPC   C2317079   3.712   2.207  16.439
  144DOPC   H3R17080   3.804   2.224  16.379
  144DOPC   H3S17081   3.656   2.303  16.441
  144DOPC   C2417082   3.629   2.099  16.366
  144DOPC   H4R17083   3.539   2.074  16.426
  144DOPC   H4S17084   3.690   2.007  16.357
  144DOPC   C2517085   3.583   2.142  16.225
  144DOPC   H5R17086   3.507   2.223  16.235
  144DOPC   H5S17087   3.533   2.055  16.177
  144DOPC   C2617088   3.697   2.190  16.135
  144DOPC   H6R17089   3.775   2.111  16.133
  144DOPC   H6S17090   3.743   2.282  16.177
  144DOPC   C2717091   3.656   2.219  15.990
  144DOPC   H7R17092   3.577   2.297  15.987
  144DOPC   H7S17093   3.613   2.127  15.947
  144DOPC   C2817094   3.777   2.266  15.906
  144DOPC   H8R17095   3.865   2.205  15.935
  144DOPC   H8S17096   3.801   2.371  15.935
  144DOPC   C2917097   3.757   2.254  15.757
  144DOPC   H9R17098   3.783   2.156  15.714
  144DOPC  C21017099   3.713   2.350  15.673
  144DOPC  H10R17100   3.705   2.327  15.566
  144DOPC  C21117101   3.674   2.490  15.711
  144DOPC  H11R17102   3.645   2.497  15.818
  144DOPC  H11S17103   3.583   2.519  15.653
  144DOPC  C21217104   3.785   2.594  15.685
  144DOPC  H12R17105   3.871   2.572  15.753
  144DOPC  H12S17106   3.747   2.695  15.713
  144DOPC  C21317107   3.838   2.600  15.540
  144DOPC  H13R17108   3.882   2.501  15.514
  144DOPC  H13S17109   3.921   2.673  15.535
  144DOPC  C21417110   3.732   2.638  15.436
  144DOPC  H14R17111   3.754   2.739  15.396
  144DOPC  H14S17112   3.632   2.644  15.483
  144DOPC  C21517113   3.725   2.537  15.320
  144DOPC  H15R17114   3.718   2.435  15.363
  144DOPC  H15S17115   3.820   2.542  15.261
  144DOPC  C21617116   3.605   2.558  15.227
  144DOPC  H16R17117   3.512   2.547  15.288
  144DOPC  H16S17118   3.604   2.476  15.152
  144DOPC  C21717119   3.600   2.693  15.154
  144DOPC  H17R17120   3.595   2.775  15.229
  144DOPC  H17S17121   3.506   2.697  15.095
  144DOPC  C21817122   3.718   2.718  15.060
  144DOPC  H18R17123   3.814   2.723  15.117
  144DOPC  H18S17124   3.705   2.814  15.006
  144DOPC  H18T17125   3.726   2.637  14.985
  144DOPC   C3317126   3.402   2.527  16.255
  144DOPC   H3X17127   3.292   2.521  16.241
  144DOPC   H3Y17128   3.446   2.434  16.212
  144DOPC   C3417129   3.456   2.648  16.177
  144DOPC   H4X17130   3.567   2.648  16.185
  144DOPC   H4Y17131   3.418   2.741  16.224
  144DOPC   C3517132   3.418   2.650  16.027
  144DOPC   H5X17133   3.308   2.661  16.017
  144DOPC   H5Y17134   3.448   2.555  15.980
  144DOPC   C3617135   3.488   2.767  15.954
  144DOPC   H6X17136   3.461   2.863  16.003
  144DOPC   H6Y17137   3.597   2.752  15.967
  144DOPC   C3717138   3.459   2.777  15.803
  144DOPC   H7X17139   3.539   2.842  15.761
  144DOPC   H7Y17140   3.468   2.677  15.756
  144DOPC   C3817141   3.321   2.838  15.768
  144DOPC   H8X17142   3.303   2.924  15.836
  144DOPC   H8Y17143   3.243   2.762  15.791
  144DOPC   C3917144   3.317   2.886  15.625
  144DOPC   H9X17145   3.386   2.968  15.602
  144DOPC  C31017146   3.240   2.838  15.525
  144DOPC  H10X17147   3.250   2.882  15.424
  144DOPC  C31117148   3.141   2.725  15.536
  144DOPC  H11X17149   3.061   2.735  15.459
  144DOPC  H11Y17150   3.089   2.730  15.634
  144DOPC  C31217151   3.207   2.587  15.525
  144DOPC  H12X17152   3.134   2.512  15.562
  144DOPC  H12Y17153   3.295   2.582  15.592
  144DOPC  C31317154   3.248   2.545  15.383
  144DOPC  H13X17155   3.298   2.629  15.331
  144DOPC  H13Y17156   3.321   2.462  15.392
  144DOPC  C31417157   3.130   2.493  15.299
  144DOPC  H14X17158   3.074   2.418  15.360
  144DOPC  H14Y17159   3.060   2.577  15.277
  144DOPC  C31517160   3.173   2.426  15.168
  144DOPC  H15X17161   3.247   2.346  15.192
  144DOPC  H15Y17162   3.224   2.501  15.104
  144DOPC  C31617163   3.055   2.364  15.092
  144DOPC  H16X17164   3.002   2.293  15.159
  144DOPC  H16Y17165   2.983   2.443  15.064
  144DOPC  C31717166   3.098   2.289  14.965
  144DOPC  H17X17167   3.147   2.361  14.896
  144DOPC  H17Y17168   3.174   2.212  14.992
  144DOPC  C31817169   2.982   2.221  14.892
  144DOPC  H18X17170   2.932   2.146  14.959
  144DOPC  H18Y17171   2.906   2.296  14.861
  144DOPC  H18Z17172   3.018   2.168  14.801
  145DOPC     N17173   4.295   6.081  17.099
  145DOPC   C1217174   4.403   6.121  16.999
  145DOPC  H12A17175   4.475   6.040  16.994
  145DOPC  H12B17176   4.454   6.208  17.036
  145DOPC   C1317177   4.269   5.934  17.088
  145DOPC  H13A17178   4.354   5.876  17.122
  145DOPC  H13B17179   4.183   5.903  17.144
  145DOPC  H13C17180   4.255   5.908  16.984
  145DOPC   C1417181   4.169   6.156  17.069
  145DOPC  H14A17182   4.141   6.137  16.967
  145DOPC  H14B17183   4.088   6.127  17.135
  145DOPC  H14C17184   4.184   6.263  17.080
  145DOPC   C1517185   4.336   6.112  17.240
  145DOPC  H15A17186   4.348   6.219  17.254
  145DOPC  H15B17187   4.429   6.062  17.266
  145DOPC  H15C17188   4.260   6.079  17.309
  145DOPC   C1117189   4.359   6.152  16.852
  145DOPC  H11A17190   4.315   6.254  16.851
  145DOPC  H11B17191   4.450   6.157  16.788
  145DOPC     P17192   4.297   5.932  16.719
  145DOPC   O1317193   4.175   5.890  16.645
  145DOPC   O1417194   4.343   5.829  16.815
  145DOPC   O1217195   4.262   6.061  16.801
  145DOPC   O1117196   4.412   5.974  16.618
  145DOPC    C117197   4.377   6.060  16.508
  145DOPC    HA17198   4.360   6.164  16.544
  145DOPC    HB17199   4.284   6.026  16.457
  145DOPC    C217200   4.489   6.067  16.399
  145DOPC    HS17201   4.455   6.140  16.322
  145DOPC   O2117202   4.512   5.937  16.340
  145DOPC   C2117203   4.426   5.902  16.247
  145DOPC   O2217204   4.329   5.968  16.211
  145DOPC   C2217205   4.465   5.767  16.188
  145DOPC   H2R17206   4.383   5.696  16.213
  145DOPC   H2S17207   4.559   5.731  16.236
  145DOPC    C317208   4.624   6.120  16.454
  145DOPC    HX17209   4.662   6.043  16.525
  145DOPC    HY17210   4.607   6.213  16.513
  145DOPC   O3117211   4.721   6.139  16.349
  145DOPC   C3117212   4.703   6.250  16.277
  145DOPC   O3217213   4.627   6.340  16.306
  145DOPC   C3217214   4.790   6.244  16.151
  145DOPC   H2X17215   4.894   6.269  16.180
  145DOPC   H2Y17216   4.788   6.140  16.112
  145DOPC   C2317217   4.483   5.772  16.035
  145DOPC   H3R17218   4.395   5.820  15.987
  145DOPC   H3S17219   4.489   5.668  15.996
  145DOPC   C2417220   4.612   5.844  15.992
  145DOPC   H4R17221   4.698   5.796  16.042
  145DOPC   H4S17222   4.609   5.950  16.026
  145DOPC   C2517223   4.636   5.841  15.840
  145DOPC   H5R17224   4.628   5.737  15.803
  145DOPC   H5S17225   4.740   5.876  15.820
  145DOPC   C2617226   4.540   5.932  15.761
  145DOPC   H6R17227   4.549   6.035  15.802
  145DOPC   H6S17228   4.435   5.899  15.776
  145DOPC   C2717229   4.571   5.938  15.611
  145DOPC   H7R17230   4.682   5.937  15.599
  145DOPC   H7S17231   4.536   6.034  15.568
  145DOPC   C2817232   4.513   5.821  15.528
  145DOPC   H8R17233   4.556   5.728  15.571
  145DOPC   H8S17234   4.556   5.829  15.425
  145DOPC   C2917235   4.363   5.803  15.515
  145DOPC   H9R17236   4.335   5.698  15.496
  145DOPC  C21017237   4.263   5.893  15.523
  145DOPC  H10R17238   4.160   5.857  15.511
  145DOPC  C21117239   4.273   6.042  15.546
  145DOPC  H11R17240   4.339   6.088  15.470
  145DOPC  H11S17241   4.318   6.062  15.645
  145DOPC  C21217242   4.136   6.113  15.543
  145DOPC  H12R17243   4.152   6.220  15.569
  145DOPC  H12S17244   4.071   6.070  15.623
  145DOPC  C21317245   4.061   6.107  15.409
  145DOPC  H13R17246   3.963   6.160  15.420
  145DOPC  H13S17247   4.039   6.002  15.383
  145DOPC  C21417248   4.138   6.173  15.293
  145DOPC  H14R17249   4.231   6.115  15.273
  145DOPC  H14S17250   4.168   6.275  15.324
  145DOPC  C21517251   4.056   6.183  15.163
  145DOPC  H15R17252   4.119   6.233  15.085
  145DOPC  H15S17253   3.969   6.249  15.181
  145DOPC  C21617254   4.006   6.049  15.106
  145DOPC  H16R17255   3.945   6.070  15.016
  145DOPC  H16S17256   3.939   6.000  15.181
  145DOPC  C21717257   4.118   5.952  15.068
  145DOPC  H17R17258   4.181   5.931  15.157
  145DOPC  H17S17259   4.183   6.001  14.992
  145DOPC  C21817260   4.067   5.819  15.011
  145DOPC  H18R17261   4.004   5.837  14.921
  145DOPC  H18S17262   4.006   5.765  15.087
  145DOPC  H18T17263   4.153   5.754  14.982
  145DOPC   C3317264   4.743   6.342  16.040
  145DOPC   H3X17265   4.818   6.341  15.959
  145DOPC   H3Y17266   4.738   6.445  16.080
  145DOPC   C3417267   4.607   6.303  15.980
  145DOPC   H4X17268   4.529   6.307  16.060
  145DOPC   H4Y17269   4.612   6.198  15.943
  145DOPC   C3517270   4.563   6.395  15.865
  145DOPC   H5X17271   4.633   6.383  15.780
  145DOPC   H5Y17272   4.569   6.500  15.900
  145DOPC   C3617273   4.420   6.364  15.819
  145DOPC   H6X17274   4.414   6.257  15.791
  145DOPC   H6Y17275   4.351   6.380  15.905
  145DOPC   C3717276   4.371   6.449  15.700
  145DOPC   H7X17277   4.433   6.425  15.611
  145DOPC   H7Y17278   4.267   6.418  15.677
  145DOPC   C3817279   4.375   6.601  15.726
  145DOPC   H8X17280   4.481   6.635  15.721
  145DOPC   H8Y17281   4.342   6.619  15.830
  145DOPC   C3917282   4.289   6.682  15.632
  145DOPC   H9X17283   4.201   6.728  15.678
  145DOPC  C31017284   4.310   6.702  15.500
  145DOPC  H10X17285   4.237   6.762  15.443
  145DOPC  C31117286   4.424   6.646  15.419
  145DOPC  H11X17287   4.509   6.619  15.484
  145DOPC  H11Y17288   4.462   6.722  15.347
  145DOPC  C31217289   4.381   6.520  15.341
  145DOPC  H12X17290   4.304   6.545  15.264
  145DOPC  H12Y17291   4.334   6.448  15.411
  145DOPC  C31317292   4.499   6.450  15.274
  145DOPC  H13X17293   4.529   6.505  15.182
  145DOPC  H13Y17294   4.586   6.453  15.343
  145DOPC  C31417295   4.470   6.303  15.242
  145DOPC  H14X17296   4.439   6.252  15.336
  145DOPC  H14Y17297   4.385   6.296  15.170
  145DOPC  C31517298   4.592   6.231  15.184
  145DOPC  H15X17299   4.680   6.259  15.246
  145DOPC  H15Y17300   4.611   6.269  15.082
  145DOPC  C31617301   4.581   6.078  15.183
  145DOPC  H16X17302   4.681   6.035  15.166
  145DOPC  H16Y17303   4.547   6.043  15.283
  145DOPC  C31717304   4.486   6.025  15.075
  145DOPC  H17X17305   4.385   6.068  15.091
  145DOPC  H17Y17306   4.522   6.060  14.976
  145DOPC  C31817307   4.476   5.872  15.074
  145DOPC  H18X17308   4.437   5.835  15.172
  145DOPC  H18Y17309   4.407   5.838  14.994
  145DOPC  H18Z17310   4.576   5.827  15.057
  146DOPC     N17311   5.849   2.991  17.072
  146DOPC   C1217312   5.959   2.933  16.984
  146DOPC  H12A17313   5.917   2.851  16.928
  146DOPC  H12B17314   6.035   2.893  17.050
  146DOPC   C1317315   5.821   2.900  17.188
  146DOPC  H13A17316   5.906   2.893  17.253
  146DOPC  H13B17317   5.739   2.939  17.247
  146DOPC  H13C17318   5.793   2.801  17.155
  146DOPC   C1417319   5.722   3.006  16.993
  146DOPC  H14A17320   5.738   3.070  16.908
  146DOPC  H14B17321   5.685   2.912  16.956
  146DOPC  H14C17322   5.645   3.054  17.052
  146DOPC   C1517323   5.888   3.126  17.124
  146DOPC  H15A17324   5.978   3.122  17.185
  146DOPC  H15B17325   5.810   3.171  17.183
  146DOPC  H15C17326   5.908   3.193  17.042
  146DOPC   C1117327   6.031   3.024  16.881
  146DOPC  H11A17328   6.085   3.106  16.934
  146DOPC  H11B17329   6.110   2.964  16.831
  146DOPC     P17330   5.893   3.222  16.774
  146DOPC   O1317331   5.962   3.299  16.880
  146DOPC   O1417332   5.745   3.216  16.779
  146DOPC   O1217333   5.943   3.071  16.780
  146DOPC   O1117334   5.941   3.268  16.631
  146DOPC    C117335   5.883   3.209  16.514
  146DOPC    HA17336   5.801   3.274  16.476
  146DOPC    HB17337   5.839   3.109  16.535
  146DOPC    C217338   5.990   3.192  16.403
  146DOPC    HS17339   6.088   3.181  16.455
  146DOPC   O2117340   5.986   3.307  16.317
  146DOPC   C2117341   6.099   3.338  16.257
  146DOPC   O2217342   6.208   3.286  16.275
  146DOPC   C2217343   6.070   3.447  16.153
  146DOPC   H2R17344   6.044   3.540  16.207
  146DOPC   H2S17345   5.982   3.413  16.094
  146DOPC    C317346   5.965   3.063  16.320
  146DOPC    HX17347   5.878   3.084  16.254
  146DOPC    HY17348   5.937   2.981  16.390
  146DOPC   O3117349   6.084   3.024  16.249
  146DOPC   C3117350   6.066   2.966  16.132
  146DOPC   O3217351   5.959   2.935  16.083
  146DOPC   C3217352   6.203   2.938  16.070
  146DOPC   H2X17353   6.279   3.002  16.119
  146DOPC   H2Y17354   6.227   2.831  16.091
  146DOPC   C2317355   6.191   3.471  16.060
  146DOPC   H3R17356   6.228   3.374  16.020
  146DOPC   H3S17357   6.274   3.516  16.118
  146DOPC   C2417358   6.160   3.562  15.939
  146DOPC   H4R17359   6.254   3.575  15.881
  146DOPC   H4S17360   6.129   3.662  15.975
  146DOPC   C2517361   6.053   3.505  15.845
  146DOPC   H5R17362   5.955   3.508  15.896
  146DOPC   H5S17363   6.076   3.398  15.823
  146DOPC   C2617364   6.044   3.583  15.713
  146DOPC   H6R17365   6.136   3.569  15.653
  146DOPC   H6S17366   6.036   3.691  15.737
  146DOPC   C2717367   5.921   3.544  15.629
  146DOPC   H7R17368   5.905   3.622  15.552
  146DOPC   H7S17369   5.832   3.545  15.697
  146DOPC   C2817370   5.930   3.407  15.560
  146DOPC   H8R17371   5.957   3.330  15.636
  146DOPC   H8S17372   6.013   3.411  15.486
  146DOPC   C2917373   5.800   3.375  15.491
  146DOPC   H9R17374   5.754   3.459  15.438
  146DOPC  C21017375   5.737   3.255  15.489
  146DOPC  H10R17376   5.643   3.246  15.433
  146DOPC  C21117377   5.786   3.129  15.555
  146DOPC  H11R17378   5.701   3.059  15.571
  146DOPC  H11S17379   5.830   3.149  15.655
  146DOPC  C21217380   5.892   3.060  15.468
  146DOPC  H12R17381   5.979   3.127  15.458
  146DOPC  H12S17382   5.851   3.042  15.366
  146DOPC  C21317383   5.942   2.926  15.525
  146DOPC  H13R17384   5.862   2.849  15.514
  146DOPC  H13S17385   5.961   2.939  15.634
  146DOPC  C21417386   6.072   2.878  15.459
  146DOPC  H14R17387   6.110   2.788  15.511
  146DOPC  H14S17388   6.148   2.958  15.471
  146DOPC  C21517389   6.060   2.847  15.309
  146DOPC  H15R17390   6.005   2.931  15.259
  146DOPC  H15S17391   6.000   2.755  15.294
  146DOPC  C21617392   6.197   2.833  15.242
  146DOPC  H16R17393   6.254   2.753  15.296
  146DOPC  H16S17394   6.253   2.928  15.256
  146DOPC  C21717395   6.193   2.799  15.093
  146DOPC  H17R17396   6.151   2.697  15.081
  146DOPC  H17S17397   6.298   2.795  15.055
  146DOPC  C21817398   6.113   2.897  15.006
  146DOPC  H18R17399   6.119   2.868  14.899
  146DOPC  H18S17400   6.153   3.000  15.018
  146DOPC  H18T17401   6.006   2.897  15.036
  146DOPC   C3317402   6.205   2.962  15.917
  146DOPC   H3X17403   6.124   2.905  15.867
  146DOPC   H3Y17404   6.302   2.924  15.878
  146DOPC   C3417405   6.193   3.111  15.882
  146DOPC   H4X17406   6.265   3.170  15.943
  146DOPC   H4Y17407   6.091   3.146  15.907
  146DOPC   C3517408   6.220   3.140  15.733
  146DOPC   H5X17409   6.179   3.240  15.707
  146DOPC   H5Y17410   6.166   3.064  15.672
  146DOPC   C3617411   6.370   3.138  15.699
  146DOPC   H6X17412   6.419   3.227  15.744
  146DOPC   H6Y17413   6.416   3.047  15.744
  146DOPC   C3717414   6.399   3.134  15.548
  146DOPC   H7X17415   6.510   3.129  15.534
  146DOPC   H7Y17416   6.356   3.041  15.506
  146DOPC   C3817417   6.344   3.255  15.470
  146DOPC   H8X17418   6.388   3.348  15.513
  146DOPC   H8Y17419   6.234   3.261  15.487
  146DOPC   C3917420   6.379   3.243  15.324
  146DOPC   H9X17421   6.487   3.243  15.303
  146DOPC  C31017422   6.294   3.233  15.220
  146DOPC  H10X17423   6.336   3.223  15.119
  146DOPC  C31117424   6.143   3.230  15.225
  146DOPC  H11X17425   6.104   3.262  15.324
  146DOPC  H11Y17426   6.108   3.126  15.208
  146DOPC  C31217427   6.082   3.322  15.118
  146DOPC  H12X17428   6.118   3.293  15.017
  146DOPC  H12Y17429   6.116   3.426  15.137
  146DOPC  C31317430   5.928   3.320  15.117
  146DOPC  H13X17431   5.890   3.345  15.219
  146DOPC  H13Y17432   5.892   3.399  15.048
  146DOPC  C31417433   5.869   3.186  15.072
  146DOPC  H14X17434   5.911   3.160  14.973
  146DOPC  H14Y17435   5.901   3.107  15.144
  146DOPC  C31517436   5.716   3.187  15.063
  146DOPC  H15X17437   5.686   3.271  14.996
  146DOPC  H15Y17438   5.673   3.206  15.163
  146DOPC  C31617439   5.658   3.057  15.005
  146DOPC  H16X17440   5.549   3.071  14.987
  146DOPC  H16Y17441   5.706   3.036  14.908
  146DOPC  C31717442   5.676   2.935  15.098
  146DOPC  H17X17443   5.783   2.921  15.121
  146DOPC  H17Y17444   5.623   2.955  15.194
  146DOPC  C31817445   5.621   2.806  15.036
  146DOPC  H18X17446   5.631   2.721  15.108
  146DOPC  H18Y17447   5.514   2.817  15.010
  146DOPC  H18Z17448   5.678   2.780  14.944
  147DOPC     N17449   1.890   3.591  16.994
  147DOPC   C1217450   1.943   3.733  16.979
  147DOPC  H12A17451   1.914   3.792  17.065
  147DOPC  H12B17452   1.896   3.777  16.892
  147DOPC   C1317453   1.889   3.527  16.858
  147DOPC  H13A17454   1.861   3.423  16.861
  147DOPC  H13B17455   1.816   3.573  16.793
  147DOPC  H13C17456   1.986   3.537  16.813
  147DOPC   C1417457   1.750   3.587  17.047
  147DOPC  H14A17458   1.683   3.643  16.984
  147DOPC  H14B17459   1.713   3.486  17.046
  147DOPC  H14C17460   1.745   3.625  17.148
  147DOPC   C1517461   1.983   3.512  17.081
  147DOPC  H15A17462   1.987   3.552  17.182
  147DOPC  H15B17463   2.083   3.517  17.041
  147DOPC  H15C17464   1.954   3.408  17.084
  147DOPC   C1117465   2.096   3.750  16.961
  147DOPC  H11A17466   2.117   3.855  16.932
  147DOPC  H11B17467   2.143   3.734  17.061
  147DOPC     P17468   2.296   3.606  16.881
  147DOPC   O1317469   2.294   3.527  17.006
  147DOPC   O1417470   2.392   3.718  16.873
  147DOPC   O1217471   2.149   3.662  16.861
  147DOPC   O1117472   2.314   3.507  16.760
  147DOPC    C117473   2.205   3.426  16.715
  147DOPC    HA17474   2.130   3.488  16.661
  147DOPC    HB17475   2.156   3.374  16.800
  147DOPC    C217476   2.256   3.317  16.616
  147DOPC    HS17477   2.343   3.269  16.666
  147DOPC   O2117478   2.298   3.381  16.495
  147DOPC   C2117479   2.376   3.307  16.418
  147DOPC   O2217480   2.411   3.193  16.442
  147DOPC   C2217481   2.417   3.386  16.295
  147DOPC   H2R17482   2.507   3.336  16.253
  147DOPC   H2S17483   2.446   3.489  16.328
  147DOPC    C317484   2.150   3.206  16.588
  147DOPC    HX17485   2.126   3.155  16.684
  147DOPC    HY17486   2.196   3.127  16.524
  147DOPC   O3117487   2.033   3.257  16.520
  147DOPC   C3117488   1.927   3.280  16.596
  147DOPC   O3217489   1.922   3.260  16.716
  147DOPC   C3217490   1.813   3.339  16.511
  147DOPC   H2X17491   1.719   3.293  16.548
  147DOPC   H2Y17492   1.809   3.448  16.530
  147DOPC   C2317493   2.307   3.391  16.187
  147DOPC   H3R17494   2.215   3.438  16.229
  147DOPC   H3S17495   2.282   3.288  16.156
  147DOPC   C2417496   2.353   3.472  16.065
  147DOPC   H4R17497   2.449   3.430  16.027
  147DOPC   H4S17498   2.374   3.576  16.097
  147DOPC   C2517499   2.251   3.474  15.950
  147DOPC   H5R17500   2.290   3.540  15.869
  147DOPC   H5S17501   2.157   3.519  15.987
  147DOPC   C2617502   2.220   3.336  15.889
  147DOPC   H6R17503   2.146   3.350  15.807
  147DOPC   H6S17504   2.170   3.274  15.966
  147DOPC   C2717505   2.341   3.259  15.834
  147DOPC   H7R17506   2.305   3.164  15.790
  147DOPC   H7S17507   2.408   3.232  15.918
  147DOPC   C2817508   2.424   3.334  15.727
  147DOPC   H8R17509   2.504   3.265  15.692
  147DOPC   H8S17510   2.476   3.419  15.776
  147DOPC   C2917511   2.342   3.384  15.612
  147DOPC   H9R17512   2.287   3.478  15.633
  147DOPC  C21017513   2.328   3.328  15.490
  147DOPC  H10R17514   2.263   3.378  15.417
  147DOPC  C21117515   2.391   3.200  15.440
  147DOPC  H11R17516   2.310   3.131  15.407
  147DOPC  H11S17517   2.449   3.147  15.518
  147DOPC  C21217518   2.483   3.229  15.320
  147DOPC  H12R17519   2.575   3.279  15.357
  147DOPC  H12S17520   2.433   3.300  15.250
  147DOPC  C21317521   2.522   3.105  15.238
  147DOPC  H13R17522   2.568   3.028  15.303
  147DOPC  H13S17523   2.598   3.137  15.164
  147DOPC  C21417524   2.404   3.043  15.160
  147DOPC  H14R17525   2.339   3.126  15.126
  147DOPC  H14S17526   2.344   2.979  15.228
  147DOPC  C21517527   2.448   2.964  15.036
  147DOPC  H15R17528   2.493   2.867  15.067
  147DOPC  H15S17529   2.525   3.022  14.982
  147DOPC  C21617530   2.332   2.938  14.937
  147DOPC  H16R17531   2.373   2.893  14.845
  147DOPC  H16S17532   2.286   3.036  14.910
  147DOPC  C21717533   2.224   2.845  14.993
  147DOPC  H17R17534   2.180   2.890  15.085
  147DOPC  H17S17535   2.272   2.750  15.023
  147DOPC  C21817536   2.111   2.816  14.894
  147DOPC  H18R17537   2.056   2.909  14.868
  147DOPC  H18S17538   2.038   2.744  14.938
  147DOPC  H18T17539   2.151   2.771  14.800
  147DOPC   C3317540   1.827   3.313  16.358
  147DOPC   H3X17541   1.838   3.203  16.342
  147DOPC   H3Y17542   1.917   3.362  16.317
  147DOPC   C3417543   1.703   3.358  16.280
  147DOPC   H4X17544   1.701   3.469  16.271
  147DOPC   H4Y17545   1.613   3.328  16.338
  147DOPC   C3517546   1.690   3.294  16.140
  147DOPC   H5X17547   1.584   3.306  16.108
  147DOPC   H5Y17548   1.708   3.185  16.148
  147DOPC   C3617549   1.779   3.354  16.030
  147DOPC   H6X17550   1.774   3.465  16.035
  147DOPC   H6Y17551   1.885   3.325  16.048
  147DOPC   C3717552   1.734   3.308  15.890
  147DOPC   H7X17553   1.727   3.197  15.891
  147DOPC   H7Y17554   1.632   3.347  15.871
  147DOPC   C3817555   1.826   3.350  15.774
  147DOPC   H8X17556   1.784   3.307  15.680
  147DOPC   H8Y17557   1.925   3.301  15.787
  147DOPC   C3917558   1.847   3.499  15.761
  147DOPC   H9X17559   1.916   3.542  15.834
  147DOPC  C31017560   1.788   3.581  15.671
  147DOPC  H10X17561   1.814   3.688  15.674
  147DOPC  C31117562   1.689   3.543  15.564
  147DOPC  H11X17563   1.604   3.615  15.566
  147DOPC  H11Y17564   1.644   3.443  15.583
  147DOPC  C31217565   1.748   3.543  15.421
  147DOPC  H12X17566   1.664   3.525  15.351
  147DOPC  H12Y17567   1.819   3.459  15.410
  147DOPC  C31317568   1.818   3.674  15.381
  147DOPC  H13X17569   1.764   3.760  15.427
  147DOPC  H13Y17570   1.921   3.674  15.421
  147DOPC  C31417571   1.821   3.698  15.229
  147DOPC  H14X17572   1.717   3.702  15.190
  147DOPC  H14Y17573   1.867   3.797  15.211
  147DOPC  C31517574   1.899   3.591  15.151
  147DOPC  H15X17575   1.852   3.492  15.169
  147DOPC  H15Y17576   2.003   3.586  15.191
  147DOPC  C31617577   1.904   3.615  14.999
  147DOPC  H16X17578   1.955   3.529  14.952
  147DOPC  H16Y17579   1.800   3.618  14.960
  147DOPC  C31717580   1.977   3.744  14.958
  147DOPC  H17X17581   1.919   3.832  14.995
  147DOPC  H17Y17582   2.076   3.746  15.007
  147DOPC  C31817583   1.995   3.757  14.807
  147DOPC  H18X17584   2.055   3.672  14.768
  147DOPC  H18Y17585   1.896   3.756  14.756
  147DOPC  H18Z17586   2.047   3.851  14.781
  148DOPC     N17587   3.004   5.934  16.799
  148DOPC   C1217588   2.973   6.083  16.813
  148DOPC  H12A17589   2.866   6.095  16.819
  148DOPC  H12B17590   3.002   6.136  16.724
  148DOPC   C1317591   3.152   5.912  16.799
  148DOPC  H13A17592   3.195   5.951  16.891
  148DOPC  H13B17593   3.177   5.807  16.793
  148DOPC  H13C17594   3.200   5.965  16.717
  148DOPC   C1417595   2.943   5.882  16.673
  148DOPC  H14A17596   2.962   5.776  16.662
  148DOPC  H14B17597   2.837   5.898  16.673
  148DOPC  H14C17598   2.984   5.933  16.587
  148DOPC   C1517599   2.945   5.861  16.916
  148DOPC  H15A17600   2.838   5.876  16.921
  148DOPC  H15B17601   2.984   5.902  17.008
  148DOPC  H15C17602   2.967   5.755  16.914
  148DOPC   C1117603   3.031   6.157  16.937
  148DOPC  H11A17604   3.141   6.143  16.941
  148DOPC  H11B17605   3.015   6.267  16.925
  148DOPC     P17606   2.827   6.151  17.102
  148DOPC   O1317607   2.823   6.296  17.130
  148DOPC   O1417608   2.786   6.056  17.207
  148DOPC   O1217609   2.973   6.111  17.058
  148DOPC   O1117610   2.742   6.122  16.971
  148DOPC    C117611   2.611   6.179  16.955
  148DOPC    HA17612   2.582   6.247  17.038
  148DOPC    HB17613   2.535   6.098  16.953
  148DOPC    C217614   2.600   6.259  16.822
  148DOPC    HS17615   2.504   6.316  16.829
  148DOPC   O2117616   2.597   6.165  16.713
  148DOPC   C2117617   2.517   6.201  16.612
  148DOPC   O2217618   2.471   6.312  16.596
  148DOPC   C2217619   2.483   6.080  16.526
  148DOPC   H2R17620   2.386   6.103  16.477
  148DOPC   H2S17621   2.468   5.993  16.593
  148DOPC    C317622   2.716   6.364  16.811
  148DOPC    HX17623   2.811   6.316  16.841
  148DOPC    HY17624   2.695   6.442  16.888
  148DOPC   O3117625   2.724   6.427  16.682
  148DOPC   C3117626   2.804   6.366  16.595
  148DOPC   O3217627   2.887   6.280  16.622
  148DOPC   C3217628   2.772   6.414  16.453
  148DOPC   H2X17629   2.661   6.418  16.443
  148DOPC   H2Y17630   2.813   6.516  16.440
  148DOPC   C2317631   2.585   6.044  16.416
  148DOPC   H3R17632   2.684   6.022  16.460
  148DOPC   H3S17633   2.596   6.129  16.345
  148DOPC   C2417634   2.536   5.922  16.337
  148DOPC   H4R17635   2.439   5.947  16.289
  148DOPC   H4S17636   2.518   5.838  16.408
  148DOPC   C2517637   2.631   5.872  16.227
  148DOPC   H5R17638   2.731   5.849  16.271
  148DOPC   H5S17639   2.645   5.951  16.151
  148DOPC   C2617640   2.575   5.745  16.160
  148DOPC   H6R17641   2.479   5.769  16.111
  148DOPC   H6S17642   2.554   5.672  16.240
  148DOPC   C2717643   2.669   5.678  16.058
  148DOPC   H7R17644   2.628   5.576  16.041
  148DOPC   H7S17645   2.770   5.665  16.100
  148DOPC   C2817646   2.674   5.746  15.919
  148DOPC   H8R17647   2.571   5.776  15.891
  148DOPC   H8S17648   2.704   5.668  15.846
  148DOPC   C2917649   2.774   5.859  15.908
  148DOPC   H9R17650   2.875   5.834  15.944
  148DOPC  C21017651   2.752   5.982  15.859
  148DOPC  H10R17652   2.836   6.053  15.854
  148DOPC  C21117653   2.623   6.039  15.803
  148DOPC  H11R17654   2.609   6.142  15.841
  148DOPC  H11S17655   2.535   5.980  15.837
  148DOPC  C21217656   2.621   6.043  15.649
  148DOPC  H12R17657   2.524   6.087  15.617
  148DOPC  H12S17658   2.626   5.940  15.609
  148DOPC  C21317659   2.735   6.126  15.587
  148DOPC  H13R17660   2.832   6.076  15.611
  148DOPC  H13S17661   2.738   6.227  15.631
  148DOPC  C21417662   2.725   6.138  15.434
  148DOPC  H14R17663   2.702   6.039  15.390
  148DOPC  H14S17664   2.825   6.169  15.395
  148DOPC  C21517665   2.621   6.241  15.387
  148DOPC  H15R17666   2.643   6.339  15.435
  148DOPC  H15S17667   2.521   6.210  15.423
  148DOPC  C21617668   2.615   6.259  15.234
  148DOPC  H16R17669   2.532   6.329  15.210
  148DOPC  H16S17670   2.589   6.161  15.188
  148DOPC  C21717671   2.744   6.312  15.169
  148DOPC  H17R17672   2.727   6.318  15.059
  148DOPC  H17S17673   2.826   6.239  15.184
  148DOPC  C21817674   2.788   6.450  15.218
  148DOPC  H18R17675   2.813   6.447  15.326
  148DOPC  H18S17676   2.708   6.525  15.203
  148DOPC  H18T17677   2.879   6.484  15.163
  148DOPC   C3317678   2.832   6.318  16.348
  148DOPC   H3X17679   2.799   6.214  16.371
  148DOPC   H3Y17680   2.942   6.320  16.354
  148DOPC   C3417681   2.787   6.350  16.205
  148DOPC   H4X17682   2.843   6.439  16.168
  148DOPC   H4Y17683   2.679   6.377  16.204
  148DOPC   C3517684   2.808   6.233  16.107
  148DOPC   H5X17685   2.789   6.268  16.004
  148DOPC   H5Y17686   2.733   6.155  16.130
  148DOPC   C3617687   2.948   6.168  16.114
  148DOPC   H6X17688   2.962   6.123  16.215
  148DOPC   H6Y17689   2.952   6.084  16.042
  148DOPC   C3717690   3.065   6.263  16.087
  148DOPC   H7X17691   3.060   6.348  16.158
  148DOPC   H7Y17692   3.160   6.209  16.107
  148DOPC   C3817693   3.070   6.321  15.944
  148DOPC   H8X17694   3.148   6.400  15.942
  148DOPC   H8Y17695   2.974   6.372  15.922
  148DOPC   C3917696   3.102   6.218  15.839
  148DOPC   H9X17697   3.124   6.117  15.876
  148DOPC  C31017698   3.106   6.242  15.707
  148DOPC  H10X17699   3.130   6.161  15.637
  148DOPC  C31117700   3.078   6.377  15.644
  148DOPC  H11X17701   3.160   6.448  15.668
  148DOPC  H11Y17702   2.984   6.419  15.686
  148DOPC  C31217703   3.062   6.370  15.491
  148DOPC  H12X17704   3.024   6.469  15.456
  148DOPC  H12Y17705   2.985   6.295  15.465
  148DOPC  C31317706   3.193   6.339  15.417
  148DOPC  H13X17707   3.266   6.420  15.437
  148DOPC  H13Y17708   3.236   6.245  15.454
  148DOPC  C31417709   3.173   6.327  15.265
  148DOPC  H14X17710   3.104   6.243  15.244
  148DOPC  H14Y17711   3.126   6.420  15.226
  148DOPC  C31517712   3.306   6.303  15.193
  148DOPC  H15X17713   3.356   6.214  15.235
  148DOPC  H15Y17714   3.372   6.391  15.213
  148DOPC  C31617715   3.294   6.285  15.041
  148DOPC  H16X17716   3.231   6.365  14.998
  148DOPC  H16Y17717   3.396   6.296  14.996
  148DOPC  C31717718   3.240   6.147  15.001
  148DOPC  H17X17719   3.300   6.069  15.052
  148DOPC  H17Y17720   3.135   6.138  15.036
  148DOPC  C31817721   3.245   6.123  14.850
  148DOPC  H18X17722   3.206   6.021  14.825
  148DOPC  H18Y17723   3.183   6.198  14.796
  148DOPC  H18Z17724   3.349   6.130  14.812
  149DOPC     N17725   2.772   2.095  16.817
  149DOPC   C1217726   2.694   2.085  16.947
  149DOPC  H12A17727   2.752   2.024  17.016
  149DOPC  H12B17728   2.601   2.034  16.931
  149DOPC   C1317729   2.707   2.194  16.725
  149DOPC  H13A17730   2.606   2.164  16.701
  149DOPC  H13B17731   2.703   2.291  16.772
  149DOPC  H13C17732   2.763   2.206  16.633
  149DOPC   C1417733   2.782   1.961  16.751
  149DOPC  H14A17734   2.686   1.919  16.728
  149DOPC  H14B17735   2.838   1.966  16.658
  149DOPC  H14C17736   2.833   1.890  16.814
  149DOPC   C1517737   2.910   2.144  16.847
  149DOPC  H15A17738   2.903   2.237  16.901
  149DOPC  H15B17739   2.970   2.158  16.758
  149DOPC  H15C17740   2.961   2.077  16.915
  149DOPC   C1117741   2.663   2.217  17.022
  149DOPC  H11A17742   2.598   2.280  16.957
  149DOPC  H11B17743   2.605   2.193  17.113
  149DOPC     P17744   2.784   2.441  17.081
  149DOPC   O1317745   2.922   2.481  17.116
  149DOPC   O1417746   2.674   2.476  17.173
  149DOPC   O1217747   2.784   2.284  17.060
  149DOPC   O1117748   2.748   2.491  16.936
  149DOPC    C117749   2.853   2.509  16.840
  149DOPC    HA17750   2.896   2.410  16.810
  149DOPC    HB17751   2.935   2.572  16.881
  149DOPC    C217752   2.801   2.578  16.712
  149DOPC    HS17753   2.767   2.679  16.744
  149DOPC   O2117754   2.693   2.502  16.654
  149DOPC   C2117755   2.627   2.572  16.563
  149DOPC   O2217756   2.629   2.694  16.553
  149DOPC   C2217757   2.558   2.477  16.466
  149DOPC   H2R17758   2.455   2.459  16.502
  149DOPC   H2S17759   2.614   2.381  16.465
  149DOPC    C317760   2.915   2.594  16.607
  149DOPC    HX17761   3.002   2.641  16.657
  149DOPC    HY17762   2.881   2.662  16.526
  149DOPC   O3117763   2.950   2.464  16.553
  149DOPC   C3117764   3.044   2.468  16.459
  149DOPC   O3217765   3.106   2.568  16.427
  149DOPC   C3217766   3.063   2.329  16.399
  149DOPC   H2X17767   3.142   2.336  16.321
  149DOPC   H2Y17768   3.100   2.262  16.480
  149DOPC   C2317769   2.557   2.535  16.322
  149DOPC   H3R17770   2.500   2.630  16.318
  149DOPC   H3S17771   2.505   2.463  16.256
  149DOPC   C2417772   2.698   2.560  16.268
  149DOPC   H4R17773   2.764   2.478  16.302
  149DOPC   H4S17774   2.739   2.655  16.310
  149DOPC   C2517775   2.706   2.567  16.115
  149DOPC   H5R17776   2.646   2.653  16.077
  149DOPC   H5S17777   2.661   2.474  16.073
  149DOPC   C2617778   2.850   2.578  16.065
  149DOPC   H6R17779   2.912   2.503  16.118
  149DOPC   H6S17780   2.891   2.679  16.090
  149DOPC   C2717781   2.863   2.553  15.914
  149DOPC   H7R17782   2.806   2.632  15.860
  149DOPC   H7S17783   2.815   2.456  15.889
  149DOPC   C2817784   3.009   2.552  15.861
  149DOPC   H8R17785   3.052   2.653  15.880
  149DOPC   H8S17786   3.004   2.541  15.751
  149DOPC   C2917787   3.097   2.447  15.924
  149DOPC   H9R17788   3.127   2.469  16.027
  149DOPC  C21017789   3.142   2.332  15.868
  149DOPC  H10R17790   3.207   2.267  15.927
  149DOPC  C21117791   3.114   2.282  15.728
  149DOPC  H11R17792   3.043   2.348  15.674
  149DOPC  H11S17793   3.065   2.183  15.733
  149DOPC  C21217794   3.241   2.267  15.641
  149DOPC  H12R17795   3.319   2.338  15.674
  149DOPC  H12S17796   3.215   2.296  15.536
  149DOPC  C21317797   3.298   2.125  15.637
  149DOPC  H13R17798   3.310   2.088  15.741
  149DOPC  H13S17799   3.399   2.129  15.591
  149DOPC  C21417800   3.214   2.024  15.556
  149DOPC  H14R17801   3.112   2.014  15.600
  149DOPC  H14S17802   3.263   1.925  15.563
  149DOPC  C21517803   3.201   2.059  15.406
  149DOPC  H15R17804   3.302   2.081  15.366
  149DOPC  H15S17805   3.139   2.150  15.394
  149DOPC  C21617806   3.139   1.945  15.324
  149DOPC  H16R17807   3.037   1.924  15.361
  149DOPC  H16S17808   3.200   1.853  15.338
  149DOPC  C21717809   3.133   1.977  15.174
  149DOPC  H17R17810   3.236   2.000  15.138
  149DOPC  H17S17811   3.072   2.069  15.161
  149DOPC  C21817812   3.074   1.864  15.090
  149DOPC  H18R17813   3.072   1.893  14.982
  149DOPC  H18S17814   2.970   1.842  15.122
  149DOPC  H18T17815   3.134   1.771  15.100
  149DOPC   C3317816   2.935   2.270  16.336
  149DOPC   H3X17817   2.908   2.328  16.245
  149DOPC   H3Y17818   2.850   2.278  16.408
  149DOPC   C3417819   2.951   2.122  16.297
  149DOPC   H4X17820   2.980   2.065  16.388
  149DOPC   H4Y17821   3.034   2.112  16.223
  149DOPC   C3517822   2.823   2.061  16.239
  149DOPC   H5X17823   2.738   2.088  16.305
  149DOPC   H5Y17824   2.831   1.950  16.241
  149DOPC   C3617825   2.792   2.104  16.095
  149DOPC   H6X17826   2.686   2.080  16.072
  149DOPC   H6Y17827   2.802   2.214  16.084
  149DOPC   C3717828   2.877   2.032  15.989
  149DOPC   H7X17829   2.980   2.074  15.989
  149DOPC   H7Y17830   2.885   1.925  16.017
  149DOPC   C3817831   2.816   2.039  15.847
  149DOPC   H8X17832   2.721   1.982  15.847
  149DOPC   H8Y17833   2.885   1.987  15.777
  149DOPC   C3917834   2.795   2.181  15.802
  149DOPC   H9X17835   2.866   2.253  15.847
  149DOPC  C31017836   2.703   2.226  15.715
  149DOPC  H10X17837   2.701   2.334  15.692
  149DOPC  C31117838   2.600   2.143  15.643
  149DOPC  H11X17839   2.499   2.162  15.686
  149DOPC  H11Y17840   2.620   2.035  15.654
  149DOPC  C31217841   2.595   2.175  15.492
  149DOPC  H12X17842   2.537   2.095  15.441
  149DOPC  H12Y17843   2.698   2.173  15.450
  149DOPC  C31317844   2.527   2.310  15.461
  149DOPC  H13X17845   2.422   2.306  15.497
  149DOPC  H13Y17846   2.577   2.391  15.517
  149DOPC  C31417847   2.526   2.346  15.311
  149DOPC  H14X17848   2.469   2.268  15.256
  149DOPC  H14Y17849   2.471   2.442  15.298
  149DOPC  C31517850   2.665   2.360  15.247
  149DOPC  H15X17851   2.653   2.392  15.141
  149DOPC  H15Y17852   2.713   2.260  15.244
  149DOPC  C31617853   2.761   2.457  15.319
  149DOPC  H16X17854   2.775   2.423  15.424
  149DOPC  H16Y17855   2.860   2.450  15.269
  149DOPC  C31717856   2.718   2.604  15.318
  149DOPC  H17X17857   2.614   2.613  15.357
  149DOPC  H17Y17858   2.784   2.660  15.388
  149DOPC  C31817859   2.727   2.671  15.180
  149DOPC  H18X17860   2.831   2.666  15.141
  149DOPC  H18Y17861   2.660   2.620  15.107
  149DOPC  H18Z17862   2.696   2.778  15.186
  150DOPC     N17863   6.746   5.340  17.063
  150DOPC   C1217864   6.640   5.353  16.955
  150DOPC  H12A17865   6.601   5.255  16.932
  150DOPC  H12B17866   6.688   5.391  16.866
  150DOPC   C1317867   6.803   5.474  17.097
  150DOPC  H13A17868   6.880   5.467  17.172
  150DOPC  H13B17869   6.844   5.521  17.009
  150DOPC  H13C17870   6.724   5.540  17.130
  150DOPC   C1417871   6.859   5.255  17.011
  150DOPC  H14A17872   6.825   5.156  16.984
  150DOPC  H14B17873   6.905   5.301  16.925
  150DOPC  H14C17874   6.935   5.245  17.087
  150DOPC   C1517875   6.688   5.277  17.186
  150DOPC  H15A17876   6.648   5.179  17.163
  150DOPC  H15B17877   6.609   5.339  17.225
  150DOPC  H15C17878   6.764   5.265  17.262
  150DOPC   C1117879   6.520   5.448  16.982
  150DOPC  H11A17880   6.440   5.430  16.908
  150DOPC  H11B17881   6.476   5.426  17.082
  150DOPC     P17882   6.610   5.653  16.845
  150DOPC   O1317883   6.756   5.635  16.839
  150DOPC   O1417884   6.562   5.792  16.842
  150DOPC   O1217885   6.560   5.585  16.979
  150DOPC   O1117886   6.541   5.566  16.731
  150DOPC    C117887   6.618   5.482  16.644
  150DOPC    HA17888   6.627   5.380  16.687
  150DOPC    HB17889   6.720   5.521  16.626
  150DOPC    C217890   6.552   5.467  16.505
  150DOPC    HS17891   6.449   5.427  16.520
  150DOPC   O2117892   6.633   5.372  16.432
  150DOPC   C2117893   6.575   5.323  16.323
  150DOPC   O2217894   6.458   5.338  16.292
  150DOPC   C2217895   6.678   5.238  16.248
  150DOPC   H2R17896   6.705   5.153  16.315
  150DOPC   H2S17897   6.769   5.300  16.231
  150DOPC    C317898   6.541   5.604  16.432
  150DOPC    HX17899   6.467   5.664  16.489
  150DOPC    HY17900   6.498   5.590  16.330
  150DOPC   O3117901   6.666   5.676  16.431
  150DOPC   C3117902   6.750   5.648  16.331
  150DOPC   O3217903   6.729   5.573  16.239
  150DOPC   C3217904   6.881   5.724  16.355
  150DOPC   H2X17905   6.866   5.800  16.435
  150DOPC   H2Y17906   6.955   5.649  16.391
  150DOPC   C2317907   6.626   5.182  16.114
  150DOPC   H3R17908   6.523   5.141  16.125
  150DOPC   H3S17909   6.692   5.098  16.084
  150DOPC   C2417910   6.627   5.286  16.001
  150DOPC   H4R17911   6.729   5.331  15.995
  150DOPC   H4S17912   6.556   5.369  16.025
  150DOPC   C2517913   6.591   5.226  15.865
  150DOPC   H5R17914   6.481   5.209  15.860
  150DOPC   H5S17915   6.640   5.126  15.856
  150DOPC   C2617916   6.638   5.311  15.746
  150DOPC   H6R17917   6.748   5.326  15.753
  150DOPC   H6S17918   6.591   5.412  15.751
  150DOPC   C2717919   6.605   5.246  15.612
  150DOPC   H7R17920   6.495   5.232  15.604
  150DOPC   H7S17921   6.651   5.145  15.610
  150DOPC   C2817922   6.655   5.328  15.492
  150DOPC   H8R17923   6.764   5.347  15.505
  150DOPC   H8S17924   6.606   5.428  15.494
  150DOPC   C2917925   6.631   5.258  15.361
  150DOPC   H9R17926   6.717   5.202  15.321
  150DOPC  C21017927   6.515   5.256  15.293
  150DOPC  H10R17928   6.510   5.200  15.199
  150DOPC  C21117929   6.386   5.324  15.334
  150DOPC  H11R17930   6.397   5.383  15.427
  150DOPC  H11S17931   6.308   5.247  15.354
  150DOPC  C21217932   6.335   5.416  15.222
  150DOPC  H12R17933   6.328   5.359  15.127
  150DOPC  H12S17934   6.406   5.500  15.206
  150DOPC  C21317935   6.196   5.473  15.252
  150DOPC  H13R17936   6.199   5.537  15.343
  150DOPC  H13S17937   6.127   5.389  15.272
  150DOPC  C21417938   6.142   5.553  15.132
  150DOPC  H14R17939   6.154   5.487  15.043
  150DOPC  H14S17940   6.204   5.643  15.114
  150DOPC  C21517941   5.994   5.591  15.143
  150DOPC  H15R17942   5.983   5.691  15.190
  150DOPC  H15S17943   5.944   5.517  15.210
  150DOPC  C21617944   5.921   5.586  15.007
  150DOPC  H16R17945   5.812   5.595  15.024
  150DOPC  H16S17946   5.939   5.485  14.964
  150DOPC  C21717947   5.966   5.693  14.906
  150DOPC  H17R17948   6.060   5.739  14.940
  150DOPC  H17S17949   5.887   5.772  14.905
  150DOPC  C21817950   5.982   5.644  14.762
  150DOPC  H18R17951   5.891   5.591  14.727
  150DOPC  H18S17952   6.069   5.575  14.754
  150DOPC  H18T17953   6.000   5.730  14.694
  150DOPC   C3317954   6.933   5.792  16.226
  150DOPC   H3X17955   6.940   5.717  16.145
  150DOPC   H3Y17956   7.035   5.830  16.245
  150DOPC   C3417957   6.844   5.909  16.182
  150DOPC   H4X17958   6.838   5.983  16.265
  150DOPC   H4Y17959   6.741   5.873  16.163
  150DOPC   C3517960   6.895   5.981  16.056
  150DOPC   H5X17961   6.993   6.029  16.078
  150DOPC   H5Y17962   6.823   6.062  16.032
  150DOPC   C3617963   6.910   5.892  15.931
  150DOPC   H6X17964   6.933   5.956  15.844
  150DOPC   H6Y17965   6.997   5.823  15.945
  150DOPC   C3717966   6.785   5.809  15.900
  150DOPC   H7X17967   6.771   5.730  15.978
  150DOPC   H7Y17968   6.697   5.876  15.906
  150DOPC   C3817969   6.785   5.743  15.760
  150DOPC   H8X17970   6.777   5.825  15.686
  150DOPC   H8Y17971   6.693   5.682  15.751
  150DOPC   C3917972   6.906   5.656  15.737
  150DOPC   H9X17973   6.918   5.575  15.810
  150DOPC  C31017974   6.997   5.669  15.639
  150DOPC  H10X17975   7.080   5.596  15.635
  150DOPC  C31117976   7.001   5.773  15.529
  150DOPC  H11X17977   7.092   5.834  15.540
  150DOPC  H11Y17978   6.914   5.843  15.534
  150DOPC  C31217979   7.002   5.709  15.389
  150DOPC  H12X17980   7.088   5.639  15.381
  150DOPC  H12Y17981   7.019   5.790  15.314
  150DOPC  C31317982   6.872   5.635  15.353
  150DOPC  H13X17983   6.847   5.564  15.435
  150DOPC  H13Y17984   6.788   5.707  15.345
  150DOPC  C31417985   6.883   5.553  15.223
  150DOPC  H14X17986   6.973   5.488  15.231
  150DOPC  H14Y17987   6.794   5.487  15.214
  150DOPC  C31517988   6.895   5.638  15.095
  150DOPC  H15X17989   6.945   5.576  15.017
  150DOPC  H15Y17990   6.959   5.726  15.114
  150DOPC  C31617991   6.759   5.683  15.040
  150DOPC  H16X17992   6.705   5.594  15.002
  150DOPC  H16Y17993   6.698   5.727  15.122
  150DOPC  C31717994   6.769   5.787  14.927
  150DOPC  H17X17995   6.669   5.798  14.880
  150DOPC  H17Y17996   6.796   5.885  14.971
  150DOPC  C31817997   6.873   5.753  14.819
  150DOPC  H18X17998   6.861   5.819  14.730
  150DOPC  H18Y17999   6.976   5.765  14.858
  150DOPC  H18Z18000   6.861   5.647  14.786
  151DOPC     N18001   1.613   4.181  17.026
  151DOPC   C1218002   1.489   4.240  17.092
  151DOPC  H12A18003   1.445   4.312  17.024
  151DOPC  H12B18004   1.517   4.291  17.183
  151DOPC   C1318005   1.581   4.146  16.883
  151DOPC  H13A18006   1.547   4.232  16.828
  151DOPC  H13B18007   1.664   4.100  16.831
  151DOPC  H13C18008   1.498   4.078  16.880
  151DOPC   C1418009   1.651   4.055  17.098
  151DOPC  H14A18010   1.669   4.075  17.202
  151DOPC  H14B18011   1.570   3.984  17.091
  151DOPC  H14C18012   1.741   4.012  17.056
  151DOPC   C1518013   1.728   4.276  17.030
  151DOPC  H15A18014   1.755   4.300  17.132
  151DOPC  H15B18015   1.705   4.368  16.978
  151DOPC  H15C18016   1.816   4.234  16.984
  151DOPC   C1118017   1.374   4.142  17.127
  151DOPC  H11A18018   1.409   4.068  17.203
  151DOPC  H11B18019   1.293   4.200  17.177
  151DOPC     P18020   1.230   4.150  16.912
  151DOPC   O1318021   1.282   4.288  16.897
  151DOPC   O1418022   1.093   4.129  16.963
  151DOPC   O1218023   1.326   4.072  17.013
  151DOPC   O1118024   1.254   4.069  16.780
  151DOPC    C118025   1.294   3.931  16.785
  151DOPC    HA18026   1.237   3.874  16.862
  151DOPC    HB18027   1.402   3.923  16.810
  151DOPC    C218028   1.269   3.859  16.649
  151DOPC    HS18029   1.329   3.765  16.646
  151DOPC   O2118030   1.303   3.940  16.535
  151DOPC   C2118031   1.414   4.009  16.531
  151DOPC   O2218032   1.510   3.999  16.605
  151DOPC   C2218033   1.404   4.103  16.411
  151DOPC   H2R18034   1.298   4.138  16.406
  151DOPC   H2S18035   1.425   4.045  16.318
  151DOPC    C318036   1.119   3.820  16.636
  151DOPC    HX18037   1.057   3.908  16.665
  151DOPC    HY18038   1.098   3.740  16.711
  151DOPC   O3118039   1.088   3.770  16.504
  151DOPC   C3118040   1.043   3.861  16.419
  151DOPC   O3218041   1.010   3.975  16.446
  151DOPC   C3218042   1.051   3.803  16.278
  151DOPC   H2X18043   1.156   3.815  16.246
  151DOPC   H2Y18044   1.028   3.694  16.281
  151DOPC   C2318045   1.497   4.227  16.421
  151DOPC   H3R18046   1.601   4.200  16.395
  151DOPC   H3S18047   1.496   4.261  16.526
  151DOPC   C2418048   1.447   4.345  16.335
  151DOPC   H4R18049   1.471   4.438  16.391
  151DOPC   H4S18050   1.337   4.340  16.326
  151DOPC   C2518051   1.511   4.359  16.196
  151DOPC   H5R18052   1.620   4.376  16.207
  151DOPC   H5S18053   1.468   4.449  16.148
  151DOPC   C2618054   1.490   4.240  16.101
  151DOPC   H6R18055   1.384   4.207  16.104
  151DOPC   H6S18056   1.552   4.155  16.135
  151DOPC   C2718057   1.528   4.276  15.956
  151DOPC   H7R18058   1.620   4.339  15.961
  151DOPC   H7S18059   1.448   4.339  15.912
  151DOPC   C2818060   1.560   4.156  15.865
  151DOPC   H8R18061   1.642   4.097  15.912
  151DOPC   H8S18062   1.599   4.196  15.769
  151DOPC   C2918063   1.440   4.069  15.840
  151DOPC   H9R18064   1.351   4.092  15.900
  151DOPC  C21018065   1.435   3.968  15.751
  151DOPC  H10R18066   1.341   3.911  15.741
  151DOPC  C21118067   1.546   3.923  15.659
  151DOPC  H11R18068   1.588   3.828  15.700
  151DOPC  H11S18069   1.630   3.996  15.654
  151DOPC  C21218070   1.497   3.894  15.516
  151DOPC  H12R18071   1.397   3.844  15.519
  151DOPC  H12S18072   1.566   3.821  15.470
  151DOPC  C21318073   1.492   4.015  15.421
  151DOPC  H13R18074   1.455   3.978  15.323
  151DOPC  H13S18075   1.595   4.054  15.405
  151DOPC  C21418076   1.401   4.131  15.464
  151DOPC  H14R18077   1.449   4.188  15.547
  151DOPC  H14S18078   1.305   4.090  15.502
  151DOPC  C21518079   1.371   4.225  15.346
  151DOPC  H15R18080   1.326   4.164  15.265
  151DOPC  H15S18081   1.466   4.269  15.308
  151DOPC  C21618082   1.274   4.339  15.383
  151DOPC  H16R18083   1.319   4.400  15.464
  151DOPC  H16S18084   1.180   4.294  15.422
  151DOPC  C21718085   1.239   4.430  15.264
  151DOPC  H17R18086   1.332   4.477  15.226
  151DOPC  H17S18087   1.174   4.512  15.301
  151DOPC  C21818088   1.167   4.360  15.148
  151DOPC  H18R18089   1.137   4.433  15.071
  151DOPC  H18S18090   1.076   4.307  15.185
  151DOPC  H18T18091   1.234   4.285  15.100
  151DOPC   C3318092   0.957   3.875  16.178
  151DOPC   H3X18093   0.944   3.982  16.203
  151DOPC   H3Y18094   0.857   3.828  16.183
  151DOPC   C3418095   1.011   3.867  16.034
  151DOPC   H4X18096   0.930   3.886  15.961
  151DOPC   H4Y18097   1.046   3.762  16.018
  151DOPC   C3518098   1.125   3.966  16.007
  151DOPC   H5X18099   1.184   3.931  15.919
  151DOPC   H5Y18100   1.195   3.967  16.093
  151DOPC   C3618101   1.078   4.111  15.979
  151DOPC   H6X18102   1.016   4.145  16.065
  151DOPC   H6Y18103   1.167   4.177  15.975
  151DOPC   C3718104   0.998   4.130  15.849
  151DOPC   H7X18105   0.905   4.070  15.854
  151DOPC   H7Y18106   0.968   4.237  15.843
  151DOPC   C3818107   1.075   4.094  15.720
  151DOPC   H8X18108   1.116   3.992  15.730
  151DOPC   H8Y18109   1.163   4.162  15.712
  151DOPC   C3918110   0.990   4.107  15.596
  151DOPC   H9X18111   0.956   4.209  15.573
  151DOPC  C31018112   0.952   4.006  15.515
  151DOPC  H10X18113   0.892   4.028  15.426
  151DOPC  C31118114   0.988   3.860  15.533
  151DOPC  H11X18115   0.908   3.795  15.492
  151DOPC  H11Y18116   0.995   3.835  15.641
  151DOPC  C31218117   1.123   3.822  15.467
  151DOPC  H12X18118   1.172   3.747  15.533
  151DOPC  H12Y18119   1.190   3.910  15.463
  151DOPC  C31318120   1.112   3.759  15.327
  151DOPC  H13X18121   1.214   3.732  15.293
  151DOPC  H13Y18122   1.054   3.665  15.335
  151DOPC  C31418123   1.049   3.851  15.221
  151DOPC  H14X18124   0.943   3.871  15.248
  151DOPC  H14Y18125   1.103   3.948  15.221
  151DOPC  C31518126   1.054   3.792  15.079
  151DOPC  H15X18127   1.160   3.777  15.048
  151DOPC  H15Y18128   1.010   3.867  15.009
  151DOPC  C31618129   0.979   3.659  15.065
  151DOPC  H16X18130   1.029   3.583  15.129
  151DOPC  H16Y18131   0.875   3.670  15.102
  151DOPC  C31718132   0.974   3.603  14.921
  151DOPC  H17X18133   1.078   3.598  14.882
  151DOPC  H17Y18134   0.935   3.500  14.926
  151DOPC  C31818135   0.887   3.684  14.825
  151DOPC  H18X18136   0.887   3.638  14.723
  151DOPC  H18Y18137   0.782   3.688  14.861
  151DOPC  H18Z18138   0.924   3.788  14.816
  152DOPC     N18139   4.310   1.518  16.935
  152DOPC   C1218140   4.325   1.429  16.812
  152DOPC  H12A18141   4.391   1.477  16.742
  152DOPC  H12B18142   4.229   1.418  16.765
  152DOPC   C1318143   4.438   1.527  17.012
  152DOPC  H13A18144   4.520   1.560  16.949
  152DOPC  H13B18145   4.428   1.598  17.092
  152DOPC  H13C18146   4.463   1.431  17.055
  152DOPC   C1418147   4.206   1.461  17.027
  152DOPC  H14A18148   4.204   1.512  17.122
  152DOPC  H14B18149   4.107   1.463  16.984
  152DOPC  H14C18150   4.229   1.357  17.046
  152DOPC   C1518151   4.270   1.658  16.898
  152DOPC  H15A18152   4.269   1.719  16.986
  152DOPC  H15B18153   4.171   1.661  16.853
  152DOPC  H15C18154   4.341   1.702  16.830
  152DOPC   C1118155   4.379   1.285  16.836
  152DOPC  H11A18156   4.394   1.236  16.737
  152DOPC  H11B18157   4.478   1.290  16.885
  152DOPC     P18158   4.324   1.072  16.977
  152DOPC   O1318159   4.207   1.026  17.054
  152DOPC   O1418160   4.452   1.090  17.048
  152DOPC   O1218161   4.284   1.210  16.912
  152DOPC   O1118162   4.342   0.976  16.851
  152DOPC    C118163   4.235   0.978  16.755
  152DOPC    HA18164   4.218   1.082  16.717
  152DOPC    HB18165   4.141   0.942  16.802
  152DOPC    C218166   4.259   0.891  16.629
  152DOPC    HS18167   4.274   0.787  16.664
  152DOPC   O2118168   4.377   0.937  16.560
  152DOPC   C2118169   4.412   0.862  16.456
  152DOPC   O2218170   4.365   0.754  16.427
  152DOPC   C2218171   4.517   0.936  16.373
  152DOPC   H2R18172   4.615   0.887  16.392
  152DOPC   H2S18173   4.523   1.042  16.407
  152DOPC    C318174   4.132   0.892  16.536
  152DOPC    HX18175   4.040   0.884  16.598
  152DOPC    HY18176   4.134   0.801  16.472
  152DOPC   O3118177   4.129   1.008  16.449
  152DOPC   C3118178   4.072   1.118  16.495
  152DOPC   O3218179   4.010   1.129  16.599
  152DOPC   C3218180   4.103   1.234  16.399
  152DOPC   H2X18181   4.160   1.194  16.313
  152DOPC   H2Y18182   4.006   1.273  16.361
  152DOPC   C2318183   4.485   0.931  16.222
  152DOPC   H3R18184   4.484   0.826  16.187
  152DOPC   H3S18185   4.565   0.984  16.166
  152DOPC   C2418186   4.350   0.997  16.188
  152DOPC   H4R18187   4.349   1.100  16.229
  152DOPC   H4S18188   4.268   0.941  16.237
  152DOPC   C2518189   4.321   1.002  16.037
  152DOPC   H5R18190   4.323   0.899  15.997
  152DOPC   H5S18191   4.403   1.058  15.986
  152DOPC   C2618192   4.184   1.064  16.003
  152DOPC   H6R18193   4.109   1.029  16.076
  152DOPC   H6S18194   4.153   1.028  15.903
  152DOPC   C2718195   4.186   1.218  15.999
  152DOPC   H7R18196   4.251   1.250  15.915
  152DOPC   H7S18197   4.231   1.257  16.093
  152DOPC   C2818198   4.046   1.279  15.981
  152DOPC   H8R18199   3.984   1.255  16.071
  152DOPC   H8S18200   3.997   1.229  15.895
  152DOPC   C2918201   4.053   1.429  15.963
  152DOPC   H9R18202   4.106   1.483  16.042
  152DOPC  C21018203   4.003   1.499  15.859
  152DOPC  H10R18204   4.018   1.608  15.856
  152DOPC  C21118205   3.929   1.442  15.741
  152DOPC  H11R18206   3.866   1.520  15.693
  152DOPC  H11S18207   3.858   1.363  15.775
  152DOPC  C21218208   4.021   1.379  15.634
  152DOPC  H12R18209   3.958   1.323  15.562
  152DOPC  H12S18210   4.090   1.306  15.682
  152DOPC  C21318211   4.104   1.482  15.555
  152DOPC  H13R18212   4.164   1.544  15.624
  152DOPC  H13S18213   4.035   1.549  15.499
  152DOPC  C21418214   4.200   1.412  15.456
  152DOPC  H14R18215   4.142   1.346  15.388
  152DOPC  H14S18216   4.267   1.347  15.516
  152DOPC  C21518217   4.287   1.508  15.374
  152DOPC  H15R18218   4.366   1.448  15.324
  152DOPC  H15S18219   4.336   1.581  15.441
  152DOPC  C21618220   4.209   1.583  15.265
  152DOPC  H16R18221   4.132   1.648  15.312
  152DOPC  H16S18222   4.156   1.509  15.201
  152DOPC  C21718223   4.300   1.669  15.177
  152DOPC  H17R18224   4.377   1.604  15.130
  152DOPC  H17S18225   4.353   1.741  15.242
  152DOPC  C21818226   4.225   1.745  15.067
  152DOPC  H18R18227   4.173   1.675  14.999
  152DOPC  H18S18228   4.296   1.806  15.007
  152DOPC  H18T18229   4.150   1.813  15.112
  152DOPC   C3318230   4.183   1.347  16.468
  152DOPC   H3X18231   4.269   1.305  16.524
  152DOPC   H3Y18232   4.116   1.397  16.541
  152DOPC   C3418233   4.237   1.452  16.369
  152DOPC   H4X18234   4.253   1.548  16.422
  152DOPC   H4Y18235   4.161   1.470  16.290
  152DOPC   C3518236   4.370   1.411  16.304
  152DOPC   H5X18237   4.358   1.310  16.259
  152DOPC   H5Y18238   4.449   1.403  16.381
  152DOPC   C3618239   4.416   1.508  16.194
  152DOPC   H6X18240   4.338   1.516  16.116
  152DOPC   H6Y18241   4.429   1.609  16.239
  152DOPC   C3718242   4.549   1.468  16.126
  152DOPC   H7X18243   4.580   1.551  16.059
  152DOPC   H7Y18244   4.628   1.456  16.203
  152DOPC   C3818245   4.538   1.339  16.042
  152DOPC   H8X18246   4.452   1.353  15.972
  152DOPC   H8Y18247   4.510   1.255  16.108
  152DOPC   C3918248   4.665   1.305  15.968
  152DOPC   H9X18249   4.752   1.287  16.032
  152DOPC  C31018250   4.680   1.295  15.834
  152DOPC  H10X18251   4.778   1.267  15.793
  152DOPC  C31118252   4.572   1.316  15.731
  152DOPC  H11X18253   4.616   1.339  15.632
  152DOPC  H11Y18254   4.511   1.406  15.758
  152DOPC  C31218255   4.474   1.197  15.718
  152DOPC  H12X18256   4.384   1.231  15.662
  152DOPC  H12Y18257   4.438   1.170  15.819
  152DOPC  C31318258   4.532   1.071  15.650
  152DOPC  H13X18259   4.628   1.046  15.699
  152DOPC  H13Y18260   4.462   0.986  15.669
  152DOPC  C31418261   4.553   1.084  15.498
  152DOPC  H14X18262   4.613   1.175  15.479
  152DOPC  H14Y18263   4.611   0.997  15.462
  152DOPC  C31518264   4.422   1.092  15.418
  152DOPC  H15X18265   4.441   1.149  15.324
  152DOPC  H15Y18266   4.345   1.148  15.475
  152DOPC  C31618267   4.364   0.955  15.380
  152DOPC  H16X18268   4.431   0.907  15.305
  152DOPC  H16Y18269   4.363   0.889  15.470
  152DOPC  C31718270   4.221   0.962  15.324
  152DOPC  H17X18271   4.192   0.861  15.288
  152DOPC  H17Y18272   4.152   0.988  15.407
  152DOPC  C31818273   4.201   1.063  15.210
  152DOPC  H18X18274   4.097   1.058  15.171
  152DOPC  H18Y18275   4.220   1.167  15.245
  152DOPC  H18Z18276   4.270   1.041  15.126
  153DOPC     N18277   5.895   7.032  17.028
  153DOPC   C1218278   6.040   7.018  16.986
  153DOPC  H12A18279   6.104   7.040  17.070
  153DOPC  H12B18280   6.061   7.092  16.910
  153DOPC   C1318281   5.855   6.914  17.112
  153DOPC  H13A18282   5.752   6.921  17.145
  153DOPC  H13B18283   5.866   6.824  17.055
  153DOPC  H13C18284   5.918   6.905  17.199
  153DOPC   C1418285   5.808   7.033  16.906
  153DOPC  H14A18286   5.829   7.119  16.843
  153DOPC  H14B18287   5.833   6.946  16.847
  153DOPC  H14C18288   5.703   7.028  16.930
  153DOPC   C1518289   5.876   7.157  17.108
  153DOPC  H15A18290   5.939   7.156  17.195
  153DOPC  H15B18291   5.774   7.166  17.144
  153DOPC  H15C18292   5.901   7.245  17.050
  153DOPC   C1118293   6.086   6.881  16.929
  153DOPC  H11A18294   6.189   6.892  16.888
  153DOPC  H11B18295   6.092   6.809  17.013
  153DOPC     P18296   5.946   6.688  16.820
  153DOPC   O1318297   5.880   6.662  16.950
  153DOPC   O1418298   6.057   6.596  16.788
  153DOPC   O1218299   6.000   6.836  16.823
  153DOPC   O1118300   5.839   6.693  16.705
  153DOPC    C118301   5.855   6.614  16.587
  153DOPC    HA18302   5.758   6.610  16.533
  153DOPC    HB18303   5.882   6.509  16.611
  153DOPC    C218304   5.960   6.672  16.487
  153DOPC    HS18305   6.056   6.679  16.542
  153DOPC   O2118306   5.917   6.802  16.443
  153DOPC   C2118307   6.012   6.874  16.384
  153DOPC   O2218308   6.129   6.843  16.374
  153DOPC   C2218309   5.951   7.006  16.336
  153DOPC   H2R18310   5.973   7.082  16.414
  153DOPC   H2S18311   5.841   6.994  16.327
  153DOPC    C318312   5.982   6.574  16.367
  153DOPC    HX18313   6.022   6.480  16.411
  153DOPC    HY18314   6.061   6.612  16.300
  153DOPC   O3118315   5.859   6.542  16.298
  153DOPC   C3118316   5.831   6.620  16.194
  153DOPC   O3218317   5.901   6.711  16.153
  153DOPC   C3218318   5.700   6.575  16.130
  153DOPC   H2X18319   5.710   6.468  16.104
  153DOPC   H2Y18320   5.618   6.587  16.205
  153DOPC   C2318321   6.009   7.053  16.200
  153DOPC   H3R18322   5.989   6.974  16.124
  153DOPC   H3S18323   6.119   7.065  16.207
  153DOPC   C2418324   5.946   7.185  16.154
  153DOPC   H4R18325   5.967   7.263  16.230
  153DOPC   H4S18326   5.835   7.172  16.149
  153DOPC   C2518327   5.997   7.235  16.017
  153DOPC   H5R18328   6.106   7.255  16.024
  153DOPC   H5S18329   5.946   7.332  15.994
  153DOPC   C2618330   5.972   7.139  15.899
  153DOPC   H6R18331   6.035   7.049  15.912
  153DOPC   H6S18332   6.005   7.189  15.805
  153DOPC   C2718333   5.825   7.096  15.884
  153DOPC   H7R18334   5.761   7.187  15.883
  153DOPC   H7S18335   5.795   7.035  15.972
  153DOPC   C2818336   5.797   7.016  15.755
  153DOPC   H8R18337   5.815   7.082  15.668
  153DOPC   H8S18338   5.689   6.990  15.753
  153DOPC   C2918339   5.879   6.889  15.749
  153DOPC   H9R18340   5.872   6.826  15.839
  153DOPC  C21018341   5.959   6.850  15.648
  153DOPC  H10R18342   6.012   6.754  15.657
  153DOPC  C21118343   5.985   6.925  15.520
  153DOPC  H11R18344   6.090   6.908  15.487
  153DOPC  H11S18345   5.975   7.034  15.534
  153DOPC  C21218346   5.890   6.883  15.406
  153DOPC  H12R18347   5.917   6.941  15.315
  153DOPC  H12S18348   5.786   6.912  15.433
  153DOPC  C21318349   5.892   6.733  15.371
  153DOPC  H13R18350   5.824   6.716  15.284
  153DOPC  H13S18351   5.852   6.675  15.456
  153DOPC  C21418352   6.032   6.680  15.336
  153DOPC  H14R18353   6.099   6.693  15.424
  153DOPC  H14S18354   6.074   6.740  15.252
  153DOPC  C21518355   6.031   6.532  15.297
  153DOPC  H15R18356   5.966   6.520  15.208
  153DOPC  H15S18357   5.988   6.472  15.380
  153DOPC  C21618358   6.172   6.482  15.263
  153DOPC  H16R18359   6.239   6.498  15.350
  153DOPC  H16S18360   6.210   6.543  15.179
  153DOPC  C21718361   6.178   6.334  15.222
  153DOPC  H17R18362   6.279   6.312  15.181
  153DOPC  H17S18363   6.106   6.319  15.139
  153DOPC  C21818364   6.149   6.236  15.336
  153DOPC  H18R18365   6.160   6.131  15.300
  153DOPC  H18S18366   6.046   6.249  15.375
  153DOPC  H18T18367   6.220   6.252  15.419
  153DOPC   C3318368   5.672   6.660  16.004
  153DOPC   H3X18369   5.763   6.659  15.941
  153DOPC   H3Y18370   5.652   6.765  16.032
  153DOPC   C3418371   5.557   6.607  15.917
  153DOPC   H4X18372   5.460   6.612  15.970
  153DOPC   H4Y18373   5.578   6.500  15.893
  153DOPC   C3518374   5.551   6.686  15.786
  153DOPC   H5X18375   5.655   6.708  15.755
  153DOPC   H5Y18376   5.501   6.784  15.802
  153DOPC   C3618377   5.486   6.612  15.668
  153DOPC   H6X18378   5.530   6.510  15.662
  153DOPC   H6Y18379   5.376   6.601  15.683
  153DOPC   C3718380   5.515   6.685  15.536
  153DOPC   H7X18381   5.445   6.771  15.524
  153DOPC   H7Y18382   5.617   6.728  15.543
  153DOPC   C3818383   5.516   6.595  15.411
  153DOPC   H8X18384   5.569   6.500  15.437
  153DOPC   H8Y18385   5.577   6.645  15.333
  153DOPC   C3918386   5.378   6.565  15.359
  153DOPC   H9X18387   5.299   6.560  15.435
  153DOPC  C31018388   5.347   6.543  15.230
  153DOPC  H10X18389   5.243   6.520  15.203
  153DOPC  C31118390   5.444   6.542  15.114
  153DOPC  H11X18391   5.417   6.459  15.046
  153DOPC  H11Y18392   5.547   6.522  15.149
  153DOPC  C31218393   5.447   6.672  15.031
  153DOPC  H12X18394   5.471   6.758  15.097
  153DOPC  H12Y18395   5.347   6.690  14.985
  153DOPC  C31318396   5.552   6.663  14.920
  153DOPC  H13X18397   5.651   6.643  14.966
  153DOPC  H13Y18398   5.528   6.576  14.855
  153DOPC  C31418399   5.563   6.788  14.831
  153DOPC  H14X18400   5.632   6.765  14.746
  153DOPC  H14Y18401   5.463   6.810  14.787
  153DOPC  C31518402   5.616   6.915  14.901
  153DOPC  H15X18403   5.541   6.950  14.975
  153DOPC  H15Y18404   5.626   6.995  14.824
  153DOPC  C31618405   5.752   6.896  14.969
  153DOPC  H16X18406   5.738   6.843  15.065
  153DOPC  H16Y18407   5.815   6.831  14.904
  153DOPC  C31718408   5.829   7.028  14.992
  153DOPC  H17X18409   5.927   7.003  15.036
  153DOPC  H17Y18410   5.847   7.075  14.893
  153DOPC  C31818411   5.758   7.129  15.082
  153DOPC  H18X18412   5.741   7.086  15.183
  153DOPC  H18Y18413   5.820   7.221  15.093
  153DOPC  H18Z18414   5.660   7.159  15.039
  154DOPC     N18415   7.677   4.121  17.007
  154DOPC   C1218416   7.607   4.241  16.947
  154DOPC  H12A18417   7.680   4.299  16.893
  154DOPC  H12B18418   7.568   4.302  17.028
  154DOPC   C1318419   7.788   4.164  17.098
  154DOPC  H13A18420   7.841   4.077  17.136
  154DOPC  H13B18421   7.860   4.226  17.048
  154DOPC  H13C18422   7.750   4.218  17.183
  154DOPC   C1418423   7.734   4.036  16.897
  154DOPC  H14A18424   7.800   4.093  16.833
  154DOPC  H14B18425   7.789   3.951  16.935
  154DOPC  H14C18426   7.656   3.998  16.833
  154DOPC   C1518427   7.578   4.039  17.084
  154DOPC  H15A18428   7.552   4.087  17.178
  154DOPC  H15B18429   7.616   3.940  17.106
  154DOPC  H15C18430   7.488   4.030  17.027
  154DOPC   C1118431   7.487   4.216  16.852
  154DOPC  H11A18432   7.462   4.313  16.803
  154DOPC  H11B18433   7.516   4.145  16.772
  154DOPC     P18434   7.234   4.156  16.853
  154DOPC   O1318435   7.201   4.287  16.796
  154DOPC   O1418436   7.138   4.101  16.952
  154DOPC   O1218437   7.375   4.167  16.926
  154DOPC   O1118438   7.263   4.049  16.739
  154DOPC    C118439   7.308   3.919  16.780
  154DOPC    HA18440   7.234   3.869  16.846
  154DOPC    HB18441   7.403   3.927  16.837
  154DOPC    C218442   7.338   3.821  16.661
  154DOPC    HS18443   7.406   3.742  16.699
  154DOPC   O2118444   7.398   3.890  16.550
  154DOPC   C2118445   7.521   3.934  16.571
  154DOPC   O2218446   7.590   3.910  16.668
  154DOPC   C2218447   7.566   4.016  16.450
  154DOPC   H2R18448   7.638   4.093  16.486
  154DOPC   H2S18449   7.476   4.069  16.410
  154DOPC    C318450   7.210   3.748  16.609
  154DOPC    HX18451   7.152   3.715  16.698
  154DOPC    HY18452   7.243   3.655  16.558
  154DOPC   O3118453   7.126   3.830  16.526
  154DOPC   C3118454   7.149   3.821  16.395
  154DOPC   O3218455   7.228   3.743  16.342
  154DOPC   C3218456   7.061   3.918  16.318
  154DOPC   H2X18457   7.011   3.987  16.391
  154DOPC   H2Y18458   7.128   3.979  16.253
  154DOPC   C2318459   7.631   3.928  16.341
  154DOPC   H3R18460   7.565   3.842  16.319
  154DOPC   H3S18461   7.727   3.888  16.379
  154DOPC   C2418462   7.656   4.002  16.209
  154DOPC   H4R18463   7.715   3.935  16.142
  154DOPC   H4S18464   7.717   4.093  16.227
  154DOPC   C2518465   7.527   4.040  16.135
  154DOPC   H5R18466   7.472   4.117  16.193
  154DOPC   H5S18467   7.462   3.950  16.129
  154DOPC   C2618468   7.551   4.092  15.993
  154DOPC   H6R18469   7.607   4.015  15.935
  154DOPC   H6S18470   7.613   4.184  15.997
  154DOPC   C2718471   7.419   4.123  15.920
  154DOPC   H7R18472   7.364   4.199  15.979
  154DOPC   H7S18473   7.356   4.031  15.919
  154DOPC   C2818474   7.436   4.175  15.776
  154DOPC   H8R18475   7.497   4.268  15.779
  154DOPC   H8S18476   7.335   4.205  15.740
  154DOPC   C2918477   7.496   4.074  15.682
  154DOPC   H9R18478   7.605   4.084  15.667
  154DOPC  C21018479   7.429   3.976  15.619
  154DOPC  H10R18480   7.484   3.909  15.551
  154DOPC  C21118481   7.281   3.950  15.632
  154DOPC  H11R18482   7.224   4.042  15.607
  154DOPC  H11S18483   7.256   3.923  15.737
  154DOPC  C21218484   7.231   3.837  15.540
  154DOPC  H12R18485   7.256   3.863  15.435
  154DOPC  H12S18486   7.120   3.832  15.548
  154DOPC  C21318487   7.289   3.699  15.573
  154DOPC  H13R18488   7.268   3.676  15.680
  154DOPC  H13S18489   7.399   3.701  15.560
  154DOPC  C21418490   7.232   3.584  15.487
  154DOPC  H14R18491   7.122   3.574  15.505
  154DOPC  H14S18492   7.280   3.490  15.521
  154DOPC  C21518493   7.257   3.599  15.335
  154DOPC  H15R18494   7.279   3.499  15.293
  154DOPC  H15S18495   7.347   3.663  15.319
  154DOPC  C21618496   7.137   3.656  15.258
  154DOPC  H16R18497   7.111   3.757  15.297
  154DOPC  H16S18498   7.049   3.590  15.276
  154DOPC  C21718499   7.161   3.665  15.107
  154DOPC  H17R18500   7.183   3.563  15.068
  154DOPC  H17S18501   7.251   3.728  15.088
  154DOPC  C21818502   7.042   3.723  15.030
  154DOPC  H18R18503   6.951   3.660  15.046
  154DOPC  H18S18504   7.063   3.728  14.922
  154DOPC  H18T18505   7.019   3.826  15.066
  154DOPC   C3318506   6.955   3.845  16.232
  154DOPC   H3X18507   6.892   3.783  16.299
  154DOPC   H3Y18508   7.006   3.776  16.161
  154DOPC   C3418509   6.864   3.940  16.154
  154DOPC   H4X18510   6.821   4.015  16.223
  154DOPC   H4Y18511   6.780   3.881  16.111
  154DOPC   C3518512   6.934   4.011  16.037
  154DOPC   H5X18513   6.982   3.936  15.971
  154DOPC   H5Y18514   7.015   4.077  16.077
  154DOPC   C3618515   6.836   4.096  15.955
  154DOPC   H6X18516   6.759   4.031  15.909
  154DOPC   H6Y18517   6.784   4.167  16.024
  154DOPC   C3718518   6.907   4.178  15.846
  154DOPC   H7X18519   6.989   4.234  15.895
  154DOPC   H7Y18520   6.953   4.110  15.771
  154DOPC   C3818521   6.811   4.276  15.775
  154DOPC   H8X18522   6.752   4.329  15.852
  154DOPC   H8Y18523   6.740   4.217  15.714
  154DOPC   C3918524   6.888   4.378  15.693
  154DOPC   H9X18525   6.949   4.447  15.753
  154DOPC  C31018526   6.889   4.390  15.560
  154DOPC  H10X18527   6.952   4.468  15.515
  154DOPC  C31118528   6.815   4.305  15.460
  154DOPC  H11X18529   6.788   4.366  15.371
  154DOPC  H11Y18530   6.719   4.268  15.502
  154DOPC  C31218531   6.897   4.183  15.412
  154DOPC  H12X18532   6.837   4.129  15.336
  154DOPC  H12Y18533   6.914   4.114  15.497
  154DOPC  C31318534   7.033   4.219  15.351
  154DOPC  H13X18535   7.020   4.300  15.275
  154DOPC  H13Y18536   7.100   4.258  15.431
  154DOPC  C31418537   7.101   4.098  15.285
  154DOPC  H14X18538   7.098   4.012  15.355
  154DOPC  H14Y18539   7.043   4.070  15.194
  154DOPC  C31518540   7.247   4.126  15.246
  154DOPC  H15X18541   7.305   4.146  15.338
  154DOPC  H15Y18542   7.251   4.217  15.183
  154DOPC  C31618543   7.310   4.009  15.170
  154DOPC  H16X18544   7.301   3.916  15.231
  154DOPC  H16Y18545   7.254   3.992  15.076
  154DOPC  C31718546   7.458   4.032  15.137
  154DOPC  H17X18547   7.468   4.126  15.080
  154DOPC  H17Y18548   7.515   4.044  15.232
  154DOPC  C31818549   7.520   3.917  15.056
  154DOPC  H18X18550   7.463   3.902  14.962
  154DOPC  H18Y18551   7.625   3.939  15.031
  154DOPC  H18Z18552   7.516   3.822  15.114
  155DOPC     N18553   2.019   1.907  16.876
  155DOPC   C1218554   2.131   1.854  16.966
  155DOPC  H12A18555   2.191   1.937  17.001
  155DOPC  H12B18556   2.197   1.791  16.907
  155DOPC   C1318557   1.914   1.974  16.960
  155DOPC  H13A18558   1.869   1.904  17.028
  155DOPC  H13B18559   1.956   2.054  17.019
  155DOPC  H13C18560   1.834   2.015  16.899
  155DOPC   C1418561   1.958   1.792  16.802
  155DOPC  H14A18562   1.920   1.720  16.873
  155DOPC  H14B18563   1.877   1.823  16.738
  155DOPC  H14C18564   2.033   1.739  16.744
  155DOPC   C1518565   2.074   2.006  16.779
  155DOPC  H15A18566   2.149   1.961  16.716
  155DOPC  H15B18567   2.118   2.090  16.832
  155DOPC  H15C18568   1.995   2.045  16.716
  155DOPC   C1118569   2.090   1.769  17.089
  155DOPC  H11A18570   2.181   1.750  17.150
  155DOPC  H11B18571   2.023   1.830  17.153
  155DOPC     P18572   2.115   1.524  17.009
  155DOPC   O1318573   2.028   1.424  16.943
  155DOPC   O1418574   2.189   1.481  17.129
  155DOPC   O1218575   2.024   1.648  17.052
  155DOPC   O1118576   2.213   1.590  16.903
  155DOPC    C118577   2.278   1.506  16.807
  155DOPC    HA18578   2.207   1.474  16.729
  155DOPC    HB18579   2.322   1.416  16.854
  155DOPC    C218580   2.395   1.582  16.736
  155DOPC    HS18581   2.463   1.615  16.817
  155DOPC   O2118582   2.341   1.695  16.665
  155DOPC   C2118583   2.430   1.788  16.634
  155DOPC   O2218584   2.547   1.790  16.667
  155DOPC   C2218585   2.358   1.906  16.565
  155DOPC   H2R18586   2.348   1.984  16.643
  155DOPC   H2S18587   2.257   1.873  16.533
  155DOPC    C318588   2.476   1.486  16.643
  155DOPC    HX18589   2.514   1.403  16.706
  155DOPC    HY18590   2.567   1.537  16.604
  155DOPC   O3118591   2.393   1.429  16.539
  155DOPC   C3118592   2.397   1.493  16.422
  155DOPC   O3218593   2.466   1.590  16.397
  155DOPC   C3218594   2.302   1.427  16.322
  155DOPC   H2X18595   2.351   1.435  16.222
  155DOPC   H2Y18596   2.292   1.319  16.347
  155DOPC   C2318597   2.435   1.966  16.445
  155DOPC   H3R18598   2.544   1.947  16.451
  155DOPC   H3S18599   2.422   2.077  16.448
  155DOPC   C2418600   2.382   1.918  16.309
  155DOPC   H4R18601   2.272   1.933  16.306
  155DOPC   H4S18602   2.402   1.810  16.297
  155DOPC   C2518603   2.444   1.994  16.190
  155DOPC   H5R18604   2.550   1.962  16.179
  155DOPC   H5S18605   2.444   2.102  16.214
  155DOPC   C2618606   2.370   1.975  16.057
  155DOPC   H6R18607   2.390   2.065  15.994
  155DOPC   H6S18608   2.260   1.972  16.075
  155DOPC   C2718609   2.413   1.851  15.977
  155DOPC   H7R18610   2.406   1.762  16.044
  155DOPC   H7S18611   2.520   1.862  15.948
  155DOPC   C2818612   2.328   1.822  15.851
  155DOPC   H8R18613   2.222   1.808  15.885
  155DOPC   H8S18614   2.361   1.725  15.810
  155DOPC   C2918615   2.332   1.931  15.746
  155DOPC   H9R18616   2.339   2.033  15.787
  155DOPC  C21018617   2.327   1.916  15.612
  155DOPC  H10R18618   2.332   2.007  15.550
  155DOPC  C21118619   2.315   1.788  15.535
  155DOPC  H11R18620   2.213   1.781  15.491
  155DOPC  H11S18621   2.326   1.699  15.601
  155DOPC  C21218622   2.418   1.774  15.420
  155DOPC  H12R18623   2.427   1.666  15.394
  155DOPC  H12S18624   2.517   1.807  15.456
  155DOPC  C21318625   2.383   1.851  15.291
  155DOPC  H13R18626   2.473   1.854  15.225
  155DOPC  H13S18627   2.360   1.956  15.320
  155DOPC  C21418628   2.265   1.794  15.210
  155DOPC  H14R18629   2.215   1.880  15.160
  155DOPC  H14S18630   2.190   1.748  15.278
  155DOPC  C21518631   2.303   1.694  15.099
  155DOPC  H15R18632   2.378   1.740  15.031
  155DOPC  H15S18633   2.211   1.676  15.038
  155DOPC  C21618634   2.354   1.558  15.149
  155DOPC  H16R18635   2.291   1.527  15.235
  155DOPC  H16S18636   2.458   1.569  15.186
  155DOPC  C21718637   2.348   1.447  15.043
  155DOPC  H17R18638   2.243   1.436  15.009
  155DOPC  H17S18639   2.377   1.351  15.091
  155DOPC  C21818640   2.438   1.470  14.921
  155DOPC  H18R18641   2.411   1.564  14.869
  155DOPC  H18S18642   2.427   1.386  14.848
  155DOPC  H18T18643   2.545   1.475  14.952
  155DOPC   C3318644   2.162   1.494  16.316
  155DOPC   H3X18645   2.106   1.472  16.409
  155DOPC   H3Y18646   2.106   1.451  16.231
  155DOPC   C3418647   2.172   1.647  16.298
  155DOPC   H4X18648   2.246   1.670  16.219
  155DOPC   H4Y18649   2.211   1.690  16.393
  155DOPC   C3518650   2.039   1.717  16.264
  155DOPC   H5X18651   2.048   1.822  16.300
  155DOPC   H5Y18652   1.954   1.670  16.318
  155DOPC   C3618653   2.012   1.723  16.113
  155DOPC   H6X18654   2.106   1.747  16.061
  155DOPC   H6Y18655   1.978   1.623  16.077
  155DOPC   C3718656   1.909   1.831  16.076
  155DOPC   H7X18657   1.811   1.807  16.123
  155DOPC   H7Y18658   1.944   1.927  16.120
  155DOPC   C3818659   1.893   1.852  15.924
  155DOPC   H8X18660   1.994   1.869  15.881
  155DOPC   H8Y18661   1.835   1.945  15.908
  155DOPC   C3918662   1.821   1.737  15.858
  155DOPC   H9X18663   1.719   1.720  15.894
  155DOPC  C31018664   1.871   1.655  15.764
  155DOPC  H10X18665   1.806   1.576  15.723
  155DOPC  C31118666   2.009   1.660  15.703
  155DOPC  H11X18667   2.086   1.627  15.776
  155DOPC  H11Y18668   2.034   1.764  15.673
  155DOPC  C31218669   2.018   1.570  15.578
  155DOPC  H12X18670   2.110   1.596  15.521
  155DOPC  H12Y18671   1.932   1.591  15.511
  155DOPC  C31318672   2.024   1.419  15.609
  155DOPC  H13X18673   2.125   1.393  15.646
  155DOPC  H13Y18674   1.952   1.395  15.690
  155DOPC  C31418675   1.990   1.333  15.486
  155DOPC  H14X18676   1.982   1.226  15.517
  155DOPC  H14Y18677   1.890   1.364  15.449
  155DOPC  C31518678   2.093   1.344  15.373
  155DOPC  H15X18679   2.187   1.296  15.406
  155DOPC  H15Y18680   2.116   1.451  15.353
  155DOPC  C31618681   2.047   1.280  15.240
  155DOPC  H16X18682   2.132   1.284  15.169
  155DOPC  H16Y18683   2.025   1.172  15.258
  155DOPC  C31718684   1.925   1.347  15.174
  155DOPC  H17X18685   1.907   1.296  15.076
  155DOPC  H17Y18686   1.835   1.329  15.237
  155DOPC  C31818687   1.939   1.497  15.149
  155DOPC  H18X18688   1.851   1.536  15.094
  155DOPC  H18Y18689   1.947   1.552  15.245
  155DOPC  H18Z18690   2.030   1.518  15.089
  156DOPC     N18691   6.767   6.114  16.878
  156DOPC   C1218692   6.853   6.221  16.812
  156DOPC  H12A18693   6.822   6.231  16.709
  156DOPC  H12B18694   6.955   6.186  16.809
  156DOPC   C1318695   6.798   5.977  16.825
  156DOPC  H13A18696   6.725   5.906  16.860
  156DOPC  H13B18697   6.791   5.974  16.718
  156DOPC  H13C18698   6.896   5.942  16.856
  156DOPC   C1418699   6.622   6.139  16.848
  156DOPC  H14A18700   6.595   6.239  16.881
  156DOPC  H14B18701   6.601   6.131  16.743
  156DOPC  H14C18702   6.558   6.066  16.896
  156DOPC   C1518703   6.785   6.117  17.027
  156DOPC  H15A18704   6.723   6.042  17.074
  156DOPC  H15B18705   6.757   6.214  17.064
  156DOPC  H15C18706   6.888   6.099  17.055
  156DOPC   C1118707   6.853   6.362  16.878
  156DOPC  H11A18708   6.907   6.358  16.975
  156DOPC  H11B18709   6.910   6.429  16.810
  156DOPC     P18710   6.694   6.565  16.915
  156DOPC   O1318711   6.802   6.623  16.998
  156DOPC   O1418712   6.556   6.584  16.966
  156DOPC   O1218713   6.720   6.410  16.899
  156DOPC   O1118714   6.703   6.619  16.767
  156DOPC    C118715   6.606   6.581  16.667
  156DOPC    HA18716   6.596   6.663  16.593
  156DOPC    HB18717   6.505   6.567  16.711
  156DOPC    C218718   6.647   6.452  16.590
  156DOPC    HS18719   6.713   6.395  16.660
  156DOPC   O2118720   6.718   6.488  16.469
  156DOPC   C2118721   6.800   6.393  16.426
  156DOPC   O2218722   6.825   6.289  16.486
  156DOPC   C2218723   6.869   6.439  16.296
  156DOPC   H2R18724   6.978   6.434  16.317
  156DOPC   H2S18725   6.842   6.545  16.275
  156DOPC    C318726   6.525   6.360  16.560
  156DOPC    HX18727   6.472   6.342  16.656
  156DOPC    HY18728   6.563   6.261  16.527
  156DOPC   O3118729   6.432   6.421  16.467
  156DOPC   C3118730   6.439   6.376  16.342
  156DOPC   O3218731   6.514   6.289  16.302
  156DOPC   C3218732   6.338   6.451  16.255
  156DOPC   H2X18733   6.252   6.481  16.319
  156DOPC   H2Y18734   6.389   6.543  16.218
  156DOPC   C2318735   6.839   6.351  16.172
  156DOPC   H3R18736   6.806   6.249  16.203
  156DOPC   H3S18737   6.932   6.339  16.113
  156DOPC   C2418738   6.733   6.413  16.079
  156DOPC   H4R18739   6.771   6.507  16.035
  156DOPC   H4S18740   6.644   6.438  16.140
  156DOPC   C2518741   6.686   6.318  15.967
  156DOPC   H5R18742   6.593   6.359  15.922
  156DOPC   H5S18743   6.660   6.220  16.011
  156DOPC   C2618744   6.787   6.298  15.852
  156DOPC   H6R18745   6.883   6.259  15.893
  156DOPC   H6S18746   6.808   6.397  15.805
  156DOPC   C2718747   6.733   6.201  15.746
  156DOPC   H7R18748   6.634   6.237  15.713
  156DOPC   H7S18749   6.718   6.103  15.795
  156DOPC   C2818750   6.826   6.180  15.624
  156DOPC   H8R18751   6.788   6.093  15.567
  156DOPC   H8S18752   6.926   6.151  15.661
  156DOPC   C2918753   6.837   6.298  15.530
  156DOPC   H9R18754   6.934   6.350  15.533
  156DOPC  C21018755   6.742   6.344  15.446
  156DOPC  H10R18756   6.766   6.430  15.381
  156DOPC  C21118757   6.603   6.290  15.426
  156DOPC  H11R18758   6.529   6.372  15.438
  156DOPC  H11S18759   6.577   6.215  15.504
  156DOPC  C21218760   6.578   6.222  15.290
  156DOPC  H12R18761   6.473   6.187  15.289
  156DOPC  H12S18762   6.642   6.131  15.282
  156DOPC  C21318763   6.601   6.309  15.164
  156DOPC  H13R18764   6.559   6.252  15.078
  156DOPC  H13S18765   6.709   6.322  15.146
  156DOPC  C21418766   6.534   6.447  15.169
  156DOPC  H14R18767   6.603   6.519  15.217
  156DOPC  H14S18768   6.443   6.442  15.233
  156DOPC  C21518769   6.491   6.497  15.030
  156DOPC  H15R18770   6.415   6.427  14.990
  156DOPC  H15S18771   6.578   6.495  14.960
  156DOPC  C21618772   6.430   6.639  15.032
  156DOPC  H16R18773   6.511   6.714  15.017
  156DOPC  H16S18774   6.387   6.657  15.133
  156DOPC  C21718775   6.319   6.660  14.929
  156DOPC  H17R18776   6.272   6.759  14.947
  156DOPC  H17S18777   6.240   6.583  14.945
  156DOPC  C21818778   6.365   6.654  14.783
  156DOPC  H18R18779   6.413   6.557  14.760
  156DOPC  H18S18780   6.438   6.735  14.763
  156DOPC  H18T18781   6.279   6.667  14.714
  156DOPC   C3318782   6.287   6.366  16.136
  156DOPC   H3X18783   6.239   6.274  16.175
  156DOPC   H3Y18784   6.374   6.334  16.074
  156DOPC   C3418785   6.185   6.439  16.047
  156DOPC   H4X18786   6.094   6.460  16.107
  156DOPC   H4Y18787   6.156   6.371  15.965
  156DOPC   C3518788   6.235   6.571  15.986
  156DOPC   H5X18789   6.255   6.644  16.067
  156DOPC   H5Y18790   6.153   6.614  15.924
  156DOPC   C3618791   6.360   6.555  15.899
  156DOPC   H6X18792   6.442   6.512  15.960
  156DOPC   H6Y18793   6.339   6.484  15.816
  156DOPC   C3718794   6.410   6.688  15.841
  156DOPC   H7X18795   6.330   6.734  15.779
  156DOPC   H7Y18796   6.432   6.757  15.925
  156DOPC   C3818797   6.537   6.670  15.755
  156DOPC   H8X18798   6.511   6.608  15.667
  156DOPC   H8Y18799   6.611   6.611  15.813
  156DOPC   C3918800   6.598   6.803  15.715
  156DOPC   H9X18801   6.655   6.852  15.795
  156DOPC  C31018802   6.587   6.865  15.596
  156DOPC  H10X18803   6.637   6.962  15.583
  156DOPC  C31118804   6.511   6.817  15.475
  156DOPC  H11X18805   6.417   6.875  15.465
  156DOPC  H11Y18806   6.482   6.710  15.484
  156DOPC  C31218807   6.592   6.833  15.345
  156DOPC  H12X18808   6.615   6.940  15.326
  156DOPC  H12Y18809   6.528   6.799  15.261
  156DOPC  C31318810   6.722   6.751  15.343
  156DOPC  H13X18811   6.797   6.797  15.411
  156DOPC  H13Y18812   6.699   6.650  15.382
  156DOPC  C31418813   6.782   6.736  15.202
  156DOPC  H14X18814   6.703   6.694  15.135
  156DOPC  H14Y18815   6.808   6.836  15.161
  156DOPC  C31518816   6.904   6.643  15.199
  156DOPC  H15X18817   6.885   6.559  15.269
  156DOPC  H15Y18818   6.993   6.697  15.235
  156DOPC  C31618819   6.930   6.585  15.059
  156DOPC  H16X18820   6.839   6.530  15.025
  156DOPC  H16Y18821   6.948   6.668  14.988
  156DOPC  C31718822   7.050   6.488  15.053
  156DOPC  H17X18823   7.062   6.455  14.948
  156DOPC  H17Y18824   7.142   6.543  15.081
  156DOPC  C31818825   7.037   6.364  15.142
  156DOPC  H18X18826   7.034   6.392  15.250
  156DOPC  H18Y18827   6.943   6.308  15.118
  156DOPC  H18Z18828   7.123   6.296  15.126
  157DOPC     N18829   6.557   1.910  16.970
  157DOPC   C1218830   6.654   1.860  16.864
  157DOPC  H12A18831   6.727   1.937  16.844
  157DOPC  H12B18832   6.598   1.844  16.773
  157DOPC   C1318833   6.619   1.902  17.106
  157DOPC  H13A18834   6.709   1.962  17.112
  157DOPC  H13B18835   6.550   1.937  17.182
  157DOPC  H13C18836   6.645   1.799  17.127
  157DOPC   C1418837   6.435   1.821  16.971
  157DOPC  H14A18838   6.467   1.719  16.987
  157DOPC  H14B18839   6.365   1.850  17.048
  157DOPC  H14C18840   6.383   1.823  16.876
  157DOPC   C1518841   6.512   2.051  16.946
  157DOPC  H15A18842   6.456   2.059  16.854
  157DOPC  H15B18843   6.596   2.119  16.942
  157DOPC  H15C18844   6.448   2.083  17.026
  157DOPC   C1118845   6.731   1.729  16.893
  157DOPC  H11A18846   6.790   1.706  16.802
  157DOPC  H11B18847   6.804   1.744  16.975
  157DOPC     P18848   6.679   1.473  16.891
  157DOPC   O1318849   6.612   1.383  16.989
  157DOPC   O1418850   6.826   1.462  16.880
  157DOPC   O1218851   6.642   1.623  16.928
  157DOPC   O1118852   6.614   1.455  16.748
  157DOPC    C118853   6.506   1.538  16.704
  157DOPC    HA18854   6.539   1.643  16.693
  157DOPC    HB18855   6.422   1.534  16.777
  157DOPC    C218856   6.451   1.492  16.566
  157DOPC    HS18857   6.431   1.383  16.576
  157DOPC   O2118858   6.553   1.514  16.466
  157DOPC   C2118859   6.534   1.451  16.351
  157DOPC   O2218860   6.439   1.380  16.324
  157DOPC   C2218861   6.653   1.479  16.260
  157DOPC   H2R18862   6.729   1.402  16.284
  157DOPC   H2S18863   6.695   1.579  16.285
  157DOPC    C318864   6.316   1.562  16.528
  157DOPC    HX18865   6.245   1.552  16.613
  157DOPC    HY18866   6.270   1.505  16.444
  157DOPC   O3118867   6.332   1.699  16.484
  157DOPC   C3118868   6.324   1.792  16.577
  157DOPC   O3218869   6.304   1.774  16.695
  157DOPC   C3218870   6.348   1.930  16.515
  157DOPC   H2X18871   6.346   1.923  16.404
  157DOPC   H2Y18872   6.264   1.994  16.548
  157DOPC   C2318873   6.620   1.472  16.109
  157DOPC   H3R18874   6.565   1.379  16.084
  157DOPC   H3S18875   6.717   1.469  16.054
  157DOPC   C2418876   6.542   1.594  16.057
  157DOPC   H4R18877   6.586   1.686  16.101
  157DOPC   H4S18878   6.436   1.588  16.091
  157DOPC   C2518879   6.547   1.607  15.904
  157DOPC   H5R18880   6.500   1.518  15.856
  157DOPC   H5S18881   6.654   1.608  15.874
  157DOPC   C2618882   6.482   1.736  15.851
  157DOPC   H6R18883   6.528   1.763  15.754
  157DOPC   H6S18884   6.504   1.818  15.922
  157DOPC   C2718885   6.330   1.725  15.829
  157DOPC   H7R18886   6.289   1.828  15.828
  157DOPC   H7S18887   6.283   1.672  15.915
  157DOPC   C2818888   6.292   1.657  15.695
  157DOPC   H8R18889   6.328   1.552  15.697
  157DOPC   H8S18890   6.347   1.709  15.614
  157DOPC   C2918891   6.144   1.663  15.670
  157DOPC   H9R18892   6.086   1.719  15.745
  157DOPC  C21018893   6.078   1.607  15.567
  157DOPC  H10R18894   5.969   1.619  15.562
  157DOPC  C21118895   6.138   1.525  15.456
  157DOPC  H11R18896   6.121   1.417  15.480
  157DOPC  H11S18897   6.247   1.540  15.446
  157DOPC  C21218898   6.071   1.550  15.319
  157DOPC  H12R18899   6.108   1.645  15.275
  157DOPC  H12S18900   5.962   1.560  15.334
  157DOPC  C21318901   6.090   1.434  15.219
  157DOPC  H13R18902   6.028   1.453  15.129
  157DOPC  H13S18903   6.051   1.341  15.266
  157DOPC  C21418904   6.235   1.408  15.174
  157DOPC  H14R18905   6.302   1.411  15.262
  157DOPC  H14S18906   6.267   1.489  15.105
  157DOPC  C21518907   6.249   1.271  15.107
  157DOPC  H15R18908   6.180   1.264  15.019
  157DOPC  H15S18909   6.216   1.194  15.180
  157DOPC  C21618910   6.392   1.237  15.062
  157DOPC  H16R18911   6.464   1.275  15.137
  157DOPC  H16S18912   6.413   1.289  14.966
  157DOPC  C21718913   6.413   1.086  15.047
  157DOPC  H17R18914   6.329   1.043  14.988
  157DOPC  H17S18915   6.409   1.040  15.148
  157DOPC  C21818916   6.545   1.048  14.979
  157DOPC  H18R18917   6.569   0.940  14.996
  157DOPC  H18S18918   6.629   1.108  15.020
  157DOPC  H18T18919   6.539   1.065  14.870
  157DOPC   C3318920   6.481   1.992  16.563
  157DOPC   H3X18921   6.566   1.944  16.510
  157DOPC   H3Y18922   6.493   1.970  16.672
  157DOPC   C3418923   6.488   2.145  16.548
  157DOPC   H4X18924   6.584   2.180  16.591
  157DOPC   H4Y18925   6.406   2.191  16.607
  157DOPC   C3518926   6.479   2.196  16.404
  157DOPC   H5X18927   6.491   2.307  16.407
  157DOPC   H5Y18928   6.378   2.175  16.362
  157DOPC   C3618929   6.586   2.139  16.310
  157DOPC   H6X18930   6.682   2.132  16.365
  157DOPC   H6Y18931   6.558   2.035  16.281
  157DOPC   C3718932   6.610   2.224  16.184
  157DOPC   H7X18933   6.659   2.319  16.216
  157DOPC   H7Y18934   6.682   2.172  16.117
  157DOPC   C3818935   6.483   2.262  16.104
  157DOPC   H8X18936   6.515   2.334  16.026
  157DOPC   H8Y18937   6.414   2.318  16.171
  157DOPC   C3918938   6.412   2.143  16.045
  157DOPC   H9X18939   6.396   2.059  16.114
  157DOPC  C31018940   6.366   2.131  15.919
  157DOPC  H10X18941   6.315   2.038  15.890
  157DOPC  C31118942   6.375   2.233  15.807
  157DOPC  H11X18943   6.423   2.327  15.841
  157DOPC  H11Y18944   6.273   2.260  15.774
  157DOPC  C31218945   6.453   2.181  15.685
  157DOPC  H12X18946   6.556   2.151  15.715
  157DOPC  H12Y18947   6.464   2.266  15.614
  157DOPC  C31318948   6.384   2.065  15.612
  157DOPC  H13X18949   6.389   1.973  15.673
  157DOPC  H13Y18950   6.276   2.092  15.599
  157DOPC  C31418951   6.441   2.038  15.472
  157DOPC  H14X18952   6.376   1.964  15.421
  157DOPC  H14Y18953   6.439   2.132  15.413
  157DOPC  C31518954   6.585   1.982  15.473
  157DOPC  H15X18955   6.585   1.884  15.524
  157DOPC  H15Y18956   6.651   2.050  15.530
  157DOPC  C31618957   6.640   1.966  15.331
  157DOPC  H16X18958   6.570   1.904  15.271
  157DOPC  H16Y18959   6.647   2.066  15.283
  157DOPC  C31718960   6.778   1.899  15.327
  157DOPC  H17X18961   6.849   1.956  15.391
  157DOPC  H17Y18962   6.769   1.797  15.370
  157DOPC  C31818963   6.835   1.889  15.185
  157DOPC  H18X18964   6.763   1.838  15.118
  157DOPC  H18Y18965   6.856   1.990  15.144
  157DOPC  H18Z18966   6.930   1.830  15.184
  158DOPC     N18967   4.579   7.808  16.912
  158DOPC   C1218968   4.469   7.812  16.807
  158DOPC  H12A18969   4.391   7.742  16.833
  158DOPC  H12B18970   4.508   7.780  16.712
  158DOPC   C1318971   4.638   7.670  16.924
  158DOPC  H13A18972   4.564   7.599  16.961
  158DOPC  H13B18973   4.675   7.635  16.829
  158DOPC  H13C18974   4.721   7.671  16.993
  158DOPC   C1418975   4.523   7.849  17.044
  158DOPC  H14A18976   4.600   7.858  17.120
  158DOPC  H14B18977   4.471   7.943  17.033
  158DOPC  H14C18978   4.448   7.779  17.079
  158DOPC   C1518979   4.691   7.902  16.877
  158DOPC  H15A18980   4.655   8.004  16.877
  158DOPC  H15B18981   4.732   7.881  16.779
  158DOPC  H15C18982   4.771   7.895  16.949
  158DOPC   C1118983   4.397   7.948  16.787
  158DOPC  H11A18984   4.471   8.030  16.778
  158DOPC  H11B18985   4.343   7.944  16.690
  158DOPC     P18986   4.165   7.905  16.898
  158DOPC   O1318987   4.109   7.912  17.035
  158DOPC   O1418988   4.182   7.769  16.842
  158DOPC   O1218989   4.307   7.976  16.896
  158DOPC   O1118990   4.072   7.992  16.804
  158DOPC    C118991   4.113   8.111  16.737
  158DOPC    HA18992   4.223   8.129  16.740
  158DOPC    HB18993   4.065   8.199  16.786
  158DOPC    C218994   4.071   8.111  16.587
  158DOPC    HS18995   3.960   8.116  16.589
  158DOPC   O2118996   4.120   7.993  16.520
  158DOPC   C2118997   4.039   7.950  16.423
  158DOPC   O2218998   3.922   7.984  16.410
  158DOPC   C2218999   4.114   7.862  16.323
  158DOPC   H2R19000   4.202   7.920  16.286
  158DOPC   H2S19001   4.046   7.845  16.237
  158DOPC    C319002   4.123   8.237  16.513
  158DOPC    HX19003   4.076   8.326  16.560
  158DOPC    HY19004   4.089   8.236  16.407
  158DOPC   O3119005   4.267   8.251  16.525
  158DOPC   C3119006   4.339   8.197  16.427
  158DOPC   O3219007   4.294   8.147  16.326
  158DOPC   C3219008   4.488   8.215  16.456
  158DOPC   H2X19009   4.524   8.300  16.394
  158DOPC   H2Y19010   4.501   8.242  16.563
  158DOPC   C2319011   4.163   7.727  16.378
  158DOPC   H3R19012   4.075   7.662  16.401
  158DOPC   H3S19013   4.217   7.743  16.474
  158DOPC   C2419014   4.257   7.652  16.282
  158DOPC   H4R19015   4.291   7.561  16.335
  158DOPC   H4S19016   4.347   7.714  16.261
  158DOPC   C2519017   4.193   7.607  16.149
  158DOPC   H5R19018   4.085   7.586  16.165
  158DOPC   H5S19019   4.240   7.511  16.119
  158DOPC   C2619020   4.211   7.705  16.032
  158DOPC   H6R19021   4.320   7.725  16.016
  158DOPC   H6S19022   4.163   7.802  16.056
  158DOPC   C2719023   4.150   7.652  15.901
  158DOPC   H7R19024   4.046   7.620  15.923
  158DOPC   H7S19025   4.205   7.561  15.868
  158DOPC   C2819026   4.144   7.755  15.786
  158DOPC   H8R19027   4.095   7.847  15.825
  158DOPC   H8S19028   4.077   7.714  15.708
  158DOPC   C2919029   4.278   7.790  15.726
  158DOPC   H9R19030   4.365   7.764  15.788
  158DOPC  C21019031   4.297   7.848  15.606
  158DOPC  H10R19032   4.400   7.869  15.573
  158DOPC  C21119033   4.190   7.889  15.508
  158DOPC  H11R19034   4.095   7.835  15.527
  158DOPC  H11S19035   4.220   7.865  15.404
  158DOPC  C21219036   4.160   8.040  15.517
  158DOPC  H12R19037   4.249   8.099  15.486
  158DOPC  H12S19038   4.139   8.066  15.623
  158DOPC  C21319039   4.037   8.084  15.436
  158DOPC  H13R19040   4.010   8.188  15.465
  158DOPC  H13S19041   3.951   8.019  15.464
  158DOPC  C21419042   4.054   8.081  15.283
  158DOPC  H14R19043   3.958   8.115  15.238
  158DOPC  H14S19044   4.072   7.977  15.248
  158DOPC  C21519045   4.166   8.172  15.231
  158DOPC  H15R19046   4.264   8.121  15.243
  158DOPC  H15S19047   4.169   8.264  15.293
  158DOPC  C21619048   4.147   8.214  15.085
  158DOPC  H16R19049   4.049   8.267  15.076
  158DOPC  H16S19050   4.142   8.124  15.020
  158DOPC  C21719051   4.257   8.307  15.034
  158DOPC  H17R19052   4.353   8.250  15.030
  158DOPC  H17S19053   4.271   8.390  15.107
  158DOPC  C21819054   4.228   8.367  14.896
  158DOPC  H18R19055   4.312   8.431  14.862
  158DOPC  H18S19056   4.136   8.429  14.900
  158DOPC  H18T19057   4.213   8.286  14.821
  158DOPC   C3319058   4.571   8.089  16.423
  158DOPC   H3X19059   4.553   8.059  16.318
  158DOPC   H3Y19060   4.538   8.005  16.488
  158DOPC   C3419061   4.722   8.111  16.443
  158DOPC   H4X19062   4.738   8.155  16.544
  158DOPC   H4Y19063   4.758   8.186  16.369
  158DOPC   C3519064   4.807   7.983  16.433
  158DOPC   H5X19065   4.773   7.912  16.511
  158DOPC   H5Y19066   4.913   8.009  16.454
  158DOPC   C3619067   4.800   7.911  16.296
  158DOPC   H6X19068   4.853   7.814  16.305
  158DOPC   H6Y19069   4.694   7.889  16.271
  158DOPC   C3719070   4.866   7.990  16.182
  158DOPC   H7X19071   4.819   8.090  16.172
  158DOPC   H7Y19072   4.972   8.007  16.208
  158DOPC   C3819073   4.860   7.916  16.046
  158DOPC   H8X19074   4.898   7.813  16.061
  158DOPC   H8Y19075   4.930   7.967  15.976
  158DOPC   C3919076   4.721   7.914  15.988
  158DOPC   H9X19077   4.641   7.943  16.057
  158DOPC  C31019078   4.689   7.882  15.861
  158DOPC  H10X19079   4.584   7.887  15.830
  158DOPC  C31119080   4.785   7.842  15.752
  158DOPC  H11X19081   4.746   7.752  15.699
  158DOPC  H11Y19082   4.884   7.813  15.793
  158DOPC  C31219083   4.809   7.952  15.647
  158DOPC  H12X19084   4.881   7.913  15.571
  158DOPC  H12Y19085   4.857   8.040  15.696
  158DOPC  C31319086   4.681   7.999  15.575
  158DOPC  H13X19087   4.627   7.911  15.534
  158DOPC  H13Y19088   4.615   8.048  15.649
  158DOPC  C31419089   4.709   8.100  15.461
  158DOPC  H14X19090   4.614   8.153  15.437
  158DOPC  H14Y19091   4.780   8.176  15.499
  158DOPC  C31519092   4.766   8.038  15.332
  158DOPC  H15X19093   4.858   7.982  15.357
  158DOPC  H15Y19094   4.795   8.121  15.264
  158DOPC  C31619095   4.670   7.945  15.256
  158DOPC  H16X19096   4.724   7.902  15.170
  158DOPC  H16Y19097   4.640   7.860  15.321
  158DOPC  C31719098   4.544   8.015  15.203
  158DOPC  H17X19099   4.485   8.055  15.289
  158DOPC  H17Y19100   4.575   8.102  15.141
  158DOPC  C31819101   4.454   7.923  15.120
  158DOPC  H18X19102   4.510   7.882  15.033
  158DOPC  H18Y19103   4.417   7.839  15.181
  158DOPC  H18Z19104   4.366   7.979  15.082
  159DOPC     N19105   7.314   2.270  17.135
  159DOPC   C1219106   7.417   2.229  17.029
  159DOPC  H12A19107   7.374   2.151  16.967
  159DOPC  H12B19108   7.505   2.189  17.077
  159DOPC   C1319109   7.295   2.158  17.232
  159DOPC  H13A19110   7.223   2.185  17.308
  159DOPC  H13B19111   7.260   2.068  17.182
  159DOPC  H13C19112   7.387   2.133  17.281
  159DOPC   C1419113   7.184   2.302  17.068
  159DOPC  H14A19114   7.148   2.216  17.012
  159DOPC  H14B19115   7.109   2.336  17.136
  159DOPC  H14C19116   7.201   2.378  16.993
  159DOPC   C1519117   7.362   2.392  17.207
  159DOPC  H15A19118   7.456   2.373  17.257
  159DOPC  H15B19119   7.289   2.425  17.281
  159DOPC  H15C19120   7.377   2.472  17.136
  159DOPC   C1119121   7.465   2.337  16.928
  159DOPC  H11A19122   7.515   2.420  16.983
  159DOPC  H11B19123   7.541   2.293  16.861
  159DOPC     P19124   7.287   2.303  16.739
  159DOPC   O1319125   7.150   2.356  16.724
  159DOPC   O1419126   7.299   2.161  16.779
  159DOPC   O1219127   7.356   2.391  16.853
  159DOPC   O1119128   7.377   2.333  16.612
  159DOPC    C119129   7.450   2.456  16.605
  159DOPC    HA19130   7.519   2.465  16.692
  159DOPC    HB19131   7.380   2.543  16.608
  159DOPC    C219132   7.539   2.471  16.479
  159DOPC    HS19133   7.603   2.559  16.500
  159DOPC   O2119134   7.454   2.497  16.365
  159DOPC   C2119135   7.517   2.560  16.267
  159DOPC   O2219136   7.630   2.607  16.275
  159DOPC   C2219137   7.427   2.569  16.144
  159DOPC   H2R19138   7.334   2.624  16.173
  159DOPC   H2S19139   7.400   2.465  16.116
  159DOPC    C319140   7.636   2.350  16.453
  159DOPC    HX19141   7.698   2.340  16.544
  159DOPC    HY19142   7.705   2.376  16.370
  159DOPC   O3119143   7.570   2.224  16.431
  159DOPC   C3119144   7.538   2.195  16.306
  159DOPC   O3219145   7.562   2.263  16.209
  159DOPC   C3219146   7.475   2.055  16.304
  159DOPC   H2X19147   7.532   1.991  16.376
  159DOPC   H2Y19148   7.372   2.066  16.342
  159DOPC   C2319149   7.497   2.641  16.027
  159DOPC   H3R19150   7.589   2.585  16.000
  159DOPC   H3S19151   7.527   2.743  16.058
  159DOPC   C2419152   7.410   2.652  15.900
  159DOPC   H4R19153   7.470   2.703  15.823
  159DOPC   H4S19154   7.321   2.715  15.921
  159DOPC   C2519155   7.363   2.516  15.846
  159DOPC   H5R19156   7.282   2.478  15.912
  159DOPC   H5S19157   7.447   2.443  15.852
  159DOPC   C2619158   7.312   2.522  15.701
  159DOPC   H6R19159   7.242   2.608  15.693
  159DOPC   H6S19160   7.254   2.430  15.679
  159DOPC   C2719161   7.422   2.536  15.595
  159DOPC   H7R19162   7.490   2.620  15.622
  159DOPC   H7S19163   7.374   2.562  15.498
  159DOPC   C2819164   7.504   2.406  15.576
  159DOPC   H8R19165   7.432   2.326  15.547
  159DOPC   H8S19166   7.548   2.377  15.674
  159DOPC   C2919167   7.610   2.419  15.470
  159DOPC   H9R19168   7.595   2.501  15.398
  159DOPC  C21019169   7.719   2.341  15.458
  159DOPC  H10R19170   7.789   2.361  15.375
  159DOPC  C21119171   7.758   2.225  15.546
  159DOPC  H11R19172   7.698   2.224  15.640
  159DOPC  H11S19173   7.864   2.236  15.578
  159DOPC  C21219174   7.741   2.088  15.478
  159DOPC  H12R19175   7.637   2.079  15.439
  159DOPC  H12S19176   7.755   2.009  15.554
  159DOPC  C21319177   7.840   2.063  15.363
  159DOPC  H13R19178   7.944   2.075  15.401
  159DOPC  H13S19179   7.824   2.141  15.285
  159DOPC  C21419180   7.824   1.924  15.301
  159DOPC  H14R19181   7.720   1.911  15.264
  159DOPC  H14S19182   7.840   1.848  15.380
  159DOPC  C21519183   7.923   1.896  15.186
  159DOPC  H15R19184   7.920   1.788  15.159
  159DOPC  H15S19185   8.025   1.918  15.222
  159DOPC  C21619186   7.896   1.979  15.059
  159DOPC  H16R19187   7.988   1.982  14.997
  159DOPC  H16S19188   7.873   2.083  15.089
  159DOPC  C21719189   7.780   1.926  14.973
  159DOPC  H17R19190   7.737   2.012  14.917
  159DOPC  H17S19191   7.700   1.886  15.037
  159DOPC  C21819192   7.825   1.822  14.871
  159DOPC  H18R19193   7.865   1.732  14.921
  159DOPC  H18S19194   7.903   1.863  14.804
  159DOPC  H18T19195   7.738   1.791  14.807
  159DOPC   C3319196   7.474   1.988  16.165
  159DOPC   H3X19197   7.414   2.050  16.093
  159DOPC   H3Y19198   7.423   1.890  16.174
  159DOPC   C3419199   7.614   1.964  16.106
  159DOPC   H4X19200   7.682   1.929  16.188
  159DOPC   H4Y19201   7.654   2.060  16.068
  159DOPC   C3519202   7.618   1.858  15.994
  159DOPC   H5X19203   7.597   1.759  16.038
  159DOPC   H5Y19204   7.721   1.855  15.952
  159DOPC   C3619205   7.519   1.881  15.879
  159DOPC   H6X19206   7.533   1.799  15.804
  159DOPC   H6Y19207   7.415   1.873  15.917
  159DOPC   C3719208   7.537   2.015  15.807
  159DOPC   H7X19209   7.507   2.099  15.873
  159DOPC   H7Y19210   7.645   2.028  15.784
  159DOPC   C3819211   7.460   2.024  15.673
  159DOPC   H8X19212   7.501   1.946  15.605
  159DOPC   H8Y19213   7.486   2.122  15.626
  159DOPC   C3919214   7.311   2.015  15.687
  159DOPC   H9X19215   7.267   2.078  15.766
  159DOPC  C31019216   7.229   1.938  15.612
  159DOPC  H10X19217   7.121   1.942  15.630
  159DOPC  C31119218   7.272   1.847  15.500
  159DOPC  H11X19219   7.194   1.771  15.480
  159DOPC  H11Y19220   7.364   1.790  15.528
  159DOPC  C31219221   7.301   1.922  15.368
  159DOPC  H12X19222   7.339   1.848  15.293
  159DOPC  H12Y19223   7.381   1.996  15.384
  159DOPC  C31319224   7.177   1.991  15.308
  159DOPC  H13X19225   7.095   1.916  15.305
  159DOPC  H13Y19226   7.144   2.073  15.376
  159DOPC  C31419227   7.199   2.046  15.166
  159DOPC  H14X19228   7.230   1.962  15.100
  159DOPC  H14Y19229   7.102   2.084  15.127
  159DOPC  C31519230   7.303   2.158  15.155
  159DOPC  H15X19231   7.317   2.181  15.047
  159DOPC  H15Y19232   7.401   2.123  15.194
  159DOPC  C31619233   7.263   2.288  15.227
  159DOPC  H16X19234   7.164   2.322  15.190
  159DOPC  H16Y19235   7.252   2.267  15.336
  159DOPC  C31719236   7.365   2.402  15.210
  159DOPC  H17X19237   7.337   2.485  15.278
  159DOPC  H17Y19238   7.464   2.364  15.244
  159DOPC  C31819239   7.379   2.457  15.068
  159DOPC  H18X19240   7.283   2.498  15.032
  159DOPC  H18Y19241   7.454   2.539  15.066
  159DOPC  H18Z19242   7.413   2.378  14.998
  160DOPC     N19243   2.023   7.614  16.989
  160DOPC   C1219244   1.971   7.491  17.060
  160DOPC  H12A19245   1.907   7.436  16.993
  160DOPC  H12B19246   1.911   7.522  17.145
  160DOPC   C1319247   2.121   7.575  16.882
  160DOPC  H13A19248   2.199   7.514  16.926
  160DOPC  H13B19249   2.074   7.512  16.809
  160DOPC  H13C19250   2.164   7.661  16.833
  160DOPC   C1419251   2.090   7.706  17.087
  160DOPC  H14A19252   2.170   7.655  17.138
  160DOPC  H14B19253   2.131   7.792  17.036
  160DOPC  H14C19254   2.021   7.741  17.162
  160DOPC   C1519255   1.911   7.688  16.923
  160DOPC  H15A19256   1.950   7.774  16.870
  160DOPC  H15B19257   1.839   7.726  16.994
  160DOPC  H15C19258   1.860   7.626  16.850
  160DOPC   C1119259   2.076   7.388  17.109
  160DOPC  H11A19260   2.158   7.441  17.163
  160DOPC  H11B19261   2.030   7.320  17.183
  160DOPC     P19262   2.038   7.220  16.915
  160DOPC   O1319263   1.920   7.184  16.997
  160DOPC   O1419264   2.122   7.110  16.862
  160DOPC   O1219265   2.132   7.314  17.000
  160DOPC   O1119266   1.991   7.319  16.800
  160DOPC    C119267   2.014   7.283  16.663
  160DOPC    HA19268   1.958   7.190  16.638
  160DOPC    HB19269   2.122   7.262  16.645
  160DOPC    C219270   1.964   7.393  16.564
  160DOPC    HS19271   1.957   7.347  16.463
  160DOPC   O2119272   2.054   7.506  16.562
  160DOPC   C2119273   2.162   7.483  16.487
  160DOPC   O2219274   2.194   7.376  16.440
  160DOPC   C2219275   2.237   7.615  16.466
  160DOPC   H2R19276   2.303   7.628  16.554
  160DOPC   H2S19277   2.163   7.698  16.463
  160DOPC    C319278   1.821   7.443  16.600
  160DOPC    HX19279   1.823   7.469  16.708
  160DOPC    HY19280   1.749   7.360  16.588
  160DOPC   O3119281   1.781   7.561  16.527
  160DOPC   C3119282   1.748   7.539  16.399
  160DOPC   O3219283   1.746   7.429  16.346
  160DOPC   C3219284   1.711   7.671  16.333
  160DOPC   H2X19285   1.606   7.694  16.359
  160DOPC   H2Y19286   1.777   7.751  16.374
  160DOPC   C2319287   2.321   7.614  16.337
  160DOPC   H3R19288   2.372   7.516  16.324
  160DOPC   H3S19289   2.402   7.690  16.346
  160DOPC   C2419290   2.242   7.647  16.209
  160DOPC   H4R19291   2.316   7.657  16.126
  160DOPC   H4S19292   2.190   7.745  16.219
  160DOPC   C2519293   2.142   7.538  16.168
  160DOPC   H5R19294   2.056   7.537  16.239
  160DOPC   H5S19295   2.192   7.439  16.175
  160DOPC   C2619296   2.088   7.555  16.026
  160DOPC   H6R19297   2.174   7.559  15.956
  160DOPC   H6S19298   2.034   7.652  16.017
  160DOPC   C2719299   1.995   7.440  15.986
  160DOPC   H7R19300   1.912   7.434  16.060
  160DOPC   H7S19301   2.050   7.344  15.991
  160DOPC   C2819302   1.933   7.456  15.846
  160DOPC   H8R19303   1.880   7.554  15.843
  160DOPC   H8S19304   1.854   7.378  15.834
  160DOPC   C2919305   2.036   7.450  15.736
  160DOPC   H9R19306   2.109   7.532  15.738
  160DOPC  C21019307   2.045   7.358  15.637
  160DOPC  H10R19308   2.126   7.370  15.563
  160DOPC  C21119309   1.955   7.240  15.612
  160DOPC  H11R19310   1.875   7.229  15.688
  160DOPC  H11S19311   2.015   7.147  15.615
  160DOPC  C21219312   1.889   7.249  15.473
  160DOPC  H12R19313   1.838   7.153  15.450
  160DOPC  H12S19314   1.968   7.263  15.396
  160DOPC  C21319315   1.785   7.362  15.460
  160DOPC  H13R19316   1.832   7.457  15.494
  160DOPC  H13S19317   1.699   7.341  15.527
  160DOPC  C21419318   1.737   7.380  15.316
  160DOPC  H14R19319   1.679   7.291  15.284
  160DOPC  H14S19320   1.825   7.389  15.250
  160DOPC  C21519321   1.650   7.506  15.298
  160DOPC  H15R19322   1.701   7.590  15.349
  160DOPC  H15S19323   1.552   7.491  15.348
  160DOPC  C21619324   1.630   7.543  15.151
  160DOPC  H16R19325   1.586   7.456  15.097
  160DOPC  H16S19326   1.729   7.564  15.105
  160DOPC  C21719327   1.538   7.665  15.130
  160DOPC  H17R19328   1.439   7.643  15.174
  160DOPC  H17S19329   1.524   7.680  15.021
  160DOPC  C21819330   1.592   7.796  15.190
  160DOPC  H18R19331   1.525   7.881  15.163
  160DOPC  H18S19332   1.693   7.818  15.151
  160DOPC  H18T19333   1.597   7.790  15.301
  160DOPC   C3319334   1.726   7.670  16.178
  160DOPC   H3X19335   1.660   7.591  16.134
  160DOPC   H3Y19336   1.830   7.646  16.151
  160DOPC   C3419337   1.689   7.806  16.117
  160DOPC   H4X19338   1.750   7.885  16.167
  160DOPC   H4Y19339   1.582   7.829  16.138
  160DOPC   C3519340   1.715   7.817  15.966
  160DOPC   H5X19341   1.821   7.792  15.945
  160DOPC   H5Y19342   1.698   7.922  15.936
  160DOPC   C3619343   1.623   7.729  15.879
  160DOPC   H6X19344   1.649   7.621  15.890
  160DOPC   H6Y19345   1.520   7.742  15.918
  160DOPC   C3719346   1.618   7.768  15.730
  160DOPC   H7X19347   1.522   7.728  15.690
  160DOPC   H7Y19348   1.613   7.878  15.719
  160DOPC   C3819349   1.729   7.709  15.640
  160DOPC   H8X19350   1.691   7.713  15.536
  160DOPC   H8Y19351   1.741   7.601  15.665
  160DOPC   C3919352   1.862   7.780  15.651
  160DOPC   H9X19353   1.900   7.791  15.754
  160DOPC  C31019354   1.938   7.829  15.551
  160DOPC  H10X19355   2.033   7.879  15.576
  160DOPC  C31119356   1.910   7.824  15.403
  160DOPC  H11X19357   1.889   7.926  15.364
  160DOPC  H11Y19358   1.821   7.762  15.379
  160DOPC  C31219359   2.029   7.765  15.323
  160DOPC  H12X19360   2.119   7.828  15.337
  160DOPC  H12Y19361   2.002   7.769  15.215
  160DOPC  C31319362   2.061   7.620  15.361
  160DOPC  H13X19363   2.091   7.617  15.468
  160DOPC  H13Y19364   1.969   7.559  15.350
  160DOPC  C31419365   2.173   7.555  15.277
  160DOPC  H14X19366   2.266   7.615  15.285
  160DOPC  H14Y19367   2.193   7.455  15.322
  160DOPC  C31519368   2.135   7.537  15.130
  160DOPC  H15X19369   2.131   7.637  15.081
  160DOPC  H15Y19370   2.032   7.494  15.123
  160DOPC  C31619371   2.231   7.447  15.050
  160DOPC  H16X19372   2.197   7.445  14.944
  160DOPC  H16Y19373   2.332   7.494  15.050
  160DOPC  C31719374   2.243   7.302  15.100
  160DOPC  H17X19375   2.306   7.245  15.028
  160DOPC  H17Y19376   2.297   7.302  15.197
  160DOPC  C31819377   2.110   7.229  15.118
  160DOPC  H18X19378   2.127   7.123  15.145
  160DOPC  H18Y19379   2.049   7.277  15.197
  160DOPC  H18Z19380   2.051   7.232  15.024
  161DOPC     N19381   4.255   0.438  17.085
  161DOPC   C1219382   4.219   0.462  16.939
  161DOPC  H12A19383   4.278   0.545  16.903
  161DOPC  H12B19384   4.115   0.492  16.933
  161DOPC   C1319385   4.403   0.415  17.094
  161DOPC  H13A19386   4.456   0.503  17.059
  161DOPC  H13B19387   4.436   0.391  17.194
  161DOPC  H13C19388   4.431   0.336  17.026
  161DOPC   C1419389   4.182   0.319  17.140
  161DOPC  H14A19390   4.207   0.232  17.080
  161DOPC  H14B19391   4.211   0.299  17.242
  161DOPC  H14C19392   4.075   0.332  17.137
  161DOPC   C1519393   4.222   0.562  17.164
  161DOPC  H15A19394   4.116   0.582  17.165
  161DOPC  H15B19395   4.270   0.647  17.119
  161DOPC  H15C19396   4.256   0.554  17.266
  161DOPC   C1119397   4.243   0.347  16.838
  161DOPC  H11A19398   4.187   0.256  16.869
  161DOPC  H11B19399   4.202   0.377  16.740
  161DOPC     P19400   4.483   0.411  16.752
  161DOPC   O1319401   4.611   0.406  16.826
  161DOPC   O1419402   4.419   0.544  16.743
  161DOPC   O1219403   4.382   0.313  16.827
  161DOPC   O1119404   4.499   0.345  16.608
  161DOPC    C119405   4.392   0.266  16.555
  161DOPC    HA19406   4.300   0.326  16.546
  161DOPC    HB19407   4.373   0.179  16.621
  161DOPC    C219408   4.422   0.209  16.413
  161DOPC    HS19409   4.519   0.155  16.418
  161DOPC   O2119410   4.425   0.318  16.320
  161DOPC   C2119411   4.494   0.297  16.209
  161DOPC   O2219412   4.569   0.203  16.188
  161DOPC   C2219413   4.460   0.405  16.106
  161DOPC   H2R19414   4.401   0.355  16.026
  161DOPC   H2S19415   4.556   0.441  16.062
  161DOPC    C319416   4.308   0.111  16.373
  161DOPC    HX19417   4.217   0.173  16.364
  161DOPC    HY19418   4.294   0.039  16.457
  161DOPC   O3119419   4.337   0.039  16.252
  161DOPC   C3119420   4.229   8.433  16.196
  161DOPC   O3219421   4.116   8.439  16.241
  161DOPC   C3219422   4.268   8.357  16.069
  161DOPC   H2X19423   4.349   8.286  16.097
  161DOPC   H2Y19424   4.180   8.298  16.036
  161DOPC   C2319425   4.381   0.525  16.163
  161DOPC   H3R19426   4.445   0.580  16.236
  161DOPC   H3S19427   4.292   0.489  16.220
  161DOPC   C2419428   4.329   0.623  16.057
  161DOPC   H4R19429   4.412   0.657  15.991
  161DOPC   H4S19430   4.291   0.711  16.112
  161DOPC   C2519431   4.213   0.567  15.973
  161DOPC   H5R19432   4.145   0.515  16.044
  161DOPC   H5S19433   4.250   0.491  15.901
  161DOPC   C2619434   4.132   0.677  15.902
  161DOPC   H6R19435   4.134   0.769  15.964
  161DOPC   H6S19436   4.026   0.645  15.897
  161DOPC   C2719437   4.181   0.710  15.760
  161DOPC   H7R19438   4.291   0.727  15.763
  161DOPC   H7S19439   4.135   0.806  15.728
  161DOPC   C2819440   4.150   0.603  15.654
  161DOPC   H8R19441   4.197   0.507  15.685
  161DOPC   H8S19442   4.201   0.632  15.559
  161DOPC   C2919443   4.002   0.582  15.632
  161DOPC   H9R19444   3.944   0.559  15.723
  161DOPC  C21019445   3.936   0.587  15.515
  161DOPC  H10R19446   3.827   0.569  15.514
  161DOPC  C21119447   3.998   0.614  15.381
  161DOPC  H11R19448   4.066   0.530  15.354
  161DOPC  H11S19449   4.059   0.706  15.383
  161DOPC  C21219450   3.891   0.629  15.271
  161DOPC  H12R19451   3.830   0.720  15.292
  161DOPC  H12S19452   3.822   0.542  15.271
  161DOPC  C21319453   3.949   0.642  15.129
  161DOPC  H13R19454   4.024   0.724  15.127
  161DOPC  H13S19455   3.867   0.670  15.060
  161DOPC  C21419456   4.014   0.512  15.078
  161DOPC  H14R19457   3.940   0.429  15.084
  161DOPC  H14S19458   4.098   0.485  15.145
  161DOPC  C21519459   4.069   0.522  14.935
  161DOPC  H15R19460   4.130   0.432  14.914
  161DOPC  H15S19461   4.138   0.610  14.931
  161DOPC  C21619462   3.963   0.538  14.825
  161DOPC  H16R19463   4.015   0.559  14.729
  161DOPC  H16S19464   3.899   0.626  14.847
  161DOPC  C21719465   3.873   0.415  14.804
  161DOPC  H17R19466   3.794   0.441  14.730
  161DOPC  H17S19467   3.820   0.391  14.899
  161DOPC  C21819468   3.946   0.290  14.754
  161DOPC  H18R19469   3.874   0.209  14.731
  161DOPC  H18S19470   4.018   0.253  14.830
  161DOPC  H18T19471   4.002   0.313  14.661
  161DOPC   C3319472   4.318   8.448  15.955
  161DOPC   H3X19473   4.358   8.382  15.874
  161DOPC   H3Y19474   4.403   0.063  15.989
  161DOPC   C3419475   4.207   0.087  15.894
  161DOPC   H4X19476   4.187   0.174  15.960
  161DOPC   H4Y19477   4.114   0.026  15.888
  161DOPC   C3519478   4.239   0.136  15.751
  161DOPC   H5X19479   4.151   0.190  15.711
  161DOPC   H5Y19480   4.256   0.047  15.686
  161DOPC   C3619481   4.362   0.227  15.742
  161DOPC   H6X19482   4.343   0.320  15.799
  161DOPC   H6Y19483   4.450   0.177  15.789
  161DOPC   C3719484   4.398   0.262  15.597
  161DOPC   H7X19485   4.418   0.167  15.543
  161DOPC   H7Y19486   4.312   0.310  15.547
  161DOPC   C3819487   4.523   0.351  15.583
  161DOPC   H8X19488   4.556   0.346  15.477
  161DOPC   H8Y19489   4.606   0.307  15.643
  161DOPC   C3919490   4.498   0.494  15.626
  161DOPC   H9X19491   4.472   0.506  15.732
  161DOPC  C31019492   4.503   0.603  15.547
  161DOPC  H10X19493   4.479   0.701  15.591
  161DOPC  C31119494   4.535   0.604  15.400
  161DOPC  H11X19495   4.611   0.527  15.375
  161DOPC  H11Y19496   4.580   0.702  15.372
  161DOPC  C31219497   4.411   0.578  15.311
  161DOPC  H12X19498   4.343   0.666  15.315
  161DOPC  H12Y19499   4.355   0.491  15.351
  161DOPC  C31319500   4.447   0.548  15.164
  161DOPC  H13X19501   4.509   0.456  15.162
  161DOPC  H13Y19502   4.353   0.526  15.109
  161DOPC  C31419503   4.522   0.661  15.093
  161DOPC  H14X19504   4.458   0.752  15.089
  161DOPC  H14Y19505   4.613   0.686  15.152
  161DOPC  C31519506   4.568   0.623  14.951
  161DOPC  H15X19507   4.615   0.523  14.956
  161DOPC  H15Y19508   4.645   0.694  14.916
  161DOPC  C31619509   4.454   0.621  14.848
  161DOPC  H16X19510   4.356   0.613  14.899
  161DOPC  H16Y19511   4.453   0.718  14.793
  161DOPC  C31719512   4.466   0.504  14.749
  161DOPC  H17X19513   4.405   0.527  14.658
  161DOPC  H17Y19514   4.571   0.496  14.716
  161DOPC  C31819515   4.419   0.372  14.808
  161DOPC  H18X19516   4.460   0.359  14.911
  161DOPC  H18Y19517   4.308   0.369  14.815
  161DOPC  H18Z19518   4.452   0.285  14.747
  162DOPC     N19519   1.521   7.117  16.964
  162DOPC   C1219520   1.553   7.009  16.862
  162DOPC  H12A19521   1.656   6.979  16.873
  162DOPC  H12B19522   1.545   7.051  16.763
  162DOPC   C1319523   1.384   7.172  16.942
  162DOPC  H13A19524   1.374   7.216  16.844
  162DOPC  H13B19525   1.311   7.093  16.952
  162DOPC  H13C19526   1.361   7.247  17.017
  162DOPC   C1419527   1.624   7.225  16.955
  162DOPC  H14A19528   1.623   7.273  16.858
  162DOPC  H14B19529   1.608   7.299  17.032
  162DOPC  H14C19530   1.723   7.185  16.970
  162DOPC   C1519531   1.528   7.058  17.101
  162DOPC  H15A19532   1.497   7.126  17.179
  162DOPC  H15B19533   1.627   7.022  17.123
  162DOPC  H15C19534   1.466   6.969  17.106
  162DOPC   C1119535   1.470   6.877  16.864
  162DOPC  H11A19536   1.362   6.901  16.866
  162DOPC  H11B19537   1.488   6.821  16.769
  162DOPC     P19538   1.647   6.735  16.994
  162DOPC   O1319539   1.634   6.590  17.015
  162DOPC   O1419540   1.713   6.812  17.103
  162DOPC   O1219541   1.503   6.797  16.976
  162DOPC   O1119542   1.721   6.768  16.857
  162DOPC    C119543   1.845   6.700  16.826
  162DOPC    HA19544   1.824   6.592  16.810
  162DOPC    HB19545   1.916   6.706  16.911
  162DOPC    C219546   1.922   6.746  16.696
  162DOPC    HS19547   2.008   6.809  16.729
  162DOPC   O2119548   1.838   6.824  16.608
  162DOPC   C2119549   1.804   6.944  16.652
  162DOPC   O2219550   1.847   6.999  16.751
  162DOPC   C2219551   1.691   7.006  16.567
  162DOPC   H2R19552   1.646   7.086  16.629
  162DOPC   H2S19553   1.616   6.926  16.551
  162DOPC    C319554   1.983   6.621  16.619
  162DOPC    HX19555   2.062   6.578  16.683
  162DOPC    HY19556   2.031   6.661  16.527
  162DOPC   O3119557   1.887   6.518  16.585
  162DOPC   C3119558   1.932   6.416  16.508
  162DOPC   O3219559   2.049   6.403  16.475
  162DOPC   C3219560   1.819   6.316  16.469
  162DOPC   H2X19561   1.859   6.214  16.479
  162DOPC   H2Y19562   1.740   6.327  16.547
  162DOPC   C2319563   1.730   7.072  16.433
  162DOPC   H3R19564   1.794   7.003  16.373
  162DOPC   H3S19565   1.790   7.164  16.449
  162DOPC   C2419566   1.605   7.107  16.351
  162DOPC   H4R19567   1.555   7.196  16.395
  162DOPC   H4S19568   1.533   7.022  16.357
  162DOPC   C2519569   1.633   7.134  16.202
  162DOPC   H5R19570   1.684   7.047  16.157
  162DOPC   H5S19571   1.702   7.221  16.195
  162DOPC   C2619572   1.506   7.166  16.121
  162DOPC   H6R19573   1.536   7.209  16.023
  162DOPC   H6S19574   1.449   7.245  16.175
  162DOPC   C2719575   1.412   7.046  16.096
  162DOPC   H7R19576   1.314   7.085  16.059
  162DOPC   H7S19577   1.391   6.995  16.192
  162DOPC   C2819578   1.465   6.941  15.995
  162DOPC   H8R19579   1.393   6.856  15.994
  162DOPC   H8S19580   1.561   6.901  16.033
  162DOPC   C2919581   1.477   6.996  15.855
  162DOPC   H9R19582   1.400   7.069  15.827
  162DOPC  C21019583   1.572   6.965  15.765
  162DOPC  H10R19584   1.569   7.014  15.666
  162DOPC  C21119585   1.685   6.867  15.784
  162DOPC  H11R19586   1.657   6.788  15.857
  162DOPC  H11S19587   1.774   6.919  15.825
  162DOPC  C21219588   1.728   6.797  15.653
  162DOPC  H12R19589   1.640   6.746  15.606
  162DOPC  H12S19590   1.802   6.718  15.679
  162DOPC  C21319591   1.794   6.892  15.552
  162DOPC  H13R19592   1.869   6.952  15.606
  162DOPC  H13S19593   1.718   6.962  15.511
  162DOPC  C21419594   1.864   6.822  15.435
  162DOPC  H14R19595   1.940   6.750  15.473
  162DOPC  H14S19596   1.919   6.899  15.377
  162DOPC  C21519597   1.770   6.750  15.338
  162DOPC  H15R19598   1.686   6.818  15.312
  162DOPC  H15S19599   1.726   6.660  15.387
  162DOPC  C21619600   1.841   6.708  15.208
  162DOPC  H16R19601   1.921   6.635  15.231
  162DOPC  H16S19602   1.889   6.798  15.163
  162DOPC  C21719603   1.747   6.648  15.103
  162DOPC  H17R19604   1.664   6.719  15.084
  162DOPC  H17S19605   1.702   6.554  15.144
  162DOPC  C21819606   1.817   6.616  14.970
  162DOPC  H18R19607   1.865   6.707  14.929
  162DOPC  H18S19608   1.744   6.578  14.895
  162DOPC  H18T19609   1.895   6.539  14.985
  162DOPC   C3319610   1.748   6.323  16.330
  162DOPC   H3X19611   1.798   6.252  16.260
  162DOPC   H3Y19612   1.759   6.424  16.284
  162DOPC   C3419613   1.598   6.288  16.338
  162DOPC   H4X19614   1.560   6.327  16.435
  162DOPC   H4Y19615   1.583   6.178  16.340
  162DOPC   C3519616   1.508   6.352  16.229
  162DOPC   H5X19617   1.491   6.278  16.148
  162DOPC   H5Y19618   1.560   6.439  16.183
  162DOPC   C3619619   1.373   6.402  16.286
  162DOPC   H6X19620   1.329   6.322  16.349
  162DOPC   H6Y19621   1.387   6.487  16.356
  162DOPC   C3719622   1.269   6.446  16.181
  162DOPC   H7X19623   1.248   6.362  16.112
  162DOPC   H7Y19624   1.175   6.467  16.236
  162DOPC   C3819625   1.310   6.570  16.101
  162DOPC   H8X19626   1.397   6.543  16.037
  162DOPC   H8Y19627   1.346   6.648  16.172
  162DOPC   C3919628   1.194   6.624  16.022
  162DOPC   H9X19629   1.114   6.667  16.084
  162DOPC  C31019630   1.177   6.623  15.888
  162DOPC  H10X19631   1.085   6.667  15.846
  162DOPC  C31119632   1.272   6.568  15.784
  162DOPC  H11X19633   1.369   6.536  15.827
  162DOPC  H11Y19634   1.295   6.648  15.710
  162DOPC  C31219635   1.211   6.448  15.710
  162DOPC  H12X19636   1.111   6.475  15.668
  162DOPC  H12Y19637   1.195   6.365  15.783
  162DOPC  C31319638   1.299   6.395  15.595
  162DOPC  H13X19639   1.402   6.377  15.633
  162DOPC  H13Y19640   1.258   6.298  15.561
  162DOPC  C31419641   1.305   6.490  15.474
  162DOPC  H14X19642   1.202   6.507  15.437
  162DOPC  H14Y19643   1.346   6.588  15.506
  162DOPC  C31519644   1.392   6.435  15.360
  162DOPC  H15X19645   1.350   6.340  15.323
  162DOPC  H15Y19646   1.493   6.413  15.401
  162DOPC  C31619647   1.409   6.534  15.243
  162DOPC  H16X19648   1.449   6.630  15.282
  162DOPC  H16Y19649   1.486   6.493  15.173
  162DOPC  C31719650   1.282   6.561  15.161
  162DOPC  H17X19651   1.202   6.599  15.229
  162DOPC  H17Y19652   1.304   6.643  15.089
  162DOPC  C31819653   1.229   6.441  15.083
  162DOPC  H18X19654   1.142   6.469  15.021
  162DOPC  H18Y19655   1.308   6.402  15.015
  162DOPC  H18Z19656   1.199   6.359  15.151
  163DOPC     N19657   0.365   3.085  16.786
  163DOPC   C1219658   0.494   3.015  16.748
  163DOPC  H12A19659   0.492   2.989  16.643
  163DOPC  H12B19660   0.499   2.920  16.799
  163DOPC   C1319661   0.249   2.998  16.749
  163DOPC  H13A19662   0.156   3.052  16.762
  163DOPC  H13B19663   0.257   2.966  16.646
  163DOPC  H13C19664   0.247   2.909  16.811
  163DOPC   C1419665   0.352   3.216  16.713
  163DOPC  H14A19666   0.430   3.283  16.746
  163DOPC  H14B19667   0.362   3.202  16.606
  163DOPC  H14C19668   0.256   3.262  16.732
  163DOPC   C1519669   0.362   3.113  16.933
  163DOPC  H15A19670   0.270   3.160  16.965
  163DOPC  H15B19671   0.444   3.179  16.958
  163DOPC  H15C19672   0.381   3.024  16.991
  163DOPC   C1119673   0.630   3.084  16.779
  163DOPC  H11A19674   0.712   3.027  16.729
  163DOPC  H11B19675   0.631   3.185  16.734
  163DOPC     P19676   0.674   2.964  17.010
  163DOPC   O1319677   0.570   2.970  17.115
  163DOPC   O1419678   0.814   2.953  17.056
  163DOPC   O1219679   0.656   3.093  16.919
  163DOPC   O1119680   0.639   2.844  16.911
  163DOPC    C119681   0.740   2.757  16.860
  163DOPC    HA19682   0.752   2.671  16.929
  163DOPC    HB19683   0.840   2.806  16.851
  163DOPC    C219684   0.702   2.698  16.720
  163DOPC    HS19685   0.765   2.609  16.702
  163DOPC   O2119686   0.722   2.797  16.616
  163DOPC   C2119687   0.849   2.807  16.577
  163DOPC   O2219688   0.942   2.744  16.623
  163DOPC   C2219689   0.860   2.905  16.460
  163DOPC   H2R19690   0.964   2.896  16.422
  163DOPC   H2S19691   0.846   3.008  16.498
  163DOPC    C319692   0.554   2.649  16.717
  163DOPC    HX19693   0.487   2.729  16.754
  163DOPC    HY19694   0.546   2.565  16.790
  163DOPC   O3119695   0.517   2.600  16.586
  163DOPC   C3119696   0.455   2.686  16.506
  163DOPC   O3219697   0.409   2.794  16.540
  163DOPC   C3219698   0.451   2.627  16.365
  163DOPC   H2X19699   0.555   2.598  16.340
  163DOPC   H2Y19700   0.389   2.534  16.367
  163DOPC   C2319701   0.761   2.873  16.345
  163DOPC   H3R19702   0.658   2.898  16.377
  163DOPC   H3S19703   0.764   2.765  16.322
  163DOPC   C2419704   0.794   2.948  16.214
  163DOPC   H4R19705   0.897   2.923  16.184
  163DOPC   H4S19706   0.789   3.058  16.231
  163DOPC   C2519707   0.697   2.908  16.102
  163DOPC   H5R19708   0.594   2.940  16.129
  163DOPC   H5S19709   0.697   2.797  16.095
  163DOPC   C2619710   0.732   2.964  15.963
  163DOPC   H6R19711   0.837   2.937  15.939
  163DOPC   H6S19712   0.726   3.075  15.964
  163DOPC   C2719713   0.639   2.907  15.855
  163DOPC   H7R19714   0.536   2.947  15.870
  163DOPC   H7S19715   0.632   2.797  15.869
  163DOPC   C2819716   0.686   2.932  15.710
  163DOPC   H8R19717   0.625   2.867  15.643
  163DOPC   H8S19718   0.791   2.897  15.700
  163DOPC   C2919719   0.675   3.076  15.667
  163DOPC   H9R19720   0.769   3.132  15.666
  163DOPC  C21019721   0.561   3.138  15.631
  163DOPC  H10R19722   0.566   3.244  15.600
  163DOPC  C21119723   0.423   3.078  15.626
  163DOPC  H11R19724   0.363   3.115  15.712
  163DOPC  H11S19725   0.426   2.968  15.634
  163DOPC  C21219726   0.347   3.115  15.497
  163DOPC  H12R19727   0.409   3.086  15.409
  163DOPC  H12S19728   0.332   3.225  15.493
  163DOPC  C21319729   0.211   3.045  15.488
  163DOPC  H13R19730   0.154   3.065  15.582
  163DOPC  H13S19731   0.228   2.935  15.483
  163DOPC  C21419732   0.124   3.089  15.369
  163DOPC  H14R19733   0.093   3.195  15.385
  163DOPC  H14S19734   0.032   3.027  15.369
  163DOPC  C21519735   0.192   3.077  15.231
  163DOPC  H15R19736   0.273   3.152  15.224
  163DOPC  H15S19737   0.117   3.103  15.153
  163DOPC  C21619738   0.250   2.938  15.201
  163DOPC  H16R19739   0.171   2.861  15.217
  163DOPC  H16S19740   0.332   2.917  15.272
  163DOPC  C21719741   0.304   2.929  15.058
  163DOPC  H17R19742   0.372   3.014  15.041
  163DOPC  H17S19743   0.219   2.939  14.988
  163DOPC  C21819744   0.378   2.798  15.029
  163DOPC  H18R19745   0.314   2.710  15.050
  163DOPC  H18S19746   0.469   2.792  15.093
  163DOPC  H18T19747   0.410   2.794  14.923
  163DOPC   C3319748   0.399   2.724  16.256
  163DOPC   H3X19749   0.450   2.821  16.268
  163DOPC   H3Y19750   0.290   2.742  16.268
  163DOPC   C3419751   0.428   2.674  16.113
  163DOPC   H4X19752   0.533   2.638  16.109
  163DOPC   H4Y19753   0.421   2.759  16.042
  163DOPC   C3519754   0.335   2.562  16.063
  163DOPC   H5X19755   0.259   2.606  15.995
  163DOPC   H5Y19756   0.280   2.518  16.149
  163DOPC   C3619757   0.410   2.450  15.990
  163DOPC   H6X19758   0.476   2.493  15.911
  163DOPC   H6Y19759   0.476   2.399  16.064
  163DOPC   C3719760   0.317   2.345  15.926
  163DOPC   H7X19761   0.366   2.245  15.932
  163DOPC   H7Y19762   0.225   2.339  15.987
  163DOPC   C3819763   0.279   2.374  15.779
  163DOPC   H8X19764   0.247   2.481  15.773
  163DOPC   H8Y19765   0.190   2.313  15.755
  163DOPC   C3919766   0.388   2.341  15.681
  163DOPC   H9X19767   0.442   2.247  15.703
  163DOPC  C31019768   0.426   2.411  15.572
  163DOPC  H10X19769   0.508   2.372  15.510
  163DOPC  C31119770   0.367   2.541  15.522
  163DOPC  H11X19771   0.278   2.570  15.582
  163DOPC  H11Y19772   0.330   2.529  15.417
  163DOPC  C31219773   0.467   2.658  15.526
  163DOPC  H12X19774   0.543   2.642  15.605
  163DOPC  H12Y19775   0.410   2.749  15.556
  163DOPC  C31319776   0.536   2.692  15.392
  163DOPC  H13X19777   0.460   2.731  15.321
  163DOPC  H13Y19778   0.609   2.774  15.411
  163DOPC  C31419779   0.610   2.575  15.324
  163DOPC  H14X19780   0.670   2.521  15.400
  163DOPC  H14Y19781   0.535   2.504  15.283
  163DOPC  C31519782   0.704   2.625  15.212
  163DOPC  H15X19783   0.781   2.690  15.258
  163DOPC  H15Y19784   0.646   2.688  15.142
  163DOPC  C31619785   0.773   2.514  15.132
  163DOPC  H16X19786   0.845   2.562  15.062
  163DOPC  H16Y19787   0.832   2.449  15.199
  163DOPC  C31719788   0.677   2.428  15.049
  163DOPC  H17X19789   0.613   2.369  15.118
  163DOPC  H17Y19790   0.611   2.494  14.990
  163DOPC  C31819791   0.750   2.332  14.954
  163DOPC  H18X19792   0.822   2.269  15.009
  163DOPC  H18Y19793   0.678   2.267  14.901
  163DOPC  H18Z19794   0.808   2.390  14.878
  164DOPC     N19795   1.336   1.426  17.111
  164DOPC   C1219796   1.411   1.430  16.978
  164DOPC  H12A19797   1.514   1.460  16.996
  164DOPC  H12B19798   1.366   1.504  16.915
  164DOPC   C1319799   1.394   1.322  17.202
  164DOPC  H13A19800   1.499   1.336  17.219
  164DOPC  H13B19801   1.344   1.323  17.298
  164DOPC  H13C19802   1.379   1.223  17.160
  164DOPC   C1419803   1.192   1.391  17.086
  164DOPC  H14A19804   1.143   1.465  17.026
  164DOPC  H14B19805   1.189   1.299  17.030
  164DOPC  H14C19806   1.138   1.379  17.179
  164DOPC   C1519807   1.342   1.559  17.180
  164DOPC  H15A19808   1.298   1.637  17.119
  164DOPC  H15B19809   1.444   1.586  17.205
  164DOPC  H15C19810   1.285   1.555  17.272
  164DOPC   C1119811   1.413   1.300  16.894
  164DOPC  H11A19812   1.479   1.315  16.806
  164DOPC  H11B19813   1.457   1.218  16.955
  164DOPC     P19814   1.238   1.122  16.814
  164DOPC   O1319815   1.093   1.124  16.782
  164DOPC   O1419816   1.279   1.038  16.928
  164DOPC   O1219817   1.282   1.270  16.848
  164DOPC   O1119818   1.327   1.088  16.686
  164DOPC    C119819   1.451   1.020  16.707
  164DOPC    HA19820   1.432   0.916  16.741
  164DOPC    HB19821   1.512   1.070  16.785
  164DOPC    C219822   1.545   1.011  16.582
  164DOPC    HS19823   1.638   0.965  16.620
  164DOPC   O2119824   1.570   1.144  16.530
  164DOPC   C2119825   1.680   1.148  16.455
  164DOPC   O2219826   1.763   1.059  16.448
  164DOPC   C2219827   1.691   1.283  16.383
  164DOPC   H2R19828   1.764   1.345  16.439
  164DOPC   H2S19829   1.591   1.332  16.384
  164DOPC    C319830   1.489   0.916  16.471
  164DOPC    HX19831   1.474   0.818  16.522
  164DOPC    HY19832   1.566   0.899  16.394
  164DOPC   O3119833   1.361   0.955  16.414
  164DOPC   C3119834   1.368   1.025  16.302
  164DOPC   O3219835   1.471   1.064  16.249
  164DOPC   C3219836   1.228   1.041  16.243
  164DOPC   H2X19837   1.182   0.940  16.238
  164DOPC   H2Y19838   1.168   1.104  16.312
  164DOPC   C2319839   1.739   1.264  16.237
  164DOPC   H3R19840   1.662   1.207  16.181
  164DOPC   H3S19841   1.832   1.204  16.234
  164DOPC   C2419842   1.765   1.397  16.164
  164DOPC   H4R19843   1.857   1.443  16.205
  164DOPC   H4S19844   1.681   1.467  16.181
  164DOPC   C2519845   1.781   1.376  16.012
  164DOPC   H5R19846   1.835   1.280  15.994
  164DOPC   H5S19847   1.844   1.457  15.970
  164DOPC   C2619848   1.647   1.374  15.937
  164DOPC   H6R19849   1.604   1.477  15.941
  164DOPC   H6S19850   1.576   1.307  15.989
  164DOPC   C2719851   1.660   1.328  15.792
  164DOPC   H7R19852   1.680   1.218  15.792
  164DOPC   H7S19853   1.748   1.376  15.744
  164DOPC   C2819854   1.535   1.354  15.706
  164DOPC   H8R19855   1.446   1.313  15.759
  164DOPC   H8S19856   1.546   1.296  15.612
  164DOPC   C2919857   1.513   1.500  15.672
  164DOPC   H9R19858   1.578   1.571  15.725
  164DOPC  C21019859   1.422   1.547  15.584
  164DOPC  H10R19860   1.416   1.655  15.566
  164DOPC  C21119861   1.326   1.462  15.505
  164DOPC  H11R19862   1.222   1.494  15.526
  164DOPC  H11S19863   1.333   1.355  15.535
  164DOPC  C21219864   1.348   1.468  15.352
  164DOPC  H12R19865   1.322   1.569  15.313
  164DOPC  H12S19866   1.276   1.397  15.306
  164DOPC  C21319867   1.489   1.430  15.306
  164DOPC  H13R19868   1.533   1.359  15.379
  164DOPC  H13S19869   1.554   1.521  15.306
  164DOPC  C21419870   1.493   1.363  15.167
  164DOPC  H14R19871   1.440   1.266  15.176
  164DOPC  H14S19872   1.598   1.341  15.140
  164DOPC  C21519873   1.429   1.446  15.054
  164DOPC  H15R19874   1.490   1.537  15.038
  164DOPC  H15S19875   1.327   1.480  15.084
  164DOPC  C21619876   1.416   1.369  14.921
  164DOPC  H16R19877   1.518   1.336  14.889
  164DOPC  H16S19878   1.379   1.439  14.844
  164DOPC  C21719879   1.323   1.247  14.927
  164DOPC  H17R19880   1.285   1.234  15.031
  164DOPC  H17S19881   1.380   1.156  14.902
  164DOPC  C21819882   1.201   1.257  14.834
  164DOPC  H18R19883   1.233   1.257  14.728
  164DOPC  H18S19884   1.144   1.350  14.854
  164DOPC  H18T19885   1.133   1.170  14.850
  164DOPC   C3319886   1.232   1.104  16.101
  164DOPC   H3X19887   1.313   1.056  16.042
  164DOPC   H3Y19888   1.257   1.212  16.108
  164DOPC   C3419889   1.102   1.085  16.022
  164DOPC   H4X19890   1.018   1.136  16.074
  164DOPC   H4Y19891   1.079   0.977  16.017
  164DOPC   C3519892   1.114   1.142  15.879
  164DOPC   H5X19893   1.205   1.101  15.832
  164DOPC   H5Y19894   1.126   1.252  15.885
  164DOPC   C3619895   0.994   1.110  15.787
  164DOPC   H6X19896   0.902   1.156  15.828
  164DOPC   H6Y19897   1.014   1.157  15.688
  164DOPC   C3719898   0.971   0.959  15.766
  164DOPC   H7X19899   1.070   0.908  15.761
  164DOPC   H7Y19900   0.917   0.919  15.854
  164DOPC   C3819901   0.897   0.927  15.635
  164DOPC   H8X19902   0.964   0.950  15.550
  164DOPC   H8Y19903   0.809   0.995  15.627
  164DOPC   C3919904   0.849   0.784  15.631
  164DOPC   H9X19905   0.749   0.768  15.674
  164DOPC  C31019906   0.914   0.677  15.581
  164DOPC  H10X19907   0.864   0.579  15.585
  164DOPC  C31119908   1.052   0.671  15.518
  164DOPC  H11X19909   1.114   0.598  15.574
  164DOPC  H11Y19910   1.105   0.769  15.525
  164DOPC  C31219911   1.047   0.628  15.370
  164DOPC  H12X19912   1.024   0.717  15.308
  164DOPC  H12Y19913   0.965   0.555  15.354
  164DOPC  C31319914   1.176   0.561  15.318
  164DOPC  H13X19915   1.189   0.463  15.369
  164DOPC  H13Y19916   1.163   0.541  15.210
  164DOPC  C31419917   1.304   0.644  15.338
  164DOPC  H14X19918   1.327   0.649  15.446
  164DOPC  H14Y19919   1.285   0.747  15.300
  164DOPC  C31519920   1.426   0.585  15.265
  164DOPC  H15X19921   1.396   0.562  15.161
  164DOPC  H15Y19922   1.455   0.490  15.314
  164DOPC  C31619923   1.545   0.682  15.259
  164DOPC  H16X19924   1.510   0.777  15.213
  164DOPC  H16Y19925   1.580   0.705  15.362
  164DOPC  C31719926   1.662   0.629  15.175
  164DOPC  H17X19927   1.625   0.603  15.074
  164DOPC  H17Y19928   1.736   0.711  15.163
  164DOPC  C31819929   1.734   0.507  15.235
  164DOPC  H18X19930   1.774   0.532  15.336
  164DOPC  H18Y19931   1.665   0.421  15.244
  164DOPC  H18Z19932   1.820   0.477  15.171
  165DOPC     N19933   6.718   0.865  17.097
  165DOPC   C1219934   6.762   0.743  17.017
  165DOPC  H12A19935   6.679   0.675  17.007
  165DOPC  H12B19936   6.839   0.690  17.071
  165DOPC   C1319937   6.822   0.973  17.092
  165DOPC  H13A19938   6.915   0.940  17.137
  165DOPC  H13B19939   6.840   0.999  16.989
  165DOPC  H13C19940   6.788   1.062  17.142
  165DOPC   C1419941   6.691   0.828  17.239
  165DOPC  H14A19942   6.777   0.782  17.284
  165DOPC  H14B19943   6.666   0.916  17.298
  165DOPC  H14C19944   6.608   0.759  17.246
  165DOPC   C1519945   6.594   0.924  17.036
  165DOPC  H15A19946   6.612   0.942  16.931
  165DOPC  H15B19947   6.566   1.018  17.082
  165DOPC  H15C19948   6.511   0.855  17.038
  165DOPC   C1119949   6.812   0.769  16.872
  165DOPC  H11A19950   6.897   0.840  16.872
  165DOPC  H11B19951   6.852   0.674  16.831
  165DOPC     P19952   6.593   0.725  16.737
  165DOPC   O1319953   6.463   0.773  16.789
  165DOPC   O1419954   6.630   0.586  16.771
  165DOPC   O1219955   6.707   0.822  16.791
  165DOPC   O1119956   6.605   0.749  16.581
  165DOPC    C119957   6.733   0.751  16.516
  165DOPC    HA19958   6.729   0.683  16.428
  165DOPC    HB19959   6.815   0.713  16.581
  165DOPC    C219960   6.773   0.892  16.463
  165DOPC    HS19961   6.766   0.963  16.549
  165DOPC   O2119962   6.681   0.926  16.358
  165DOPC   C2119963   6.660   1.054  16.337
  165DOPC   O2219964   6.715   1.147  16.394
  165DOPC   C2219965   6.553   1.074  16.228
  165DOPC   H2R19966   6.589   1.152  16.159
  165DOPC   H2S19967   6.463   1.113  16.280
  165DOPC    C319968   6.920   0.891  16.410
  165DOPC    HX19969   6.924   0.813  16.331
  165DOPC    HY19970   6.987   0.856  16.492
  165DOPC   O3119971   6.965   1.015  16.352
  165DOPC   C3119972   7.020   1.103  16.435
  165DOPC   O3219973   7.037   1.087  16.555
  165DOPC   C3219974   7.072   1.227  16.360
  165DOPC   H2X19975   7.008   1.313  16.391
  165DOPC   H2Y19976   7.174   1.245  16.398
  165DOPC   C2319977   6.514   0.946  16.148
  165DOPC   H3R19978   6.419   0.967  16.095
  165DOPC   H3S19979   6.494   0.861  16.217
  165DOPC   C2419980   6.620   0.906  16.045
  165DOPC   H4R19981   6.717   0.890  16.097
  165DOPC   H4S19982   6.634   0.990  15.974
  165DOPC   C2519983   6.587   0.778  15.965
  165DOPC   H5R19984   6.580   0.693  16.037
  165DOPC   H5S19985   6.672   0.757  15.898
  165DOPC   C2619986   6.457   0.783  15.882
  165DOPC   H6R19987   6.371   0.778  15.952
  165DOPC   H6S19988   6.453   0.693  15.817
  165DOPC   C2719989   6.439   0.909  15.795
  165DOPC   H7R19990   6.437   0.997  15.863
  165DOPC   H7S19991   6.339   0.905  15.747
  165DOPC   C2819992   6.545   0.927  15.684
  165DOPC   H8R19993   6.505   0.886  15.589
  165DOPC   H8S19994   6.633   0.865  15.710
  165DOPC   C2919995   6.589   1.071  15.670
  165DOPC   H9R19996   6.602   1.124  15.765
  165DOPC  C21019997   6.616   1.138  15.556
  165DOPC  H10R19998   6.647   1.243  15.562
  165DOPC  C21119999   6.608   1.083  15.415
  165DOPC  H11R20000   6.514   1.119  15.367
  165DOPC  H11S20001   6.606   0.972  15.413
  165DOPC  C21220002   6.726   1.131  15.328
  165DOPC  H12R20003   6.731   1.242  15.328
  165DOPC  H12S20004   6.707   1.099  15.224
  165DOPC  C21320005   6.863   1.075  15.370
  165DOPC  H13R20006   6.857   0.964  15.370
  165DOPC  H13S20007   6.888   1.107  15.473
  165DOPC  C21420008   6.975   1.120  15.276
  165DOPC  H14R20009   6.987   1.230  15.286
  165DOPC  H14S20010   6.945   1.100  15.171
  165DOPC  C21520011   7.110   1.051  15.303
  165DOPC  H15R20012   7.099   0.942  15.289
  165DOPC  H15S20013   7.139   1.070  15.408
  165DOPC  C21620014   7.220   1.104  15.210
  165DOPC  H16R20015   7.224   1.215  15.218
  165DOPC  H16S20016   7.195   1.080  15.104
  165DOPC  C21720017   7.360   1.048  15.240
  165DOPC  H17R20018   7.359   0.938  15.223
  165DOPC  H17S20019   7.383   1.064  15.348
  165DOPC  C21820020   7.469   1.113  15.155
  165DOPC  H18R20021   7.569   1.073  15.180
  165DOPC  H18S20022   7.470   1.223  15.172
  165DOPC  H18T20023   7.450   1.095  15.047
  165DOPC   C3320024   7.078   1.218  16.206
  165DOPC   H3X20025   7.100   1.114  16.173
  165DOPC   H3Y20026   7.161   1.282  16.170
  165DOPC   C3420027   6.949   1.270  16.138
  165DOPC   H4X20028   6.936   1.377  16.165
  165DOPC   H4Y20029   6.862   1.214  16.178
  165DOPC   C3520030   6.952   1.258  15.985
  165DOPC   H5X20031   7.047   1.299  15.945
  165DOPC   H5Y20032   6.869   1.320  15.943
  165DOPC   C3620033   6.931   1.114  15.936
  165DOPC   H6X20034   7.009   1.047  15.978
  165DOPC   H6Y20035   6.834   1.078  15.976
  165DOPC   C3720036   6.929   1.101  15.783
  165DOPC   H7X20037   7.025   1.138  15.740
  165DOPC   H7Y20038   6.849   1.168  15.745
  165DOPC   C3820039   6.899   0.958  15.736
  165DOPC   H8X20040   6.856   0.964  15.633
  165DOPC   H8Y20041   6.820   0.917  15.802
  165DOPC   C3920042   7.017   0.865  15.732
  165DOPC   H9X20043   7.116   0.912  15.742
  165DOPC  C31020044   7.010   0.732  15.711
  165DOPC  H10X20045   7.104   0.674  15.709
  165DOPC  C31120046   6.885   0.651  15.688
  165DOPC  H11X20047   6.793   0.710  15.708
  165DOPC  H11Y20048   6.884   0.565  15.757
  165DOPC  C31220049   6.875   0.598  15.543
  165DOPC  H12X20050   6.970   0.545  15.519
  165DOPC  H12Y20051   6.865   0.681  15.471
  165DOPC  C31320052   6.760   0.498  15.525
  165DOPC  H13X20053   6.784   0.429  15.441
  165DOPC  H13Y20054   6.752   0.436  15.617
  165DOPC  C31420055   6.624   0.563  15.495
  165DOPC  H14X20056   6.545   0.490  15.522
  165DOPC  H14Y20057   6.609   0.654  15.558
  165DOPC  C31520058   6.606   0.598  15.346
  165DOPC  H15X20059   6.635   0.509  15.287
  165DOPC  H15Y20060   6.674   0.681  15.317
  165DOPC  C31620061   6.461   0.634  15.309
  165DOPC  H16X20062   6.392   0.585  15.382
  165DOPC  H16Y20063   6.446   0.743  15.318
  165DOPC  C31720064   6.420   0.585  15.169
  165DOPC  H17X20065   6.428   0.474  15.167
  165DOPC  H17Y20066   6.313   0.610  15.152
  165DOPC  C31820067   6.503   0.644  15.055
  165DOPC  H18X20068   6.492   0.754  15.053
  165DOPC  H18Y20069   6.611   0.619  15.067
  165DOPC  H18Z20070   6.469   0.604  14.957
  166DOPC     N20071   8.084   2.869  16.854
  166DOPC   C1220072   8.099   2.810  16.994
  166DOPC  H12A20073   8.008   2.757  17.017
  166DOPC  H12B20074   8.109   2.890  17.066
  166DOPC   C1320075   7.972   2.968  16.851
  166DOPC  H13A20076   7.879   2.920  16.879
  166DOPC  H13B20077   7.990   3.050  16.919
  166DOPC  H13C20078   7.959   3.009  16.752
  166DOPC   C1420079   8.052   2.758  16.758
  166DOPC  H14A20080   8.038   2.793  16.657
  166DOPC  H14B20081   8.133   2.686  16.758
  166DOPC  H14C20082   7.966   2.703  16.792
  166DOPC   C1520083   8.212   2.934  16.809
  166DOPC  H15A20084   8.291   2.860  16.809
  166DOPC  H15B20085   8.241   3.014  16.875
  166DOPC  H15C20086   8.203   2.972  16.709
  166DOPC   C1120087   8.214   2.708  17.020
  166DOPC  H11A20088   8.311   2.754  16.994
  166DOPC  H11B20089   8.218   2.685  17.129
  166DOPC     P20090   8.079   2.487  16.976
  166DOPC   O1320091   7.953   2.564  16.983
  166DOPC   O1420092   8.114   2.405  17.094
  166DOPC   O1220093   8.197   2.588  16.945
  166DOPC   O1120094   8.076   2.396  16.847
  166DOPC    C120095   8.191   2.391  16.761
  166DOPC    HA20096   8.271   2.329  16.809
  166DOPC    HB20097   8.235   2.491  16.743
  166DOPC    C220098   8.160   2.329  16.621
  166DOPC    HS20099   8.251   2.336  16.558
  166DOPC   O2120100   8.050   2.395  16.555
  166DOPC   C2120101   8.075   2.518  16.512
  166DOPC   O2220102   8.177   2.582  16.533
  166DOPC   C2220103   7.957   2.573  16.432
  166DOPC   H2R20104   7.944   2.680  16.458
  166DOPC   H2S20105   7.865   2.518  16.463
  166DOPC    C320106   8.129   2.177  16.638
  166DOPC    HX20107   8.059   2.165  16.724
  166DOPC    HY20108   8.223   2.126  16.668
  166DOPC   O3120109   8.081   2.120  16.515
  166DOPC   C3120110   7.949   2.104  16.506
  166DOPC   O3220111   7.871   2.109  16.600
  166DOPC   C3220112   7.910   2.087  16.359
  166DOPC   H2X20113   7.904   1.979  16.335
  166DOPC   H2Y20114   7.808   2.130  16.349
  166DOPC   C2320115   7.976   2.560  16.279
  166DOPC   H3R20116   7.880   2.587  16.229
  166DOPC   H3S20117   7.997   2.455  16.251
  166DOPC   C2420118   8.086   2.650  16.220
  166DOPC   H4R20119   8.177   2.642  16.282
  166DOPC   H4S20120   8.052   2.756  16.222
  166DOPC   C2520121   8.124   2.612  16.075
  166DOPC   H5R20122   8.158   2.506  16.075
  166DOPC   H5S20123   8.209   2.675  16.043
  166DOPC   C2620124   8.010   2.627  15.973
  166DOPC   H6R20125   7.979   2.734  15.968
  166DOPC   H6S20126   7.922   2.568  16.005
  166DOPC   C2720127   8.052   2.579  15.833
  166DOPC   H7R20128   8.084   2.473  15.841
  166DOPC   H7S20129   8.141   2.638  15.799
  166DOPC   C2820130   7.940   2.592  15.729
  166DOPC   H8R20131   7.913   2.699  15.718
  166DOPC   H8S20132   7.850   2.540  15.768
  166DOPC   C2920133   7.981   2.530  15.597
  166DOPC   H9R20134   8.011   2.425  15.604
  166DOPC  C21020135   7.981   2.590  15.477
  166DOPC  H10R20136   8.012   2.531  15.389
  166DOPC  C21120137   7.940   2.732  15.449
  166DOPC  H11R20138   8.001   2.803  15.509
  166DOPC  H11S20139   7.834   2.746  15.478
  166DOPC  C21220140   7.954   2.770  15.300
  166DOPC  H12R20141   7.909   2.871  15.284
  166DOPC  H12S20142   7.896   2.699  15.237
  166DOPC  C21320143   8.100   2.774  15.251
  166DOPC  H13R20144   8.146   2.675  15.271
  166DOPC  H13S20145   8.156   2.850  15.310
  166DOPC  C21420146   8.112   2.806  15.101
  166DOPC  H14R20147   8.068   2.906  15.082
  166DOPC  H14S20148   8.053   2.732  15.043
  166DOPC  C21520149   8.257   2.804  15.049
  166DOPC  H15R20150   8.316   2.883  15.101
  166DOPC  H15S20151   8.256   2.829  14.941
  166DOPC  C21620152   8.327   2.669  15.069
  166DOPC  H16R20153   8.263   2.589  15.027
  166DOPC  H16S20154   8.341   2.650  15.177
  166DOPC  C21720155   0.016   2.662  15.001
  166DOPC  H17R20156   0.076   2.749  15.034
  166DOPC  H17S20157   0.002   2.671  14.891
  166DOPC  C21820158   0.091   2.533  15.032
  166DOPC  H18R20159   0.113   2.527  15.141
  166DOPC  H18S20160   0.187   2.529  14.977
  166DOPC  H18T20161   0.031   2.444  15.004
  166DOPC   C3320162   8.007   2.159  16.263
  166DOPC   H3X20163   8.103   2.105  16.256
  166DOPC   H3Y20164   8.029   2.259  16.306
  166DOPC   C3420165   7.949   2.183  16.122
  166DOPC   H4X20166   7.993   2.277  16.083
  166DOPC   H4Y20167   7.839   2.198  16.127
  166DOPC   C3520168   7.984   2.072  16.022
  166DOPC   H5X20169   7.938   1.976  16.053
  166DOPC   H5Y20170   8.095   2.058  16.024
  166DOPC   C3620171   7.940   2.108  15.880
  166DOPC   H6X20172   7.830   2.098  15.874
  166DOPC   H6Y20173   7.963   2.215  15.861
  166DOPC   C3720174   8.005   2.023  15.768
  166DOPC   H7X20175   7.977   1.917  15.782
  166DOPC   H7Y20176   7.963   2.056  15.671
  166DOPC   C3820177   8.159   2.033  15.758
  166DOPC   H8X20178   8.191   1.982  15.665
  166DOPC   H8Y20179   8.204   1.975  15.842
  166DOPC   C3920180   8.212   2.175  15.764
  166DOPC   H9X20181   8.227   2.213  15.866
  166DOPC  C31020182   8.238   2.257  15.660
  166DOPC  H10X20183   8.275   2.358  15.682
  166DOPC  C31120184   8.222   2.228  15.513
  166DOPC  H11X20185   8.136   2.286  15.473
  166DOPC  H11Y20186   8.200   2.121  15.493
  166DOPC  C31220187   8.348   2.270  15.434
  166DOPC  H12X20188   8.431   2.200  15.456
  166DOPC  H12Y20189   8.380   2.371  15.465
  166DOPC  C31320190   8.326   2.275  15.282
  166DOPC  H13X20191   8.253   2.356  15.260
  166DOPC  H13Y20192   8.422   2.302  15.232
  166DOPC  C31420193   8.275   2.143  15.220
  166DOPC  H14X20194   8.341   2.060  15.251
  166DOPC  H14Y20195   8.174   2.121  15.261
  166DOPC  C31520196   8.267   2.146  15.066
  166DOPC  H15X20197   8.214   2.055  15.031
  166DOPC  H15Y20198   8.370   2.142  15.026
  166DOPC  C31620199   8.199   2.271  15.007
  166DOPC  H16X20200   8.258   2.360  15.037
  166DOPC  H16Y20201   8.202   2.266  14.896
  166DOPC  C31720202   8.053   2.292  15.050
  166DOPC  H17X20203   7.987   2.238  14.979
  166DOPC  H17Y20204   8.036   2.247  15.151
  166DOPC  C31820205   8.012   2.439  15.057
  166DOPC  H18X20206   8.070   2.492  15.135
  166DOPC  H18Y20207   8.032   2.489  14.960
  166DOPC  H18Z20208   7.904   2.449  15.080
  167DOPC     N20209   7.153   1.346  16.844
  167DOPC   C1220210   7.282   1.294  16.783
  167DOPC  H12A20211   7.360   1.366  16.800
  167DOPC  H12B20212   7.268   1.284  16.676
  167DOPC   C1320213   7.113   1.479  16.787
  167DOPC  H13A20214   7.184   1.556  16.812
  167DOPC  H13B20215   7.099   1.474  16.680
  167DOPC  H13C20216   7.017   1.506  16.828
  167DOPC   C1420217   7.170   1.363  16.991
  167DOPC  H14A20218   7.081   1.400  17.039
  167DOPC  H14B20219   7.200   1.269  17.035
  167DOPC  H14C20220   7.251   1.431  17.014
  167DOPC   C1520221   7.038   1.253  16.819
  167DOPC  H15A20222   7.027   1.229  16.714
  167DOPC  H15B20223   6.946   1.299  16.852
  167DOPC  H15C20224   7.053   1.160  16.872
  167DOPC   C1120225   7.334   1.158  16.837
  167DOPC  H11A20226   7.250   1.085  16.837
  167DOPC  H11B20227   7.411   1.118  16.768
  167DOPC     P20228   7.520   1.250  16.996
  167DOPC   O1320229   7.606   1.172  17.088
  167DOPC   O1420230   7.483   1.388  17.034
  167DOPC   O1220231   7.386   1.168  16.970
  167DOPC   O1120232   7.588   1.251  16.852
  167DOPC    C120233   7.729   1.277  16.844
  167DOPC    HA20234   7.788   1.203  16.902
  167DOPC    HB20235   7.751   1.378  16.886
  167DOPC    C220236   7.785   1.276  16.698
  167DOPC    HS20237   7.878   1.336  16.698
  167DOPC   O2120238   7.689   1.331  16.605
  167DOPC   C2120239   7.663   1.459  16.620
  167DOPC   O2220240   7.721   1.537  16.694
  167DOPC   C2220241   7.546   1.496  16.529
  167DOPC   H2R20242   7.472   1.554  16.589
  167DOPC   H2S20243   7.497   1.401  16.497
  167DOPC    C320244   7.825   1.134  16.648
  167DOPC    HX20245   7.889   1.084  16.724
  167DOPC    HY20246   7.890   1.151  16.559
  167DOPC   O3120247   7.714   1.053  16.604
  167DOPC   C3120248   7.666   0.964  16.689
  167DOPC   O3220249   7.707   0.942  16.802
  167DOPC   C3220250   7.552   0.885  16.623
  167DOPC   H2X20251   7.601   0.813  16.553
  167DOPC   H2Y20252   7.503   0.825  16.703
  167DOPC   C2320253   7.590   1.578  16.405
  167DOPC   H3R20254   7.689   1.544  16.369
  167DOPC   H3S20255   7.601   1.684  16.435
  167DOPC   C2420256   7.491   1.568  16.287
  167DOPC   H4R20257   7.524   1.639  16.208
  167DOPC   H4S20258   7.391   1.603  16.322
  167DOPC   C2520259   7.475   1.428  16.224
  167DOPC   H5R20260   7.400   1.434  16.143
  167DOPC   H5S20261   7.435   1.358  16.301
  167DOPC   C2620262   7.605   1.367  16.168
  167DOPC   H6R20263   7.588   1.259  16.147
  167DOPC   H6S20264   7.685   1.372  16.245
  167DOPC   C2720265   7.655   1.432  16.038
  167DOPC   H7R20266   7.759   1.396  16.019
  167DOPC   H7S20267   7.660   1.543  16.050
  167DOPC   C2820268   7.568   1.395  15.916
  167DOPC   H8R20269   7.464   1.433  15.933
  167DOPC   H8S20270   7.560   1.285  15.915
  167DOPC   C2920271   7.619   1.448  15.784
  167DOPC   H9R20272   7.582   1.547  15.756
  167DOPC  C21020273   7.704   1.384  15.701
  167DOPC  H10R20274   7.731   1.433  15.606
  167DOPC  C21120275   7.766   1.248  15.722
  167DOPC  H11R20276   7.738   1.205  15.820
  167DOPC  H11S20277   7.875   1.266  15.727
  167DOPC  C21220278   7.736   1.136  15.611
  167DOPC  H12R20279   7.630   1.155  15.636
  167DOPC  H12S20280   7.827   1.092  15.658
  167DOPC  C21320281   7.688   0.985  15.637
  167DOPC  H13R20282   7.593   0.965  15.584
  167DOPC  H13S20283   7.668   0.975  15.746
  167DOPC  C21420284   7.789   0.875  15.596
  167DOPC  H14R20285   7.791   0.799  15.677
  167DOPC  H14S20286   7.892   0.916  15.590
  167DOPC  C21520287   7.757   0.802  15.465
  167DOPC  H15R20288   7.661   0.746  15.476
  167DOPC  H15S20289   7.837   0.727  15.447
  167DOPC  C21620290   7.745   0.894  15.342
  167DOPC  H16R20291   7.839   0.951  15.330
  167DOPC  H16S20292   7.664   0.967  15.360
  167DOPC  C21720293   7.714   0.818  15.212
  167DOPC  H17R20294   7.697   0.892  15.131
  167DOPC  H17S20295   7.619   0.762  15.225
  167DOPC  C21820296   7.823   0.720  15.167
  167DOPC  H18R20297   7.796   0.674  15.069
  167DOPC  H18S20298   7.837   0.639  15.241
  167DOPC  H18T20299   7.920   0.774  15.154
  167DOPC   C3320300   7.447   0.971  16.549
  167DOPC   H3X20301   7.479   1.077  16.544
  167DOPC   H3Y20302   7.352   0.968  16.605
  167DOPC   C3420303   7.420   0.924  16.405
  167DOPC   H4X20304   7.342   0.990  16.361
  167DOPC   H4Y20305   7.380   0.820  16.406
  167DOPC   C3520306   7.544   0.930  16.315
  167DOPC   H5X20307   7.609   0.841  16.333
  167DOPC   H5Y20308   7.604   1.020  16.341
  167DOPC   C3620309   7.510   0.938  16.165
  167DOPC   H6X20310   7.460   1.036  16.148
  167DOPC   H6Y20311   7.603   0.938  16.105
  167DOPC   C3720312   7.418   0.824  16.115
  167DOPC   H7X20313   7.474   0.728  16.119
  167DOPC   H7Y20314   7.330   0.813  16.181
  167DOPC   C3820315   7.369   0.847  15.970
  167DOPC   H8X20316   7.313   0.757  15.937
  167DOPC   H8Y20317   7.458   0.858  15.904
  167DOPC   C3920318   7.280   0.968  15.967
  167DOPC   H9X20319   7.204   0.970  16.047
  167DOPC  C31020320   7.283   1.070  15.879
  167DOPC  H10X20321   7.210   1.151  15.892
  167DOPC  C31120322   7.375   1.086  15.761
  167DOPC  H11X20323   7.410   0.987  15.725
  167DOPC  H11Y20324   7.466   1.143  15.791
  167DOPC  C31220325   7.309   1.158  15.642
  167DOPC  H12X20326   7.217   1.102  15.612
  167DOPC  H12Y20327   7.378   1.155  15.556
  167DOPC  C31320328   7.273   1.305  15.670
  167DOPC  H13X20329   7.210   1.311  15.761
  167DOPC  H13Y20330   7.365   1.363  15.688
  167DOPC  C31420331   7.192   1.372  15.557
  167DOPC  H14X20332   7.110   1.303  15.525
  167DOPC  H14Y20333   7.145   1.464  15.597
  167DOPC  C31520334   7.276   1.412  15.435
  167DOPC  H15X20335   7.324   1.322  15.391
  167DOPC  H15Y20336   7.357   1.481  15.467
  167DOPC  C31620337   7.190   1.482  15.328
  167DOPC  H16X20338   7.107   1.414  15.299
  167DOPC  H16Y20339   7.145   1.573  15.372
  167DOPC  C31720340   7.268   1.522  15.202
  167DOPC  H17X20341   7.350   1.591  15.230
  167DOPC  H17Y20342   7.314   1.431  15.158
  167DOPC  C31820343   7.179   1.589  15.096
  167DOPC  H18X20344   7.239   1.617  15.007
  167DOPC  H18Y20345   7.098   1.520  15.065
  167DOPC  H18Z20346   7.133   1.681  15.138
  168DOPC     N20347   2.297   8.286  16.945
  168DOPC   C1220348   2.220   8.301  16.814
  168DOPC  H12A20349   2.193   8.203  16.776
  168DOPC  H12B20350   2.284   8.347  16.740
  168DOPC   C1320351   2.443   8.261  16.921
  168DOPC  H13A20352   2.496   8.250  17.015
  168DOPC  H13B20353   2.460   8.170  16.864
  168DOPC  H13C20354   2.489   8.343  16.868
  168DOPC   C1420355   2.240   8.172  17.025
  168DOPC  H14A20356   2.251   8.078  16.973
  168DOPC  H14B20357   2.284   8.164  17.123
  168DOPC  H14C20358   2.134   8.187  17.039
  168DOPC   C1520359   2.279   8.410  17.027
  168DOPC  H15A20360   2.321   0.048  16.978
  168DOPC  H15B20361   2.323   8.400  17.125
  168DOPC  H15C20362   2.173   8.427  17.040
  168DOPC   C1120363   2.087   8.382  16.815
  168DOPC  H11A20364   2.109   0.041  16.835
  168DOPC  H11B20365   2.042   8.380  16.713
  168DOPC     P20366   1.918   8.198  16.891
  168DOPC   O1320367   1.777   8.221  16.854
  168DOPC   O1420368   1.942   8.117  17.012
  168DOPC   O1220369   1.995   8.335  16.912
  168DOPC   O1120370   1.997   8.132  16.770
  168DOPC    C120371   1.959   8.000  16.731
  168DOPC    HA20372   1.848   7.988  16.724
  168DOPC    HB20373   1.997   7.928  16.806
  168DOPC    C220374   2.016   7.959  16.591
  168DOPC    HS20375   1.999   7.850  16.578
  168DOPC   O2120376   2.155   7.990  16.579
  168DOPC   C2120377   2.239   7.919  16.651
  168DOPC   O2220378   2.210   7.831  16.731
  168DOPC   C2220379   2.382   7.956  16.613
  168DOPC   H2R20380   2.447   7.878  16.657
  168DOPC   H2S20381   2.407   8.054  16.659
  168DOPC    C320382   1.942   8.030  16.474
  168DOPC    HX20383   1.833   8.008  16.483
  168DOPC    HY20384   1.980   7.983  16.380
  168DOPC   O3120385   1.965   8.173  16.472
  168DOPC   C3120386   1.909   8.230  16.365
  168DOPC   O3220387   1.848   8.170  16.279
  168DOPC   C3220388   1.941   8.380  16.362
  168DOPC   H2X20389   1.965   8.413  16.465
  168DOPC   H2Y20390   2.032   8.392  16.298
  168DOPC   C2320391   2.405   7.961  16.460
  168DOPC   H3R20392   2.342   7.886  16.409
  168DOPC   H3S20393   2.511   7.935  16.437
  168DOPC   C2420394   2.377   8.098  16.396
  168DOPC   H4R20395   2.451   8.173  16.431
  168DOPC   H4S20396   2.276   8.133  16.427
  168DOPC   C2520397   2.380   8.090  16.243
  168DOPC   H5R20398   2.318   8.002  16.214
  168DOPC   H5S20399   2.484   8.070  16.207
  168DOPC   C2620400   2.324   8.215  16.175
  168DOPC   H6R20401   2.392   8.301  16.195
  168DOPC   H6S20402   2.226   8.240  16.220
  168DOPC   C2720403   2.305   8.200  16.023
  168DOPC   H7R20404   2.405   8.191  15.975
  168DOPC   H7S20405   2.258   8.293  15.983
  168DOPC   C2820406   2.221   8.079  15.978
  168DOPC   H8R20407   2.275   7.985  16.003
  168DOPC   H8S20408   2.215   8.082  15.868
  168DOPC   C2920409   2.083   8.077  16.042
  168DOPC   H9R20410   2.082   8.078  16.152
  168DOPC  C21020411   1.966   8.075  15.977
  168DOPC  H10R20412   1.872   8.078  16.035
  168DOPC  C21120413   1.949   8.073  15.827
  168DOPC  H11R20414   1.853   8.026  15.799
  168DOPC  H11S20415   2.029   8.013  15.779
  168DOPC  C21220416   1.952   8.215  15.768
  168DOPC  H12R20417   2.041   8.271  15.804
  168DOPC  H12S20418   1.862   8.269  15.804
  168DOPC  C21320419   1.952   8.215  15.614
  168DOPC  H13R20420   1.910   8.311  15.579
  168DOPC  H13S20421   1.887   8.133  15.577
  168DOPC  C21420422   2.093   8.201  15.555
  168DOPC  H14R20423   2.147   8.118  15.606
  168DOPC  H14S20424   2.150   8.294  15.575
  168DOPC  C21520425   2.093   8.173  15.404
  168DOPC  H15R20426   2.056   8.070  15.387
  168DOPC  H15S20427   2.197   8.177  15.366
  168DOPC  C21620428   2.006   8.271  15.323
  168DOPC  H16R20429   2.036   8.374  15.350
  168DOPC  H16S20430   1.899   8.258  15.352
  168DOPC  C21720431   2.019   8.252  15.172
  168DOPC  H17R20432   2.125   8.264  15.142
  168DOPC  H17S20433   1.961   8.333  15.121
  168DOPC  C21820434   1.967   8.117  15.121
  168DOPC  H18R20435   2.027   8.033  15.164
  168DOPC  H18S20436   1.975   8.112  15.011
  168DOPC  H18T20437   1.861   8.101  15.150
  168DOPC   C3320438   1.825   0.016  16.305
  168DOPC   H3X20439   1.738   0.010  16.375
  168DOPC   H3Y20440   1.792   8.423  16.208
  168DOPC   C3420441   1.860   0.165  16.286
  168DOPC   H4X20442   1.899   0.205  16.382
  168DOPC   H4Y20443   1.767   0.221  16.262
  168DOPC   C3520444   1.962   0.193  16.174
  168DOPC   H5X20445   2.058   0.142  16.196
  168DOPC   H5Y20446   1.983   0.302  16.172
  168DOPC   C3620447   1.915   0.153  16.033
  168DOPC   H6X20448   1.894   0.043  16.030
  168DOPC   H6Y20449   1.820   0.205  16.009
  168DOPC   C3720450   2.020   0.184  15.926
  168DOPC   H7X20451   2.040   0.294  15.922
  168DOPC   H7Y20452   2.115   0.135  15.956
  168DOPC   C3820453   1.983   0.134  15.785
  168DOPC   H8X20454   1.942   0.031  15.794
  168DOPC   H8Y20455   2.077   0.124  15.727
  168DOPC   C3920456   1.884   0.221  15.712
  168DOPC   H9X20457   1.779   0.208  15.741
  168DOPC  C31020458   1.915   0.312  15.617
  168DOPC  H10X20459   1.835   0.368  15.568
  168DOPC  C31120460   2.055   0.342  15.568
  168DOPC  H11X20461   2.129   0.331  15.651
  168DOPC  H11Y20462   2.061   0.447  15.535
  168DOPC  C31220463   2.101   0.251  15.452
  168DOPC  H12X20464   2.096   0.144  15.482
  168DOPC  H12Y20465   2.208   0.274  15.433
  168DOPC  C31320466   2.022   0.272  15.323
  168DOPC  H13X20467   1.918   0.236  15.337
  168DOPC  H13Y20468   2.016   0.381  15.302
  168DOPC  C31420469   2.082   0.203  15.199
  168DOPC  H14X20470   2.083   0.093  15.213
  168DOPC  H14Y20471   2.015   0.225  15.113
  168DOPC  C31520472   2.225   0.251  15.167
  168DOPC  H15X20473   2.297   0.185  15.219
  168DOPC  H15Y20474   2.240   0.353  15.208
  168DOPC  C31620475   2.258   0.253  15.016
  168DOPC  H16X20476   2.366   0.279  15.005
  168DOPC  H16Y20477   2.244   0.152  14.974
  168DOPC  C31720478   2.177   0.355  14.934
  168DOPC  H17X20479   2.215   0.353  14.829
  168DOPC  H17Y20480   2.071   0.322  14.929
  168DOPC  C31820481   2.182   0.499  14.986
  168DOPC  H18X20482   2.287   0.534  14.993
  168DOPC  H18Y20483   2.126   0.567  14.919
  168DOPC  H18Z20484   2.136   0.504  15.087
  169DOPC     N20485   0.662   1.202  17.046
  169DOPC   C1220486   0.636   1.350  17.020
  169DOPC  H12A20487   0.614   1.363  16.915
  169DOPC  H12B20488   0.725   1.406  17.043
  169DOPC   C1320489   0.555   1.121  16.979
  169DOPC  H13A20490   0.567   1.015  16.996
  169DOPC  H13B20491   0.458   1.150  17.017
  169DOPC  H13C20492   0.552   1.139  16.873
  169DOPC   C1420493   0.657   1.176  17.194
  169DOPC  H14A20494   0.670   1.071  17.216
  169DOPC  H14B20495   0.732   1.233  17.246
  169DOPC  H14C20496   0.560   1.206  17.232
  169DOPC   C1520497   0.796   1.163  16.992
  169DOPC  H15A20498   0.804   1.179  16.886
  169DOPC  H15B20499   0.817   1.058  17.009
  169DOPC  H15C20500   0.875   1.220  17.039
  169DOPC   C1120501   0.518   1.418  17.096
  169DOPC  H11A20502   0.545   1.424  17.204
  169DOPC  H11B20503   0.509   1.523  17.062
  169DOPC     P20504   0.305   1.369  16.953
  169DOPC   O1320505   0.236   1.498  16.971
  169DOPC   O1420506   0.226   1.246  16.931
  169DOPC   O1220507   0.395   1.346  17.082
  169DOPC   O1120508   0.416   1.382  16.839
  169DOPC    C120509   0.378   1.416  16.705
  169DOPC    HA20510   0.282   1.471  16.700
  169DOPC    HB20511   0.368   1.324  16.644
  169DOPC    C220512   0.488   1.506  16.641
  169DOPC    HS20513   0.504   1.592  16.710
  169DOPC   O2120514   0.446   1.550  16.511
  169DOPC   C2120515   0.363   1.652  16.507
  169DOPC   O2220516   0.323   1.717  16.602
  169DOPC   C2220517   0.324   1.675  16.362
  169DOPC   H2R20518   0.223   1.722  16.360
  169DOPC   H2S20519   0.317   1.576  16.312
  169DOPC    C320520   0.625   1.432  16.628
  169DOPC    HX20521   0.637   1.368  16.718
  169DOPC    HY20522   0.706   1.507  16.632
  169DOPC   O3120523   0.631   1.348  16.510
  169DOPC   C3120524   0.684   1.407  16.403
  169DOPC   O3220525   0.737   1.517  16.402
  169DOPC   C3220526   0.664   1.321  16.278
  169DOPC   H2X20527   0.580   1.250  16.295
  169DOPC   H2Y20528   0.633   1.391  16.198
  169DOPC   C2320529   0.427   1.764  16.289
  169DOPC   H3R20530   0.530   1.741  16.323
  169DOPC   H3S20531   0.407   1.870  16.314
  169DOPC   C2420532   0.424   1.746  16.136
  169DOPC   H4R20533   0.478   1.830  16.089
  169DOPC   H4S20534   0.319   1.750  16.101
  169DOPC   C2520535   0.492   1.615  16.090
  169DOPC   H5R20536   0.438   1.527  16.132
  169DOPC   H5S20537   0.595   1.614  16.131
  169DOPC   C2620538   0.500   1.602  15.937
  169DOPC   H6R20539   0.570   1.519  15.911
  169DOPC   H6S20540   0.543   1.696  15.897
  169DOPC   C2720541   0.364   1.572  15.872
  169DOPC   H7R20542   0.287   1.640  15.912
  169DOPC   H7S20543   0.334   1.469  15.899
  169DOPC   C2820544   0.366   1.585  15.718
  169DOPC   H8R20545   0.268   1.551  15.678
  169DOPC   H8S20546   0.443   1.516  15.677
  169DOPC   C2920547   0.390   1.728  15.678
  169DOPC   H9R20548   0.334   1.802  15.736
  169DOPC  C21020549   0.473   1.772  15.582
  169DOPC  H10R20550   0.481   1.880  15.565
  169DOPC  C21120551   0.561   1.687  15.494
  169DOPC  H11R20552   0.576   1.740  15.397
  169DOPC  H11S20553   0.511   1.591  15.469
  169DOPC  C21220554   0.699   1.658  15.556
  169DOPC  H12R20555   0.687   1.587  15.640
  169DOPC  H12S20556   0.741   1.752  15.597
  169DOPC  C21320557   0.799   1.603  15.454
  169DOPC  H13R20558   0.901   1.600  15.499
  169DOPC  H13S20559   0.803   1.674  15.369
  169DOPC  C21420560   0.764   1.463  15.400
  169DOPC  H14R20561   0.654   1.454  15.392
  169DOPC  H14S20562   0.798   1.385  15.472
  169DOPC  C21520563   0.823   1.437  15.261
  169DOPC  H15R20564   0.791   1.520  15.194
  169DOPC  H15S20565   0.781   1.343  15.220
  169DOPC  C21620566   0.976   1.426  15.260
  169DOPC  H16R20567   1.005   1.333  15.314
  169DOPC  H16S20568   1.022   1.512  15.313
  169DOPC  C21720569   1.033   1.420  15.117
  169DOPC  H17R20570   0.974   1.348  15.057
  169DOPC  H17S20571   1.137   1.380  15.123
  169DOPC  C21820572   1.036   1.556  15.047
  169DOPC  H18R20573   1.096   1.629  15.106
  169DOPC  H18S20574   0.934   1.597  15.034
  169DOPC  H18T20575   1.083   1.547  14.946
  169DOPC   C3320576   0.793   1.249  16.233
  169DOPC   H3X20577   0.879   1.319  16.237
  169DOPC   H3Y20578   0.781   1.220  16.126
  169DOPC   C3420579   0.827   1.122  16.314
  169DOPC   H4X20580   0.836   1.152  16.421
  169DOPC   H4Y20581   0.926   1.084  16.283
  169DOPC   C3520582   0.725   1.008  16.305
  169DOPC   H5X20583   0.621   1.045  16.316
  169DOPC   H5Y20584   0.744   0.943  16.393
  169DOPC   C3620585   0.737   0.916  16.181
  169DOPC   H6X20586   0.843   0.884  16.171
  169DOPC   H6Y20587   0.678   0.824  16.202
  169DOPC   C3720588   0.688   0.971  16.046
  169DOPC   H7X20589   0.760   1.047  16.007
  169DOPC   H7Y20590   0.691   0.886  15.975
  169DOPC   C3820591   0.546   1.033  16.048
  169DOPC   H8X20592   0.556   1.144  16.057
  169DOPC   H8Y20593   0.494   0.999  16.141
  169DOPC   C3920594   0.462   0.993  15.930
  169DOPC   H9X20595   0.426   0.889  15.934
  169DOPC  C31020596   0.429   1.066  15.822
  169DOPC  H10X20597   0.367   1.018  15.745
  169DOPC  C31120598   0.467   1.208  15.789
  169DOPC  H11X20599   0.505   1.263  15.878
  169DOPC  H11Y20600   0.377   1.263  15.755
  169DOPC  C31220601   0.575   1.217  15.678
  169DOPC  H12X20602   0.673   1.189  15.723
  169DOPC  H12Y20603   0.583   1.323  15.645
  169DOPC  C31320604   0.551   1.127  15.555
  169DOPC  H13X20605   0.635   1.143  15.483
  169DOPC  H13Y20606   0.558   1.022  15.588
  169DOPC  C31420607   0.417   1.147  15.482
  169DOPC  H14X20608   0.397   1.057  15.421
  169DOPC  H14Y20609   0.335   1.155  15.557
  169DOPC  C31520610   0.411   1.269  15.388
  169DOPC  H15X20611   0.449   1.359  15.441
  169DOPC  H15Y20612   0.305   1.287  15.362
  169DOPC  C31620613   0.490   1.245  15.258
  169DOPC  H16X20614   0.596   1.224  15.283
  169DOPC  H16Y20615   0.450   1.155  15.208
  169DOPC  C31720616   0.486   1.362  15.158
  169DOPC  H17X20617   0.527   1.453  15.207
  169DOPC  H17Y20618   0.552   1.337  15.073
  169DOPC  C31820619   0.346   1.394  15.105
  169DOPC  H18X20620   0.299   1.303  15.062
  169DOPC  H18Y20621   0.281   1.432  15.187
  169DOPC  H18Z20622   0.351   1.472  15.026
  170DOPC     N20623   7.658   7.731  16.817
  170DOPC   C1220624   7.589   7.652  16.929
  170DOPC  H12A20625   7.570   7.719  17.011
  170DOPC  H12B20626   7.657   7.576  16.965
  170DOPC   C1320627   7.792   7.777  16.866
  170DOPC  H13A20628   7.844   7.833  16.791
  170DOPC  H13B20629   7.783   7.838  16.955
  170DOPC  H13C20630   7.853   7.692  16.891
  170DOPC   C1420631   7.573   7.848  16.781
  170DOPC  H14A20632   7.476   7.812  16.748
  170DOPC  H14B20633   7.552   7.908  16.868
  170DOPC  H14C20634   7.618   7.909  16.703
  170DOPC   C1520635   7.678   7.643  16.698
  170DOPC  H15A20636   7.727   7.696  16.617
  170DOPC  H15B20637   7.583   7.604  16.663
  170DOPC  H15C20638   7.740   7.559  16.724
  170DOPC   C1120639   7.454   7.583  16.895
  170DOPC  H11A20640   7.467   7.516  16.808
  170DOPC  H11B20641   7.425   7.517  16.980
  170DOPC     P20642   7.291   7.761  16.987
  170DOPC   O1320643   7.393   7.857  17.034
  170DOPC   O1420644   7.236   7.663  17.084
  170DOPC   O1220645   7.351   7.679  16.866
  170DOPC   O1120646   7.170   7.836  16.920
  170DOPC    C120647   7.188   7.929  16.813
  170DOPC    HA20648   7.294   7.942  16.783
  170DOPC    HB20649   7.152   8.028  16.847
  170DOPC    C220650   7.106   7.889  16.687
  170DOPC    HS20651   7.001   7.870  16.718
  170DOPC   O2120652   7.164   7.774  16.623
  170DOPC   C2120653   7.128   7.656  16.671
  170DOPC   O2220654   7.039   7.635  16.752
  170DOPC   C2220655   7.219   7.549  16.611
  170DOPC   H2R20656   7.230   7.471  16.690
  170DOPC   H2S20657   7.320   7.593  16.593
  170DOPC    C320658   7.104   8.006  16.585
  170DOPC    HX20659   7.057   8.094  16.634
  170DOPC    HY20660   7.039   7.977  16.500
  170DOPC   O3120661   7.239   8.041  16.546
  170DOPC   C3120662   7.274   8.010  16.421
  170DOPC   O3220663   7.198   7.977  16.333
  170DOPC   C3220664   7.426   8.020  16.408
  170DOPC   H2X20665   7.470   7.946  16.479
  170DOPC   H2Y20666   7.453   7.989  16.305
  170DOPC   C2320667   7.164   7.484  16.482
  170DOPC   H3R20668   7.058   7.454  16.496
  170DOPC   H3S20669   7.222   7.391  16.463
  170DOPC   C2420670   7.178   7.573  16.358
  170DOPC   H4R20671   7.284   7.606  16.348
  170DOPC   H4S20672   7.116   7.664  16.370
  170DOPC   C2520673   7.138   7.499  16.229
  170DOPC   H5R20674   7.031   7.470  16.235
  170DOPC   H5S20675   7.197   7.406  16.221
  170DOPC   C2620676   7.159   7.581  16.100
  170DOPC   H6R20677   7.123   7.520  16.014
  170DOPC   H6S20678   7.267   7.599  16.085
  170DOPC   C2720679   7.084   7.715  16.099
  170DOPC   H7R20680   7.134   7.785  16.170
  170DOPC   H7S20681   6.981   7.699  16.136
  170DOPC   C2820682   7.076   7.782  15.960
  170DOPC   H8R20683   7.019   7.876  15.971
  170DOPC   H8S20684   7.015   7.716  15.894
  170DOPC   C2920685   7.211   7.806  15.897
  170DOPC   H9R20686   7.257   7.718  15.850
  170DOPC  C21020687   7.278   7.923  15.895
  170DOPC  H10R20688   7.375   7.927  15.843
  170DOPC  C21120689   7.232   8.053  15.954
  170DOPC  H11R20690   7.320   8.116  15.980
  170DOPC  H11S20691   7.178   8.036  16.050
  170DOPC  C21220692   7.139   8.135  15.862
  170DOPC  H12R20693   7.116   8.232  15.911
  170DOPC  H12S20694   7.043   8.080  15.851
  170DOPC  C21320695   7.193   8.162  15.720
  170DOPC  H13R20696   7.116   8.218  15.663
  170DOPC  H13S20697   7.208   8.064  15.669
  170DOPC  C21420698   7.324   8.243  15.718
  170DOPC  H14R20699   7.400   8.189  15.778
  170DOPC  H14S20700   7.306   8.341  15.766
  170DOPC  C21520701   7.381   8.267  15.577
  170DOPC  H15R20702   7.474   8.327  15.587
  170DOPC  H15S20703   7.309   8.329  15.519
  170DOPC  C21620704   7.413   8.141  15.495
  170DOPC  H16R20705   7.324   8.074  15.492
  170DOPC  H16S20706   7.495   8.085  15.544
  170DOPC  C21720707   7.453   8.171  15.350
  170DOPC  H17R20708   7.368   8.223  15.300
  170DOPC  H17S20709   7.467   8.074  15.297
  170DOPC  C21820710   7.580   8.255  15.334
  170DOPC  H18R20711   7.605   8.268  15.227
  170DOPC  H18S20712   7.666   8.205  15.385
  170DOPC  H18T20713   7.566   8.355  15.380
  170DOPC   C3320714   7.482   8.161  16.438
  170DOPC   H3X20715   7.435   8.201  16.530
  170DOPC   H3Y20716   7.455   8.230  16.355
  170DOPC   C3420717   7.634   8.163  16.460
  170DOPC   H4X20718   7.658   8.104  16.551
  170DOPC   H4Y20719   7.665   8.267  16.479
  170DOPC   C3520720   7.718   8.107  16.343
  170DOPC   H5X20721   7.697   7.999  16.329
  170DOPC   H5Y20722   7.825   8.117  16.370
  170DOPC   C3620723   7.695   8.181  16.211
  170DOPC   H6X20724   7.593   8.159  16.173
  170DOPC   H6Y20725   7.702   8.291  16.228
  170DOPC   C3720726   7.799   8.142  16.105
  170DOPC   H7X20727   7.899   8.167  16.145
  170DOPC   H7Y20728   7.797   8.032  16.088
  170DOPC   C3820729   7.784   8.216  15.971
  170DOPC   H8X20730   7.875   8.197  15.910
  170DOPC   H8Y20731   7.781   8.325  15.989
  170DOPC   C3920732   7.660   8.172  15.897
  170DOPC   H9X20733   7.568   8.224  15.926
  170DOPC  C31020734   7.654   8.077  15.802
  170DOPC  H10X20735   7.556   8.056  15.755
  170DOPC  C31120736   7.767   7.992  15.749
  170DOPC  H11X20737   7.854   7.994  15.817
  170DOPC  H11Y20738   7.800   8.032  15.651
  170DOPC  C31220739   7.726   7.845  15.728
  170DOPC  H12X20740   7.691   7.800  15.824
  170DOPC  H12Y20741   7.816   7.788  15.696
  170DOPC  C31320742   7.617   7.826  15.621
  170DOPC  H13X20743   7.522   7.872  15.655
  170DOPC  H13Y20744   7.650   7.879  15.529
  170DOPC  C31420745   7.590   7.679  15.587
  170DOPC  H14X20746   7.681   7.635  15.542
  170DOPC  H14Y20747   7.569   7.623  15.681
  170DOPC  C31520748   7.472   7.659  15.490
  170DOPC  H15X20749   7.378   7.691  15.540
  170DOPC  H15Y20750   7.463   7.550  15.468
  170DOPC  C31620751   7.485   7.737  15.358
  170DOPC  H16X20752   7.486   7.846  15.380
  170DOPC  H16Y20753   7.581   7.711  15.309
  170DOPC  C31720754   7.370   7.711  15.259
  170DOPC  H17X20755   7.273   7.731  15.310
  170DOPC  H17Y20756   7.379   7.784  15.176
  170DOPC  C31820757   7.369   7.569  15.199
  170DOPC  H18X20758   7.286   7.559  15.126
  170DOPC  H18Y20759   7.464   7.548  15.147
  170DOPC  H18Z20760   7.354   7.493  15.279
  171DOPC     N20761   4.355   3.251  12.945
  171DOPC   C1220762   4.251   3.309  13.039
  171DOPC  H12A20763   4.299   3.385  13.100
  171DOPC  H12B20764   4.215   3.232  13.106
  171DOPC   C1320765   4.293   3.160  12.843
  171DOPC  H13A20766   4.242   3.077  12.890
  171DOPC  H13B20767   4.222   3.217  12.785
  171DOPC  H13C20768   4.368   3.122  12.775
  171DOPC   C1420769   4.460   3.177  13.022
  171DOPC  H14A20770   4.420   3.098  13.082
  171DOPC  H14B20771   4.531   3.131  12.956
  171DOPC  H14C20772   4.515   3.246  13.084
  171DOPC   C1520773   4.424   3.362  12.871
  171DOPC  H15A20774   4.490   3.324  12.794
  171DOPC  H15B20775   4.483   3.423  12.936
  171DOPC  H15C20776   4.350   3.427  12.826
  171DOPC   C1120777   4.127   3.381  12.977
  171DOPC  H11A20778   4.071   3.309  12.913
  171DOPC  H11B20779   4.058   3.411  13.059
  171DOPC     P20780   4.212   3.629  12.967
  171DOPC   O1320781   4.094   3.706  13.010
  171DOPC   O1420782   4.309   3.693  12.876
  171DOPC   O1220783   4.164   3.493  12.899
  171DOPC   O1120784   4.288   3.576  13.095
  171DOPC    C120785   4.327   3.665  13.200
  171DOPC    HA20786   4.256   3.657  13.284
  171DOPC    HB20787   4.329   3.771  13.167
  171DOPC    C220788   4.470   3.630  13.252
  171DOPC    HS20789   4.535   3.626  13.162
  171DOPC   O2120790   4.467   3.502  13.318
  171DOPC   C2120791   4.586   3.448  13.337
  171DOPC   O2220792   4.692   3.494  13.299
  171DOPC   C2220793   4.575   3.315  13.411
  171DOPC   H2R20794   4.673   3.300  13.461
  171DOPC   H2S20795   4.561   3.234  13.336
  171DOPC    C320796   4.523   3.744  13.345
  171DOPC    HX20797   4.535   3.832  13.279
  171DOPC    HY20798   4.624   3.720  13.383
  171DOPC   O3120799   4.429   3.779  13.449
  171DOPC   C3120800   4.448   3.721  13.567
  171DOPC   O3220801   4.536   3.643  13.595
  171DOPC   C3220802   4.343   3.774  13.665
  171DOPC   H2X20803   4.376   3.747  13.768
  171DOPC   H2Y20804   4.343   3.884  13.656
  171DOPC   C2320805   4.463   3.309  13.517
  171DOPC   H3R20806   4.364   3.304  13.467
  171DOPC   H3S20807   4.465   3.403  13.577
  171DOPC   C2420808   4.481   3.192  13.614
  171DOPC   H4R20809   4.580   3.201  13.663
  171DOPC   H4S20810   4.480   3.096  13.558
  171DOPC   C2520811   4.372   3.190  13.722
  171DOPC   H5R20812   4.274   3.167  13.676
  171DOPC   H5S20813   4.366   3.291  13.767
  171DOPC   C2620814   4.401   3.088  13.834
  171DOPC   H6R20815   4.500   3.110  13.879
  171DOPC   H6S20816   4.407   2.987  13.789
  171DOPC   C2720817   4.293   3.087  13.944
  171DOPC   H7R20818   4.310   2.999  14.010
  171DOPC   H7S20819   4.195   3.073  13.896
  171DOPC   C2820820   4.288   3.215  14.030
  171DOPC   H8R20821   4.196   3.210  14.092
  171DOPC   H8S20822   4.275   3.303  13.964
  171DOPC   C2920823   4.407   3.230  14.122
  171DOPC   H9R20824   4.415   3.153  14.199
  171DOPC  C21020825   4.502   3.326  14.117
  171DOPC  H10R20826   4.582   3.324  14.193
  171DOPC  C21120827   4.512   3.440  14.019
  171DOPC  H11R20828   4.464   3.414  13.922
  171DOPC  H11S20829   4.619   3.460  13.996
  171DOPC  C21220830   4.448   3.571  14.070
  171DOPC  H12R20831   4.339   3.557  14.080
  171DOPC  H12S20832   4.465   3.650  13.994
  171DOPC  C21320833   4.505   3.620  14.204
  171DOPC  H13R20834   4.616   3.617  14.200
  171DOPC  H13S20835   4.473   3.551  14.285
  171DOPC  C21420836   4.461   3.763  14.239
  171DOPC  H14R20837   4.351   3.772  14.230
  171DOPC  H14S20838   4.507   3.832  14.165
  171DOPC  C21520839   4.503   3.806  14.381
  171DOPC  H15R20840   4.508   3.917  14.384
  171DOPC  H15S20841   4.605   3.767  14.402
  171DOPC  C21620842   4.404   3.759  14.488
  171DOPC  H16R20843   4.390   3.649  14.482
  171DOPC  H16S20844   4.306   3.807  14.467
  171DOPC  C21720845   4.446   3.797  14.631
  171DOPC  H17R20846   4.358   3.786  14.698
  171DOPC  H17S20847   4.476   3.904  14.633
  171DOPC  C21820848   4.560   3.710  14.686
  171DOPC  H18R20849   4.529   3.603  14.691
  171DOPC  H18S20850   4.588   3.743  14.789
  171DOPC  H18T20851   4.650   3.717  14.621
  171DOPC   C3320852   4.200   3.720  13.638
  171DOPC   H3X20853   4.191   3.616  13.676
  171DOPC   H3Y20854   4.182   3.716  13.528
  171DOPC   C3420855   4.090   3.808  13.699
  171DOPC   H4X20856   3.990   3.768  13.671
  171DOPC   H4Y20857   4.100   3.909  13.652
  171DOPC   C3520858   4.097   3.826  13.851
  171DOPC   H5X20859   4.031   3.910  13.880
  171DOPC   H5Y20860   4.200   3.853  13.881
  171DOPC   C3620861   4.052   3.702  13.930
  171DOPC   H6X20862   3.943   3.685  13.913
  171DOPC   H6Y20863   4.106   3.613  13.892
  171DOPC   C3720864   4.080   3.715  14.080
  171DOPC   H7X20865   4.189   3.731  14.091
  171DOPC   H7Y20866   4.029   3.805  14.121
  171DOPC   C3820867   4.036   3.591  14.161
  171DOPC   H8X20868   4.056   3.501  14.100
  171DOPC   H8Y20869   3.926   3.595  14.175
  171DOPC   C3920870   4.110   3.579  14.291
  171DOPC   H9X20871   4.210   3.533  14.282
  171DOPC  C31020872   4.070   3.620  14.413
  171DOPC  H10X20873   4.138   3.604  14.498
  171DOPC  C31120874   3.940   3.688  14.449
  171DOPC  H11X20875   3.867   3.688  14.366
  171DOPC  H11Y20876   3.962   3.795  14.473
  171DOPC  C31220877   3.876   3.625  14.574
  171DOPC  H12X20878   3.953   3.610  14.652
  171DOPC  H12Y20879   3.835   3.524  14.548
  171DOPC  C31320880   3.764   3.712  14.633
  171DOPC  H13X20881   3.808   3.810  14.662
  171DOPC  H13Y20882   3.688   3.732  14.554
  171DOPC  C31420883   3.693   3.652  14.755
  171DOPC  H14X20884   3.624   3.728  14.797
  171DOPC  H14Y20885   3.630   3.566  14.721
  171DOPC  C31520886   3.786   3.602  14.867
  171DOPC  H15X20887   3.848   3.518  14.828
  171DOPC  H15Y20888   3.724   3.561  14.950
  171DOPC  C31620889   3.877   3.711  14.925
  171DOPC  H16X20890   3.944   3.750  14.845
  171DOPC  H16Y20891   3.813   3.795  14.960
  171DOPC  C31720892   3.964   3.663  15.043
  171DOPC  H17X20893   4.016   3.751  15.086
  171DOPC  H17Y20894   3.897   3.622  15.122
  171DOPC  C31820895   4.068   3.557  15.005
  171DOPC  H18X20896   4.135   3.595  14.925
  171DOPC  H18Y20897   4.130   3.531  15.094
  171DOPC  H18Z20898   4.019   3.464  14.969
  172DOPC     N20899   3.472   4.867  12.946
  172DOPC   C1220900   3.415   4.848  13.086
  172DOPC  H12A20901   3.425   4.940  13.142
  172DOPC  H12B20902   3.474   4.775  13.140
  172DOPC   C1320903   3.440   4.747  12.860
  172DOPC  H13A20904   3.483   4.657  12.900
  172DOPC  H13B20905   3.333   4.734  12.855
  172DOPC  H13C20906   3.477   4.760  12.759
  172DOPC   C1420907   3.620   4.886  12.951
  172DOPC  H14A20908   3.669   4.799  12.992
  172DOPC  H14B20909   3.660   4.903  12.852
  172DOPC  H14C20910   3.645   4.971  13.013
  172DOPC   C1520911   3.409   4.988  12.883
  172DOPC  H15A20912   3.429   5.077  12.940
  172DOPC  H15B20913   3.301   4.976  12.884
  172DOPC  H15C20914   3.441   5.002  12.781
  172DOPC   C1120915   3.265   4.807  13.100
  172DOPC  H11A20916   3.250   4.708  13.053
  172DOPC  H11B20917   3.241   4.795  13.207
  172DOPC     P20918   3.141   5.037  13.112
  172DOPC   O1320919   3.038   5.009  13.213
  172DOPC   O1420920   3.109   5.135  13.005
  172DOPC   O1220921   3.177   4.901  13.038
  172DOPC   O1120922   3.279   5.075  13.181
  172DOPC    C120923   3.308   5.209  13.220
  172DOPC    HA20924   3.230   5.248  13.289
  172DOPC    HB20925   3.310   5.275  13.131
  172DOPC    C220926   3.446   5.220  13.291
  172DOPC    HS20927   3.521   5.164  13.231
  172DOPC   O2120928   3.436   5.169  13.425
  172DOPC   C2120929   3.463   5.042  13.444
  172DOPC   O2220930   3.503   4.964  13.359
  172DOPC   C2220931   3.438   5.007  13.592
  172DOPC   H2R20932   3.448   4.898  13.605
  172DOPC   H2S20933   3.332   5.036  13.613
  172DOPC    C320934   3.495   5.368  13.298
  172DOPC    HX20935   3.504   5.405  13.194
  172DOPC    HY20936   3.597   5.370  13.342
  172DOPC   O3120937   3.400   5.451  13.370
  172DOPC   C3120938   3.422   5.458  13.502
  172DOPC   O3220939   3.527   5.431  13.557
  172DOPC   C3220940   3.294   5.502  13.573
  172DOPC   H2X20941   3.311   5.603  13.616
  172DOPC   H2Y20942   3.213   5.508  13.497
  172DOPC   C2320943   3.532   5.083  13.690
  172DOPC   H3R20944   3.549   5.186  13.651
  172DOPC   H3S20945   3.631   5.032  13.694
  172DOPC   C2420946   3.475   5.100  13.832
  172DOPC   H4R20947   3.371   5.139  13.824
  172DOPC   H4S20948   3.534   5.178  13.885
  172DOPC   C2520949   3.473   4.973  13.919
  172DOPC   H5R20950   3.420   4.893  13.864
  172DOPC   H5S20951   3.413   4.994  14.011
  172DOPC   C2620952   3.610   4.920  13.965
  172DOPC   H6R20953   3.667   4.887  13.875
  172DOPC   H6S20954   3.594   4.829  14.027
  172DOPC   C2720955   3.699   5.018  14.045
  172DOPC   H7R20956   3.726   5.103  13.978
  172DOPC   H7S20957   3.794   4.967  14.072
  172DOPC   C2820958   3.637   5.077  14.174
  172DOPC   H8R20959   3.547   5.136  14.144
  172DOPC   H8S20960   3.709   5.151  14.215
  172DOPC   C2920961   3.599   4.974  14.277
  172DOPC   H9R20962   3.540   4.890  14.236
  172DOPC  C21020963   3.626   4.974  14.409
  172DOPC  H10R20964   3.588   4.890  14.469
  172DOPC  C21120965   3.701   5.077  14.489
  172DOPC  H11R20966   3.759   5.146  14.423
  172DOPC  H11S20967   3.776   5.027  14.554
  172DOPC  C21220968   3.609   5.164  14.578
  172DOPC  H12R20969   3.547   5.228  14.513
  172DOPC  H12S20970   3.673   5.232  14.639
  172DOPC  C21320971   3.515   5.087  14.674
  172DOPC  H13R20972   3.447   5.025  14.612
  172DOPC  H13S20973   3.451   5.161  14.727
  172DOPC  C21420974   3.585   4.997  14.777
  172DOPC  H14R20975   3.658   4.931  14.724
  172DOPC  H14S20976   3.509   4.931  14.823
  172DOPC  C21520977   3.658   5.071  14.890
  172DOPC  H15R20978   3.731   5.143  14.848
  172DOPC  H15S20979   3.715   4.997  14.949
  172DOPC  C21620980   3.562   5.144  14.986
  172DOPC  H16R20981   3.483   5.074  15.020
  172DOPC  H16S20982   3.512   5.227  14.931
  172DOPC  C21720983   3.633   5.202  15.109
  172DOPC  H17R20984   3.708   5.276  15.075
  172DOPC  H17S20985   3.687   5.120  15.161
  172DOPC  C21820986   3.537   5.270  15.208
  172DOPC  H18R20987   3.463   5.196  15.246
  172DOPC  H18S20988   3.482   5.353  15.159
  172DOPC  H18T20989   3.594   5.311  15.295
  172DOPC   C3320990   3.254   5.402  13.684
  172DOPC   H3X20991   3.320   5.415  13.772
  172DOPC   H3Y20992   3.267   5.297  13.648
  172DOPC   C3420993   3.107   5.418  13.725
  172DOPC   H4X20994   3.044   5.400  13.635
  172DOPC   H4Y20995   3.089   5.523  13.756
  172DOPC   C3520996   3.062   5.323  13.836
  172DOPC   H5X20997   3.095   5.219  13.813
  172DOPC   H5Y20998   2.951   5.323  13.838
  172DOPC   C3620999   3.110   5.364  13.976
  172DOPC   H6X21000   3.221   5.359  13.982
  172DOPC   H6Y21001   3.081   5.470  13.992
  172DOPC   C3721002   3.046   5.280  14.090
  172DOPC   H7X21003   3.047   5.340  14.183
  172DOPC   H7Y21004   2.940   5.262  14.064
  172DOPC   C3821005   3.115   5.146  14.118
  172DOPC   H8X21006   3.123   5.088  14.023
  172DOPC   H8Y21007   3.049   5.087  14.185
  172DOPC   C3921008   3.252   5.165  14.179
  172DOPC   H9X21009   3.330   5.194  14.106
  172DOPC  C31021010   3.287   5.154  14.308
  172DOPC  H10X21011   3.392   5.172  14.336
  172DOPC  C31121012   3.199   5.120  14.426
  172DOPC  H11X21013   3.241   5.033  14.481
  172DOPC  H11Y21014   3.096   5.091  14.394
  172DOPC  C31221015   3.187   5.239  14.522
  172DOPC  H12X21016   3.138   5.324  14.468
  172DOPC  H12Y21017   3.288   5.273  14.554
  172DOPC  C31321018   3.103   5.207  14.647
  172DOPC  H13X21019   3.009   5.158  14.615
  172DOPC  H13Y21020   3.158   5.134  14.711
  172DOPC  C31421021   3.066   5.332  14.728
  172DOPC  H14X21022   3.017   5.404  14.659
  172DOPC  H14Y21023   2.992   5.306  14.806
  172DOPC  C31521024   3.184   5.404  14.796
  172DOPC  H15X21025   3.150   5.504  14.831
  172DOPC  H15Y21026   3.264   5.423  14.720
  172DOPC  C31621027   3.246   5.329  14.915
  172DOPC  H16X21028   3.278   5.228  14.881
  172DOPC  H16Y21029   3.337   5.384  14.948
  172DOPC  C31721030   3.154   5.313  15.038
  172DOPC  H17X21031   3.065   5.253  15.010
  172DOPC  H17Y21032   3.210   5.254  15.114
  172DOPC  C31821033   3.109   5.445  15.102
  172DOPC  H18X21034   3.051   5.425  15.194
  172DOPC  H18Y21035   3.197   5.507  15.129
  172DOPC  H18Z21036   3.045   5.502  15.032
  173DOPC     N21037   2.334   3.301  12.895
  173DOPC   C1221038   2.425   3.335  13.012
  173DOPC  H12A21039   2.508   3.393  12.975
  173DOPC  H12B21040   2.469   3.244  13.051
  173DOPC   C1321041   2.398   3.198  12.807
  173DOPC  H13A21042   2.341   3.182  12.716
  173DOPC  H13B21043   2.499   3.225  12.781
  173DOPC  H13C21044   2.405   3.102  12.856
  173DOPC   C1421045   2.311   3.427  12.817
  173DOPC  H14A21046   2.275   3.503  12.885
  173DOPC  H14B21047   2.402   3.464  12.773
  173DOPC  H14C21048   2.238   3.413  12.738
  173DOPC   C1521049   2.203   3.251  12.946
  173DOPC  H15A21050   2.159   3.326  13.010
  173DOPC  H15B21051   2.216   3.161  13.004
  173DOPC  H15C21052   2.134   3.231  12.865
  173DOPC   C1121053   2.363   3.413  13.132
  173DOPC  H11A21054   2.297   3.345  13.190
  173DOPC  H11B21055   2.446   3.443  13.198
  173DOPC     P21056   2.271   3.657  13.172
  173DOPC   O1321057   2.279   3.774  13.081
  173DOPC   O1421058   2.360   3.656  13.289
  173DOPC   O1221059   2.287   3.526  13.086
  173DOPC   O1121060   2.121   3.651  13.220
  173DOPC    C121061   2.071   3.540  13.294
  173DOPC    HA21062   2.143   3.504  13.370
  173DOPC    HB21063   2.049   3.456  13.225
  173DOPC    C221064   1.939   3.577  13.369
  173DOPC    HS21065   1.872   3.628  13.297
  173DOPC   O2121066   1.969   3.661  13.482
  173DOPC   C2121067   1.985   3.789  13.458
  173DOPC   O2221068   1.961   3.848  13.353
  173DOPC   C2221069   2.039   3.857  13.583
  173DOPC   H2R21070   2.002   3.799  13.671
  173DOPC   H2S21071   1.998   3.959  13.589
  173DOPC    C321072   1.864   3.451  13.420
  173DOPC    HX21073   1.840   3.388  13.332
  173DOPC    HY21074   1.766   3.482  13.463
  173DOPC   O3121075   1.944   3.373  13.512
  173DOPC   C3121076   1.922   3.396  13.641
  173DOPC   O3221077   1.836   3.469  13.687
  173DOPC   C3221078   2.021   3.314  13.725
  173DOPC   H2X21079   2.009   3.208  13.697
  173DOPC   H2Y21080   2.124   3.347  13.698
  173DOPC   C2321081   2.194   3.861  13.585
  173DOPC   H3R21082   2.231   3.955  13.539
  173DOPC   H3S21083   2.236   3.776  13.527
  173DOPC   C2421084   2.246   3.847  13.728
  173DOPC   H4R21085   2.210   3.750  13.768
  173DOPC   H4S21086   2.202   3.927  13.791
  173DOPC   C2521087   2.399   3.850  13.740
  173DOPC   H5R21088   2.434   3.956  13.736
  173DOPC   H5S21089   2.443   3.797  13.653
  173DOPC   C2621090   2.448   3.782  13.869
  173DOPC   H6R21091   2.558   3.792  13.877
  173DOPC   H6S21092   2.425   3.674  13.859
  173DOPC   C2721093   2.382   3.836  13.997
  173DOPC   H7R21094   2.272   3.843  13.985
  173DOPC   H7S21095   2.419   3.939  14.015
  173DOPC   C2821096   2.409   3.751  14.123
  173DOPC   H8R21097   2.362   3.801  14.210
  173DOPC   H8S21098   2.518   3.749  14.142
  173DOPC   C2921099   2.355   3.610  14.108
  173DOPC   H9R21100   2.424   3.540  14.060
  173DOPC  C21021101   2.234   3.565  14.145
  173DOPC  H10R21102   2.211   3.459  14.124
  173DOPC  C21121103   2.121   3.642  14.209
  173DOPC  H11R21104   2.033   3.642  14.140
  173DOPC  H11S21105   2.147   3.748  14.226
  173DOPC  C21221106   2.076   3.580  14.343
  173DOPC  H12R21107   1.988   3.637  14.380
  173DOPC  H12S21108   2.157   3.591  14.418
  173DOPC  C21321109   2.037   3.431  14.333
  173DOPC  H13R21110   2.129   3.373  14.310
  173DOPC  H13S21111   1.966   3.417  14.249
  173DOPC  C21421112   1.975   3.374  14.461
  173DOPC  H14R21113   1.872   3.412  14.474
  173DOPC  H14S21114   2.035   3.407  14.548
  173DOPC  C21521115   1.975   3.220  14.457
  173DOPC  H15R21116   2.080   3.185  14.454
  173DOPC  H15S21117   1.927   3.187  14.363
  173DOPC  C21621118   1.903   3.151  14.575
  173DOPC  H16R21119   1.919   3.042  14.566
  173DOPC  H16S21120   1.794   3.169  14.565
  173DOPC  C21721121   1.949   3.197  14.715
  173DOPC  H17R21122   1.892   3.138  14.790
  173DOPC  H17S21123   1.921   3.304  14.729
  173DOPC  C21821124   2.098   3.180  14.741
  173DOPC  H18R21125   2.158   3.245  14.675
  173DOPC  H18S21126   2.129   3.074  14.723
  173DOPC  H18T21127   2.123   3.205  14.847
  173DOPC   C3321128   1.998   3.333  13.877
  173DOPC   H3X21129   1.895   3.303  13.904
  173DOPC   H3Y21130   2.009   3.441  13.902
  173DOPC   C3421131   2.097   3.254  13.965
  173DOPC   H4X21132   2.084   3.287  14.070
  173DOPC   H4Y21133   2.201   3.278  13.934
  173DOPC   C3521134   2.076   3.101  13.961
  173DOPC   H5X21135   2.083   3.067  13.855
  173DOPC   H5Y21136   1.974   3.077  13.997
  173DOPC   C3621137   2.180   3.023  14.043
  173DOPC   H6X21138   2.165   2.915  14.022
  173DOPC   H6Y21139   2.282   3.050  14.008
  173DOPC   C3721140   2.172   3.044  14.195
  173DOPC   H7X21141   2.193   3.151  14.219
  173DOPC   H7Y21142   2.068   3.021  14.229
  173DOPC   C3821143   2.272   2.954  14.270
  173DOPC   H8X21144   2.374   2.976  14.231
  173DOPC   H8Y21145   2.251   2.849  14.244
  173DOPC   C3921146   2.267   2.970  14.420
  173DOPC   H9X21147   2.185   2.915  14.469
  173DOPC  C31021148   2.350   3.044  14.496
  173DOPC  H10X21149   2.334   3.045  14.605
  173DOPC  C31121150   2.465   3.129  14.449
  173DOPC  H11X21151   2.466   3.137  14.338
  173DOPC  H11Y21152   2.562   3.084  14.479
  173DOPC  C31221153   2.459   3.273  14.505
  173DOPC  H12X21154   2.359   3.317  14.485
  173DOPC  H12Y21155   2.533   3.334  14.451
  173DOPC  C31321156   2.490   3.281  14.656
  173DOPC  H13X21157   2.418   3.219  14.713
  173DOPC  H13Y21158   2.592   3.238  14.673
  173DOPC  C31421159   2.486   3.424  14.709
  173DOPC  H14X21160   2.548   3.488  14.643
  173DOPC  H14Y21161   2.382   3.463  14.704
  173DOPC  C31521162   2.540   3.438  14.853
  173DOPC  H15X21163   2.539   3.545  14.882
  173DOPC  H15Y21164   2.646   3.404  14.853
  173DOPC  C31621165   2.464   3.356  14.958
  173DOPC  H16X21166   2.468   3.248  14.931
  173DOPC  H16Y21167   2.518   3.366  15.055
  173DOPC  C31721168   2.318   3.397  14.979
  173DOPC  H17X21169   2.264   3.391  14.882
  173DOPC  H17Y21170   2.270   3.322  15.047
  173DOPC  C31821171   2.299   3.536  15.039
  173DOPC  H18X21172   2.354   3.545  15.135
  173DOPC  H18Y21173   2.337   3.614  14.969
  173DOPC  H18Z21174   2.191   3.556  15.058
  174DOPC     N21175   5.387   2.711  12.962
  174DOPC   C1221176   5.455   2.598  12.886
  174DOPC  H12A21177   5.559   2.625  12.871
  174DOPC  H12B21178   5.414   2.592  12.786
  174DOPC   C1321179   5.333   2.813  12.867
  174DOPC  H13A21180   5.283   2.893  12.919
  174DOPC  H13B21181   5.414   2.859  12.812
  174DOPC  H13C21182   5.266   2.769  12.795
  174DOPC   C1421183   5.489   2.778  13.050
  174DOPC  H14A21184   5.549   2.703  13.101
  174DOPC  H14B21185   5.558   2.836  12.990
  174DOPC  H14C21186   5.445   2.843  13.124
  174DOPC   C1521187   5.279   2.654  13.048
  174DOPC  H15A21188   5.323   2.576  13.109
  174DOPC  H15B21189   5.202   2.608  12.987
  174DOPC  H15C21190   5.235   2.729  13.113
  174DOPC   C1121191   5.453   2.457  12.949
  174DOPC  H11A21192   5.348   2.419  12.953
  174DOPC  H11B21193   5.505   2.385  12.882
  174DOPC     P21194   5.665   2.452  13.098
  174DOPC   O1321195   5.715   2.590  13.078
  174DOPC   O1421196   5.719   2.350  13.006
  174DOPC   O1221197   5.507   2.457  13.082
  174DOPC   O1121198   5.686   2.409  13.249
  174DOPC    C121199   5.576   2.374  13.333
  174DOPC    HA21200   5.615   2.316  13.420
  174DOPC    HB21201   5.503   2.308  13.281
  174DOPC    C221202   5.504   2.499  13.390
  174DOPC    HS21203   5.479   2.564  13.303
  174DOPC   O2121204   5.593   2.567  13.480
  174DOPC   C2121205   5.564   2.693  13.505
  174DOPC   O2221206   5.472   2.756  13.454
  174DOPC   C2221207   5.663   2.747  13.608
  174DOPC   H2R21208   5.730   2.818  13.555
  174DOPC   H2S21209   5.724   2.662  13.646
  174DOPC    C321210   5.370   2.462  13.460
  174DOPC    HX21211   5.309   2.410  13.383
  174DOPC    HY21212   5.317   2.555  13.489
  174DOPC   O3121213   5.391   2.379  13.576
  174DOPC   C3121214   5.282   2.317  13.618
  174DOPC   O3221215   5.172   2.324  13.566
  174DOPC   C3221216   5.311   2.235  13.745
  174DOPC   H2X21217   5.238   2.268  13.822
  174DOPC   H2Y21218   5.290   2.129  13.721
  174DOPC   C2321219   5.594   2.818  13.727
  174DOPC   H3R21220   5.541   2.909  13.692
  174DOPC   H3S21221   5.672   2.850  13.798
  174DOPC   C2421222   5.494   2.727  13.801
  174DOPC   H4R21223   5.537   2.626  13.815
  174DOPC   H4S21224   5.403   2.716  13.738
  174DOPC   C2521225   5.453   2.784  13.938
  174DOPC   H5R21226   5.350   2.750  13.962
  174DOPC   H5S21227   5.451   2.895  13.933
  174DOPC   C2621228   5.545   2.737  14.052
  174DOPC   H6R21229   5.651   2.758  14.026
  174DOPC   H6S21230   5.534   2.627  14.062
  174DOPC   C2721231   5.512   2.805  14.186
  174DOPC   H7R21232   5.402   2.802  14.203
  174DOPC   H7S21233   5.541   2.912  14.178
  174DOPC   C2821234   5.584   2.743  14.307
  174DOPC   H8R21235   5.575   2.814  14.392
  174DOPC   H8S21236   5.692   2.736  14.284
  174DOPC   C2921237   5.529   2.607  14.343
  174DOPC   H9R21238   5.562   2.526  14.276
  174DOPC  C21021239   5.444   2.577  14.443
  174DOPC  H10R21240   5.412   2.473  14.455
  174DOPC  C21121241   5.385   2.672  14.545
  174DOPC  H11R21242   5.274   2.674  14.534
  174DOPC  H11S21243   5.419   2.777  14.529
  174DOPC  C21221244   5.420   2.634  14.691
  174DOPC  H12R21245   5.383   2.714  14.758
  174DOPC  H12S21246   5.531   2.632  14.701
  174DOPC  C21321247   5.362   2.500  14.739
  174DOPC  H13R21248   5.409   2.474  14.836
  174DOPC  H13S21249   5.390   2.419  14.667
  174DOPC  C21421250   5.210   2.502  14.757
  174DOPC  H14R21251   5.160   2.539  14.665
  174DOPC  H14S21252   5.186   2.573  14.839
  174DOPC  C21521253   5.150   2.364  14.792
  174DOPC  H15R21254   5.050   2.380  14.838
  174DOPC  H15S21255   5.215   2.314  14.867
  174DOPC  C21621256   5.132   2.275  14.669
  174DOPC  H16R21257   5.231   2.256  14.621
  174DOPC  H16S21258   5.069   2.329  14.595
  174DOPC  C21721259   5.064   2.140  14.699
  174DOPC  H17R21260   5.039   2.092  14.602
  174DOPC  H17S21261   4.969   2.160  14.752
  174DOPC  C21821262   5.149   2.042  14.781
  174DOPC  H18R21263   5.093   1.948  14.799
  174DOPC  H18S21264   5.175   2.086  14.880
  174DOPC  H18T21265   5.243   2.018  14.728
  174DOPC   C3321266   5.455   2.249  13.800
  174DOPC   H3X21267   5.478   2.356  13.821
  174DOPC   H3Y21268   5.527   2.213  13.724
  174DOPC   C3421269   5.474   2.168  13.929
  174DOPC   H4X21270   5.441   2.063  13.910
  174DOPC   H4Y21271   5.409   2.209  14.010
  174DOPC   C3521272   5.620   2.164  13.978
  174DOPC   H5X21273   5.686   2.137  13.892
  174DOPC   H5Y21274   5.631   2.084  14.054
  174DOPC   C3621275   5.668   2.296  14.040
  174DOPC   H6X21276   5.652   2.380  13.968
  174DOPC   H6Y21277   5.606   2.318  14.130
  174DOPC   C3721278   5.816   2.293  14.079
  174DOPC   H7X21279   5.835   2.204  14.142
  174DOPC   H7Y21280   5.877   2.282  13.987
  174DOPC   C3821281   5.859   2.419  14.156
  174DOPC   H8X21282   5.799   2.425  14.249
  174DOPC   H8Y21283   5.833   2.509  14.095
  174DOPC   C3921284   6.007   2.422  14.187
  174DOPC   H9X21285   6.070   2.468  14.110
  174DOPC  C31021286   6.066   2.372  14.298
  174DOPC  H10X21287   6.175   2.381  14.310
  174DOPC  C31121288   5.994   2.304  14.411
  174DOPC  H11X21289   6.063   2.236  14.465
  174DOPC  H11Y21290   5.912   2.240  14.371
  174DOPC  C31221291   5.931   2.401  14.512
  174DOPC  H12X21292   5.868   2.475  14.458
  174DOPC  H12Y21293   6.010   2.458  14.566
  174DOPC  C31321294   5.841   2.328  14.613
  174DOPC  H13X21295   5.780   2.255  14.556
  174DOPC  H13Y21296   5.903   2.270  14.684
  174DOPC  C31421297   5.744   2.420  14.688
  174DOPC  H14X21298   5.687   2.480  14.614
  174DOPC  H14Y21299   5.671   2.358  14.743
  174DOPC  C31521300   5.810   2.515  14.789
  174DOPC  H15X21301   5.730   2.576  14.836
  174DOPC  H15Y21302   5.879   2.585  14.738
  174DOPC  C31621303   5.886   2.441  14.901
  174DOPC  H16X21304   5.827   2.352  14.932
  174DOPC  H16Y21305   5.983   2.404  14.861
  174DOPC  C31721306   5.910   2.530  15.024
  174DOPC  H17X21307   5.966   2.620  14.991
  174DOPC  H17Y21308   5.812   2.563  15.064
  174DOPC  C31821309   5.988   2.458  15.135
  174DOPC  H18X21310   6.087   2.425  15.098
  174DOPC  H18Y21311   6.003   2.527  15.221
  174DOPC  H18Z21312   5.932   2.369  15.170
  175DOPC     N21313   3.450   6.265  12.977
  175DOPC   C1221314   3.467   6.416  12.966
  175DOPC  H12A21315   3.398   6.453  12.892
  175DOPC  H12B21316   3.567   6.439  12.932
  175DOPC   C1321317   3.485   6.199  12.846
  175DOPC  H13A21318   3.425   6.238  12.766
  175DOPC  H13B21319   3.589   6.213  12.821
  175DOPC  H13C21320   3.466   6.093  12.848
  175DOPC   C1421321   3.307   6.235  13.008
  175DOPC  H14A21322   3.287   6.130  13.017
  175DOPC  H14B21323   3.280   6.286  13.099
  175DOPC  H14C21324   3.242   6.278  12.932
  175DOPC   C1521325   3.535   6.209  13.086
  175DOPC  H15A21326   3.640   6.228  13.069
  175DOPC  H15B21327   3.521   6.102  13.095
  175DOPC  H15C21328   3.508   6.255  13.180
  175DOPC   C1121329   3.438   6.501  13.094
  175DOPC  H11A21330   3.499   6.463  13.179
  175DOPC  H11B21331   3.471   6.605  13.077
  175DOPC     P21332   3.195   6.577  13.043
  175DOPC   O1321333   3.185   6.510  12.911
  175DOPC   O1421334   3.234   6.720  13.042
  175DOPC   O1221335   3.300   6.495  13.129
  175DOPC   O1121336   3.060   6.558  13.121
  175DOPC    C121337   3.015   6.431  13.170
  175DOPC    HA21338   3.082   6.347  13.142
  175DOPC    HB21339   2.915   6.410  13.128
  175DOPC    C221340   3.001   6.431  13.325
  175DOPC    HS21341   2.936   6.517  13.351
  175DOPC   O2121342   3.132   6.445  13.384
  175DOPC   C2121343   3.131   6.486  13.510
  175DOPC   O2221344   3.032   6.523  13.572
  175DOPC   C2221345   3.273   6.475  13.564
  175DOPC   H2R21346   3.340   6.536  13.500
  175DOPC   H2S21347   3.302   6.368  13.554
  175DOPC    C321348   2.933   6.300  13.376
  175DOPC    HX21349   2.836   6.291  13.322
  175DOPC    HY21350   2.907   6.311  13.483
  175DOPC   O3121351   3.014   6.183  13.347
  175DOPC   C3121352   3.089   6.139  13.448
  175DOPC   O3221353   3.087   6.182  13.562
  175DOPC   C3221354   3.181   6.027  13.398
  175DOPC   H2X21355   3.120   5.964  13.330
  175DOPC   H2Y21356   3.262   6.074  13.339
  175DOPC   C2321357   3.288   6.516  13.713
  175DOPC   H3R21358   3.383   6.473  13.751
  175DOPC   H3S21359   3.205   6.472  13.773
  175DOPC   C2421360   3.294   6.668  13.733
  175DOPC   H4R21361   3.194   6.712  13.711
  175DOPC   H4S21362   3.366   6.711  13.661
  175DOPC   C2521363   3.339   6.708  13.875
  175DOPC   H5R21364   3.355   6.817  13.879
  175DOPC   H5S21365   3.437   6.658  13.894
  175DOPC   C2621366   3.241   6.668  13.987
  175DOPC   H6R21367   3.290   6.685  14.085
  175DOPC   H6S21368   3.220   6.559  13.980
  175DOPC   C2721369   3.110   6.747  13.983
  175DOPC   H7R21370   3.112   6.816  13.896
  175DOPC   H7S21371   3.103   6.811  14.074
  175DOPC   C2821372   2.984   6.659  13.970
  175DOPC   H8R21373   2.997   6.595  13.880
  175DOPC   H8S21374   2.897   6.725  13.949
  175DOPC   C2921375   2.958   6.579  14.095
  175DOPC   H9R21376   2.956   6.638  14.187
  175DOPC  C21021377   2.939   6.446  14.103
  175DOPC  H10R21378   2.921   6.401  14.202
  175DOPC  C21121379   2.939   6.346  13.991
  175DOPC  H11R21380   2.927   6.395  13.892
  175DOPC  H11S21381   2.852   6.278  14.001
  175DOPC  C21221382   3.068   6.261  13.986
  175DOPC  H12R21383   3.153   6.328  13.961
  175DOPC  H12S21384   3.059   6.188  13.904
  175DOPC  C21321385   3.102   6.187  14.117
  175DOPC  H13R21386   3.119   6.261  14.198
  175DOPC  H13S21387   3.197   6.132  14.102
  175DOPC  C21421388   2.994   6.087  14.162
  175DOPC  H14R21389   2.981   6.011  14.081
  175DOPC  H14S21390   2.896   6.138  14.175
  175DOPC  C21521391   3.030   6.015  14.293
  175DOPC  H15R21392   3.136   5.982  14.288
  175DOPC  H15S21393   2.967   5.924  14.302
  175DOPC  C21621394   3.009   6.101  14.418
  175DOPC  H16R21395   2.899   6.113  14.434
  175DOPC  H16S21396   3.051   6.203  14.401
  175DOPC  C21721397   3.072   6.043  14.545
  175DOPC  H17R21398   3.041   6.106  14.631
  175DOPC  H17S21399   3.183   6.052  14.536
  175DOPC  C21821400   3.036   5.897  14.575
  175DOPC  H18R21401   3.077   5.830  14.496
  175DOPC  H18S21402   2.926   5.884  14.578
  175DOPC  H18T21403   3.079   5.865  14.672
  175DOPC   C3321404   3.238   5.939  13.512
  175DOPC   H3X21405   3.276   5.844  13.468
  175DOPC   H3Y21406   3.156   5.911  13.582
  175DOPC   C3421407   3.352   6.003  13.592
  175DOPC   H4X21408   3.371   5.941  13.682
  175DOPC   H4Y21409   3.320   6.103  13.628
  175DOPC   C3521410   3.485   6.014  13.515
  175DOPC   H5X21411   3.471   6.080  13.426
  175DOPC   H5Y21412   3.513   5.914  13.477
  175DOPC   C3621413   3.600   6.069  13.600
  175DOPC   H6X21414   3.613   6.006  13.690
  175DOPC   H6Y21415   3.694   6.062  13.541
  175DOPC   C3721416   3.580   6.215  13.643
  175DOPC   H7X21417   3.561   6.276  13.552
  175DOPC   H7Y21418   3.490   6.223  13.708
  175DOPC   C3821419   3.702   6.272  13.718
  175DOPC   H8X21420   3.792   6.258  13.656
  175DOPC   H8Y21421   3.717   6.213  13.811
  175DOPC   C3921422   3.683   6.420  13.746
  175DOPC   H9X21423   3.674   6.481  13.655
  175DOPC  C31021424   3.675   6.481  13.865
  175DOPC  H10X21425   3.658   6.590  13.866
  175DOPC  C31121426   3.684   6.420  14.003
  175DOPC  H11X21427   3.780   6.448  14.050
  175DOPC  H11Y21428   3.680   6.309  14.000
  175DOPC  C31221429   3.569   6.470  14.094
  175DOPC  H12X21430   3.472   6.434  14.053
  175DOPC  H12Y21431   3.567   6.581  14.095
  175DOPC  C31321432   3.585   6.422  14.239
  175DOPC  H13X21433   3.584   6.310  14.242
  175DOPC  H13Y21434   3.684   6.455  14.277
  175DOPC  C31421435   3.476   6.475  14.335
  175DOPC  H14X21436   3.507   6.450  14.439
  175DOPC  H14Y21437   3.472   6.586  14.327
  175DOPC  C31521438   3.337   6.416  14.308
  175DOPC  H15X21439   3.342   6.305  14.314
  175DOPC  H15Y21440   3.305   6.443  14.205
  175DOPC  C31621441   3.228   6.466  14.406
  175DOPC  H16X21442   3.223   6.577  14.401
  175DOPC  H16Y21443   3.130   6.427  14.371
  175DOPC  C31721444   3.249   6.421  14.551
  175DOPC  H17X21445   3.265   6.311  14.553
  175DOPC  H17Y21446   3.342   6.468  14.590
  175DOPC  C31821447   3.132   6.457  14.643
  175DOPC  H18X21448   3.154   6.427  14.748
  175DOPC  H18Y21449   3.113   6.566  14.641
  175DOPC  H18Z21450   3.040   6.405  14.610
  176DOPC     N21451   3.255   2.023  13.034
  176DOPC   C1221452   3.213   1.951  13.161
  176DOPC  H12A21453   3.106   1.938  13.157
  176DOPC  H12B21454   3.234   2.015  13.245
  176DOPC   C1321455   3.403   2.011  13.009
  176DOPC  H13A21456   3.430   1.907  13.007
  176DOPC  H13B21457   3.428   2.055  12.914
  176DOPC  H13C21458   3.460   2.061  13.087
  176DOPC   C1421459   3.217   2.167  13.040
  176DOPC  H14A21460   3.110   2.177  13.056
  176DOPC  H14B21461   3.270   2.220  13.118
  176DOPC  H14C21462   3.240   2.217  12.947
  176DOPC   C1521463   3.184   1.962  12.917
  176DOPC  H15A21464   3.222   2.001  12.823
  176DOPC  H15B21465   3.078   1.979  12.923
  176DOPC  H15C21466   3.197   1.854  12.918
  176DOPC   C1121467   3.277   1.813  13.191
  176DOPC  H11A21468   3.385   1.827  13.210
  176DOPC  H11B21469   3.235   1.774  13.287
  176DOPC     P21470   3.132   1.631  13.067
  176DOPC   O1321471   3.178   1.492  13.042
  176DOPC   O1421472   3.048   1.696  12.964
  176DOPC   O1221473   3.261   1.720  13.085
  176DOPC   O1121474   3.056   1.640  13.206
  176DOPC    C121475   2.926   1.578  13.212
  176DOPC    HA21476   2.934   1.468  13.197
  176DOPC    HB21477   2.860   1.617  13.131
  176DOPC    C221478   2.847   1.600  13.346
  176DOPC    HS21479   2.742   1.625  13.321
  176DOPC   O2121480   2.905   1.703  13.428
  176DOPC   C2121481   2.899   1.824  13.378
  176DOPC   O2221482   2.848   1.857  13.272
  176DOPC   C2221483   2.968   1.924  13.473
  176DOPC   H2R21484   2.962   2.023  13.422
  176DOPC   H2S21485   3.075   1.895  13.483
  176DOPC    C321486   2.842   1.468  13.429
  176DOPC    HX21487   2.796   1.389  13.366
  176DOPC    HY21488   2.776   1.483  13.516
  176DOPC   O3121489   2.976   1.427  13.464
  176DOPC   C3121490   3.016   1.463  13.585
  176DOPC   O3221491   2.944   1.494  13.678
  176DOPC   C3221492   3.168   1.467  13.588
  176DOPC   H2X21493   3.199   1.436  13.691
  176DOPC   H2Y21494   3.207   1.394  13.514
  176DOPC   C2321495   2.900   1.934  13.612
  176DOPC   H3R21496   2.792   1.911  13.605
  176DOPC   H3S21497   2.908   2.039  13.649
  176DOPC   C2421498   2.965   1.844  13.718
  176DOPC   H4R21499   3.063   1.885  13.749
  176DOPC   H4S21500   2.983   1.744  13.673
  176DOPC   C2521501   2.876   1.822  13.841
  176DOPC   H5R21502   2.785   1.768  13.807
  176DOPC   H5S21503   2.844   1.920  13.884
  176DOPC   C2621504   2.944   1.739  13.951
  176DOPC   H6R21505   3.010   1.804  14.012
  176DOPC   H6S21506   3.006   1.661  13.903
  176DOPC   C2721507   2.842   1.667  14.041
  176DOPC   H7R21508   2.785   1.596  13.977
  176DOPC   H7S21509   2.769   1.740  14.082
  176DOPC   C2821510   2.906   1.586  14.156
  176DOPC   H8R21511   2.995   1.533  14.117
  176DOPC   H8S21512   2.834   1.507  14.186
  176DOPC   C2921513   2.943   1.672  14.275
  176DOPC   H9R21514   3.037   1.727  14.264
  176DOPC  C21021515   2.870   1.688  14.388
  176DOPC  H10R21516   2.910   1.753  14.467
  176DOPC  C21121517   2.737   1.624  14.420
  176DOPC  H11R21518   2.696   1.567  14.334
  176DOPC  H11S21519   2.663   1.704  14.442
  176DOPC  C21221520   2.741   1.531  14.542
  176DOPC  H12R21521   2.638   1.497  14.564
  176DOPC  H12S21522   2.777   1.586  14.631
  176DOPC  C21321523   2.828   1.405  14.521
  176DOPC  H13R21524   2.934   1.435  14.510
  176DOPC  H13S21525   2.798   1.358  14.425
  176DOPC  C21421526   2.814   1.301  14.634
  176DOPC  H14R21527   2.875   1.212  14.609
  176DOPC  H14S21528   2.708   1.268  14.638
  176DOPC  C21521529   2.855   1.352  14.774
  176DOPC  H15R21530   2.833   1.271  14.847
  176DOPC  H15S21531   2.792   1.439  14.802
  176DOPC  C21621532   3.003   1.389  14.783
  176DOPC  H16R21533   3.027   1.465  14.706
  176DOPC  H16S21534   3.063   1.299  14.760
  176DOPC  C21721535   3.046   1.446  14.920
  176DOPC  H17R21536   2.996   1.544  14.934
  176DOPC  H17S21537   3.156   1.466  14.916
  176DOPC  C21821538   3.017   1.356  15.041
  176DOPC  H18R21539   2.908   1.337  15.050
  176DOPC  H18S21540   3.052   1.405  15.135
  176DOPC  H18T21541   3.069   1.259  15.031
  176DOPC   C3321542   3.223   1.608  13.559
  176DOPC   H3X21543   3.188   1.677  13.639
  176DOPC   H3Y21544   3.183   1.644  13.462
  176DOPC   C3421545   3.377   1.612  13.553
  176DOPC   H4X21546   3.411   1.547  13.469
  176DOPC   H4Y21547   3.418   1.569  13.647
  176DOPC   C3521548   3.435   1.753  13.535
  176DOPC   H5X21549   3.387   1.801  13.446
  176DOPC   H5Y21550   3.544   1.745  13.514
  176DOPC   C3621551   3.416   1.843  13.657
  176DOPC   H6X21552   3.308   1.848  13.685
  176DOPC   H6Y21553   3.470   1.798  13.743
  176DOPC   C3721554   3.465   1.986  13.634
  176DOPC   H7X21555   3.572   1.985  13.604
  176DOPC   H7Y21556   3.408   2.029  13.549
  176DOPC   C3821557   3.444   2.077  13.756
  176DOPC   H8X21558   3.337   2.072  13.787
  176DOPC   H8Y21559   3.463   2.182  13.725
  176DOPC   C3921560   3.537   2.041  13.870
  176DOPC   H9X21561   3.642   2.067  13.853
  176DOPC  C31021562   3.503   1.982  13.986
  176DOPC  H10X21563   3.583   1.965  14.060
  176DOPC  C31121564   3.366   1.936  14.029
  176DOPC  H11X21565   3.305   1.905  13.941
  176DOPC  H11Y21566   3.311   2.020  14.077
  176DOPC  C31221567   3.369   1.818  14.128
  176DOPC  H12X21568   3.421   1.732  14.080
  176DOPC  H12Y21569   3.265   1.786  14.148
  176DOPC  C31321570   3.438   1.850  14.262
  176DOPC  H13X21571   3.543   1.880  14.243
  176DOPC  H13Y21572   3.388   1.936  14.311
  176DOPC  C31421573   3.443   1.729  14.358
  176DOPC  H14X21574   3.452   1.636  14.299
  176DOPC  H14Y21575   3.534   1.738  14.420
  176DOPC  C31521576   3.323   1.718  14.455
  176DOPC  H15X21577   3.335   1.623  14.511
  176DOPC  H15Y21578   3.228   1.711  14.397
  176DOPC  C31621579   3.315   1.834  14.556
  176DOPC  H16X21580   3.418   1.859  14.590
  176DOPC  H16Y21581   3.274   1.923  14.504
  176DOPC  C31721582   3.229   1.803  14.679
  176DOPC  H17X21583   3.211   1.899  14.733
  176DOPC  H17Y21584   3.130   1.765  14.646
  176DOPC  C31821585   3.292   1.704  14.777
  176DOPC  H18X21586   3.304   1.604  14.730
  176DOPC  H18Y21587   3.393   1.740  14.809
  176DOPC  H18Z21588   3.229   1.693  14.868
  177DOPC     N21589   5.373   6.564  12.900
  177DOPC   C1221590   5.410   6.554  13.047
  177DOPC  H12A21591   5.517   6.541  13.057
  177DOPC  H12B21592   5.364   6.466  13.090
  177DOPC   C1321593   5.225   6.585  12.887
  177DOPC  H13A21594   5.197   6.673  12.943
  177DOPC  H13B21595   5.193   6.594  12.784
  177DOPC  H13C21596   5.170   6.504  12.933
  177DOPC   C1421597   5.410   6.437  12.828
  177DOPC  H14A21598   5.516   6.419  12.832
  177DOPC  H14B21599   5.359   6.352  12.870
  177DOPC  H14C21600   5.381   6.444  12.724
  177DOPC   C1521601   5.445   6.679  12.836
  177DOPC  H15A21602   5.552   6.667  12.838
  177DOPC  H15B21603   5.421   6.771  12.887
  177DOPC  H15C21604   5.417   6.689  12.732
  177DOPC   C1121605   5.366   6.671  13.141
  177DOPC  H11A21606   5.413   6.656  13.240
  177DOPC  H11B21607   5.405   6.767  13.101
  177DOPC     P21608   5.143   6.572  13.237
  177DOPC   O1321609   5.031   6.522  13.153
  177DOPC   O1421610   5.104   6.631  13.366
  177DOPC   O1221611   5.224   6.679  13.153
  177DOPC   O1121612   5.248   6.455  13.257
  177DOPC    C121613   5.214   6.335  13.326
  177DOPC    HA21614   5.235   6.248  13.260
  177DOPC    HB21615   5.106   6.328  13.352
  177DOPC    C221616   5.298   6.317  13.457
  177DOPC    HS21617   5.260   6.227  13.510
  177DOPC   O2121618   5.289   6.433  13.540
  177DOPC   C2121619   5.173   6.453  13.599
  177DOPC   O2221620   5.076   6.379  13.595
  177DOPC   C2221621   5.183   6.582  13.681
  177DOPC   H2R21622   5.083   6.604  13.723
  177DOPC   H2S21623   5.211   6.663  13.610
  177DOPC    C321624   5.448   6.291  13.427
  177DOPC    HX21625   5.490   6.382  13.378
  177DOPC    HY21626   5.455   6.208  13.355
  177DOPC   O3121627   5.516   6.253  13.549
  177DOPC   C3121628   5.588   6.347  13.609
  177DOPC   O3221629   5.618   6.456  13.563
  177DOPC   C3221630   5.627   6.297  13.749
  177DOPC   H2X21631   5.533   6.292  13.808
  177DOPC   H2Y21632   5.666   6.193  13.738
  177DOPC   C2321633   5.289   6.569  13.793
  177DOPC   H3R21634   5.385   6.532  13.751
  177DOPC   H3S21635   5.253   6.495  13.868
  177DOPC   C2421636   5.317   6.702  13.863
  177DOPC   H4R21637   5.221   6.749  13.893
  177DOPC   H4S21638   5.368   6.771  13.791
  177DOPC   C2521639   5.406   6.684  13.987
  177DOPC   H5R21640   5.500   6.632  13.959
  177DOPC   H5S21641   5.351   6.617  14.057
  177DOPC   C2621642   5.439   6.816  14.057
  177DOPC   H6R21643   5.346   6.876  14.067
  177DOPC   H6S21644   5.507   6.875  13.991
  177DOPC   C2721645   5.505   6.799  14.195
  177DOPC   H7R21646   5.526   6.900  14.237
  177DOPC   H7S21647   5.603   6.748  14.181
  177DOPC   C2821648   5.423   6.718  14.298
  177DOPC   H8R21649   5.483   6.714  14.391
  177DOPC   H8S21650   5.414   6.613  14.262
  177DOPC   C2921651   5.285   6.775  14.324
  177DOPC   H9R21652   5.232   6.807  14.233
  177DOPC  C21021653   5.223   6.788  14.442
  177DOPC  H10R21654   5.122   6.831  14.444
  177DOPC  C21121655   5.276   6.746  14.577
  177DOPC  H11R21656   5.298   6.836  14.638
  177DOPC  H11S21657   5.371   6.689  14.569
  177DOPC  C21221658   5.176   6.658  14.654
  177DOPC  H12R21659   5.086   6.718  14.682
  177DOPC  H12S21660   5.224   6.624  14.749
  177DOPC  C21321661   5.129   6.534  14.576
  177DOPC  H13R21662   5.218   6.479  14.538
  177DOPC  H13S21663   5.070   6.567  14.487
  177DOPC  C21421664   5.043   6.439  14.659
  177DOPC  H14R21665   4.967   6.499  14.715
  177DOPC  H14S21666   5.107   6.389  14.735
  177DOPC  C21521667   4.969   6.334  14.575
  177DOPC  H15R21668   4.896   6.386  14.510
  177DOPC  H15S21669   4.910   6.268  14.643
  177DOPC  C21621670   5.058   6.246  14.486
  177DOPC  H16R21671   5.103   6.309  14.406
  177DOPC  H16S21672   4.994   6.170  14.436
  177DOPC  C21721673   5.171   6.172  14.560
  177DOPC  H17R21674   5.246   6.246  14.595
  177DOPC  H17S21675   5.224   6.106  14.486
  177DOPC  C21821676   5.125   6.087  14.678
  177DOPC  H18R21677   5.093   6.152  14.762
  177DOPC  H18S21678   5.209   6.023  14.715
  177DOPC  H18T21679   5.041   6.021  14.649
  177DOPC   C3321680   5.730   6.385  13.822
  177DOPC   H3X21681   5.696   6.491  13.825
  177DOPC   H3Y21682   5.826   6.383  13.766
  177DOPC   C3421683   5.755   6.337  13.966
  177DOPC   H4X21684   5.771   6.227  13.963
  177DOPC   H4Y21685   5.663   6.355  14.026
  177DOPC   C3521686   5.876   6.403  14.033
  177DOPC   H5X21687   5.864   6.513  14.034
  177DOPC   H5Y21688   5.966   6.379  13.972
  177DOPC   C3621689   5.900   6.352  14.176
  177DOPC   H6X21690   5.876   6.243  14.180
  177DOPC   H6Y21691   6.007   6.364  14.202
  177DOPC   C3721692   5.817   6.427  14.282
  177DOPC   H7X21693   5.858   6.529  14.295
  177DOPC   H7Y21694   5.713   6.438  14.244
  177DOPC   C3821695   5.809   6.355  14.419
  177DOPC   H8X21696   5.754   6.260  14.405
  177DOPC   H8Y21697   5.747   6.418  14.486
  177DOPC   C3921698   5.944   6.325  14.481
  177DOPC   H9X21699   5.999   6.243  14.433
  177DOPC  C31021700   6.000   6.388  14.586
  177DOPC  H10X21701   6.098   6.354  14.622
  177DOPC  C31121702   5.940   6.503  14.664
  177DOPC  H11X21703   5.893   6.575  14.594
  177DOPC  H11Y21704   6.021   6.559  14.716
  177DOPC  C31221705   5.834   6.462  14.768
  177DOPC  H12X21706   5.753   6.405  14.718
  177DOPC  H12Y21707   5.789   6.555  14.809
  177DOPC  C31321708   5.889   6.380  14.886
  177DOPC  H13X21709   5.940   6.290  14.845
  177DOPC  H13Y21710   5.964   6.440  14.942
  177DOPC  C31421711   5.777   6.335  14.981
  177DOPC  H14X21712   5.721   6.425  15.015
  177DOPC  H14Y21713   5.706   6.272  14.923
  177DOPC  C31521714   5.824   6.257  15.105
  177DOPC  H15X21715   5.735   6.221  15.161
  177DOPC  H15Y21716   5.879   6.327  15.172
  177DOPC  C31621717   5.916   6.137  15.076
  177DOPC  H16X21718   6.004   6.171  15.018
  177DOPC  H16Y21719   5.954   6.096  15.172
  177DOPC  C31721720   5.848   6.023  14.999
  177DOPC  H17X21721   5.782   6.064  14.920
  177DOPC  H17Y21722   5.929   5.967  14.948
  177DOPC  C31821723   5.770   5.927  15.089
  177DOPC  H18X21724   5.718   5.850  15.029
  177DOPC  H18Y21725   5.838   5.876  15.160
  177DOPC  H18Z21726   5.694   5.982  15.148
  178DOPC     N21727   2.386   6.305  12.839
  178DOPC   C1221728   2.272   6.310  12.941
  178DOPC  H12A21729   2.285   6.229  13.012
  178DOPC  H12B21730   2.178   6.293  12.890
  178DOPC   C1321731   2.517   6.291  12.910
  178DOPC  H13A21732   2.530   6.373  12.980
  178DOPC  H13B21733   2.520   6.202  12.971
  178DOPC  H13C21734   2.601   6.291  12.841
  178DOPC   C1421735   2.390   6.431  12.760
  178DOPC  H14A21736   2.470   6.430  12.687
  178DOPC  H14B21737   2.296   6.448  12.709
  178DOPC  H14C21738   2.406   6.515  12.826
  178DOPC   C1521739   2.367   6.188  12.747
  178DOPC  H15A21740   2.448   6.180  12.676
  178DOPC  H15B21741   2.275   6.195  12.691
  178DOPC  H15C21742   2.364   6.095  12.803
  178DOPC   C1121743   2.255   6.437  13.028
  178DOPC  H11A21744   2.229   6.523  12.962
  178DOPC  H11B21745   2.167   6.424  13.095
  178DOPC     P21746   2.410   6.369  13.225
  178DOPC   O1321747   2.557   6.350  13.220
  178DOPC   O1421748   2.328   6.246  13.213
  178DOPC   O1221749   2.373   6.467  13.104
  178DOPC   O1121750   2.368   6.453  13.352
  178DOPC    C121751   2.464   6.484  13.455
  178DOPC    HA21752   2.426   6.569  13.515
  178DOPC    HB21753   2.561   6.515  13.412
  178DOPC    C221754   2.486   6.365  13.553
  178DOPC    HS21755   2.509   6.276  13.490
  178DOPC   O2121756   2.365   6.345  13.629
  178DOPC   C2121757   2.351   6.224  13.680
  178DOPC   O2221758   2.429   6.131  13.668
  178DOPC   C2221759   2.214   6.216  13.750
  178DOPC   H2R21760   2.146   6.166  13.679
  178DOPC   H2S21761   2.176   6.319  13.767
  178DOPC    C321762   2.609   6.388  13.646
  178DOPC    HX21763   2.697   6.406  13.581
  178DOPC    HY21764   2.630   6.293  13.700
  178DOPC   O3121765   2.592   6.502  13.733
  178DOPC   C3121766   2.580   6.477  13.863
  178DOPC   O3221767   2.589   6.368  13.916
  178DOPC   C3221768   2.555   6.608  13.939
  178DOPC   H2X21769   2.641   6.622  14.009
  178DOPC   H2Y21770   2.553   6.692  13.867
  178DOPC   C2321771   2.218   6.138  13.883
  178DOPC   H3R21772   2.272   6.041  13.870
  178DOPC   H3S21773   2.113   6.114  13.911
  178DOPC   C2421774   2.281   6.217  13.999
  178DOPC   H4R21775   2.229   6.315  14.007
  178DOPC   H4S21776   2.388   6.237  13.976
  178DOPC   C2521777   2.270   6.143  14.133
  178DOPC   H5R21778   2.330   6.050  14.128
  178DOPC   H5S21779   2.164   6.114  14.148
  178DOPC   C2621780   2.315   6.227  14.254
  178DOPC   H6R21781   2.283   6.174  14.347
  178DOPC   H6S21782   2.262   6.325  14.252
  178DOPC   C2721783   2.467   6.251  14.263
  178DOPC   H7R21784   2.502   6.304  14.172
  178DOPC   H7S21785   2.518   6.152  14.265
  178DOPC   C2821786   2.504   6.332  14.388
  178DOPC   H8R21787   2.457   6.283  14.476
  178DOPC   H8S21788   2.456   6.432  14.379
  178DOPC   C2921789   2.653   6.344  14.412
  178DOPC   H9R21790   2.703   6.248  14.434
  178DOPC  C21021791   2.728   6.456  14.407
  178DOPC  H10R21792   2.836   6.448  14.427
  178DOPC  C21121793   2.681   6.596  14.375
  178DOPC  H11R21794   2.577   6.595  14.336
  178DOPC  H11S21795   2.743   6.638  14.293
  178DOPC  C21221796   2.687   6.694  14.494
  178DOPC  H12R21797   2.648   6.792  14.459
  178DOPC  H12S21798   2.793   6.710  14.525
  178DOPC  C21321799   2.604   6.650  14.616
  178DOPC  H13R21800   2.660   6.574  14.674
  178DOPC  H13S21801   2.511   6.601  14.579
  178DOPC  C21421802   2.562   6.767  14.708
  178DOPC  H14R21803   2.499   6.726  14.790
  178DOPC  H14S21804   2.500   6.838  14.650
  178DOPC  C21521805   2.681   6.843  14.770
  178DOPC  H15R21806   2.747   6.878  14.689
  178DOPC  H15S21807   2.740   6.773  14.833
  178DOPC  C21621808   2.638   6.966  14.853
  178DOPC  H16R21809   2.582   7.035  14.787
  178DOPC  H16S21810   2.730   7.019  14.887
  178DOPC  C21721811   2.552   6.935  14.977
  178DOPC  H17R21812   2.458   6.887  14.944
  178DOPC  H17S21813   2.525   7.031  15.025
  178DOPC  C21821814   2.621   6.846  15.082
  178DOPC  H18R21815   2.716   6.892  15.115
  178DOPC  H18S21816   2.643   6.746  15.040
  178DOPC  H18T21817   2.555   6.833  15.170
  178DOPC   C3321818   2.423   6.603  14.019
  178DOPC   H3X21819   2.426   6.520  14.093
  178DOPC   H3Y21820   2.339   6.582  13.949
  178DOPC   C3421821   2.393   6.735  14.092
  178DOPC   H4X21822   2.408   6.818  14.021
  178DOPC   H4Y21823   2.465   6.749  14.176
  178DOPC   C3521824   2.249   6.744  14.145
  178DOPC   H5X21825   2.180   6.725  14.059
  178DOPC   H5Y21826   2.229   6.847  14.181
  178DOPC   C3621827   2.214   6.645  14.257
  178DOPC   H6X21828   2.103   6.644  14.267
  178DOPC   H6Y21829   2.245   6.542  14.229
  178DOPC   C3721830   2.275   6.682  14.393
  178DOPC   H7X21831   2.386   6.680  14.384
  178DOPC   H7Y21832   2.247   6.787  14.419
  178DOPC   C3821833   2.234   6.588  14.508
  178DOPC   H8X21834   2.286   6.621  14.600
  178DOPC   H8Y21835   2.271   6.486  14.485
  178DOPC   C3921836   2.085   6.589  14.533
  178DOPC   H9X21837   2.039   6.688  14.523
  178DOPC  C31021838   2.007   6.484  14.566
  178DOPC  H10X21839   1.899   6.502  14.582
  178DOPC  C31121840   2.050   6.341  14.585
  178DOPC  H11X21841   2.148   6.320  14.537
  178DOPC  H11Y21842   1.976   6.273  14.538
  178DOPC  C31221843   2.061   6.305  14.735
  178DOPC  H12X21844   2.076   6.196  14.743
  178DOPC  H12Y21845   1.966   6.330  14.787
  178DOPC  C31321846   2.179   6.375  14.806
  178DOPC  H13X21847   2.274   6.343  14.758
  178DOPC  H13Y21848   2.170   6.485  14.792
  178DOPC  C31421849   2.185   6.346  14.956
  178DOPC  H14X21850   2.092   6.384  15.004
  178DOPC  H14Y21851   2.185   6.235  14.971
  178DOPC  C31521852   2.309   6.405  15.026
  178DOPC  H15X21853   2.400   6.360  14.981
  178DOPC  H15Y21854   2.306   6.375  15.133
  178DOPC  C31621855   2.321   6.558  15.019
  178DOPC  H16X21856   2.408   6.589  15.080
  178DOPC  H16Y21857   2.342   6.589  14.914
  178DOPC  C31721858   2.196   6.633  15.068
  178DOPC  H17X21859   2.114   6.618  14.995
  178DOPC  H17Y21860   2.163   6.587  15.164
  178DOPC  C31821861   2.218   6.783  15.089
  178DOPC  H18X21862   2.125   6.831  15.127
  178DOPC  H18Y21863   2.299   6.800  15.163
  178DOPC  H18Z21864   2.246   6.832  14.994
  179DOPC     N21865   6.480   5.723  12.896
  179DOPC   C1221866   6.484   5.632  13.018
  179DOPC  H12A21867   6.541   5.544  12.993
  179DOPC  H12B21868   6.384   5.599  13.041
  179DOPC   C1321869   6.620   5.756  12.853
  179DOPC  H13A21870   6.623   5.829  12.774
  179DOPC  H13B21871   6.673   5.796  12.938
  179DOPC  H13C21872   6.676   5.668  12.823
  179DOPC   C1421873   6.414   5.852  12.931
  179DOPC  H14A21874   6.461   5.894  13.019
  179DOPC  H14B21875   6.425   5.925  12.853
  179DOPC  H14C21876   6.309   5.839  12.955
  179DOPC   C1521877   6.409   5.658  12.781
  179DOPC  H15A21878   6.307   5.634  12.807
  179DOPC  H15B21879   6.459   5.566  12.751
  179DOPC  H15C21880   6.409   5.724  12.695
  179DOPC   C1121881   6.546   5.689  13.148
  179DOPC  H11A21882   6.487   5.777  13.181
  179DOPC  H11B21883   6.538   5.612  13.227
  179DOPC     P21884   6.763   5.793  13.245
  179DOPC   O1321885   6.887   5.849  13.185
  179DOPC   O1421886   6.778   5.697  13.356
  179DOPC   O1221887   6.683   5.723  13.128
  179DOPC   O1121888   6.665   5.911  13.287
  179DOPC    C121889   6.659   6.029  13.206
  179DOPC    HA21890   6.639   6.004  13.100
  179DOPC    HB21891   6.756   6.082  13.211
  179DOPC    C221892   6.550   6.132  13.253
  179DOPC    HS21893   6.587   6.234  13.228
  179DOPC   O2121894   6.525   6.120  13.394
  179DOPC   C2121895   6.625   6.161  13.470
  179DOPC   O2221896   6.718   6.231  13.433
  179DOPC   C2221897   6.601   6.113  13.613
  179DOPC   H2R21898   6.493   6.091  13.625
  179DOPC   H2S21899   6.628   6.196  13.682
  179DOPC    C321900   6.414   6.117  13.177
  179DOPC    HX21901   6.436   6.130  13.069
  179DOPC    HY21902   6.349   6.202  13.206
  179DOPC   O3121903   6.352   5.988  13.196
  179DOPC   C3121904   6.261   5.982  13.294
  179DOPC   O3221905   6.217   6.077  13.357
  179DOPC   C3221906   6.215   5.837  13.311
  179DOPC   H2X21907   6.107   5.833  13.285
  179DOPC   H2Y21908   6.270   5.772  13.239
  179DOPC   C2321909   6.685   5.988  13.646
  179DOPC   H3R21910   6.682   5.916  13.562
  179DOPC   H3S21911   6.640   5.936  13.734
  179DOPC   C2421912   6.830   6.024  13.680
  179DOPC   H4R21913   6.834   6.075  13.779
  179DOPC   H4S21914   6.867   6.095  13.603
  179DOPC   C2521915   6.924   5.902  13.681
  179DOPC   H5R21916   7.028   5.936  13.699
  179DOPC   H5S21917   6.920   5.854  13.581
  179DOPC   C2621918   6.889   5.798  13.787
  179DOPC   H6R21919   6.783   5.768  13.773
  179DOPC   H6S21920   6.898   5.842  13.889
  179DOPC   C2721921   6.979   5.673  13.776
  179DOPC   H7R21922   7.085   5.704  13.789
  179DOPC   H7S21923   6.969   5.632  13.673
  179DOPC   C2821924   6.946   5.563  13.879
  179DOPC   H8R21925   6.969   5.604  13.979
  179DOPC   H8S21926   7.013   5.477  13.861
  179DOPC   C2921927   6.802   5.521  13.865
  179DOPC   H9R21928   6.767   5.511  13.762
  179DOPC  C21021929   6.715   5.498  13.966
  179DOPC  H10R21930   6.612   5.472  13.940
  179DOPC  C21121931   6.744   5.509  14.114
  179DOPC  H11R21932   6.853   5.523  14.133
  179DOPC  H11S21933   6.717   5.413  14.164
  179DOPC  C21221934   6.669   5.624  14.183
  179DOPC  H12R21935   6.681   5.719  14.127
  179DOPC  H12S21936   6.719   5.638  14.282
  179DOPC  C21321937   6.520   5.593  14.206
  179DOPC  H13R21938   6.510   5.487  14.236
  179DOPC  H13S21939   6.465   5.606  14.110
  179DOPC  C21421940   6.451   5.677  14.316
  179DOPC  H14R21941   6.349   5.637  14.331
  179DOPC  H14S21942   6.442   5.782  14.281
  179DOPC  C21521943   6.524   5.677  14.452
  179DOPC  H15R21944   6.460   5.726  14.529
  179DOPC  H15S21945   6.616   5.739  14.442
  179DOPC  C21621946   6.566   5.538  14.503
  179DOPC  H16R21947   6.614   5.480  14.421
  179DOPC  H16S21948   6.476   5.480  14.535
  179DOPC  C21721949   6.669   5.545  14.616
  179DOPC  H17R21950   6.621   5.590  14.707
  179DOPC  H17S21951   6.750   5.614  14.584
  179DOPC  C21821952   6.732   5.410  14.651
  179DOPC  H18R21953   6.807   5.422  14.732
  179DOPC  H18S21954   6.781   5.367  14.562
  179DOPC  H18T21955   6.654   5.338  14.686
  179DOPC   C3321956   6.236   5.785  13.455
  179DOPC   H3X21957   6.203   5.679  13.459
  179DOPC   H3Y21958   6.173   5.842  13.527
  179DOPC   C3421959   6.383   5.794  13.499
  179DOPC   H4X21960   6.405   5.898  13.530
  179DOPC   H4Y21961   6.449   5.772  13.413
  179DOPC   C3521962   6.421   5.697  13.613
  179DOPC   H5X21963   6.526   5.718  13.642
  179DOPC   H5Y21964   6.418   5.594  13.573
  179DOPC   C3621965   6.332   5.704  13.738
  179DOPC   H6X21966   6.228   5.673  13.714
  179DOPC   H6Y21967   6.372   5.631  13.811
  179DOPC   C3721968   6.330   5.842  13.804
  179DOPC   H7X21969   6.433   5.883  13.803
  179DOPC   H7Y21970   6.265   5.911  13.745
  179DOPC   C3821971   6.281   5.836  13.951
  179DOPC   H8X21972   6.347   5.767  14.006
  179DOPC   H8Y21973   6.179   5.790  13.952
  179DOPC   C3921974   6.278   5.971  14.018
  179DOPC   H9X21975   6.178   6.017  14.029
  179DOPC  C31021976   6.386   6.038  14.062
  179DOPC  H10X21977   6.374   6.137  14.109
  179DOPC  C31121978   6.528   5.989  14.051
  179DOPC  H11X21979   6.563   6.002  13.947
  179DOPC  H11Y21980   6.535   5.880  14.074
  179DOPC  C31221981   6.628   6.065  14.141
  179DOPC  H12X21982   6.617   6.174  14.125
  179DOPC  H12Y21983   6.731   6.037  14.109
  179DOPC  C31321984   6.616   6.035  14.291
  179DOPC  H13X21985   6.513   6.057  14.326
  179DOPC  H13Y21986   6.636   5.927  14.308
  179DOPC  C31421987   6.716   6.119  14.373
  179DOPC  H14X21988   6.818   6.101  14.334
  179DOPC  H14Y21989   6.693   6.227  14.356
  179DOPC  C31521990   6.714   6.090  14.523
  179DOPC  H15X21991   6.740   5.983  14.540
  179DOPC  H15Y21992   6.611   6.106  14.562
  179DOPC  C31621993   6.812   6.179  14.600
  179DOPC  H16X21994   6.913   6.168  14.554
  179DOPC  H16Y21995   6.782   6.285  14.587
  179DOPC  C31721996   6.823   6.148  14.750
  179DOPC  H17X21997   6.858   6.043  14.762
  179DOPC  H17Y21998   6.901   6.213  14.794
  179DOPC  C31821999   6.693   6.167  14.829
  179DOPC  H18X22000   6.657   6.271  14.820
  179DOPC  H18Y22001   6.614   6.099  14.792
  179DOPC  H18Z22002   6.710   6.145  14.937
  180DOPC     N22003   7.074   3.519  12.845
  180DOPC   C1222004   6.953   3.573  12.921
  180DOPC  H12A22005   6.898   3.490  12.964
  180DOPC  H12B22006   6.885   3.622  12.854
  180DOPC   C1322007   7.158   3.438  12.939
  180DOPC  H13A22008   7.181   3.497  13.026
  180DOPC  H13B22009   7.103   3.353  12.977
  180DOPC  H13C22010   7.250   3.403  12.893
  180DOPC   C1422011   7.157   3.633  12.794
  180DOPC  H14A22012   7.244   3.598  12.740
  180DOPC  H14B22013   7.099   3.696  12.728
  180DOPC  H14C22014   7.190   3.693  12.877
  180DOPC   C1522015   7.031   3.432  12.731
  180DOPC  H15A22016   6.979   3.344  12.767
  180DOPC  H15B22017   7.116   3.398  12.674
  180DOPC  H15C22018   6.964   3.485  12.664
  180DOPC   C1122019   6.979   3.668  13.041
  180DOPC  H11A22020   7.038   3.757  13.007
  180DOPC  H11B22021   6.882   3.708  13.078
  180DOPC     P22022   6.975   3.496  13.235
  180DOPC   O1322023   7.077   3.413  13.302
  180DOPC   O1422024   6.874   3.425  13.152
  180DOPC   O1222025   7.051   3.601  13.145
  180DOPC   O1122026   6.903   3.591  13.339
  180DOPC    C122027   6.974   3.653  13.447
  180DOPC    HA22028   6.969   3.763  13.435
  180DOPC    HB22029   7.082   3.626  13.451
  180DOPC    C222030   6.906   3.617  13.583
  180DOPC    HS22031   6.953   3.675  13.665
  180DOPC   O2122032   6.920   3.475  13.607
  180DOPC   C2122033   7.044   3.436  13.637
  180DOPC   O2222034   7.132   3.510  13.677
  180DOPC   C2222035   7.057   3.286  13.608
  180DOPC   H2R22036   7.068   3.279  13.498
  180DOPC   H2S22037   6.962   3.235  13.636
  180DOPC    C322038   6.756   3.657  13.575
  180DOPC    HX22039   6.711   3.592  13.496
  180DOPC    HY22040   6.752   3.762  13.539
  180DOPC   O3122041   6.684   3.644  13.701
  180DOPC   C3122042   6.552   3.664  13.684
  180DOPC   O3222043   6.501   3.697  13.578
  180DOPC   C3222044   6.475   3.636  13.813
  180DOPC   H2X22045   6.547   3.629  13.897
  180DOPC   H2Y22046   6.408   3.723  13.829
  180DOPC   C2322047   7.179   3.215  13.672
  180DOPC   H3R22048   7.269   3.280  13.669
  180DOPC   H3S22049   7.201   3.127  13.607
  180DOPC   C2422050   7.154   3.161  13.813
  180DOPC   H4R22051   7.232   3.084  13.834
  180DOPC   H4S22052   7.055   3.111  13.819
  180DOPC   C2522053   7.165   3.269  13.922
  180DOPC   H5R22054   7.081   3.341  13.913
  180DOPC   H5S22055   7.259   3.325  13.904
  180DOPC   C2622056   7.171   3.210  14.064
  180DOPC   H6R22057   7.234   3.119  14.062
  180DOPC   H6S22058   7.069   3.179  14.097
  180DOPC   C2722059   7.232   3.308  14.166
  180DOPC   H7R22060   7.331   3.340  14.125
  180DOPC   H7S22061   7.251   3.254  14.261
  180DOPC   C2822062   7.145   3.431  14.194
  180DOPC   H8R22063   7.058   3.400  14.256
  180DOPC   H8S22064   7.104   3.467  14.097
  180DOPC   C2922065   7.223   3.540  14.263
  180DOPC   H9R22066   7.301   3.504  14.331
  180DOPC  C21022067   7.207   3.673  14.246
  180DOPC  H10R22068   7.271   3.742  14.303
  180DOPC  C21122069   7.105   3.740  14.158
  180DOPC  H11R22070   7.042   3.667  14.104
  180DOPC  H11S22071   7.156   3.801  14.080
  180DOPC  C21222072   7.010   3.832  14.238
  180DOPC  H12R22073   6.929   3.866  14.170
  180DOPC  H12S22074   7.064   3.922  14.273
  180DOPC  C21322075   6.946   3.762  14.360
  180DOPC  H13R22076   7.024   3.747  14.438
  180DOPC  H13S22077   6.910   3.662  14.330
  180DOPC  C21422078   6.831   3.843  14.420
  180DOPC  H14R22079   6.751   3.857  14.345
  180DOPC  H14S22080   6.868   3.943  14.449
  180DOPC  C21522081   6.772   3.775  14.545
  180DOPC  H15R22082   6.855   3.752  14.615
  180DOPC  H15S22083   6.725   3.679  14.515
  180DOPC  C21622084   6.668   3.864  14.614
  180DOPC  H16R22085   6.589   3.889  14.541
  180DOPC  H16S22086   6.718   3.959  14.645
  180DOPC  C21722087   6.604   3.800  14.738
  180DOPC  H17R22088   6.554   3.706  14.707
  180DOPC  H17S22089   6.525   3.868  14.776
  180DOPC  C21822090   6.703   3.770  14.852
  180DOPC  H18R22091   6.757   3.863  14.882
  180DOPC  H18S22092   6.777   3.694  14.820
  180DOPC  H18T22093   6.649   3.731  14.941
  180DOPC   C3322094   6.388   3.508  13.807
  180DOPC   H3X22095   6.452   3.422  13.777
  180DOPC   H3Y22096   6.309   3.519  13.729
  180DOPC   C3422097   6.322   3.472  13.941
  180DOPC   H4X22098   6.229   3.532  13.951
  180DOPC   H4Y22099   6.389   3.501  14.024
  180DOPC   C3522100   6.288   3.322  13.956
  180DOPC   H5X22101   6.261   3.280  13.856
  180DOPC   H5Y22102   6.199   3.311  14.022
  180DOPC   C3622103   6.401   3.238  14.019
  180DOPC   H6X22104   6.495   3.260  13.964
  180DOPC   H6Y22105   6.415   3.269  14.125
  180DOPC   C3722106   6.377   3.086  14.015
  180DOPC   H7X22107   6.281   3.063  14.067
  180DOPC   H7Y22108   6.364   3.057  13.908
  180DOPC   C3822109   6.491   3.000  14.074
  180DOPC   H8X22110   6.586   3.027  14.023
  180DOPC   H8Y22111   6.471   2.894  14.047
  180DOPC   C3922112   6.505   3.009  14.224
  180DOPC   H9X22113   6.410   3.017  14.279
  180DOPC  C31022114   6.621   3.009  14.294
  180DOPC  H10X22115   6.616   3.018  14.404
  180DOPC  C31122116   6.760   2.998  14.237
  180DOPC  H11X22117   6.801   3.099  14.214
  180DOPC  H11Y22118   6.759   2.943  14.141
  180DOPC  C31222119   6.860   2.926  14.330
  180DOPC  H12X22120   6.950   2.898  14.271
  180DOPC  H12Y22121   6.814   2.831  14.365
  180DOPC  C31322122   6.907   3.007  14.452
  180DOPC  H13X22123   6.820   3.044  14.510
  180DOPC  H13Y22124   6.964   2.938  14.519
  180DOPC  C31422125   7.000   3.125  14.416
  180DOPC  H14X22126   7.076   3.088  14.344
  180DOPC  H14Y22127   6.941   3.204  14.365
  180DOPC  C31522128   7.075   3.186  14.536
  180DOPC  H15X22129   7.149   3.258  14.497
  180DOPC  H15Y22130   7.130   3.105  14.589
  180DOPC  C31622131   6.983   3.258  14.636
  180DOPC  H16X22132   6.931   3.340  14.582
  180DOPC  H16Y22133   6.906   3.187  14.673
  180DOPC  C31722134   7.056   3.319  14.757
  180DOPC  H17X22135   6.979   3.356  14.828
  180DOPC  H17Y22136   7.113   3.240  14.809
  180DOPC  C31822137   7.149   3.436  14.722
  180DOPC  H18X22138   7.232   3.401  14.657
  180DOPC  H18Y22139   7.093   3.515  14.668
  180DOPC  H18Z22140   7.192   3.480  14.815
  181DOPC     N22141   0.859   4.220  13.004
  181DOPC   C1222142   1.006   4.240  12.968
  181DOPC  H12A22143   1.059   4.273  13.056
  181DOPC  H12B22144   1.014   4.319  12.895
  181DOPC   C1322145   0.850   4.139  13.130
  181DOPC  H13A22146   0.905   4.047  13.118
  181DOPC  H13B22147   0.899   4.190  13.212
  181DOPC  H13C22148   0.748   4.117  13.158
  181DOPC   C1422149   0.789   4.148  12.894
  181DOPC  H14A22150   0.683   4.135  12.914
  181DOPC  H14B22151   0.799   4.199  12.799
  181DOPC  H14C22152   0.833   4.050  12.881
  181DOPC   C1522153   0.793   4.353  13.026
  181DOPC  H15A22154   0.689   4.341  13.055
  181DOPC  H15B22155   0.795   4.414  12.937
  181DOPC  H15C22156   0.841   4.409  13.105
  181DOPC   C1122157   1.085   4.117  12.915
  181DOPC  H11A22158   1.037   4.079  12.822
  181DOPC  H11B22159   1.186   4.152  12.886
  181DOPC     P22160   1.186   4.027  13.137
  181DOPC   O1322161   1.207   4.172  13.161
  181DOPC   O1422162   1.304   3.940  13.118
  181DOPC   O1222163   1.093   4.010  13.009
  181DOPC   O1122164   1.094   3.966  13.249
  181DOPC    C122165   1.055   3.829  13.241
  181DOPC    HA22166   1.142   3.763  13.219
  181DOPC    HB22167   0.979   3.816  13.161
  181DOPC    C222168   0.992   3.777  13.374
  181DOPC    HS22169   0.948   3.677  13.351
  181DOPC   O2122170   0.886   3.868  13.411
  181DOPC   C2122171   0.808   3.826  13.509
  181DOPC   O2222172   0.815   3.717  13.563
  181DOPC   C2222173   0.703   3.932  13.540
  181DOPC   H2R22174   0.643   3.894  13.626
  181DOPC   H2S22175   0.636   3.941  13.452
  181DOPC    C322176   1.099   3.755  13.486
  181DOPC    HX22177   1.169   3.680  13.442
  181DOPC    HY22178   1.053   3.708  13.575
  181DOPC   O3122179   1.169   3.875  13.524
  181DOPC   C3122180   1.286   3.851  13.584
  181DOPC   O3222181   1.331   3.740  13.606
  181DOPC   C3222182   1.357   3.981  13.623
  181DOPC   H2X22183   1.308   4.022  13.713
  181DOPC   H2Y22184   1.460   3.950  13.652
  181DOPC   C2322185   0.765   4.070  13.574
  181DOPC   H3R22186   0.684   4.139  13.606
  181DOPC   H3S22187   0.812   4.113  13.483
  181DOPC   C2422188   0.872   4.065  13.685
  181DOPC   H4R22189   0.907   4.167  13.707
  181DOPC   H4S22190   0.959   4.008  13.646
  181DOPC   C2522191   0.823   4.000  13.816
  181DOPC   H5R22192   0.781   3.899  13.795
  181DOPC   H5S22193   0.741   4.062  13.859
  181DOPC   C2622194   0.934   3.982  13.920
  181DOPC   H6R22195   0.890   3.938  14.012
  181DOPC   H6S22196   0.977   4.081  13.947
  181DOPC   C2722197   1.046   3.890  13.871
  181DOPC   H7R22198   1.101   3.940  13.789
  181DOPC   H7S22199   1.001   3.797  13.830
  181DOPC   C2822200   1.145   3.854  13.983
  181DOPC   H8R22201   1.090   3.797  14.061
  181DOPC   H8S22202   1.179   3.948  14.029
  181DOPC   C2922203   1.261   3.771  13.931
  181DOPC   H9R22204   1.234   3.691  13.861
  181DOPC  C21022205   1.390   3.790  13.962
  181DOPC  H10R22206   1.466   3.724  13.918
  181DOPC  C21122207   1.442   3.897  14.055
  181DOPC  H11R22208   1.402   3.996  14.026
  181DOPC  H11S22209   1.553   3.904  14.048
  181DOPC  C21222210   1.404   3.869  14.202
  181DOPC  H12R22211   1.453   3.776  14.237
  181DOPC  H12S22212   1.294   3.855  14.211
  181DOPC  C21322213   1.443   3.985  14.295
  181DOPC  H13R22214   1.397   4.079  14.258
  181DOPC  H13S22215   1.553   3.997  14.290
  181DOPC  C21422216   1.397   3.960  14.439
  181DOPC  H14R22217   1.439   3.863  14.474
  181DOPC  H14S22218   1.286   3.951  14.441
  181DOPC  C21522219   1.439   4.071  14.537
  181DOPC  H15R22220   1.407   4.042  14.639
  181DOPC  H15S22221   1.385   4.165  14.510
  181DOPC  C21622222   1.590   4.101  14.538
  181DOPC  H16R22223   1.609   4.179  14.615
  181DOPC  H16S22224   1.621   4.143  14.441
  181DOPC  C21722225   1.678   3.978  14.569
  181DOPC  H17R22226   1.659   3.901  14.491
  181DOPC  H17S22227   1.648   3.935  14.666
  181DOPC  C21822228   1.828   4.009  14.571
  181DOPC  H18R22229   1.887   3.916  14.583
  181DOPC  H18S22230   1.853   4.078  14.654
  181DOPC  H18T22231   1.859   4.057  14.475
  181DOPC   C3322232   1.366   4.086  13.510
  181DOPC   H3X22233   1.373   4.036  13.411
  181DOPC   H3Y22234   1.459   4.145  13.523
  181DOPC   C3422235   1.249   4.186  13.508
  181DOPC   H4X22236   1.153   4.131  13.503
  181DOPC   H4Y22237   1.257   4.245  13.415
  181DOPC   C3522238   1.249   4.283  13.627
  181DOPC   H5X22239   1.351   4.327  13.637
  181DOPC   H5Y22240   1.227   4.227  13.721
  181DOPC   C3622241   1.148   4.397  13.610
  181DOPC   H6X22242   1.168   4.446  13.512
  181DOPC   H6Y22243   1.046   4.356  13.606
  181DOPC   C3722244   1.157   4.505  13.720
  181DOPC   H7X22245   1.261   4.543  13.725
  181DOPC   H7Y22246   1.092   4.590  13.689
  181DOPC   C3822247   1.113   4.455  13.859
  181DOPC   H8X22248   1.182   4.374  13.891
  181DOPC   H8Y22249   1.012   4.409  13.848
  181DOPC   C3922250   1.106   4.567  13.959
  181DOPC   H9X22251   1.056   4.658  13.923
  181DOPC  C31022252   1.153   4.567  14.085
  181DOPC  H10X22253   1.138   4.657  14.147
  181DOPC  C31122254   1.225   4.454  14.156
  181DOPC  H11X22255   1.306   4.496  14.218
  181DOPC  H11Y22256   1.273   4.384  14.084
  181DOPC  C31222257   1.132   4.371  14.247
  181DOPC  H12X22258   1.072   4.438  14.312
  181DOPC  H12Y22259   1.196   4.308  14.313
  181DOPC  C31322260   1.038   4.277  14.169
  181DOPC  H13X22261   0.980   4.337  14.096
  181DOPC  H13Y22262   1.099   4.204  14.112
  181DOPC  C31422263   0.938   4.201  14.258
  181DOPC  H14X22264   0.873   4.274  14.311
  181DOPC  H14Y22265   0.872   4.140  14.193
  181DOPC  C31522266   1.004   4.108  14.361
  181DOPC  H15X22267   1.066   4.169  14.430
  181DOPC  H15Y22268   1.072   4.038  14.308
  181DOPC  C31622269   0.902   4.028  14.443
  181DOPC  H16X22270   0.835   4.099  14.496
  181DOPC  H16Y22271   0.839   3.969  14.372
  181DOPC  C31722272   0.966   3.932  14.544
  181DOPC  H17X22273   0.885   3.872  14.590
  181DOPC  H17Y22274   1.032   3.862  14.489
  181DOPC  C31822275   1.046   4.001  14.655
  181DOPC  H18X22276   1.132   4.057  14.613
  181DOPC  H18Y22277   0.982   4.072  14.711
  181DOPC  H18Z22278   1.086   3.926  14.727
  182DOPC     N22279   2.813   0.994  13.092
  182DOPC   C1222280   2.780   1.130  13.032
  182DOPC  H12A22281   2.752   1.119  12.928
  182DOPC  H12B22282   2.870   1.190  13.034
  182DOPC   C1322283   2.859   1.011  13.233
  182DOPC  H13A22284   2.887   0.916  13.277
  182DOPC  H13B22285   2.946   1.074  13.236
  182DOPC  H13C22286   2.781   1.056  13.293
  182DOPC   C1422287   2.926   0.930  13.017
  182DOPC  H14A22288   3.017   0.988  13.028
  182DOPC  H14B22289   2.950   0.832  13.055
  182DOPC  H14C22290   2.905   0.920  12.911
  182DOPC   C1522291   2.691   0.907  13.086
  182DOPC  H15A22292   2.608   0.961  13.130
  182DOPC  H15B22293   2.706   0.813  13.137
  182DOPC  H15C22294   2.663   0.888  12.984
  182DOPC   C1122295   2.665   1.211  13.098
  182DOPC  H11A22296   2.679   1.214  13.208
  182DOPC  H11B22297   2.671   1.317  13.064
  182DOPC     P22298   2.472   1.183  12.927
  182DOPC   O1322299   2.575   1.157  12.824
  182DOPC   O1422300   2.412   1.318  12.929
  182DOPC   O1222301   2.537   1.153  13.068
  182DOPC   O1122302   2.356   1.077  12.911
  182DOPC    C122303   2.305   0.999  13.020
  182DOPC    HA22304   2.386   0.946  13.075
  182DOPC    HB22305   2.239   0.920  12.978
  182DOPC    C222306   2.220   1.083  13.119
  182DOPC    HS22307   2.180   1.169  13.062
  182DOPC   O2122308   2.307   1.124  13.226
  182DOPC   C2122309   2.276   1.240  13.282
  182DOPC   O2222310   2.184   1.312  13.249
  182DOPC   C2222311   2.383   1.275  13.386
  182DOPC   H2R22312   2.454   1.345  13.336
  182DOPC   H2S22313   2.439   1.183  13.414
  182DOPC    C322314   2.097   1.004  13.174
  182DOPC    HX22315   2.028   0.988  13.088
  182DOPC    HY22316   2.040   1.067  13.246
  182DOPC   O3122317   2.132   0.875  13.229
  182DOPC   C3122318   2.163   0.876  13.358
  182DOPC   O3222319   2.164   0.975  13.429
  182DOPC   C3222320   2.192   0.734  13.408
  182DOPC   H2X22321   2.096   0.694  13.446
  182DOPC   H2Y22322   2.225   0.671  13.323
  182DOPC   C2322323   2.324   1.344  13.512
  182DOPC   H3R22324   2.258   1.428  13.481
  182DOPC   H3S22325   2.407   1.387  13.572
  182DOPC   C2422326   2.244   1.248  13.601
  182DOPC   H4R22327   2.170   1.194  13.538
  182DOPC   H4S22328   2.185   1.306  13.676
  182DOPC   C2522329   2.330   1.145  13.677
  182DOPC   H5R22330   2.416   1.112  13.615
  182DOPC   H5S22331   2.268   1.055  13.696
  182DOPC   C2622332   2.379   1.197  13.813
  182DOPC   H6R22333   2.291   1.231  13.872
  182DOPC   H6S22334   2.446   1.285  13.798
  182DOPC   C2722335   2.453   1.088  13.893
  182DOPC   H7R22336   2.552   1.068  13.846
  182DOPC   H7S22337   2.394   0.994  13.885
  182DOPC   C2822338   2.470   1.120  14.043
  182DOPC   H8R22339   2.517   1.032  14.092
  182DOPC   H8S22340   2.369   1.132  14.087
  182DOPC   C2922341   2.553   1.243  14.068
  182DOPC   H9R22342   2.598   1.290  13.980
  182DOPC  C21022343   2.576   1.297  14.190
  182DOPC  H10R22344   2.637   1.388  14.197
  182DOPC  C21122345   2.523   1.244  14.321
  182DOPC  H11R22346   2.604   1.245  14.397
  182DOPC  H11S22347   2.489   1.139  14.313
  182DOPC  C21222348   2.406   1.329  14.375
  182DOPC  H12R22349   2.316   1.311  14.312
  182DOPC  H12S22350   2.431   1.437  14.367
  182DOPC  C21322351   2.372   1.300  14.522
  182DOPC  H13R22352   2.286   1.365  14.552
  182DOPC  H13S22353   2.459   1.329  14.585
  182DOPC  C21422354   2.336   1.154  14.551
  182DOPC  H14R22355   2.423   1.089  14.530
  182DOPC  H14S22356   2.254   1.122  14.483
  182DOPC  C21522357   2.292   1.134  14.697
  182DOPC  H15R22358   2.207   1.201  14.720
  182DOPC  H15S22359   2.377   1.164  14.763
  182DOPC  C21622360   2.252   0.989  14.730
  182DOPC  H16R22361   2.330   0.920  14.689
  182DOPC  H16S22362   2.157   0.965  14.678
  182DOPC  C21722363   2.238   0.961  14.880
  182DOPC  H17R22364   2.337   0.978  14.929
  182DOPC  H17S22365   2.212   0.854  14.894
  182DOPC  C21822366   2.133   1.048  14.950
  182DOPC  H18R22367   2.159   1.156  14.943
  182DOPC  H18S22368   2.126   1.021  15.058
  182DOPC  H18T22369   2.033   1.032  14.904
  182DOPC   C3322370   2.297   0.734  13.521
  182DOPC   H3X22371   2.283   0.642  13.583
  182DOPC   H3Y22372   2.281   0.820  13.589
  182DOPC   C3422373   2.441   0.733  13.468
  182DOPC   H4X22374   2.447   0.796  13.377
  182DOPC   H4Y22375   2.467   0.629  13.439
  182DOPC   C3522376   2.545   0.785  13.569
  182DOPC   H5X22377   2.537   0.896  13.575
  182DOPC   H5Y22378   2.647   0.761  13.530
  182DOPC   C3622379   2.531   0.729  13.711
  182DOPC   H6X22380   2.437   0.769  13.756
  182DOPC   H6Y22381   2.522   0.618  13.707
  182DOPC   C3722382   2.650   0.768  13.801
  182DOPC   H7X22383   2.738   0.706  13.773
  182DOPC   H7Y22384   2.676   0.874  13.780
  182DOPC   C3822385   2.622   0.755  13.952
  182DOPC   H8X22386   2.545   0.832  13.977
  182DOPC   H8Y22387   2.715   0.784  14.006
  182DOPC   C3922388   2.578   0.618  13.996
  182DOPC   H9X22389   2.624   0.535  13.941
  182DOPC  C31022390   2.489   0.590  14.094
  182DOPC  H10X22391   2.468   0.485  14.117
  182DOPC  C31122392   2.416   0.691  14.180
  182DOPC  H11X22393   2.309   0.663  14.185
  182DOPC  H11Y22394   2.419   0.793  14.138
  182DOPC  C31222395   2.470   0.698  14.325
  182DOPC  H12X22396   2.465   0.597  14.371
  182DOPC  H12Y22397   2.404   0.766  14.383
  182DOPC  C31322398   2.615   0.751  14.334
  182DOPC  H13X22399   2.679   0.686  14.271
  182DOPC  H13Y22400   2.620   0.854  14.293
  182DOPC  C31422401   2.671   0.748  14.477
  182DOPC  H14X22402   2.645   0.651  14.525
  182DOPC  H14Y22403   2.782   0.753  14.472
  182DOPC  C31522404   2.623   0.863  14.566
  182DOPC  H15X22405   2.512   0.867  14.564
  182DOPC  H15Y22406   2.660   0.959  14.525
  182DOPC  C31622407   2.670   0.848  14.711
  182DOPC  H16X22408   2.622   0.758  14.755
  182DOPC  H16Y22409   2.780   0.830  14.712
  182DOPC  C31722410   2.639   0.970  14.799
  182DOPC  H17X22411   2.694   1.058  14.759
  182DOPC  H17Y22412   2.530   0.992  14.790
  182DOPC  C31822413   2.674   0.950  14.946
  182DOPC  H18X22414   2.650   1.042  15.005
  182DOPC  H18Y22415   2.616   0.865  14.989
  182DOPC  H18Z22416   2.782   0.928  14.958
  183DOPC     N22417   7.280   5.746  12.997
  183DOPC   C1222418   7.378   5.861  13.011
  183DOPC  H12A22419   7.323   5.949  13.041
  183DOPC  H12B22420   7.423   5.883  12.915
  183DOPC   C1322421   7.202   5.731  13.124
  183DOPC  H13A22422   7.141   5.818  13.143
  183DOPC  H13B22423   7.135   5.646  13.120
  183DOPC  H13C22424   7.268   5.718  13.209
  183DOPC   C1422425   7.357   5.621  12.968
  183DOPC  H14A22426   7.411   5.630  12.875
  183DOPC  H14B22427   7.433   5.607  13.044
  183DOPC  H14C22428   7.295   5.533  12.961
  183DOPC   C1522429   7.184   5.772  12.885
  183DOPC  H15A22430   7.237   5.786  12.792
  183DOPC  H15B22431   7.125   5.860  12.905
  183DOPC  H15C22432   7.116   5.690  12.873
  183DOPC   C1122433   7.496   5.842  13.109
  183DOPC  H11A22434   7.535   5.942  13.139
  183DOPC  H11B22435   7.462   5.795  13.203
  183DOPC     P22436   7.698   5.830  12.947
  183DOPC   O1322437   7.621   5.910  12.848
  183DOPC   O1422438   7.787   5.725  12.893
  183DOPC   O1222439   7.597   5.761  13.049
  183DOPC   O1122440   7.779   5.928  13.040
  183DOPC    C122441   7.888   5.887  13.123
  183DOPC    HA22442   7.978   5.944  13.091
  183DOPC    HB22443   7.913   5.779  13.112
  183DOPC    C222444   7.865   5.922  13.274
  183DOPC    HS22445   7.965   5.929  13.323
  183DOPC   O2122446   7.786   5.821  13.339
  183DOPC   C2122447   7.850   5.710  13.369
  183DOPC   O2222448   7.963   5.680  13.335
  183DOPC   C2222449   7.763   5.623  13.460
  183DOPC   H2R22450   7.727   5.537  13.400
  183DOPC   H2S22451   7.675   5.683  13.492
  183DOPC    C322452   7.797   6.060  13.290
  183DOPC    HX22453   7.701   6.059  13.235
  183DOPC    HY22454   7.861   6.135  13.238
  183DOPC   O3122455   7.783   6.100  13.429
  183DOPC   C3122456   7.661   6.088  13.482
  183DOPC   O3222457   7.563   6.044  13.426
  183DOPC   C3222458   7.659   6.151  13.622
  183DOPC   H2X22459   7.708   6.251  13.615
  183DOPC   H2Y22460   7.553   6.165  13.649
  183DOPC   C2322461   7.843   5.574  13.583
  183DOPC   H3R22462   7.880   5.662  13.641
  183DOPC   H3S22463   7.931   5.517  13.549
  183DOPC   C2422464   7.761   5.483  13.677
  183DOPC   H4R22465   7.828   5.445  13.757
  183DOPC   H4S22466   7.726   5.395  13.619
  183DOPC   C2522467   7.640   5.550  13.743
  183DOPC   H5R22468   7.583   5.472  13.798
  183DOPC   H5S22469   7.572   5.592  13.665
  183DOPC   C2622470   7.676   5.661  13.844
  183DOPC   H6R22471   7.741   5.736  13.794
  183DOPC   H6S22472   7.734   5.617  13.927
  183DOPC   C2722473   7.553   5.735  13.901
  183DOPC   H7R22474   7.504   5.790  13.818
  183DOPC   H7S22475   7.588   5.810  13.975
  183DOPC   C2822476   7.447   5.645  13.967
  183DOPC   H8R22477   7.402   5.578  13.891
  183DOPC   H8S22478   7.364   5.711  14.001
  183DOPC   C2922479   7.499   5.563  14.083
  183DOPC   H9R22480   7.536   5.463  14.056
  183DOPC  C21022481   7.507   5.603  14.211
  183DOPC  H10R22482   7.547   5.534  14.286
  183DOPC  C21122483   7.464   5.738  14.264
  183DOPC  H11R22484   7.363   5.731  14.308
  183DOPC  H11S22485   7.460   5.814  14.183
  183DOPC  C21222486   7.561   5.788  14.373
  183DOPC  H12R22487   7.666   5.785  14.336
  183DOPC  H12S22488   7.553   5.721  14.461
  183DOPC  C21322489   7.529   5.933  14.416
  183DOPC  H13R22490   7.420   5.942  14.435
  183DOPC  H13S22491   7.553   6.000  14.331
  183DOPC  C21422492   7.608   5.979  14.539
  183DOPC  H14R22493   7.594   6.088  14.551
  183DOPC  H14S22494   7.716   5.961  14.522
  183DOPC  C21522495   7.566   5.911  14.671
  183DOPC  H15R22496   7.630   5.952  14.753
  183DOPC  H15S22497   7.585   5.802  14.666
  183DOPC  C21622498   7.419   5.936  14.707
  183DOPC  H16R22499   7.354   5.877  14.639
  183DOPC  H16S22500   7.396   6.043  14.691
  183DOPC  C21722501   7.383   5.901  14.853
  183DOPC  H17R22502   7.276   5.927  14.870
  183DOPC  H17S22503   7.443   5.966  14.920
  183DOPC  C21822504   7.406   5.754  14.890
  183DOPC  H18R22505   7.513   5.728  14.882
  183DOPC  H18S22506   7.348   5.688  14.822
  183DOPC  H18T22507   7.372   5.735  14.994
  183DOPC   C3322508   7.729   6.066  13.731
  183DOPC   H3X22509   7.836   6.054  13.704
  183DOPC   H3Y22510   7.683   5.965  13.735
  183DOPC   C3422511   7.719   6.132  13.869
  183DOPC   H4X22512   7.613   6.131  13.903
  183DOPC   H4Y22513   7.749   6.239  13.860
  183DOPC   C3522514   7.807   6.065  13.976
  183DOPC   H5X22515   7.912   6.063  13.939
  183DOPC   H5Y22516   7.774   5.960  13.990
  183DOPC   C3622517   7.804   6.138  14.111
  183DOPC   H6X22518   7.833   6.244  14.096
  183DOPC   H6Y22519   7.700   6.138  14.151
  183DOPC   C3722520   7.898   6.075  14.216
  183DOPC   H7X22521   7.867   5.969  14.230
  183DOPC   H7Y22522   8.001   6.076  14.175
  183DOPC   C3822523   7.895   6.149  14.351
  183DOPC   H8X22524   7.791   6.149  14.389
  183DOPC   H8Y22525   7.924   6.254  14.334
  183DOPC   C3922526   7.987   6.082  14.452
  183DOPC   H9X22527   7.992   5.973  14.444
  183DOPC  C31022528   8.057   6.143  14.549
  183DOPC  H10X22529   8.122   6.083  14.614
  183DOPC  C31122530   8.059   6.291  14.577
  183DOPC  H11X22531   7.955   6.329  14.587
  183DOPC  H11Y22532   8.105   6.346  14.492
  183DOPC  C31222533   8.135   6.330  14.706
  183DOPC  H12X22534   8.134   6.441  14.713
  183DOPC  H12Y22535   8.241   6.299  14.698
  183DOPC  C31322536   8.074   6.271  14.834
  183DOPC  H13X22537   7.965   6.294  14.837
  183DOPC  H13Y22538   8.084   6.161  14.830
  183DOPC  C31422539   8.140   6.318  14.965
  183DOPC  H14X22540   8.094   6.262  15.049
  183DOPC  H14Y22541   8.248   6.290  14.961
  183DOPC  C31522542   8.130   6.469  14.993
  183DOPC  H15X22543   8.191   6.522  14.918
  183DOPC  H15Y22544   8.173   6.491  15.093
  183DOPC  C31622545   7.987   6.526  14.988
  183DOPC  H16X22546   7.992   6.636  15.001
  183DOPC  H16Y22547   7.944   6.507  14.888
  183DOPC  C31722548   7.891   6.469  15.094
  183DOPC  H17X22549   7.897   6.358  15.094
  183DOPC  H17Y22550   7.925   6.504  15.194
  183DOPC  C31822551   7.746   6.511  15.072
  183DOPC  H18X22552   7.681   6.478  15.156
  183DOPC  H18Y22553   7.738   6.622  15.063
  183DOPC  H18Z22554   7.707   6.467  14.977
  184DOPC     N22555   5.115   0.537  13.056
  184DOPC   C1222556   5.114   0.622  12.929
  184DOPC  H12A22557   5.025   0.683  12.927
  184DOPC  H12B22558   5.107   0.556  12.844
  184DOPC   C1322559   5.213   0.424  13.036
  184DOPC  H13A22560   5.190   0.366  12.949
  184DOPC  H13B22561   5.311   0.466  13.019
  184DOPC  H13C22562   5.220   0.360  13.123
  184DOPC   C1422563   4.980   0.478  13.080
  184DOPC  H14A22564   4.907   0.555  13.097
  184DOPC  H14B22565   4.950   0.421  12.993
  184DOPC  H14C22566   4.982   0.412  13.166
  184DOPC   C1522567   5.160   0.619  13.173
  184DOPC  H15A22568   5.093   0.703  13.191
  184DOPC  H15B22569   5.258   0.660  13.154
  184DOPC  H15C22570   5.168   0.560  13.263
  184DOPC   C1122571   5.235   0.716  12.903
  184DOPC  H11A22572   5.219   0.765  12.804
  184DOPC  H11B22573   5.235   0.798  12.978
  184DOPC     P22574   5.479   0.662  12.994
  184DOPC   O1322575   5.597   0.706  12.916
  184DOPC   O1422576   5.492   0.537  13.072
  184DOPC   O1222577   5.357   0.644  12.897
  184DOPC   O1122578   5.433   0.777  13.092
  184DOPC    C122579   5.528   0.848  13.172
  184DOPC    HA22580   5.539   0.952  13.135
  184DOPC    HB22581   5.630   0.803  13.170
  184DOPC    C222582   5.482   0.854  13.321
  184DOPC    HS22583   5.563   0.900  13.381
  184DOPC   O2122584   5.449   0.723  13.370
  184DOPC   C2122585   5.555   0.647  13.392
  184DOPC   O2222586   5.671   0.683  13.388
  184DOPC   C2222587   5.510   0.506  13.431
  184DOPC   H2R22588   5.569   0.436  13.368
  184DOPC   H2S22589   5.402   0.493  13.406
  184DOPC    C322590   5.358   0.946  13.336
  184DOPC    HX22591   5.277   0.901  13.274
  184DOPC    HY22592   5.380   1.046  13.291
  184DOPC   O3122593   5.312   0.956  13.473
  184DOPC   C3122594   5.378   1.045  13.547
  184DOPC   O3222595   5.465   1.119  13.507
  184DOPC   C3222596   5.326   1.038  13.690
  184DOPC   H2X22597   5.215   1.024  13.687
  184DOPC   H2Y22598   5.372   0.949  13.738
  184DOPC   C2322599   5.537   0.477  13.581
  184DOPC   H3R22600   5.642   0.502  13.605
  184DOPC   H3S22601   5.524   0.368  13.598
  184DOPC   C2422602   5.440   0.551  13.674
  184DOPC   H4R22603   5.337   0.519  13.650
  184DOPC   H4S22604   5.446   0.661  13.656
  184DOPC   C2522605   5.467   0.525  13.824
  184DOPC   H5R22606   5.477   0.416  13.840
  184DOPC   H5S22607   5.379   0.560  13.882
  184DOPC   C2622608   5.592   0.597  13.877
  184DOPC   H6R22609   5.576   0.707  13.871
  184DOPC   H6S22610   5.678   0.573  13.812
  184DOPC   C2722611   5.630   0.558  14.021
  184DOPC   H7R22612   5.723   0.612  14.049
  184DOPC   H7S22613   5.653   0.450  14.023
  184DOPC   C2822614   5.522   0.586  14.128
  184DOPC   H8R22615   5.560   0.549  14.225
  184DOPC   H8S22616   5.432   0.525  14.104
  184DOPC   C2922617   5.489   0.733  14.142
  184DOPC   H9R22618   5.577   0.799  14.146
  184DOPC  C21022619   5.366   0.789  14.148
  184DOPC  H10R22620   5.359   0.898  14.159
  184DOPC  C21122621   5.233   0.718  14.143
  184DOPC  H11R22622   5.242   0.616  14.101
  184DOPC  H11S22623   5.164   0.773  14.076
  184DOPC  C21222624   5.167   0.706  14.282
  184DOPC  H12R22625   5.231   0.646  14.349
  184DOPC  H12S22626   5.071   0.652  14.270
  184DOPC  C21322627   5.137   0.843  14.347
  184DOPC  H13R22628   5.088   0.907  14.271
  184DOPC  H13S22629   5.233   0.892  14.376
  184DOPC  C21422630   5.046   0.834  14.470
  184DOPC  H14R22631   4.952   0.781  14.442
  184DOPC  H14S22632   5.018   0.938  14.500
  184DOPC  C21522633   5.109   0.765  14.591
  184DOPC  H15R22634   5.201   0.820  14.621
  184DOPC  H15S22635   5.139   0.661  14.564
  184DOPC  C21622636   5.012   0.759  14.711
  184DOPC  H16R22637   4.924   0.698  14.682
  184DOPC  H16S22638   4.976   0.861  14.734
  184DOPC  C21722639   5.076   0.699  14.837
  184DOPC  H17R22640   5.157   0.767  14.872
  184DOPC  H17S22641   5.123   0.602  14.812
  184DOPC  C21822642   4.974   0.679  14.950
  184DOPC  H18R22643   4.895   0.608  14.919
  184DOPC  H18S22644   4.926   0.775  14.978
  184DOPC  H18T22645   5.024   0.637  15.041
  184DOPC   C3322646   5.360   1.164  13.773
  184DOPC   H3X22647   5.311   1.253  13.728
  184DOPC   H3Y22648   5.470   1.182  13.772
  184DOPC   C3422649   5.314   1.152  13.919
  184DOPC   H4X22650   5.366   1.065  13.965
  184DOPC   H4Y22651   5.205   1.130  13.921
  184DOPC   C3522652   5.343   1.278  14.002
  184DOPC   H5X22653   5.283   1.363  13.963
  184DOPC   H5Y22654   5.450   1.303  13.989
  184DOPC   C3622655   5.316   1.260  14.152
  184DOPC   H6X22656   5.372   1.172  14.189
  184DOPC   H6Y22657   5.355   1.350  14.205
  184DOPC   C3722658   5.167   1.244  14.189
  184DOPC   H7X22659   5.112   1.336  14.159
  184DOPC   H7Y22660   5.125   1.159  14.131
  184DOPC   C3822661   5.144   1.214  14.339
  184DOPC   H8X22662   5.196   1.120  14.363
  184DOPC   H8Y22663   5.035   1.194  14.354
  184DOPC   C3922664   5.187   1.326  14.430
  184DOPC   H9X22665   5.114   1.409  14.440
  184DOPC  C31022666   5.303   1.335  14.498
  184DOPC  H10X22667   5.322   1.424  14.559
  184DOPC  C31122668   5.417   1.235  14.496
  184DOPC  H11X22669   5.505   1.283  14.449
  184DOPC  H11Y22670   5.394   1.146  14.434
  184DOPC  C31222671   5.458   1.186  14.636
  184DOPC  H12X22672   5.478   1.272  14.703
  184DOPC  H12Y22673   5.554   1.131  14.624
  184DOPC  C31322674   5.356   1.091  14.700
  184DOPC  H13X22675   5.266   1.147  14.733
  184DOPC  H13Y22676   5.324   1.019  14.622
  184DOPC  C31422677   5.415   1.010  14.817
  184DOPC  H14X22678   5.345   0.927  14.841
  184DOPC  H14Y22679   5.511   0.966  14.785
  184DOPC  C31522680   5.437   1.093  14.945
  184DOPC  H15X22681   5.338   1.119  14.988
  184DOPC  H15Y22682   5.488   1.188  14.919
  184DOPC  C31622683   5.521   1.020  15.052
  184DOPC  H16X22684   5.626   1.013  15.016
  184DOPC  H16Y22685   5.521   1.081  15.145
  184DOPC  C31722686   5.471   0.878  15.085
  184DOPC  H17X22687   5.363   0.882  15.109
  184DOPC  H17Y22688   5.483   0.813  14.995
  184DOPC  C31822689   5.546   0.813  15.202
  184DOPC  H18X22690   5.653   0.800  15.178
  184DOPC  H18Y22691   5.537   0.876  15.293
  184DOPC  H18Z22692   5.503   0.713  15.225
  185DOPC     N22693   7.019   6.624  13.116
  185DOPC   C1222694   7.061   6.480  13.148
  185DOPC  H12A22695   7.012   6.447  13.238
  185DOPC  H12B22696   7.167   6.478  13.167
  185DOPC   C1322697   6.900   6.621  13.024
  185DOPC  H13A22698   6.927   6.564  12.936
  185DOPC  H13B22699   6.816   6.573  13.070
  185DOPC  H13C22700   6.872   6.721  12.993
  185DOPC   C1422701   7.131   6.695  13.045
  185DOPC  H14A22702   7.222   6.696  13.103
  185DOPC  H14B22703   7.154   6.643  12.953
  185DOPC  H14C22704   7.106   6.797  13.022
  185DOPC   C1522705   6.984   6.700  13.241
  185DOPC  H15A22706   7.069   6.705  13.308
  185DOPC  H15B22707   6.901   6.654  13.293
  185DOPC  H15C22708   6.956   6.801  13.217
  185DOPC   C1122709   7.035   6.371  13.039
  185DOPC  H11A22710   7.074   6.273  13.074
  185DOPC  H11B22711   6.925   6.356  13.027
  185DOPC     P22712   7.247   6.401  12.888
  185DOPC   O1322713   7.280   6.530  12.822
  185DOPC   O1422714   7.281   6.277  12.815
  185DOPC   O1222715   7.091   6.405  12.913
  185DOPC   O1122716   7.306   6.398  13.035
  185DOPC    C122717   7.416   6.311  13.065
  185DOPC    HA22718   7.511   6.354  13.026
  185DOPC    HB22719   7.403   6.211  13.018
  185DOPC    C222720   7.433   6.284  13.218
  185DOPC    HS22721   7.494   6.191  13.230
  185DOPC   O2122722   7.306   6.270  13.285
  185DOPC   C2122723   7.244   6.156  13.256
  185DOPC   O2222724   7.281   6.073  13.176
  185DOPC   C2222725   7.118   6.140  13.340
  185DOPC   H2R22726   7.079   6.038  13.317
  185DOPC   H2S22727   7.041   6.213  13.307
  185DOPC    C322728   7.513   6.397  13.288
  185DOPC    HX22729   7.614   6.403  13.241
  185DOPC    HY22730   7.527   6.365  13.394
  185DOPC   O3122731   7.446   6.524  13.274
  185DOPC   C3122732   7.436   6.598  13.383
  185DOPC   O3222733   7.485   6.574  13.492
  185DOPC   C3222734   7.347   6.718  13.348
  185DOPC   H2X22735   7.402   6.778  13.273
  185DOPC   H2Y22736   7.255   6.677  13.300
  185DOPC   C2322737   7.144   6.151  13.492
  185DOPC   H3R22738   7.246   6.116  13.519
  185DOPC   H3S22739   7.072   6.081  13.541
  185DOPC   C2422740   7.117   6.291  13.547
  185DOPC   H4R22741   7.021   6.328  13.504
  185DOPC   H4S22742   7.198   6.360  13.517
  185DOPC   C2522743   7.102   6.291  13.700
  185DOPC   H5R22744   7.196   6.257  13.748
  185DOPC   H5S22745   7.022   6.219  13.728
  185DOPC   C2622746   7.063   6.430  13.754
  185DOPC   H6R22747   6.985   6.473  13.688
  185DOPC   H6S22748   7.153   6.495  13.748
  185DOPC   C2722749   7.007   6.428  13.897
  185DOPC   H7R22750   6.913   6.370  13.897
  185DOPC   H7S22751   6.982   6.532  13.927
  185DOPC   C2822752   7.101   6.366  14.004
  185DOPC   H8R22753   7.116   6.259  13.979
  185DOPC   H8S22754   7.047   6.369  14.101
  185DOPC   C2922755   7.232   6.440  14.017
  185DOPC   H9R22756   7.229   6.546  13.987
  185DOPC  C21022757   7.347   6.388  14.063
  185DOPC  H10R22758   7.436   6.452  14.069
  185DOPC  C21122759   7.367   6.246  14.110
  185DOPC  H11R22760   7.474   6.217  14.100
  185DOPC  H11S22761   7.309   6.175  14.046
  185DOPC  C21222762   7.322   6.226  14.256
  185DOPC  H12R22763   7.326   6.118  14.281
  185DOPC  H12S22764   7.216   6.258  14.266
  185DOPC  C21322765   7.407   6.303  14.358
  185DOPC  H13R22766   7.415   6.410  14.327
  185DOPC  H13S22767   7.510   6.261  14.358
  185DOPC  C21422768   7.349   6.298  14.500
  185DOPC  H14R22769   7.338   6.192  14.532
  185DOPC  H14S22770   7.247   6.344  14.497
  185DOPC  C21522771   7.435   6.375  14.601
  185DOPC  H15R22772   7.467   6.468  14.550
  185DOPC  H15S22773   7.527   6.316  14.624
  185DOPC  C21622774   7.364   6.416  14.731
  185DOPC  H16R22775   7.272   6.474  14.707
  185DOPC  H16S22776   7.433   6.484  14.785
  185DOPC  C21722777   7.329   6.301  14.827
  185DOPC  H17R22778   7.321   6.344  14.929
  185DOPC  H17S22779   7.412   6.227  14.829
  185DOPC  C21822780   7.196   6.231  14.797
  185DOPC  H18R22781   7.201   6.175  14.700
  185DOPC  H18S22782   7.114   6.305  14.789
  185DOPC  H18T22783   7.171   6.158  14.877
  185DOPC   C3322784   7.310   6.806  13.469
  185DOPC   H3X22785   7.258   6.897  13.430
  185DOPC   H3Y22786   7.402   6.841  13.520
  185DOPC   C3422787   7.217   6.738  13.570
  185DOPC   H4X22788   7.272   6.655  13.620
  185DOPC   H4Y22789   7.129   6.694  13.519
  185DOPC   C3522790   7.169   6.837  13.677
  185DOPC   H5X22791   7.104   6.914  13.630
  185DOPC   H5Y22792   7.259   6.888  13.719
  185DOPC   C3622793   7.092   6.773  13.793
  185DOPC   H6X22794   7.002   6.721  13.754
  185DOPC   H6Y22795   7.158   6.697  13.840
  185DOPC   C3722796   7.050   6.877  13.898
  185DOPC   H7X22797   7.094   6.976  13.874
  185DOPC   H7Y22798   6.940   6.889  13.892
  185DOPC   C3822799   7.089   6.837  14.042
  185DOPC   H8X22800   7.051   6.734  14.061
  185DOPC   H8Y22801   7.034   6.905  14.111
  185DOPC   C3922802   7.237   6.844  14.069
  185DOPC   H9X22803   7.302   6.844  13.980
  185DOPC  C31022804   7.293   6.851  14.192
  185DOPC  H10X22805   7.402   6.856  14.201
  185DOPC  C31122806   7.215   6.852  14.321
  185DOPC  H11X22807   7.111   6.816  14.305
  185DOPC  H11Y22808   7.207   6.955  14.360
  185DOPC  C31222809   7.276   6.763  14.431
  185DOPC  H12X22810   7.302   6.662  14.392
  185DOPC  H12Y22811   7.196   6.748  14.507
  185DOPC  C31322812   7.397   6.826  14.503
  185DOPC  H13X22813   7.488   6.818  14.440
  185DOPC  H13Y22814   7.375   6.934  14.516
  185DOPC  C31422815   7.420   6.765  14.642
  185DOPC  H14X22816   7.321   6.742  14.686
  185DOPC  H14Y22817   7.476   6.669  14.631
  185DOPC  C31522818   7.495   6.858  14.738
  185DOPC  H15X22819   7.441   6.955  14.743
  185DOPC  H15Y22820   7.597   6.878  14.696
  185DOPC  C31622821   7.509   6.802  14.880
  185DOPC  H16X22822   7.567   6.707  14.877
  185DOPC  H16Y22823   7.567   6.875  14.941
  185DOPC  C31722824   7.375   6.776  14.951
  185DOPC  H17X22825   7.314   6.869  14.946
  185DOPC  H17Y22826   7.320   6.697  14.898
  185DOPC  C31822827   7.392   6.735  15.098
  185DOPC  H18X22828   7.450   6.641  15.105
  185DOPC  H18Y22829   7.445   6.814  15.155
  185DOPC  H18Z22830   7.292   6.719  15.145
  186DOPC     N22831   0.483   3.240  12.906
  186DOPC   C1222832   0.421   3.371  12.858
  186DOPC  H12A22833   0.338   3.347  12.794
  186DOPC  H12B22834   0.494   3.425  12.799
  186DOPC   C1322835   0.375   3.157  12.970
  186DOPC  H13A22836   0.414   3.068  13.016
  186DOPC  H13B22837   0.325   3.217  13.045
  186DOPC  H13C22838   0.300   3.129  12.897
  186DOPC   C1422839   0.591   3.267  13.005
  186DOPC  H14A22840   0.668   3.329  12.962
  186DOPC  H14B22841   0.549   3.320  13.089
  186DOPC  H14C22842   0.635   3.176  13.041
  186DOPC   C1522843   0.537   3.163  12.789
  186DOPC  H15A22844   0.580   3.069  12.819
  186DOPC  H15B22845   0.614   3.219  12.737
  186DOPC  H15C22846   0.458   3.140  12.719
  186DOPC   C1122847   0.369   3.468  12.967
  186DOPC  H11A22848   0.454   3.505  13.028
  186DOPC  H11B22849   0.324   3.555  12.915
  186DOPC     P22850   0.198   3.485  13.161
  186DOPC   O1322851   0.092   3.562  13.092
  186DOPC   O1422852   0.298   3.563  13.236
  186DOPC   O1222853   0.272   3.403  13.049
  186DOPC   O1122854   0.135   3.371  13.249
  186DOPC    C122855   0.083   3.249  13.195
  186DOPC    HA22856   0.159   3.170  13.207
  186DOPC    HB22857   0.060   3.257  13.086
  186DOPC    C222858   8.400   3.201  13.267
  186DOPC    HS22859   8.314   3.236  13.206
  186DOPC   O2122860   8.395   3.255  13.400
  186DOPC   C2122861   8.352   3.381  13.406
  186DOPC   O2222862   8.294   3.440  13.316
  186DOPC   C2222863   8.376   3.438  13.546
  186DOPC   H2R22864   8.342   3.361  13.618
  186DOPC   H2S22865   8.312   3.528  13.559
  186DOPC    C322866   8.388   3.045  13.272
  186DOPC    HX22867   8.370   3.009  13.168
  186DOPC    HY22868   8.297   3.023  13.332
  186DOPC   O3122869   0.057   2.979  13.323
  186DOPC   C3122870   0.039   2.861  13.382
  186DOPC   O3222871   8.379   2.810  13.406
  186DOPC   C3222872   0.175   2.795  13.409
  186DOPC   H2X22873   0.183   2.706  13.343
  186DOPC   H2Y22874   0.253   2.867  13.376
  186DOPC   C2322875   0.076   3.474  13.574
  186DOPC   H3R22876   0.100   3.573  13.529
  186DOPC   H3S22877   0.143   3.400  13.526
  186DOPC   C2422878   0.106   3.474  13.725
  186DOPC   H4R22879   0.074   3.377  13.767
  186DOPC   H4S22880   0.045   3.552  13.775
  186DOPC   C2522881   0.254   3.494  13.758
  186DOPC   H5R22882   0.286   3.596  13.729
  186DOPC   H5S22883   0.313   3.422  13.696
  186DOPC   C2622884   0.288   3.468  13.906
  186DOPC   H6R22885   0.399   3.466  13.917
  186DOPC   H6S22886   0.250   3.368  13.935
  186DOPC   C2722887   0.232   3.574  14.001
  186DOPC   H7R22888   0.122   3.577  13.991
  186DOPC   H7S22889   0.272   3.673  13.969
  186DOPC   C2822890   0.270   3.550  14.149
  186DOPC   H8R22891   0.381   3.548  14.156
  186DOPC   H8S22892   0.233   3.449  14.177
  186DOPC   C2922893   0.214   3.658  14.238
  186DOPC   H9R22894   0.215   3.759  14.195
  186DOPC  C21022895   0.165   3.641  14.363
  186DOPC  H10R22896   0.127   3.729  14.417
  186DOPC  C21122897   0.156   3.511  14.439
  186DOPC  H11R22898   0.234   3.440  14.403
  186DOPC  H11S22899   0.058   3.462  14.422
  186DOPC  C21222900   0.178   3.529  14.591
  186DOPC  H12R22901   0.273   3.584  14.608
  186DOPC  H12S22902   0.192   3.428  14.636
  186DOPC  C21322903   0.065   3.601  14.666
  186DOPC  H13R22904   0.049   3.701  14.622
  186DOPC  H13S22905   0.097   3.616  14.771
  186DOPC  C21422906   8.378   3.527  14.668
  186DOPC  H14R22907   8.339   3.520  14.564
  186DOPC  H14S22908   8.305   3.590  14.725
  186DOPC  C21522909   8.380   3.386  14.730
  186DOPC  H15R22910   8.432   3.318  14.660
  186DOPC  H15S22911   8.275   3.350  14.738
  186DOPC  C21622912   8.448   3.376  14.868
  186DOPC  H16R22913   0.107   3.402  14.858
  186DOPC  H16S22914   8.442   3.271  14.902
  186DOPC  C21722915   8.386   3.465  14.977
  186DOPC  H17R22916   8.280   3.435  14.992
  186DOPC  H17S22917   8.386   3.571  14.941
  186DOPC  C21822918   0.013   3.458  15.109
  186DOPC  H18R22919   8.417   3.527  15.184
  186DOPC  H18S22920   0.120   3.487  15.095
  186DOPC  H18T22921   0.011   3.355  15.150
  186DOPC   C3322922   0.206   2.756  13.556
  186DOPC   H3X22923   0.156   2.660  13.581
  186DOPC   H3Y22924   0.169   2.834  13.625
  186DOPC   C3422925   0.359   2.743  13.577
  186DOPC   H4X22926   0.406   2.841  13.555
  186DOPC   H4Y22927   0.397   2.673  13.500
  186DOPC   C3522928   0.409   2.695  13.714
  186DOPC   H5X22929   0.520   2.702  13.711
  186DOPC   H5Y22930   0.385   2.588  13.729
  186DOPC   C3622931   0.361   2.774  13.837
  186DOPC   H6X22932   0.438   2.763  13.916
  186DOPC   H6Y22933   0.352   2.882  13.814
  186DOPC   C3722934   0.229   2.719  13.894
  186DOPC   H7X22935   0.147   2.740  13.822
  186DOPC   H7Y22936   0.238   2.609  13.904
  186DOPC   C3822937   0.195   2.778  14.032
  186DOPC   H8X22938   0.204   2.888  14.025
  186DOPC   H8Y22939   0.272   2.744  14.104
  186DOPC   C3922940   0.055   2.739  14.073
  186DOPC   H9X22941   8.426   2.765  14.000
  186DOPC  C31022942   0.018   2.677  14.187
  186DOPC  H10X22943   8.360   2.655  14.202
  186DOPC  C31122944   0.107   2.632  14.300
  186DOPC  H11X22945   0.209   2.676  14.294
  186DOPC  H11Y22946   0.120   2.521  14.293
  186DOPC  C31222947   0.048   2.665  14.438
  186DOPC  H12X22948   0.106   2.608  14.514
  186DOPC  H12Y22949   8.391   2.630  14.444
  186DOPC  C31322950   0.054   2.813  14.476
  186DOPC  H13X22951   0.160   2.846  14.465
  186DOPC  H13Y22952   8.442   2.874  14.405
  186DOPC  C31422953   0.006   2.838  14.619
  186DOPC  H14X22954   8.344   2.822  14.623
  186DOPC  H14Y22955   0.052   2.762  14.686
  186DOPC  C31522956   0.040   2.977  14.674
  186DOPC  H15X22957   8.438   2.990  14.773
  186DOPC  H15Y22958   8.448   3.055  14.606
  186DOPC  C31622959   0.191   2.998  14.694
  186DOPC  H16X22960   0.231   2.915  14.755
  186DOPC  H16Y22961   0.241   2.994  14.595
  186DOPC  C31722962   0.226   3.131  14.760
  186DOPC  H17X22963   0.181   3.213  14.701
  186DOPC  H17Y22964   0.181   3.134  14.862
  186DOPC  C31822965   0.377   3.154  14.770
  186DOPC  H18X22966   0.426   3.070  14.824
  186DOPC  H18Y22967   0.422   3.162  14.669
  186DOPC  H18Z22968   0.397   3.248  14.826
  187DOPC     N22969   6.267   1.251  12.928
  187DOPC   C1222970   6.403   1.305  12.972
  187DOPC  H12A22971   6.423   1.399  12.923
  187DOPC  H12B22972   6.480   1.237  12.939
  187DOPC   C1322973   6.160   1.354  12.941
  187DOPC  H13A22974   6.180   1.442  12.881
  187DOPC  H13B22975   6.065   1.316  12.907
  187DOPC  H13C22976   6.148   1.383  13.044
  187DOPC   C1422977   6.231   1.132  13.012
  187DOPC  H14A22978   6.305   1.054  12.999
  187DOPC  H14B22979   6.238   1.158  13.117
  187DOPC  H14C22980   6.133   1.093  12.989
  187DOPC   C1522981   6.275   1.204  12.785
  187DOPC  H15A22982   6.305   1.282  12.718
  187DOPC  H15B22983   6.178   1.167  12.753
  187DOPC  H15C22984   6.344   1.121  12.777
  187DOPC   C1122985   6.428   1.321  13.125
  187DOPC  H11A22986   6.517   1.385  13.141
  187DOPC  H11B22987   6.341   1.372  13.172
  187DOPC     P22988   6.565   1.101  13.133
  187DOPC   O1322989   6.658   1.186  13.056
  187DOPC   O1422990   6.500   0.992  13.057
  187DOPC   O1222991   6.448   1.194  13.188
  187DOPC   O1122992   6.634   1.046  13.264
  187DOPC    C122993   6.581   0.929  13.328
  187DOPC    HA22994   6.608   0.838  13.271
  187DOPC    HB22995   6.470   0.933  13.335
  187DOPC    C222996   6.636   0.913  13.473
  187DOPC    HS22997   6.586   0.827  13.520
  187DOPC   O2122998   6.616   1.034  13.550
  187DOPC   C2122999   6.493   1.051  13.593
  187DOPC   O2223000   6.400   0.973  13.582
  187DOPC   C2223001   6.486   1.187  13.664
  187DOPC   H2R23002   6.494   1.264  13.585
  187DOPC   H2S23003   6.575   1.196  13.731
  187DOPC    C323004   6.788   0.881  13.473
  187DOPC    HX23005   6.839   0.960  13.414
  187DOPC    HY23006   6.805   0.783  13.423
  187DOPC   O3123007   6.835   0.877  13.610
  187DOPC   C3123008   6.961   0.909  13.630
  187DOPC   O3223009   7.049   0.914  13.546
  187DOPC   C3223010   6.975   0.951  13.777
  187DOPC   H2X23011   6.935   1.054  13.783
  187DOPC   H2Y23012   6.909   0.885  13.837
  187DOPC   C2323013   6.355   1.208  13.744
  187DOPC   H3R23014   6.268   1.182  13.680
  187DOPC   H3S23015   6.346   1.316  13.769
  187DOPC   C2423016   6.347   1.129  13.875
  187DOPC   H4R23017   6.362   1.021  13.854
  187DOPC   H4S23018   6.244   1.140  13.915
  187DOPC   C2523019   6.445   1.176  13.984
  187DOPC   H5R23020   6.440   1.287  13.989
  187DOPC   H5S23021   6.549   1.148  13.956
  187DOPC   C2623022   6.413   1.120  14.124
  187DOPC   H6R23023   6.306   1.142  14.147
  187DOPC   H6S23024   6.474   1.176  14.198
  187DOPC   C2723025   6.438   0.969  14.140
  187DOPC   H7R23026   6.465   0.927  14.041
  187DOPC   H7S23027   6.344   0.920  14.172
  187DOPC   C2823028   6.550   0.932  14.240
  187DOPC   H8R23029   6.644   0.981  14.206
  187DOPC   H8S23030   6.568   0.823  14.231
  187DOPC   C2923031   6.519   0.972  14.382
  187DOPC   H9R23032   6.506   1.080  14.396
  187DOPC  C21023033   6.503   0.892  14.489
  187DOPC  H10R23034   6.481   0.940  14.586
  187DOPC  C21123035   6.513   0.742  14.496
  187DOPC  H11R23036   6.507   0.695  14.395
  187DOPC  H11S23037   6.426   0.703  14.553
  187DOPC  C21223038   6.641   0.691  14.565
  187DOPC  H12R23039   6.728   0.708  14.499
  187DOPC  H12S23040   6.632   0.581  14.579
  187DOPC  C21323041   6.670   0.755  14.702
  187DOPC  H13R23042   6.580   0.748  14.767
  187DOPC  H13S23043   6.690   0.863  14.685
  187DOPC  C21423044   6.790   0.693  14.773
  187DOPC  H14R23045   6.869   0.669  14.699
  187DOPC  H14S23046   6.758   0.597  14.819
  187DOPC  C21523047   6.850   0.785  14.880
  187DOPC  H15R23048   6.913   0.726  14.950
  187DOPC  H15S23049   6.767   0.830  14.940
  187DOPC  C21623050   6.936   0.896  14.819
  187DOPC  H16R23051   6.882   0.943  14.734
  187DOPC  H16S23052   7.029   0.851  14.779
  187DOPC  C21723053   6.973   1.007  14.919
  187DOPC  H17R23054   7.026   0.961  15.004
  187DOPC  H17S23055   6.879   1.052  14.957
  187DOPC  C21823056   7.060   1.117  14.857
  187DOPC  H18R23057   7.080   1.197  14.931
  187DOPC  H18S23058   7.009   1.163  14.770
  187DOPC  H18T23059   7.157   1.075  14.823
  187DOPC   C3323060   7.120   0.947  13.831
  187DOPC   H3X23061   7.186   1.012  13.770
  187DOPC   H3Y23062   7.158   0.843  13.823
  187DOPC   C3423063   7.126   0.991  13.978
  187DOPC   H4X23064   7.224   0.962  14.023
  187DOPC   H4Y23065   7.047   0.938  14.036
  187DOPC   C3523066   7.107   1.142  13.996
  187DOPC   H5X23067   7.010   1.170  13.948
  187DOPC   H5Y23068   7.187   1.197  13.943
  187DOPC   C3623069   7.104   1.184  14.144
  187DOPC   H6X23070   7.037   1.115  14.199
  187DOPC   H6Y23071   7.206   1.172  14.186
  187DOPC   C3723072   7.055   1.328  14.167
  187DOPC   H7X23073   7.059   1.350  14.276
  187DOPC   H7Y23074   7.126   1.398  14.117
  187DOPC   C3823075   6.913   1.358  14.116
  187DOPC   H8X23076   6.910   1.349  14.005
  187DOPC   H8Y23077   6.891   1.465  14.137
  187DOPC   C3923078   6.809   1.268  14.178
  187DOPC   H9X23079   6.799   1.170  14.129
  187DOPC  C31023080   6.731   1.295  14.284
  187DOPC  H10X23081   6.660   1.218  14.319
  187DOPC  C31123082   6.730   1.422  14.366
  187DOPC  H11X23083   6.630   1.470  14.362
  187DOPC  H11Y23084   6.803   1.496  14.327
  187DOPC  C31223085   6.767   1.398  14.514
  187DOPC  H12X23086   6.782   1.498  14.561
  187DOPC  H12Y23087   6.864   1.344  14.520
  187DOPC  C31323088   6.660   1.323  14.594
  187DOPC  H13X23089   6.564   1.379  14.589
  187DOPC  H13Y23090   6.644   1.223  14.548
  187DOPC  C31423091   6.699   1.302  14.742
  187DOPC  H14X23092   6.620   1.240  14.789
  187DOPC  H14Y23093   6.794   1.246  14.747
  187DOPC  C31523094   6.711   1.432  14.823
  187DOPC  H15X23095   6.614   1.486  14.817
  187DOPC  H15Y23096   6.790   1.497  14.780
  187DOPC  C31623097   6.745   1.404  14.971
  187DOPC  H16X23098   6.671   1.332  15.012
  187DOPC  H16Y23099   6.845   1.356  14.975
  187DOPC  C31723100   6.745   1.530  15.059
  187DOPC  H17X23101   6.786   1.502  15.159
  187DOPC  H17Y23102   6.815   1.605  15.015
  187DOPC  C31823103   6.607   1.593  15.078
  187DOPC  H18X23104   6.612   1.676  15.151
  187DOPC  H18Y23105   6.568   1.633  14.982
  187DOPC  H18Z23106   6.535   1.518  15.116
  188DOPC     N23107   1.559   0.889  12.840
  188DOPC   C1223108   1.471   0.843  12.955
  188DOPC  H12A23109   1.489   0.738  12.974
  188DOPC  H12B23110   1.368   0.855  12.928
  188DOPC   C1323111   1.701   0.903  12.888
  188DOPC  H13A23112   1.739   0.810  12.927
  188DOPC  H13B23113   1.766   0.939  12.809
  188DOPC  H13C23114   1.705   0.975  12.968
  188DOPC   C1423115   1.512   1.025  12.796
  188DOPC  H14A23116   1.419   1.021  12.743
  188DOPC  H14B23117   1.498   1.086  12.884
  188DOPC  H14C23118   1.585   1.075  12.734
  188DOPC   C1523119   1.553   0.797  12.723
  188DOPC  H15A23120   1.587   0.697  12.747
  188DOPC  H15B23121   1.618   0.833  12.644
  188DOPC  H15C23122   1.453   0.791  12.683
  188DOPC   C1123123   1.489   0.915  13.091
  188DOPC  H11A23124   1.415   0.875  13.163
  188DOPC  H11B23125   1.589   0.889  13.132
  188DOPC     P23126   1.572   1.159  13.142
  188DOPC   O1323127   1.533   1.293  13.091
  188DOPC   O1423128   1.708   1.113  13.106
  188DOPC   O1223129   1.469   1.056  13.078
  188DOPC   O1123130   1.547   1.144  13.298
  188DOPC    C123131   1.415   1.126  13.350
  188DOPC    HA23132   1.356   1.052  13.292
  188DOPC    HB23133   1.360   1.222  13.345
  188DOPC    C223134   1.409   1.076  13.499
  188DOPC    HS23135   1.302   1.075  13.529
  188DOPC   O2123136   1.486   1.164  13.585
  188DOPC   C2123137   1.426   1.277  13.614
  188DOPC   O2223138   1.310   1.305  13.587
  188DOPC   C2223139   1.520   1.369  13.690
  188DOPC   H2R23140   1.480   1.472  13.678
  188DOPC   H2S23141   1.621   1.365  13.642
  188DOPC    C323142   1.460   0.930  13.520
  188DOPC    HX23143   1.414   0.865  13.442
  188DOPC    HY23144   1.420   0.896  13.618
  188DOPC   O3123145   1.603   0.921  13.526
  188DOPC   C3123146   1.666   0.848  13.436
  188DOPC   O3223147   1.612   0.779  13.351
  188DOPC   C3223148   1.818   0.863  13.451
  188DOPC   H2X23149   1.862   0.774  13.402
  188DOPC   H2Y23150   1.848   0.954  13.395
  188DOPC   C2323151   1.530   1.335  13.841
  188DOPC   H3R23152   1.431   1.305  13.881
  188DOPC   H3S23153   1.562   1.426  13.896
  188DOPC   C2423154   1.634   1.225  13.867
  188DOPC   H4R23155   1.731   1.261  13.828
  188DOPC   H4S23156   1.607   1.135  13.807
  188DOPC   C2523157   1.652   1.188  14.015
  188DOPC   H5R23158   1.650   1.280  14.077
  188DOPC   H5S23159   1.753   1.143  14.026
  188DOPC   C2623160   1.551   1.086  14.070
  188DOPC   H6R23161   1.450   1.133  14.078
  188DOPC   H6S23162   1.583   1.059  14.173
  188DOPC   C2723163   1.539   0.957  13.986
  188DOPC   H7R23164   1.634   0.939  13.932
  188DOPC   H7S23165   1.461   0.974  13.908
  188DOPC   C2823166   1.501   0.833  14.069
  188DOPC   H8R23167   1.453   0.759  14.001
  188DOPC   H8S23168   1.424   0.861  14.144
  188DOPC   C2923169   1.622   0.769  14.133
  188DOPC   H9R23170   1.692   0.723  14.061
  188DOPC  C21023171   1.651   0.764  14.264
  188DOPC  H10R23172   1.745   0.715  14.294
  188DOPC  C21123173   1.573   0.821  14.380
  188DOPC  H11R23174   1.501   0.899  14.348
  188DOPC  H11S23175   1.644   0.869  14.450
  188DOPC  C21223176   1.497   0.711  14.456
  188DOPC  H12R23177   1.555   0.616  14.455
  188DOPC  H12S23178   1.400   0.691  14.405
  188DOPC  C21323179   1.471   0.747  14.603
  188DOPC  H13R23180   1.406   0.837  14.608
  188DOPC  H13S23181   1.568   0.772  14.652
  188DOPC  C21423182   1.406   0.630  14.678
  188DOPC  H14R23183   1.473   0.541  14.671
  188DOPC  H14S23184   1.310   0.604  14.629
  188DOPC  C21523185   1.380   0.660  14.827
  188DOPC  H15R23186   1.319   0.753  14.833
  188DOPC  H15S23187   1.476   0.679  14.879
  188DOPC  C21623188   1.303   0.547  14.897
  188DOPC  H16R23189   1.218   0.515  14.833
  188DOPC  H16S23190   1.261   0.586  14.992
  188DOPC  C21723191   1.389   0.424  14.927
  188DOPC  H17R23192   1.479   0.455  14.985
  188DOPC  H17S23193   1.426   0.381  14.832
  188DOPC  C21823194   1.314   0.316  15.005
  188DOPC  H18R23195   1.380   0.229  15.024
  188DOPC  H18S23196   1.226   0.281  14.947
  188DOPC  H18T23197   1.278   0.355  15.103
  188DOPC   C3323198   1.873   0.871  13.597
  188DOPC   H3X23199   1.983   0.859  13.591
  188DOPC   H3Y23200   1.834   0.788  13.659
  188DOPC   C3423201   1.845   1.006  13.666
  188DOPC   H4X23202   1.748   1.001  13.718
  188DOPC   H4Y23203   1.835   1.083  13.586
  188DOPC   C3523204   1.956   1.055  13.761
  188DOPC   H5X23205   1.934   1.161  13.786
  188DOPC   H5Y23206   2.053   1.052  13.708
  188DOPC   C3623207   1.967   0.978  13.894
  188DOPC   H6X23208   1.865   0.965  13.937
  188DOPC   H6Y23209   2.008   0.876  13.875
  188DOPC   C3723210   2.056   1.053  13.995
  188DOPC   H7X23211   2.157   1.065  13.949
  188DOPC   H7Y23212   2.014   1.155  14.010
  188DOPC   C3823213   2.074   0.985  14.132
  188DOPC   H8X23214   2.143   1.048  14.193
  188DOPC   H8Y23215   2.124   0.888  14.117
  188DOPC   C3923216   1.943   0.965  14.204
  188DOPC   H9X23217   1.889   0.874  14.173
  188DOPC  C31023218   1.885   1.045  14.296
  188DOPC  H10X23219   1.787   1.015  14.336
  188DOPC  C31123220   1.938   1.176  14.350
  188DOPC  H11X23221   1.863   1.256  14.333
  188DOPC  H11Y23222   2.029   1.207  14.294
  188DOPC  C31223223   1.975   1.174  14.500
  188DOPC  H12X23224   2.047   1.258  14.516
  188DOPC  H12Y23225   2.028   1.080  14.525
  188DOPC  C31323226   1.859   1.197  14.598
  188DOPC  H13X23227   1.904   1.215  14.698
  188DOPC  H13Y23228   1.804   1.290  14.571
  188DOPC  C31423229   1.759   1.080  14.610
  188DOPC  H14X23230   1.693   1.083  14.521
  188DOPC  H14Y23231   1.816   0.984  14.608
  188DOPC  C31523232   1.672   1.084  14.736
  188DOPC  H15X23233   1.590   1.010  14.725
  188DOPC  H15Y23234   1.625   1.185  14.745
  188DOPC  C31623235   1.750   1.051  14.865
  188DOPC  H16X23236   1.798   0.952  14.853
  188DOPC  H16Y23237   1.830   1.127  14.879
  188DOPC  C31723238   1.662   1.050  14.990
  188DOPC  H17X23239   1.614   1.150  15.002
  188DOPC  H17Y23240   1.581   0.975  14.977
  188DOPC  C31823241   1.741   1.017  15.117
  188DOPC  H18X23242   1.675   1.018  15.206
  188DOPC  H18Y23243   1.788   0.917  15.109
  188DOPC  H18Z23244   1.823   1.091  15.133
  189DOPC     N23245   4.013   0.241  12.981
  189DOPC   C1223246   3.941   0.148  13.078
  189DOPC  H12A23247   4.013   0.087  13.130
  189DOPC  H12B23248   3.878   0.080  13.022
  189DOPC   C1323249   4.092   0.165  12.880
  189DOPC  H13A23250   4.030   0.095  12.826
  189DOPC  H13B23251   4.134   0.232  12.807
  189DOPC  H13C23252   4.174   0.109  12.924
  189DOPC   C1423253   4.103   0.334  13.056
  189DOPC  H14A23254   4.046   0.391  13.128
  189DOPC  H14B23255   4.182   0.281  13.108
  189DOPC  H14C23256   4.149   0.406  12.990
  189DOPC   C1523257   3.912   0.324  12.908
  189DOPC  H15A23258   3.848   0.261  12.848
  189DOPC  H15B23259   3.958   0.397  12.844
  189DOPC  H15C23260   3.846   0.372  12.979
  189DOPC   C1123261   3.845   0.214  13.181
  189DOPC  H11A23262   3.818   0.140  13.258
  189DOPC  H11B23263   3.897   0.297  13.234
  189DOPC     P23264   3.612   0.167  13.078
  189DOPC   O1323265   3.673   0.044  13.023
  189DOPC   O1423266   3.517   0.236  12.989
  189DOPC   O1223267   3.730   0.266  13.115
  189DOPC   O1123268   3.546   0.142  13.219
  189DOPC    C123269   3.497   0.256  13.292
  189DOPC    HA23270   3.393   0.277  13.261
  189DOPC    HB23271   3.556   0.348  13.273
  189DOPC    C223272   3.497   0.231  13.445
  189DOPC    HS23273   3.450   0.318  13.496
  189DOPC   O2123274   3.631   0.209  13.495
  189DOPC   C2123275   3.704   0.319  13.508
  189DOPC   O2223276   3.669   0.432  13.482
  189DOPC   C2223277   3.842   0.277  13.562
  189DOPC   H2R23278   3.889   0.215  13.483
  189DOPC   H2S23279   3.827   0.214  13.651
  189DOPC    C323280   3.411   0.107  13.481
  189DOPC    HX23281   3.454   0.019  13.428
  189DOPC    HY23282   3.309   0.124  13.441
  189DOPC   O3123283   3.415   0.084  13.624
  189DOPC   C3123284   3.301   0.060  13.685
  189DOPC   O3223285   3.191   0.050  13.634
  189DOPC   C3223286   3.331   0.049  13.835
  189DOPC   H2X23287   3.419   8.430  13.845
  189DOPC   H2Y23288   3.360   0.150  13.870
  189DOPC   C2323289   3.935   0.397  13.594
  189DOPC   H3R23290   3.923   0.476  13.517
  189DOPC   H3S23291   4.040   0.362  13.589
  189DOPC   C2423292   3.913   0.457  13.734
  189DOPC   H4R23293   3.805   0.481  13.749
  189DOPC   H4S23294   3.968   0.554  13.739
  189DOPC   C2523295   3.964   0.369  13.849
  189DOPC   H5R23296   4.062   0.327  13.820
  189DOPC   H5S23297   3.894   0.283  13.864
  189DOPC   C2623298   3.983   0.445  13.982
  189DOPC   H6R23299   4.052   0.530  13.963
  189DOPC   H6S23300   4.034   0.378  14.055
  189DOPC   C2723301   3.854   0.500  14.045
  189DOPC   H7R23302   3.802   0.562  13.969
  189DOPC   H7S23303   3.882   0.568  14.129
  189DOPC   C2823304   3.755   0.394  14.098
  189DOPC   H8R23305   3.723   0.331  14.013
  189DOPC   H8S23306   3.664   0.448  14.132
  189DOPC   C2923307   3.812   0.308  14.209
  189DOPC   H9R23308   3.875   0.225  14.173
  189DOPC  C21023309   3.793   0.324  14.341
  189DOPC  H10R23310   3.840   0.252  14.410
  189DOPC  C21123311   3.713   0.432  14.409
  189DOPC  H11R23312   3.701   0.521  14.342
  189DOPC  H11S23313   3.767   0.469  14.499
  189DOPC  C21223314   3.572   0.387  14.452
  189DOPC  H12R23315   3.513   0.358  14.362
  189DOPC  H12S23316   3.521   0.475  14.498
  189DOPC  C21323317   3.570   0.271  14.553
  189DOPC  H13R23318   3.639   0.294  14.637
  189DOPC  H13S23319   3.606   0.179  14.503
  189DOPC  C21423320   3.429   0.248  14.610
  189DOPC  H14R23321   3.358   0.232  14.526
  189DOPC  H14S23322   3.397   0.341  14.663
  189DOPC  C21523323   3.418   0.130  14.707
  189DOPC  H15R23324   3.318   0.133  14.755
  189DOPC  H15S23325   3.494   0.140  14.788
  189DOPC  C21623326   3.434   8.442  14.639
  189DOPC  H16R23327   3.538   8.431  14.601
  189DOPC  H16S23328   3.366   8.438  14.551
  189DOPC  C21723329   3.401   8.324  14.731
  189DOPC  H17R23330   3.299   8.339  14.772
  189DOPC  H17S23331   3.471   8.324  14.817
  189DOPC  C21823332   3.406   8.188  14.661
  189DOPC  H18R23333   3.509   8.166  14.626
  189DOPC  H18S23334   3.339   8.188  14.572
  189DOPC  H18T23335   3.374   8.107  14.729
  189DOPC   C3323336   3.213   8.444  13.920
  189DOPC   H3X23337   3.190   8.340  13.890
  189DOPC   H3Y23338   3.123   0.057  13.899
  189DOPC   C3423339   3.243   0.001  14.071
  189DOPC   H4X23340   3.152   8.417  14.126
  189DOPC   H4Y23341   3.264   0.106  14.099
  189DOPC   C3523342   3.361   8.361  14.113
  189DOPC   H5X23343   3.451   8.389  14.054
  189DOPC   H5Y23344   3.337   8.255  14.089
  189DOPC   C3623345   3.396   8.373  14.262
  189DOPC   H6X23346   3.435   0.027  14.282
  189DOPC   H6Y23347   3.303   8.360  14.321
  189DOPC   C3723348   3.499   8.269  14.310
  189DOPC   H7X23349   3.517   8.282  14.419
  189DOPC   H7Y23350   3.453   8.168  14.296
  189DOPC   C3823351   3.634   8.270  14.236
  189DOPC   H8X23352   3.614   8.264  14.126
  189DOPC   H8Y23353   3.686   8.175  14.262
  189DOPC   C3923354   3.720   8.390  14.264
  189DOPC   H9X23355   3.675   0.038  14.237
  189DOPC  C31023356   3.843   8.388  14.319
  189DOPC  H10X23357   3.894   0.035  14.337
  189DOPC  C31123358   3.919   8.265  14.364
  189DOPC  H11X23359   4.027   8.288  14.369
  189DOPC  H11Y23360   3.907   8.182  14.291
  189DOPC  C31223361   3.873   8.215  14.503
  189DOPC  H12X23362   3.933   8.126  14.531
  189DOPC  H12Y23363   3.766   8.183  14.496
  189DOPC  C31323364   3.885   8.322  14.613
  189DOPC  H13X23365   3.991   8.352  14.624
  189DOPC  H13Y23366   3.827   8.412  14.582
  189DOPC  C31423367   3.830   8.276  14.748
  189DOPC  H14X23368   3.730   8.231  14.734
  189DOPC  H14Y23369   3.897   8.199  14.792
  189DOPC  C31523370   3.816   8.395  14.843
  189DOPC  H15X23371   3.748   0.021  14.796
  189DOPC  H15Y23372   3.916   8.444  14.855
  189DOPC  C31623373   3.763   8.359  14.982
  189DOPC  H16X23374   3.660   8.317  14.972
  189DOPC  H16Y23375   3.827   8.279  15.026
  189DOPC  C31723376   3.761   0.031  15.077
  189DOPC  H17X23377   3.735   8.443  15.179
  189DOPC  H17Y23378   3.863   0.074  15.082
  189DOPC  C31823379   3.662   0.141  15.036
  189DOPC  H18X23380   3.559   0.100  15.028
  189DOPC  H18Y23381   3.662   0.223  15.111
  189DOPC  H18Z23382   3.690   0.184  14.938
  190DOPC     N23383   2.264   7.899  13.154
  190DOPC   C1223384   2.410   7.900  13.109
  190DOPC  H12A23385   2.465   7.826  13.165
  190DOPC  H12B23386   2.451   7.996  13.134
  190DOPC   C1323387   2.197   7.768  13.130
  190DOPC  H13A23388   2.092   7.775  13.157
  190DOPC  H13B23389   2.200   7.743  13.025
  190DOPC  H13C23390   2.242   7.688  13.187
  190DOPC   C1423391   2.189   8.004  13.078
  190DOPC  H14A23392   2.237   8.100  13.090
  190DOPC  H14B23393   2.191   7.981  12.973
  190DOPC  H14C23394   2.086   8.009  13.111
  190DOPC   C1523395   2.252   7.936  13.299
  190DOPC  H15A23396   2.302   7.865  13.363
  190DOPC  H15B23397   2.147   7.939  13.326
  190DOPC  H15C23398   2.291   8.035  13.317
  190DOPC   C1123399   2.438   7.879  12.957
  190DOPC  H11A23400   2.546   7.856  12.944
  190DOPC  H11B23401   2.383   7.790  12.922
  190DOPC     P23402   2.485   8.126  12.889
  190DOPC   O1323403   2.435   8.222  12.788
  190DOPC   O1423404   2.630   8.095  12.884
  190DOPC   O1223405   2.400   7.992  12.878
  190DOPC   O1123406   2.446   8.175  13.035
  190DOPC    C123407   2.437   8.314  13.065
  190DOPC    HA23408   2.354   8.362  13.008
  190DOPC    HB23409   2.531   8.366  13.037
  190DOPC    C223410   2.413   8.341  13.217
  190DOPC    HS23411   2.426   0.001  13.236
  190DOPC   O2123412   2.504   8.263  13.297
  190DOPC   C2123413   2.624   8.319  13.308
  190DOPC   O2223414   2.669   8.407  13.237
  190DOPC   C2223415   2.691   8.263  13.433
  190DOPC   H2R23416   2.710   8.154  13.417
  190DOPC   H2S23417   2.619   8.274  13.516
  190DOPC    C323418   2.265   8.309  13.260
  190DOPC    HX23419   2.216   8.257  13.175
  190DOPC    HY23420   2.212   8.406  13.269
  190DOPC   O3123421   2.249   8.230  13.380
  190DOPC   C3123422   2.272   8.295  13.494
  190DOPC   O3223423   2.324   8.405  13.504
  190DOPC   C3223424   2.224   8.209  13.611
  190DOPC   H2X23425   2.114   8.198  13.601
  190DOPC   H2Y23426   2.271   8.109  13.604
  190DOPC   C2323427   2.822   8.337  13.468
  190DOPC   H3R23428   2.807   8.447  13.461
  190DOPC   H3S23429   2.901   8.309  13.395
  190DOPC   C2423430   2.870   8.305  13.610
  190DOPC   H4R23431   2.978   8.326  13.617
  190DOPC   H4S23432   2.855   8.196  13.630
  190DOPC   C2523433   2.798   8.387  13.718
  190DOPC   H5R23434   2.688   8.384  13.703
  190DOPC   H5S23435   2.830   0.045  13.707
  190DOPC   C2623436   2.832   8.338  13.859
  190DOPC   H6R23437   2.941   8.316  13.862
  190DOPC   H6S23438   2.778   8.243  13.878
  190DOPC   C2723439   2.802   8.438  13.970
  190DOPC   H7R23440   2.869   0.077  13.955
  190DOPC   H7S23441   2.830   8.393  14.068
  190DOPC   C2823442   2.657   0.042  13.977
  190DOPC   H8R23443   2.637   0.102  13.885
  190DOPC   H8S23444   2.651   0.113  14.062
  190DOPC   C2923445   2.549   8.387  13.993
  190DOPC   H9R23446   2.493   8.364  13.901
  190DOPC  C21023447   2.516   8.323  14.106
  190DOPC  H10R23448   2.431   8.254  14.106
  190DOPC  C21123449   2.582   8.342  14.240
  190DOPC  H11R23450   2.689   8.372  14.228
  190DOPC  H11S23451   2.584   8.246  14.296
  190DOPC  C21223452   2.516   0.001  14.328
  190DOPC  H12R23453   2.506   0.096  14.272
  190DOPC  H12S23454   2.583   0.020  14.414
  190DOPC  C21323455   2.379   8.408  14.384
  190DOPC  H13R23456   2.389   8.310  14.434
  190DOPC  H13S23457   2.306   8.397  14.301
  190DOPC  C21423458   2.327   0.061  14.486
  190DOPC  H14R23459   2.310   0.159  14.436
  190DOPC  H14S23460   2.404   0.077  14.564
  190DOPC  C21523461   2.197   0.015  14.554
  190DOPC  H15R23462   2.216   8.365  14.602
  190DOPC  H15S23463   2.118   0.001  14.478
  190DOPC  C21623464   2.150   0.116  14.659
  190DOPC  H16R23465   2.129   0.213  14.609
  190DOPC  H16S23466   2.233   0.134  14.732
  190DOPC  C21723467   2.025   0.072  14.736
  190DOPC  H17R23468   1.943   0.053  14.664
  190DOPC  H17S23469   1.993   0.157  14.801
  190DOPC  C21823470   2.045   8.397  14.824
  190DOPC  H18R23471   2.132   8.411  14.892
  190DOPC  H18S23472   2.064   8.308  14.761
  190DOPC  H18T23473   1.955   8.378  14.886
  190DOPC   C3323474   2.259   8.274  13.747
  190DOPC   H3X23475   2.218   8.377  13.751
  190DOPC   H3Y23476   2.369   8.282  13.755
  190DOPC   C3423477   2.206   8.199  13.871
  190DOPC   H4X23478   2.244   8.253  13.960
  190DOPC   H4Y23479   2.247   8.096  13.875
  190DOPC   C3523480   2.052   8.195  13.880
  190DOPC   H5X23481   2.011   8.114  13.816
  190DOPC   H5Y23482   2.014   8.291  13.839
  190DOPC   C3623483   1.999   8.182  14.024
  190DOPC   H6X23484   2.073   8.225  14.096
  190DOPC   H6Y23485   1.907   8.243  14.032
  190DOPC   C3723486   1.963   8.038  14.065
  190DOPC   H7X23487   1.885   8.003  13.995
  190DOPC   H7Y23488   2.052   7.973  14.053
  190DOPC   C3823489   1.914   8.028  14.211
  190DOPC   H8X23490   1.867   8.125  14.237
  190DOPC   H8Y23491   2.002   8.017  14.278
  190DOPC   C3923492   1.813   7.918  14.235
  190DOPC   H9X23493   1.709   7.951  14.236
  190DOPC  C31023494   1.840   7.787  14.252
  190DOPC  H10X23495   1.756   7.718  14.270
  190DOPC  C31123496   1.976   7.723  14.252
  190DOPC  H11X23497   2.053   7.791  14.209
  190DOPC  H11Y23498   1.975   7.633  14.187
  190DOPC  C31223499   2.022   7.682  14.393
  190DOPC  H12X23500   1.946   7.619  14.444
  190DOPC  H12Y23501   2.032   7.775  14.454
  190DOPC  C31323502   2.156   7.607  14.391
  190DOPC  H13X23503   2.145   7.509  14.341
  190DOPC  H13Y23504   2.226   7.668  14.329
  190DOPC  C31423505   2.219   7.590  14.530
  190DOPC  H14X23506   2.175   7.667  14.597
  190DOPC  H14Y23507   2.194   7.491  14.572
  190DOPC  C31523508   2.371   7.613  14.529
  190DOPC  H15X23509   2.393   7.700  14.463
  190DOPC  H15Y23510   2.424   7.525  14.487
  190DOPC  C31623511   2.427   7.648  14.668
  190DOPC  H16X23512   2.362   7.726  14.712
  190DOPC  H16Y23513   2.423   7.559  14.734
  190DOPC  C31723514   2.570   7.705  14.663
  190DOPC  H17X23515   2.640   7.624  14.633
  190DOPC  H17Y23516   2.574   7.783  14.584
  190DOPC  C31823517   2.614   7.767  14.795
  190DOPC  H18X23518   2.612   7.692  14.876
  190DOPC  H18Y23519   2.716   7.808  14.787
  190DOPC  H18Z23520   2.545   7.850  14.823
  191DOPC     N23521   5.503   8.040  13.076
  191DOPC   C1223522   5.468   8.182  13.031
  191DOPC  H12A23523   5.504   8.250  13.107
  191DOPC  H12B23524   5.361   8.192  13.026
  191DOPC   C1323525   5.434   8.008  13.205
  191DOPC  H13A23526   5.326   8.008  13.193
  191DOPC  H13B23527   5.462   7.911  13.241
  191DOPC  H13C23528   5.457   8.082  13.281
  191DOPC   C1423529   5.651   8.030  13.095
  191DOPC  H14A23530   5.699   8.063  13.003
  191DOPC  H14B23531   5.685   8.099  13.171
  191DOPC  H14C23532   5.683   7.930  13.117
  191DOPC   C1523533   5.462   7.941  12.970
  191DOPC  H15A23534   5.356   7.943  12.952
  191DOPC  H15B23535   5.491   7.840  12.997
  191DOPC  H15C23536   5.511   7.964  12.876
  191DOPC   C1123537   5.528   8.232  12.897
  191DOPC  H11A23538   5.499   8.164  12.815
  191DOPC  H11B23539   5.483   8.331  12.872
  191DOPC     P23540   5.743   8.363  12.971
  191DOPC   O1323541   5.727   0.034  12.886
  191DOPC   O1423542   5.879   8.321  13.011
  191DOPC   O1223543   5.671   8.240  12.902
  191DOPC   O1123544   5.656   8.382  13.103
  191DOPC    C123545   5.698   0.032  13.198
  191DOPC    HA23546   5.690   0.134  13.154
  191DOPC    HB23547   5.804   0.017  13.227
  191DOPC    C223548   5.609   0.027  13.325
  191DOPC    HS23549   5.634   0.115  13.388
  191DOPC   O2123550   5.629   8.353  13.397
  191DOPC   C2123551   5.739   8.350  13.471
  191DOPC   O2223552   5.820   8.440  13.483
  191DOPC   C2223553   5.749   8.213  13.540
  191DOPC   H2R23554   5.823   8.153  13.482
  191DOPC   H2S23555   5.651   8.163  13.536
  191DOPC    C323556   5.459   0.040  13.288
  191DOPC    HX23557   5.431   8.405  13.220
  191DOPC    HY23558   5.448   0.134  13.229
  191DOPC   O3123559   5.376   0.048  13.405
  191DOPC   C3123560   5.331   8.380  13.454
  191DOPC   O3223561   5.342   8.271  13.400
  191DOPC   C3223562   5.262   8.409  13.587
  191DOPC   H2X23563   5.327   0.030  13.645
  191DOPC   H2Y23564   5.166   0.013  13.565
  191DOPC   C2323565   5.797   8.225  13.686
  191DOPC   H3R23566   5.891   8.284  13.692
  191DOPC   H3S23567   5.820   8.122  13.724
  191DOPC   C2423568   5.691   8.286  13.780
  191DOPC   H4R23569   5.597   8.228  13.770
  191DOPC   H4S23570   5.671   8.391  13.749
  191DOPC   C2523571   5.736   8.285  13.927
  191DOPC   H5R23572   5.834   8.338  13.934
  191DOPC   H5S23573   5.753   8.180  13.959
  191DOPC   C2623574   5.637   8.351  14.024
  191DOPC   H6R23575   5.626   0.010  13.998
  191DOPC   H6S23576   5.680   8.345  14.127
  191DOPC   C2723577   5.499   8.283  14.026
  191DOPC   H7R23578   5.514   8.173  14.032
  191DOPC   H7S23579   5.447   8.304  13.930
  191DOPC   C2823580   5.410   8.326  14.144
  191DOPC   H8R23581   5.463   8.297  14.238
  191DOPC   H8S23582   5.316   8.266  14.141
  191DOPC   C2923583   5.376   0.024  14.143
  191DOPC   H9R23584   5.350   0.065  14.044
  191DOPC  C21023585   5.375   0.107  14.249
  191DOPC  H10R23586   5.350   0.213  14.234
  191DOPC  C21123587   5.408   0.069  14.391
  191DOPC  H11R23588   5.394   8.409  14.409
  191DOPC  H11S23589   5.338   0.121  14.461
  191DOPC  C21223590   5.553   0.106  14.429
  191DOPC  H12R23591   5.565   0.216  14.425
  191DOPC  H12S23592   5.622   0.061  14.355
  191DOPC  C21323593   5.594   0.055  14.569
  191DOPC  H13R23594   5.701   0.081  14.585
  191DOPC  H13S23595   5.586   8.393  14.571
  191DOPC  C21423596   5.510   0.114  14.683
  191DOPC  H14R23597   5.405   0.081  14.672
  191DOPC  H14S23598   5.512   0.224  14.676
  191DOPC  C21523599   5.562   0.071  14.822
  191DOPC  H15R23600   5.669   0.101  14.829
  191DOPC  H15S23601   5.558   8.409  14.830
  191DOPC  C21623602   5.485   0.135  14.938
  191DOPC  H16R23603   5.485   0.245  14.926
  191DOPC  H16S23604   5.538   0.112  15.033
  191DOPC  C21723605   5.340   0.085  14.951
  191DOPC  H17R23606   5.342   8.423  14.961
  191DOPC  H17S23607   5.285   0.109  14.857
  191DOPC  C21823608   5.266   0.146  15.069
  191DOPC  H18R23609   5.318   0.123  15.164
  191DOPC  H18S23610   5.163   0.106  15.076
  191DOPC  H18T23611   5.260   0.257  15.059
  191DOPC   C3323612   5.233   8.283  13.673
  191DOPC   H3X23613   5.329   8.232  13.696
  191DOPC   H3Y23614   5.169   8.212  13.616
  191DOPC   C3423615   5.163   8.321  13.804
  191DOPC   H4X23616   5.061   8.358  13.783
  191DOPC   H4Y23617   5.220   8.403  13.852
  191DOPC   C3523618   5.154   8.206  13.906
  191DOPC   H5X23619   5.114   8.247  14.001
  191DOPC   H5Y23620   5.256   8.168  13.927
  191DOPC   C3623621   5.064   8.089  13.864
  191DOPC   H6X23622   4.968   8.130  13.827
  191DOPC   H6Y23623   5.111   8.032  13.781
  191DOPC   C3723624   5.033   7.993  13.980
  191DOPC   H7X23625   4.988   8.052  14.062
  191DOPC   H7Y23626   4.957   7.919  13.947
  191DOPC   C3823627   5.157   7.917  14.034
  191DOPC   H8X23628   5.239   7.989  14.049
  191DOPC   H8Y23629   5.192   7.846  13.956
  191DOPC   C3923630   5.127   7.843  14.162
  191DOPC   H9X23631   5.093   7.739  14.150
  191DOPC  C31023632   5.138   7.894  14.287
  191DOPC  H10X23633   5.113   7.830  14.373
  191DOPC  C31123634   5.180   8.035  14.323
  191DOPC  H11X23635   5.196   8.096  14.231
  191DOPC  H11Y23636   5.277   8.034  14.377
  191DOPC  C31223637   5.076   8.110  14.408
  191DOPC  H12X23638   4.976   8.097  14.362
  191DOPC  H12Y23639   5.098   8.219  14.405
  191DOPC  C31323640   5.071   8.066  14.556
  191DOPC  H13X23641   4.964   8.057  14.585
  191DOPC  H13Y23642   5.116   7.965  14.568
  191DOPC  C31423643   5.136   8.165  14.653
  191DOPC  H14X23644   5.089   8.265  14.639
  191DOPC  H14Y23645   5.115   8.133  14.757
  191DOPC  C31523646   5.289   8.181  14.638
  191DOPC  H15X23647   5.322   8.263  14.706
  191DOPC  H15Y23648   5.313   8.213  14.534
  191DOPC  C31623649   5.368   8.055  14.674
  191DOPC  H16X23650   5.335   8.018  14.773
  191DOPC  H16Y23651   5.346   7.975  14.599
  191DOPC  C31723652   5.519   8.079  14.678
  191DOPC  H17X23653   5.553   8.114  14.578
  191DOPC  H17Y23654   5.540   8.161  14.750
  191DOPC  C31823655   5.600   7.956  14.720
  191DOPC  H18X23656   5.582   7.872  14.648
  191DOPC  H18Y23657   5.708   7.978  14.722
  191DOPC  H18Z23658   5.569   7.921  14.821
  192DOPC     N23659   0.086   5.642  12.897
  192DOPC   C1223660   0.159   5.592  13.022
  192DOPC  H12A23661   0.182   5.487  13.008
  192DOPC  H12B23662   0.090   5.598  13.105
  192DOPC   C1323663   0.013   5.769  12.929
  192DOPC  H13A23664   0.083   5.841  12.971
  192DOPC  H13B23665   8.416   5.813  12.842
  192DOPC  H13C23666   8.385   5.754  13.004
  192DOPC   C1423667   8.436   5.540  12.848
  192DOPC  H14A23668   8.388   5.575  12.758
  192DOPC  H14B23669   0.037   5.447  12.827
  192DOPC  H14C23670   8.359   5.521  12.922
  192DOPC   C1523671   0.187   5.671  12.790
  192DOPC  H15A23672   0.240   5.582  12.761
  192DOPC  H15B23673   0.258   5.742  12.829
  192DOPC  H15C23674   0.140   5.715  12.703
  192DOPC   C1123675   0.290   5.664  13.063
  192DOPC  H11A23676   0.321   5.629  13.164
  192DOPC  H11B23677   0.371   5.632  12.994
  192DOPC     P23678   0.248   5.900  13.178
  192DOPC   O1323679   0.253   6.038  13.123
  192DOPC   O1423680   0.338   5.873  13.291
  192DOPC   O1223681   0.280   5.806  13.057
  192DOPC   O1123682   0.099   5.864  13.214
  192DOPC    C123683   0.061   5.751  13.293
  192DOPC    HA23684   0.146   5.682  13.313
  192DOPC    HB23685   8.432   5.695  13.237
  192DOPC    C223686   8.447   5.790  13.430
  192DOPC    HS23687   8.377   5.874  13.415
  192DOPC   O2123688   0.102   5.822  13.525
  192DOPC   C2123689   0.140   5.949  13.525
  192DOPC   O2223690   0.090   6.039  13.459
  192DOPC   C2223691   0.253   5.970  13.625
  192DOPC   H2R23692   0.349   5.962  13.569
  192DOPC   H2S23693   0.248   5.889  13.701
  192DOPC    C323694   8.360   5.671  13.482
  192DOPC    HX23695   8.406   5.576  13.447
  192DOPC    HY23696   8.262   5.678  13.432
  192DOPC   O3123697   8.340   5.673  13.625
  192DOPC   C3123698   8.420   5.592  13.695
  192DOPC   O3223699   0.055   5.518  13.648
  192DOPC   C3223700   8.381   5.599  13.843
  192DOPC   H2X23701   8.332   5.697  13.860
  192DOPC   H2Y23702   8.308   5.519  13.863
  192DOPC   C2323703   0.242   6.109  13.693
  192DOPC   H3R23704   0.146   6.116  13.748
  192DOPC   H3S23705   0.240   6.188  13.615
  192DOPC   C2423706   0.357   6.141  13.791
  192DOPC   H4R23707   0.337   6.239  13.838
  192DOPC   H4S23708   0.451   6.151  13.732
  192DOPC   C2523709   0.380   6.036  13.901
  192DOPC   H5R23710   0.462   6.071  13.967
  192DOPC   H5S23711   0.413   5.941  13.854
  192DOPC   C2623712   0.256   6.007  13.987
  192DOPC   H6R23713   0.173   5.973  13.921
  192DOPC   H6S23714   0.222   6.099  14.038
  192DOPC   C2723715   0.282   5.896  14.091
  192DOPC   H7R23716   0.353   5.932  14.168
  192DOPC   H7S23717   0.331   5.812  14.037
  192DOPC   C2823718   0.153   5.841  14.155
  192DOPC   H8R23719   0.178   5.745  14.204
  192DOPC   H8S23720   0.082   5.818  14.073
  192DOPC   C2923721   0.088   5.933  14.254
  192DOPC   H9R23722   0.144   6.025  14.277
  192DOPC  C21023723   8.417   5.910  14.312
  192DOPC  H10R23724   8.377   5.984  14.382
  192DOPC  C21123725   8.330   5.789  14.289
  192DOPC  H11R23726   8.315   5.735  14.385
  192DOPC  H11S23727   8.378   5.716  14.220
  192DOPC  C21223728   8.192   5.826  14.231
  192DOPC  H12R23729   8.205   5.893  14.144
  192DOPC  H12S23730   8.135   5.882  14.308
  192DOPC  C21323731   8.109   5.705  14.185
  192DOPC  H13R23732   8.157   5.661  14.095
  192DOPC  H13S23733   8.008   5.741  14.155
  192DOPC  C21423734   8.092   5.592  14.289
  192DOPC  H14R23735   8.191   5.546  14.310
  192DOPC  H14S23736   8.028   5.513  14.244
  192DOPC  C21523737   8.028   5.637  14.422
  192DOPC  H15R23738   7.932   5.688  14.402
  192DOPC  H15S23739   8.096   5.709  14.472
  192DOPC  C21623740   8.003   5.518  14.516
  192DOPC  H16R23741   8.098   5.461  14.528
  192DOPC  H16S23742   7.929   5.450  14.470
  192DOPC  C21723743   7.955   5.560  14.655
  192DOPC  H17R23744   7.865   5.624  14.644
  192DOPC  H17S23745   8.036   5.620  14.702
  192DOPC  C21823746   7.922   5.442  14.748
  192DOPC  H18R23747   7.891   5.479  14.848
  192DOPC  H18S23748   8.012   5.378  14.760
  192DOPC  H18T23749   7.840   5.381  14.705
  192DOPC   C3323750   0.053   5.587  13.940
  192DOPC   H3X23751   0.015   5.614  14.041
  192DOPC   H3Y23752   0.133   5.660  13.913
  192DOPC   C3423753   0.113   5.446  13.952
  192DOPC   H4X23754   0.171   5.422  13.861
  192DOPC   H4Y23755   0.030   5.373  13.960
  192DOPC   C3523756   0.202   5.433  14.076
  192DOPC   H5X23757   0.141   5.455  14.166
  192DOPC   H5Y23758   0.282   5.511  14.071
  192DOPC   C3623759   0.268   5.296  14.095
  192DOPC   H6X23760   0.345   5.282  14.016
  192DOPC   H6Y23761   0.321   5.296  14.193
  192DOPC   C3723762   0.172   5.175  14.090
  192DOPC   H7X23763   0.134   5.167  13.986
  192DOPC   H7Y23764   0.230   5.082  14.110
  192DOPC   C3823765   0.051   5.183  14.184
  192DOPC   H8X23766   8.431   5.100  14.155
  192DOPC   H8Y23767   8.445   5.277  14.163
  192DOPC   C3923768   0.083   5.168  14.331
  192DOPC   H9X23769   0.140   5.077  14.355
  192DOPC  C31023770   0.047   5.249  14.432
  192DOPC  H10X23771   0.079   5.222  14.534
  192DOPC  C31123772   8.414   5.376  14.425
  192DOPC  H11X23773   8.310   5.354  14.457
  192DOPC  H11Y23774   8.408   5.415  14.321
  192DOPC  C31223775   0.020   5.488  14.515
  192DOPC  H12X23776   0.029   5.453  14.620
  192DOPC  H12Y23777   8.394   5.571  14.515
  192DOPC  C31323778   0.155   5.545  14.469
  192DOPC  H13X23779   0.235   5.470  14.483
  192DOPC  H13Y23780   0.149   5.567  14.360
  192DOPC  C31423781   0.192   5.675  14.542
  192DOPC  H14X23782   0.114   5.751  14.520
  192DOPC  H14Y23783   0.192   5.657  14.652
  192DOPC  C31523784   0.329   5.730  14.499
  192DOPC  H15X23785   0.335   5.727  14.389
  192DOPC  H15Y23786   0.409   5.664  14.539
  192DOPC  C31623787   0.353   5.876  14.544
  192DOPC  H16X23788   0.454   5.906  14.511
  192DOPC  H16Y23789   0.280   5.941  14.491
  192DOPC  C31723790   0.339   5.901  14.695
  192DOPC  H17X23791   0.356   6.009  14.714
  192DOPC  H17Y23792   0.235   5.878  14.726
  192DOPC  C31823793   0.436   5.820  14.782
  192DOPC  H18X23794   0.424   5.846  14.889
  192DOPC  H18Y23795   0.417   5.711  14.770
  192DOPC  H18Z23796   0.541   5.840  14.752
  193DOPC     N23797   8.033   1.804  12.964
  193DOPC   C1223798   8.029   1.878  13.097
  193DOPC  H12A23799   8.056   1.812  13.179
  193DOPC  H12B23800   7.928   1.909  13.116
  193DOPC   C1323801   7.940   1.687  12.965
  193DOPC  H13A23802   7.939   1.638  12.869
  193DOPC  H13B23803   7.967   1.614  13.040
  193DOPC  H13C23804   7.838   1.719  12.985
  193DOPC   C1423805   8.172   1.760  12.931
  193DOPC  H14A23806   8.239   1.844  12.934
  193DOPC  H14B23807   8.208   1.685  13.000
  193DOPC  H14C23808   8.178   1.720  12.831
  193DOPC   C1523809   7.988   1.899  12.857
  193DOPC  H15A23810   7.986   1.855  12.758
  193DOPC  H15B23811   8.051   1.986  12.857
  193DOPC  H15C23812   7.890   1.938  12.881
  193DOPC   C1123813   8.114   2.008  13.109
  193DOPC  H11A23814   8.121   2.036  13.217
  193DOPC  H11B23815   8.218   1.989  13.076
  193DOPC     P23816   7.916   2.173  13.072
  193DOPC   O1323817   7.813   2.081  13.019
  193DOPC   O1423818   7.909   2.315  13.031
  193DOPC   O1223819   8.059   2.115  13.032
  193DOPC   O1123820   7.918   2.161  13.229
  193DOPC    C123821   7.817   2.217  13.312
  193DOPC    HA23822   7.718   2.219  13.262
  193DOPC    HB23823   7.845   2.321  13.338
  193DOPC    C223824   7.802   2.135  13.444
  193DOPC    HS23825   7.903   2.116  13.485
  193DOPC   O2123826   7.729   2.014  13.418
  193DOPC   C2123827   7.802   1.907  13.390
  193DOPC   O2223828   7.923   1.901  13.377
  193DOPC   C2223829   7.710   1.786  13.377
  193DOPC   H2R23830   7.749   1.724  13.294
  193DOPC   H2S23831   7.608   1.821  13.350
  193DOPC    C323832   7.723   2.216  13.551
  193DOPC    HX23833   7.627   2.244  13.503
  193DOPC    HY23834   7.779   2.309  13.574
  193DOPC   O3123835   7.705   2.139  13.672
  193DOPC   C3123836   7.596   2.170  13.741
  193DOPC   O3223837   7.515   2.256  13.710
  193DOPC   C3223838   7.583   2.081  13.865
  193DOPC   H2X23839   7.474   2.063  13.878
  193DOPC   H2Y23840   7.631   1.983  13.846
  193DOPC   C2323841   7.706   1.703  13.507
  193DOPC   H3R23842   7.809   1.676  13.538
  193DOPC   H3S23843   7.653   1.607  13.486
  193DOPC   C2423844   7.633   1.774  13.622
  193DOPC   H4R23845   7.530   1.798  13.588
  193DOPC   H4S23846   7.683   1.870  13.645
  193DOPC   C2523847   7.623   1.690  13.750
  193DOPC   H5R23848   7.585   1.589  13.724
  193DOPC   H5S23849   7.548   1.737  13.818
  193DOPC   C2623850   7.756   1.677  13.826
  193DOPC   H6R23851   7.784   1.775  13.871
  193DOPC   H6S23852   7.836   1.650  13.754
  193DOPC   C2723853   7.754   1.569  13.936
  193DOPC   H7R23854   7.857   1.554  13.976
  193DOPC   H7S23855   7.724   1.474  13.886
  193DOPC   C2823856   7.656   1.593  14.052
  193DOPC   H8R23857   7.643   1.497  14.107
  193DOPC   H8S23858   7.556   1.618  14.011
  193DOPC   C2923859   7.703   1.702  14.145
  193DOPC   H9R23860   7.707   1.802  14.099
  193DOPC  C21023861   7.735   1.690  14.276
  193DOPC  H10R23862   7.766   1.780  14.330
  193DOPC  C21123863   7.732   1.564  14.359
  193DOPC  H11R23864   7.826   1.557  14.418
  193DOPC  H11S23865   7.728   1.473  14.296
  193DOPC  C21223866   7.613   1.560  14.458
  193DOPC  H12R23867   7.622   1.465  14.515
  193DOPC  H12S23868   7.517   1.556  14.401
  193DOPC  C21323869   7.609   1.678  14.556
  193DOPC  H13R23870   7.568   1.767  14.503
  193DOPC  H13S23871   7.713   1.703  14.586
  193DOPC  C21423872   7.527   1.652  14.683
  193DOPC  H14R23873   7.424   1.620  14.656
  193DOPC  H14S23874   7.519   1.747  14.739
  193DOPC  C21523875   7.593   1.547  14.775
  193DOPC  H15R23876   7.702   1.567  14.778
  193DOPC  H15S23877   7.578   1.446  14.733
  193DOPC  C21623878   7.538   1.551  14.919
  193DOPC  H16R23879   7.429   1.530  14.915
  193DOPC  H16S23880   7.551   1.653  14.960
  193DOPC  C21723881   7.605   1.450  15.013
  193DOPC  H17R23882   7.592   1.348  14.971
  193DOPC  H17S23883   7.552   1.453  15.111
  193DOPC  C21823884   7.754   1.475  15.038
  193DOPC  H18R23885   7.770   1.577  15.080
  193DOPC  H18S23886   7.812   1.467  14.944
  193DOPC  H18T23887   7.795   1.401  15.110
  193DOPC   C3323888   7.638   2.150  13.992
  193DOPC   H3X23889   7.612   2.086  14.079
  193DOPC   H3Y23890   7.589   2.248  14.008
  193DOPC   C3423891   7.791   2.167  13.992
  193DOPC   H4X23892   7.821   2.210  14.090
  193DOPC   H4Y23893   7.822   2.239  13.913
  193DOPC   C3523894   7.864   2.034  13.971
  193DOPC   H5X23895   7.852   2.001  13.866
  193DOPC   H5Y23896   7.816   1.959  14.037
  193DOPC   C3623897   8.013   2.035  14.005
  193DOPC   H6X23898   8.068   2.099  13.933
  193DOPC   H6Y23899   8.028   2.079  14.107
  193DOPC   C3723900   8.069   1.892  14.004
  193DOPC   H7X23901   8.009   1.832  14.075
  193DOPC   H7Y23902   8.055   1.848  13.903
  193DOPC   C3823903   8.218   1.884  14.045
  193DOPC   H8X23904   8.232   1.944  14.137
  193DOPC   H8Y23905   8.280   1.931  13.966
  193DOPC   C3923906   8.260   1.740  14.065
  193DOPC   H9X23907   8.282   1.685  13.972
  193DOPC  C31023908   8.269   1.675  14.182
  193DOPC  H10X23909   8.298   1.569  14.181
  193DOPC  C31123910   8.239   1.731  14.320
  193DOPC  H11X23911   8.240   1.842  14.320
  193DOPC  H11Y23912   8.319   1.699  14.391
  193DOPC  C31223913   8.102   1.684  14.373
  193DOPC  H12X23914   8.094   1.574  14.361
  193DOPC  H12Y23915   8.022   1.730  14.312
  193DOPC  C31323916   8.078   1.716  14.522
  193DOPC  H13X23917   7.976   1.683  14.550
  193DOPC  H13Y23918   8.150   1.657  14.583
  193DOPC  C31423919   8.095   1.864  14.561
  193DOPC  H14X23920   8.084   1.873  14.671
  193DOPC  H14Y23921   8.198   1.897  14.537
  193DOPC  C31523922   7.995   1.959  14.493
  193DOPC  H15X23923   7.891   1.930  14.520
  193DOPC  H15Y23924   8.006   1.947  14.383
  193DOPC  C31623925   8.020   2.106  14.528
  193DOPC  H16X23926   8.129   2.125  14.519
  193DOPC  H16Y23927   7.969   2.171  14.454
  193DOPC  C31723928   7.974   2.149  14.669
  193DOPC  H17X23929   8.013   2.077  14.744
  193DOPC  H17Y23930   8.021   2.248  14.691
  193DOPC  C31823931   7.823   2.163  14.683
  193DOPC  H18X23932   7.783   2.236  14.608
  193DOPC  H18Y23933   7.773   2.066  14.667
  193DOPC  H18Z23934   7.797   2.200  14.785
  194DOPC     N23935   1.994   0.422  12.880
  194DOPC   C1223936   2.062   0.294  12.928
  194DOPC  H12A23937   2.126   0.320  13.011
  194DOPC  H12B23938   2.127   0.257  12.850
  194DOPC   C1323939   1.847   0.401  12.865
  194DOPC  H13A23940   1.795   0.491  12.838
  194DOPC  H13B23941   1.827   0.325  12.792
  194DOPC  H13C23942   1.810   0.364  12.960
  194DOPC   C1423943   2.055   0.465  12.751
  194DOPC  H14A23944   2.162   0.473  12.760
  194DOPC  H14B23945   2.037   0.393  12.673
  194DOPC  H14C23946   2.019   0.562  12.719
  194DOPC   C1523947   2.020   0.527  12.984
  194DOPC  H15A23948   2.125   0.553  12.986
  194DOPC  H15B23949   1.997   0.489  13.082
  194DOPC  H15C23950   1.964   0.618  12.966
  194DOPC   C1123951   1.971   0.180  12.981
  194DOPC  H11A23952   1.902   0.145  12.900
  194DOPC  H11B23953   2.034   0.091  13.005
  194DOPC     P23954   1.971   0.236  13.232
  194DOPC   O1323955   2.061   0.353  13.220
  194DOPC   O1423956   2.032   0.106  13.263
  194DOPC   O1223957   1.893   0.223  13.093
  194DOPC   O1123958   1.857   0.268  13.335
  194DOPC    C123959   1.753   0.361  13.304
  194DOPC    HA23960   1.712   0.345  13.202
  194DOPC    HB23961   1.793   0.465  13.309
  194DOPC    C223962   1.633   0.348  13.403
  194DOPC    HS23963   1.565   0.434  13.388
  194DOPC   O2123964   1.676   0.345  13.540
  194DOPC   C2123965   1.737   0.452  13.586
  194DOPC   O2223966   1.751   0.558  13.528
  194DOPC   C2223967   1.777   0.428  13.732
  194DOPC   H2R23968   1.720   0.342  13.772
  194DOPC   H2S23969   1.749   0.519  13.788
  194DOPC    C323970   1.552   0.217  13.375
  194DOPC    HX23971   1.504   0.230  13.276
  194DOPC    HY23972   1.469   0.209  13.450
  194DOPC   O3123973   1.634   0.098  13.371
  194DOPC   C3123974   1.665   0.049  13.491
  194DOPC   O3223975   1.611   0.078  13.596
  194DOPC   C3223976   1.774   8.391  13.478
  194DOPC   H2X23977   1.745   8.319  13.398
  194DOPC   H2Y23978   1.867   8.444  13.446
  194DOPC   C2323979   1.929   0.403  13.747
  194DOPC   H3R23980   1.953   0.406  13.855
  194DOPC   H3S23981   1.987   0.483  13.697
  194DOPC   C2423982   1.970   0.266  13.691
  194DOPC   H4R23983   1.953   0.265  13.581
  194DOPC   H4S23984   1.905   0.187  13.734
  194DOPC   C2523985   2.118   0.230  13.716
  194DOPC   H5R23986   2.182   0.304  13.664
  194DOPC   H5S23987   2.137   0.131  13.669
  194DOPC   C2623988   2.159   0.222  13.864
  194DOPC   H6R23989   2.163   0.325  13.907
  194DOPC   H6S23990   2.262   0.180  13.869
  194DOPC   C2723991   2.065   0.136  13.950
  194DOPC   H7R23992   2.043   0.043  13.893
  194DOPC   H7S23993   1.969   0.189  13.966
  194DOPC   C2823994   2.124   0.094  14.087
  194DOPC   H8R23995   2.217   0.036  14.069
  194DOPC   H8S23996   2.053   0.024  14.135
  194DOPC   C2923997   2.154   0.212  14.175
  194DOPC   H9R23998   2.248   0.264  14.151
  194DOPC  C21023999   2.079   0.260  14.277
  194DOPC  H10R24000   2.115   0.348  14.331
  194DOPC  C21124001   1.947   0.206  14.325
  194DOPC  H11R24002   1.949   0.193  14.435
  194DOPC  H11S24003   1.925   0.105  14.282
  194DOPC  C21224004   1.829   0.298  14.287
  194DOPC  H12R24005   1.734   0.250  14.320
  194DOPC  H12S24006   1.824   0.306  14.177
  194DOPC  C21324007   1.835   0.440  14.346
  194DOPC  H13R24008   1.755   0.500  14.299
  194DOPC  H13S24009   1.932   0.487  14.319
  194DOPC  C21424010   1.815   0.446  14.499
  194DOPC  H14R24011   1.881   0.371  14.548
  194DOPC  H14S24012   1.710   0.416  14.520
  194DOPC  C21524013   1.840   0.584  14.562
  194DOPC  H15R24014   1.814   0.578  14.670
  194DOPC  H15S24015   1.772   0.658  14.515
  194DOPC  C21624016   1.985   0.636  14.551
  194DOPC  H16R24017   1.991   0.733  14.605
  194DOPC  H16S24018   2.010   0.655  14.445
  194DOPC  C21724019   2.089   0.540  14.611
  194DOPC  H17R24020   2.093   0.448  14.550
  194DOPC  H17S24021   2.055   0.510  14.713
  194DOPC  C21824022   2.229   0.601  14.621
  194DOPC  H18R24023   2.300   0.527  14.664
  194DOPC  H18S24024   2.228   0.691  14.685
  194DOPC  H18T24025   2.265   0.630  14.520
  194DOPC   C3324026   1.799   8.317  13.612
  194DOPC   H3X24027   1.813   8.392  13.692
  194DOPC   H3Y24028   1.894   8.259  13.605
  194DOPC   C3424029   1.686   8.219  13.649
  194DOPC   H4X24030   1.702   8.123  13.596
  194DOPC   H4Y24031   1.589   8.261  13.613
  194DOPC   C3524032   1.671   8.195  13.800
  194DOPC   H5X24033   1.765   8.152  13.842
  194DOPC   H5Y24034   1.591   8.119  13.814
  194DOPC   C3624035   1.632   8.322  13.879
  194DOPC   H6X24036   1.724   8.378  13.907
  194DOPC   H6Y24037   1.573   8.387  13.811
  194DOPC   C3724038   1.546   8.295  14.003
  194DOPC   H7X24039   1.512   8.392  14.044
  194DOPC   H7Y24040   1.455   8.240  13.969
  194DOPC   C3824041   1.617   8.215  14.114
  194DOPC   H8X24042   1.699   8.277  14.157
  194DOPC   H8Y24043   1.664   8.125  14.068
  194DOPC   C3924044   1.517   8.172  14.218
  194DOPC   H9X24045   1.425   8.130  14.175
  194DOPC  C31024046   1.528   8.179  14.352
  194DOPC  H10X24047   1.443   8.143  14.412
  194DOPC  C31124048   1.644   8.232  14.433
  194DOPC  H11X24049   1.655   8.341  14.418
  194DOPC  H11Y24050   1.738   8.183  14.401
  194DOPC  C31224051   1.623   8.202  14.583
  194DOPC  H12X24052   1.598   8.095  14.597
  194DOPC  H12Y24053   1.539   8.263  14.621
  194DOPC  C31324054   1.748   8.233  14.668
  194DOPC  H13X24055   1.830   8.167  14.632
  194DOPC  H13Y24056   1.780   8.338  14.652
  194DOPC  C31424057   1.725   8.208  14.818
  194DOPC  H14X24058   1.672   8.111  14.832
  194DOPC  H14Y24059   1.824   8.199  14.867
  194DOPC  C31524060   1.647   8.320  14.888
  194DOPC  H15X24061   1.546   8.329  14.843
  194DOPC  H15Y24062   1.700   8.417  14.870
  194DOPC  C31624063   1.636   8.298  15.039
  194DOPC  H16X24064   1.586   8.200  15.058
  194DOPC  H16Y24065   1.739   8.292  15.081
  194DOPC  C31724066   1.560   8.408  15.115
  194DOPC  H17X24067   1.578   8.394  15.223
  194DOPC  H17Y24068   1.603   0.059  15.087
  194DOPC  C31824069   1.409   8.409  15.090
  194DOPC  H18X24070   1.387   8.436  14.984
  194DOPC  H18Y24071   1.366   8.309  15.110
  194DOPC  H18Z24072   1.359   0.035  15.156
  195DOPC     N24073   6.291   8.321  13.012
  195DOPC   C1224074   6.310   8.235  13.136
  195DOPC  H12A24075   6.234   8.158  13.135
  195DOPC  H12B24076   6.292   8.296  13.223
  195DOPC   C1324077   6.164   8.401  13.023
  195DOPC  H13A24078   6.076   8.340  13.025
  195DOPC  H13B24079   6.163   0.016  13.110
  195DOPC  H13C24080   6.152   0.018  12.938
  195DOPC   C1424081   6.282   8.235  12.890
  195DOPC  H14A24082   6.281   8.296  12.800
  195DOPC  H14B24083   6.367   8.169  12.886
  195DOPC  H14C24084   6.192   8.175  12.890
  195DOPC   C1524085   6.407   8.415  12.995
  195DOPC  H15A24086   6.415   0.037  13.076
  195DOPC  H15B24087   6.400   0.022  12.903
  195DOPC  H15C24088   6.499   8.358  12.989
  195DOPC   C1124089   6.448   8.164  13.156
  195DOPC  H11A24090   6.525   8.242  13.173
  195DOPC  H11B24091   6.443   8.105  13.250
  195DOPC     P24092   6.614   8.086  12.968
  195DOPC   O1324093   6.644   8.228  12.940
  195DOPC   O1424094   6.599   8.000  12.848
  195DOPC   O1224095   6.478   8.076  13.048
  195DOPC   O1124096   6.724   8.027  13.063
  195DOPC    C124097   6.797   8.111  13.153
  195DOPC    HA24098   6.747   8.209  13.170
  195DOPC    HB24099   6.898   8.132  13.112
  195DOPC    C224100   6.813   8.045  13.293
  195DOPC    HS24101   6.876   7.955  13.278
  195DOPC   O2124102   6.682   8.010  13.342
  195DOPC   C2124103   6.682   7.909  13.427
  195DOPC   O2224104   6.780   7.849  13.468
  195DOPC   C2224105   6.537   7.882  13.468
  195DOPC   H2R24106   6.474   7.886  13.377
  195DOPC   H2S24107   6.507   7.964  13.537
  195DOPC    C324108   6.885   8.141  13.392
  195DOPC    HX24109   6.990   8.154  13.358
  195DOPC    HY24110   6.886   8.094  13.492
  195DOPC   O3124111   6.818   8.269  13.394
  195DOPC   C3124112   6.851   8.349  13.494
  195DOPC   O3224113   6.932   8.323  13.581
  195DOPC   C3224114   6.774   0.032  13.483
  195DOPC   H2X24115   6.798   0.094  13.571
  195DOPC   H2Y24116   6.812   0.084  13.392
  195DOPC   C2324117   6.518   7.745  13.537
  195DOPC   H3R24118   6.580   7.739  13.629
  195DOPC   H3S24119   6.552   7.664  13.469
  195DOPC   C2424120   6.371   7.718  13.575
  195DOPC   H4R24121   6.365   7.617  13.622
  195DOPC   H4S24122   6.310   7.713  13.482
  195DOPC   C2524123   6.307   7.821  13.670
  195DOPC   H5R24124   6.205   7.788  13.696
  195DOPC   H5S24125   6.297   7.918  13.615
  195DOPC   C2624126   6.387   7.847  13.799
  195DOPC   H6R24127   6.339   7.930  13.855
  195DOPC   H6S24128   6.489   7.881  13.773
  195DOPC   C2724129   6.397   7.725  13.891
  195DOPC   H7R24130   6.426   7.636  13.830
  195DOPC   H7S24131   6.298   7.703  13.936
  195DOPC   C2824132   6.504   7.739  14.001
  195DOPC   H8R24133   6.602   7.748  13.950
  195DOPC   H8S24134   6.507   7.644  14.058
  195DOPC   C2924135   6.478   7.854  14.095
  195DOPC   H9R24136   6.375   7.861  14.131
  195DOPC  C21024137   6.568   7.945  14.139
  195DOPC  H10R24138   6.534   8.021  14.211
  195DOPC  C21124139   6.715   7.954  14.104
  195DOPC  H11R24140   6.739   7.892  14.015
  195DOPC  H11S24141   6.776   7.914  14.188
  195DOPC  C21224142   6.760   8.098  14.074
  195DOPC  H12R24143   6.697   8.139  13.992
  195DOPC  H12S24144   6.865   8.095  14.036
  195DOPC  C21324145   6.756   8.195  14.194
  195DOPC  H13R24146   6.653   8.198  14.236
  195DOPC  H13S24147   6.779   8.297  14.156
  195DOPC  C21424148   6.856   8.161  14.305
  195DOPC  H14R24149   6.958   8.155  14.260
  195DOPC  H14S24150   6.832   8.061  14.348
  195DOPC  C21524151   6.860   8.265  14.419
  195DOPC  H15R24152   6.878   8.366  14.376
  195DOPC  H15S24153   6.947   8.241  14.485
  195DOPC  C21624154   6.732   8.268  14.504
  195DOPC  H16R24155   6.720   8.170  14.554
  195DOPC  H16S24156   6.644   8.283  14.438
  195DOPC  C21724157   6.730   8.379  14.610
  195DOPC  H17R24158   6.636   8.371  14.668
  195DOPC  H17S24159   6.729   0.029  14.558
  195DOPC  C21824160   6.848   8.377  14.709
  195DOPC  H18R24161   6.836   0.008  14.786
  195DOPC  H18S24162   6.944   8.395  14.656
  195DOPC  H18T24163   6.854   8.279  14.760
  195DOPC   C3324164   6.620   0.015  13.469
  195DOPC   H3X24165   6.595   8.377  13.403
  195DOPC   H3Y24166   6.582   0.106  13.419
  195DOPC   C3424167   6.546   0.004  13.603
  195DOPC   H4X24168   6.437   0.010  13.584
  195DOPC   H4Y24169   6.574   0.091  13.666
  195DOPC   C3524170   6.573   8.322  13.681
  195DOPC   H5X24171   6.681   8.316  13.706
  195DOPC   H5Y24172   6.548   8.235  13.616
  195DOPC   C3624173   6.493   8.312  13.812
  195DOPC   H6X24174   6.385   8.314  13.790
  195DOPC   H6Y24175   6.516   8.213  13.859
  195DOPC   C3724176   6.529   8.422  13.913
  195DOPC   H7X24177   6.640   8.429  13.918
  195DOPC   H7Y24178   6.492   0.072  13.876
  195DOPC   C3824179   6.476   8.397  14.055
  195DOPC   H8X24180   6.520   0.026  14.122
  195DOPC   H8Y24181   6.518   8.299  14.088
  195DOPC   C3924182   6.326   8.400  14.067
  195DOPC   H9X24183   6.276   0.023  14.000
  195DOPC  C31024184   6.250   8.324  14.148
  195DOPC  H10X24185   6.141   8.337  14.147
  195DOPC  C31124186   6.300   8.220  14.247
  195DOPC  H11X24187   6.406   8.193  14.227
  195DOPC  H11Y24188   6.241   8.126  14.236
  195DOPC  C31224189   6.290   8.268  14.393
  195DOPC  H12X24190   6.185   8.290  14.418
  195DOPC  H12Y24191   6.348   8.362  14.404
  195DOPC  C31324192   6.347   8.165  14.492
  195DOPC  H13X24193   6.286   8.072  14.487
  195DOPC  H13Y24194   6.450   8.138  14.459
  195DOPC  C31424195   6.354   8.215  14.637
  195DOPC  H14X24196   6.412   8.142  14.696
  195DOPC  H14Y24197   6.408   8.312  14.639
  195DOPC  C31524198   6.216   8.233  14.703
  195DOPC  H15X24199   6.162   8.136  14.703
  195DOPC  H15Y24200   6.156   8.304  14.641
  195DOPC  C31624201   6.222   8.288  14.846
  195DOPC  H16X24202   6.276   8.386  14.846
  195DOPC  H16Y24203   6.118   8.308  14.881
  195DOPC  C31724204   6.290   8.194  14.947
  195DOPC  H17X24205   6.239   8.095  14.942
  195DOPC  H17Y24206   6.396   8.179  14.916
  195DOPC  C31824207   6.286   8.246  15.091
  195DOPC  H18X24208   6.336   8.174  15.159
  195DOPC  H18Y24209   6.339   8.344  15.098
  195DOPC  H18Z24210   6.182   8.260  15.124
  196DOPC     N24211   0.873   1.242  12.893
  196DOPC   C1224212   1.015   1.188  12.905
  196DOPC  H12A24213   1.077   1.263  12.951
  196DOPC  H12B24214   1.053   1.170  12.805
  196DOPC   C1324215   0.776   1.131  12.869
  196DOPC  H13A24216   0.800   1.073  12.781
  196DOPC  H13B24217   0.776   1.064  12.954
  196DOPC  H13C24218   0.675   1.168  12.859
  196DOPC   C1424219   0.861   1.344  12.784
  196DOPC  H14A24220   0.874   1.298  12.686
  196DOPC  H14B24221   0.762   1.387  12.785
  196DOPC  H14C24222   0.932   1.424  12.795
  196DOPC   C1524223   0.834   1.307  13.023
  196DOPC  H15A24224   0.733   1.346  13.018
  196DOPC  H15B24225   0.903   1.384  13.053
  196DOPC  H15C24226   0.834   1.231  13.100
  196DOPC   C1124227   1.038   1.057  12.986
  196DOPC  H11A24228   0.989   0.972  12.933
  196DOPC  H11B24229   1.147   1.036  12.986
  196DOPC     P24230   0.882   0.987  13.191
  196DOPC   O1324231   0.758   1.066  13.179
  196DOPC   O1424232   0.928   0.946  13.325
  196DOPC   O1224233   0.996   1.071  13.121
  196DOPC   O1124234   0.867   0.859  13.095
  196DOPC    C124235   0.817   0.737  13.153
  196DOPC    HA24236   0.860   0.716  13.253
  196DOPC    HB24237   0.847   0.652  13.088
  196DOPC    C224238   0.661   0.734  13.163
  196DOPC    HS24239   0.622   0.764  13.064
  196DOPC   O2124240   0.620   0.824  13.267
  196DOPC   C2124241   0.507   0.887  13.250
  196DOPC   O2224242   0.431   0.873  13.155
  196DOPC   C2224243   0.481   0.982  13.368
  196DOPC   H2R24244   0.377   0.965  13.404
  196DOPC   H2S24245   0.488   1.085  13.327
  196DOPC    C324246   0.610   0.592  13.197
  196DOPC    HX24247   0.642   0.524  13.115
  196DOPC    HY24248   0.499   0.591  13.198
  196DOPC   O3124249   0.668   0.545  13.320
  196DOPC   C3124250   0.602   0.576  13.430
  196DOPC   O3224251   0.486   0.613  13.436
  196DOPC   C3224252   0.695   0.560  13.551
  196DOPC   H2X24253   0.633   0.577  13.641
  196DOPC   H2Y24254   0.732   0.455  13.550
  196DOPC   C2324255   0.581   0.967  13.485
  196DOPC   H3R24256   0.684   0.975  13.445
  196DOPC   H3S24257   0.571   0.867  13.531
  196DOPC   C2424258   0.566   1.075  13.594
  196DOPC   H4R24259   0.469   1.062  13.646
  196DOPC   H4S24260   0.566   1.174  13.545
  196DOPC   C2524261   0.681   1.070  13.695
  196DOPC   H5R24262   0.777   1.070  13.639
  196DOPC   H5S24263   0.676   0.975  13.753
  196DOPC   C2624264   0.682   1.191  13.791
  196DOPC   H6R24265   0.592   1.187  13.857
  196DOPC   H6S24266   0.676   1.283  13.730
  196DOPC   C2724267   0.809   1.200  13.878
  196DOPC   H7R24268   0.814   1.300  13.926
  196DOPC   H7S24269   0.897   1.192  13.810
  196DOPC   C2824270   0.820   1.090  13.985
  196DOPC   H8R24271   0.924   1.093  14.024
  196DOPC   H8S24272   0.808   0.991  13.935
  196DOPC   C2924273   0.724   1.108  14.100
  196DOPC   H9R24274   0.733   1.204  14.152
  196DOPC  C21024275   0.631   1.020  14.143
  196DOPC  H10R24276   0.569   1.048  14.229
  196DOPC  C21124277   0.601   0.883  14.086
  196DOPC  H11R24278   0.642   0.872  13.984
  196DOPC  H11S24279   0.491   0.870  14.078
  196DOPC  C21224280   0.658   0.770  14.173
  196DOPC  H12R24281   0.769   0.780  14.179
  196DOPC  H12S24282   0.636   0.673  14.123
  196DOPC  C21324283   0.600   0.764  14.316
  196DOPC  H13R24284   0.489   0.762  14.310
  196DOPC  H13S24285   0.630   0.855  14.371
  196DOPC  C21424286   0.649   0.640  14.392
  196DOPC  H14R24287   0.760   0.640  14.394
  196DOPC  H14S24288   0.616   0.549  14.336
  196DOPC  C21524289   0.596   0.630  14.536
  196DOPC  H15R24290   0.632   0.534  14.579
  196DOPC  H15S24291   0.485   0.628  14.536
  196DOPC  C21624292   0.646   0.743  14.627
  196DOPC  H16R24293   0.589   0.836  14.607
  196DOPC  H16S24294   0.753   0.764  14.603
  196DOPC  C21724295   0.637   0.708  14.777
  196DOPC  H17R24296   0.681   0.792  14.835
  196DOPC  H17S24297   0.699   0.619  14.796
  196DOPC  C21824298   0.495   0.681  14.827
  196DOPC  H18R24299   0.495   0.669  14.938
  196DOPC  H18S24300   0.455   0.588  14.782
  196DOPC  H18T24301   0.427   0.765  14.801
  196DOPC   C3324302   0.814   0.659  13.545
  196DOPC   H3X24303   0.776   0.763  13.540
  196DOPC   H3Y24304   0.873   0.641  13.453
  196DOPC   C3424305   0.911   0.649  13.664
  196DOPC   H4X24306   0.989   0.726  13.650
  196DOPC   H4Y24307   0.962   0.550  13.661
  196DOPC   C3524308   0.845   0.670  13.801
  196DOPC   H5X24309   0.765   0.593  13.816
  196DOPC   H5Y24310   0.795   0.769  13.803
  196DOPC   C3624311   0.943   0.660  13.918
  196DOPC   H6X24312   0.884   0.658  14.012
  196DOPC   H6Y24313   1.001   0.566  13.913
  196DOPC   C3724314   1.040   0.780  13.925
  196DOPC   H7X24315   1.112   0.776  13.841
  196DOPC   H7Y24316   0.979   0.872  13.910
  196DOPC   C3824317   1.114   0.788  14.059
  196DOPC   H8X24318   1.197   0.714  14.058
  196DOPC   H8Y24319   1.044   0.756  14.139
  196DOPC   C3924320   1.167   0.927  14.085
  196DOPC   H9X24321   1.237   0.964  14.008
  196DOPC  C31024322   1.137   1.008  14.189
  196DOPC  H10X24323   1.185   1.107  14.193
  196DOPC  C31124324   1.043   0.978  14.303
  196DOPC  H11X24325   0.977   0.891  14.282
  196DOPC  H11Y24326   0.976   1.065  14.320
  196DOPC  C31224327   1.122   0.949  14.432
  196DOPC  H12X24328   1.186   1.037  14.456
  196DOPC  H12Y24329   1.189   0.862  14.418
  196DOPC  C31324330   1.031   0.922  14.553
  196DOPC  H13X24331   0.957   1.004  14.563
  196DOPC  H13Y24332   0.975   0.827  14.537
  196DOPC  C31424333   1.113   0.912  14.682
  196DOPC  H14X24334   1.187   0.829  14.671
  196DOPC  H14Y24335   1.171   1.006  14.693
  196DOPC  C31524336   1.031   0.890  14.810
  196DOPC  H15X24337   0.941   0.954  14.810
  196DOPC  H15Y24338   1.094   0.922  14.896
  196DOPC  C31624339   0.993   0.743  14.833
  196DOPC  H16X24340   0.915   0.713  14.761
  196DOPC  H16Y24341   1.082   0.681  14.813
  196DOPC  C31724342   0.947   0.716  14.977
  196DOPC  H17X24343   1.025   0.754  15.047
  196DOPC  H17Y24344   0.854   0.773  14.997
  196DOPC  C31824345   0.923   0.568  15.006
  196DOPC  H18X24346   0.846   0.526  14.937
  196DOPC  H18Y24347   1.016   0.509  14.992
  196DOPC  H18Z24348   0.888   0.553  15.110
  197DOPC     N24349   1.456   7.945  12.860
  197DOPC   C1224350   1.505   8.066  12.939
  197DOPC  H12A24351   1.419   8.118  12.979
  197DOPC  H12B24352   1.555   8.133  12.871
  197DOPC   C1324353   1.369   7.856  12.945
  197DOPC  H13A24354   1.339   7.768  12.890
  197DOPC  H13B24355   1.422   7.820  13.032
  197DOPC  H13C24356   1.279   7.904  12.979
  197DOPC   C1424357   1.573   7.864  12.814
  197DOPC  H14A24358   1.630   7.831  12.900
  197DOPC  H14B24359   1.544   7.776  12.759
  197DOPC  H14C24360   1.640   7.923  12.753
  197DOPC   C1524361   1.377   7.989  12.740
  197DOPC  H15A24362   1.289   8.044  12.769
  197DOPC  H15B24363   1.345   7.903  12.683
  197DOPC  H15C24364   1.436   8.050  12.674
  197DOPC   C1124365   1.605   8.043  13.056
  197DOPC  H11A24366   1.608   8.133  13.120
  197DOPC  H11B24367   1.568   7.959  13.119
  197DOPC     P24368   1.834   7.908  13.060
  197DOPC   O1324369   1.903   7.956  13.181
  197DOPC   O1424370   1.920   7.871  12.946
  197DOPC   O1224371   1.736   8.020  13.005
  197DOPC   O1124372   1.736   7.789  13.093
  197DOPC    C124373   1.736   7.722  13.220
  197DOPC    HA24374   1.789   7.778  13.300
  197DOPC    HB24375   1.786   7.624  13.208
  197DOPC    C224376   1.591   7.697  13.269
  197DOPC    HS24377   1.536   7.657  13.181
  197DOPC   O2124378   1.536   7.822  13.317
  197DOPC   C2124379   1.406   7.835  13.298
  197DOPC   O2224380   1.336   7.758  13.235
  197DOPC   C2224381   1.358   7.970  13.351
  197DOPC   H2R24382   1.259   7.990  13.305
  197DOPC   H2S24383   1.429   8.049  13.319
  197DOPC    C324384   1.585   7.590  13.381
  197DOPC    HX24385   1.629   7.497  13.340
  197DOPC    HY24386   1.479   7.566  13.405
  197DOPC   O3124387   1.662   7.631  13.497
  197DOPC   C3124388   1.594   7.692  13.592
  197DOPC   O3224389   1.472   7.704  13.597
  197DOPC   C3224390   1.688   7.748  13.699
  197DOPC   H2X24391   1.667   7.857  13.708
  197DOPC   H2Y24392   1.659   7.700  13.795
  197DOPC   C2324393   1.342   7.974  13.505
  197DOPC   H3R24394   1.443   7.966  13.553
  197DOPC   H3S24395   1.283   7.887  13.538
  197DOPC   C2424396   1.274   8.103  13.554
  197DOPC   H4R24397   1.169   8.105  13.515
  197DOPC   H4S24398   1.327   8.190  13.511
  197DOPC   C2524399   1.271   8.117  13.707
  197DOPC   H5R24400   1.218   8.211  13.732
  197DOPC   H5S24401   1.375   8.126  13.745
  197DOPC   C2624402   1.201   8.001  13.779
  197DOPC   H6R24403   1.260   7.909  13.765
  197DOPC   H6S24404   1.101   7.985  13.734
  197DOPC   C2724405   1.183   8.030  13.929
  197DOPC   H7R24406   1.123   8.124  13.938
  197DOPC   H7S24407   1.282   8.050  13.975
  197DOPC   C2824408   1.110   7.919  14.007
  197DOPC   H8R24409   1.014   7.898  13.956
  197DOPC   H8S24410   1.085   7.958  14.107
  197DOPC   C2924411   1.194   7.794  14.015
  197DOPC   H9R24412   1.221   7.750  13.917
  197DOPC  C21024413   1.238   7.732  14.126
  197DOPC  H10R24414   1.302   7.643  14.115
  197DOPC  C21124415   1.212   7.774  14.269
  197DOPC  H11R24416   1.199   7.684  14.332
  197DOPC  H11S24417   1.118   7.832  14.277
  197DOPC  C21224418   1.326   7.859  14.328
  197DOPC  H12R24419   1.299   7.888  14.432
  197DOPC  H12S24420   1.334   7.954  14.270
  197DOPC  C21324421   1.465   7.792  14.330
  197DOPC  H13R24422   1.538   7.862  14.376
  197DOPC  H13S24423   1.497   7.775  14.225
  197DOPC  C21424424   1.470   7.658  14.405
  197DOPC  H14R24425   1.568   7.610  14.383
  197DOPC  H14S24426   1.391   7.590  14.366
  197DOPC  C21524427   1.455   7.671  14.558
  197DOPC  H15R24428   1.369   7.737  14.581
  197DOPC  H15S24429   1.547   7.718  14.599
  197DOPC  C21624430   1.432   7.535  14.626
  197DOPC  H16R24431   1.511   7.464  14.594
  197DOPC  H16S24432   1.334   7.495  14.590
  197DOPC  C21724433   1.430   7.545  14.779
  197DOPC  H17R24434   1.357   7.623  14.809
  197DOPC  H17S24435   1.531   7.578  14.812
  197DOPC  C21824436   1.395   7.413  14.848
  197DOPC  H18R24437   1.467   7.333  14.820
  197DOPC  H18S24438   1.293   7.380  14.818
  197DOPC  H18T24439   1.396   7.425  14.958
  197DOPC   C3324440   1.839   7.725  13.672
  197DOPC   H3X24441   1.868   7.775  13.578
  197DOPC   H3Y24442   1.857   7.616  13.661
  197DOPC   C3424443   1.926   7.778  13.787
  197DOPC   H4X24444   1.884   7.742  13.883
  197DOPC   H4Y24445   1.922   7.889  13.789
  197DOPC   C3524446   2.072   7.731  13.777
  197DOPC   H5X24447   2.118   7.769  13.683
  197DOPC   H5Y24448   2.073   7.620  13.774
  197DOPC   C3624449   2.155   7.777  13.898
  197DOPC   H6X24450   2.171   7.887  13.893
  197DOPC   H6Y24451   2.096   7.756  13.990
  197DOPC   C3724452   2.291   7.706  13.912
  197DOPC   H7X24453   2.271   7.597  13.903
  197DOPC   H7Y24454   2.358   7.733  13.828
  197DOPC   C3824455   2.359   7.730  14.048
  197DOPC   H8X24456   2.433   7.649  14.063
  197DOPC   H8Y24457   2.282   7.716  14.127
  197DOPC   C3924458   2.431   7.862  14.061
  197DOPC   H9X24459   2.514   7.875  13.989
  197DOPC  C31024460   2.407   7.962  14.148
  197DOPC  H10X24461   2.473   8.051  14.145
  197DOPC  C31124462   2.301   7.969  14.255
  197DOPC  H11X24463   2.243   7.875  14.261
  197DOPC  H11Y24464   2.228   8.049  14.229
  197DOPC  C31224465   2.354   7.998  14.397
  197DOPC  H12X24466   2.402   8.098  14.400
  197DOPC  H12Y24467   2.431   7.923  14.425
  197DOPC  C31324468   2.240   7.993  14.501
  197DOPC  H13X24469   2.159   8.062  14.469
  197DOPC  H13Y24470   2.199   7.890  14.498
  197DOPC  C31424471   2.281   8.026  14.645
  197DOPC  H14X24472   2.361   7.956  14.677
  197DOPC  H14Y24473   2.323   8.129  14.648
  197DOPC  C31524474   2.163   8.018  14.746
  197DOPC  H15X24475   2.085   8.090  14.715
  197DOPC  H15Y24476   2.200   8.049  14.846
  197DOPC  C31624477   2.099   7.878  14.757
  197DOPC  H16X24478   2.055   7.850  14.659
  197DOPC  H16Y24479   2.178   7.804  14.782
  197DOPC  C31724480   1.989   7.868  14.863
  197DOPC  H17X24481   2.033   7.888  14.963
  197DOPC  H17Y24482   1.912   7.946  14.843
  197DOPC  C31824483   1.921   7.730  14.865
  197DOPC  H18X24484   1.995   7.650  14.885
  197DOPC  H18Y24485   1.843   7.726  14.944
  197DOPC  H18Z24486   1.873   7.709  14.767
  198DOPC     N24487   7.731   7.284  13.011
  198DOPC   C1224488   7.688   7.148  12.957
  198DOPC  H12A24489   7.767   7.105  12.898
  198DOPC  H12B24490   7.604   7.164  12.892
  198DOPC   C1324491   7.622   7.338  13.098
  198DOPC  H13A24492   7.532   7.354  13.040
  198DOPC  H13B24493   7.595   7.262  13.170
  198DOPC  H13C24494   7.650   7.428  13.150
  198DOPC   C1424495   7.754   7.378  12.896
  198DOPC  H14A24496   7.663   7.390  12.838
  198DOPC  H14B24497   7.783   7.476  12.931
  198DOPC  H14C24498   7.830   7.341  12.829
  198DOPC   C1524499   7.856   7.271  13.092
  198DOPC  H15A24500   7.938   7.233  13.033
  198DOPC  H15B24501   7.840   7.202  13.174
  198DOPC  H15C24502   7.886   7.365  13.137
  198DOPC   C1124503   7.640   7.042  13.061
  198DOPC  H11A24504   7.639   6.942  13.012
  198DOPC  H11B24505   7.713   7.035  13.144
  198DOPC     P24506   7.384   7.056  13.021
  198DOPC   O1324507   7.368   6.914  12.985
  198DOPC   O1424508   7.402   7.149  12.907
  198DOPC   O1224509   7.511   7.074  13.115
  198DOPC   O1124510   7.262   7.102  13.109
  198DOPC    C124511   7.217   7.238  13.117
  198DOPC    HA24512   7.106   7.237  13.119
  198DOPC    HB24513   7.247   7.299  13.029
  198DOPC    C224514   7.265   7.308  13.247
  198DOPC    HS24515   7.376   7.311  13.243
  198DOPC   O2124516   7.217   7.231  13.358
  198DOPC   C2124517   7.294   7.233  13.465
  198DOPC   O2224518   7.405   7.282  13.472
  198DOPC   C2224519   7.222   7.160  13.578
  198DOPC   H2R24520   7.291   7.083  13.617
  198DOPC   H2S24521   7.132   7.110  13.535
  198DOPC    C324522   7.211   7.454  13.257
  198DOPC    HX24523   7.103   7.452  13.233
  198DOPC    HY24524   7.263   7.515  13.179
  198DOPC   O3124525   7.231   7.507  13.389
  198DOPC   C3124526   7.229   7.639  13.401
  198DOPC   O3224527   7.213   7.719  13.311
  198DOPC   C3224528   7.252   7.675  13.548
  198DOPC   H2X24529   7.243   7.785  13.559
  198DOPC   H2Y24530   7.171   7.627  13.607
  198DOPC   C2324531   7.175   7.254  13.692
  198DOPC   H3R24532   7.091   7.205  13.746
  198DOPC   H3S24533   7.134   7.348  13.649
  198DOPC   C2424534   7.286   7.286  13.793
  198DOPC   H4R24535   7.255   7.373  13.856
  198DOPC   H4S24536   7.377   7.316  13.737
  198DOPC   C2524537   7.319   7.170  13.888
  198DOPC   H5R24538   7.292   7.074  13.838
  198DOPC   H5S24539   7.257   7.178  13.980
  198DOPC   C2624540   7.468   7.161  13.924
  198DOPC   H6R24541   7.525   7.143  13.831
  198DOPC   H6S24542   7.484   7.074  13.991
  198DOPC   C2724543   7.523   7.287  13.992
  198DOPC   H7R24544   7.470   7.304  14.088
  198DOPC   H7S24545   7.505   7.375  13.927
  198DOPC   C2824546   7.674   7.274  14.018
  198DOPC   H8R24547   7.724   7.247  13.923
  198DOPC   H8S24548   7.691   7.188  14.087
  198DOPC   C2924549   7.734   7.402  14.071
  198DOPC   H9R24550   7.727   7.487  14.002
  198DOPC  C21024551   7.792   7.421  14.191
  198DOPC  H10R24552   7.831   7.521  14.214
  198DOPC  C21124553   7.812   7.320  14.302
  198DOPC  H11R24554   7.919   7.293  14.308
  198DOPC  H11S24555   7.756   7.226  14.284
  198DOPC  C21224556   7.770   7.375  14.440
  198DOPC  H12R24557   7.825   7.469  14.460
  198DOPC  H12S24558   7.799   7.302  14.517
  198DOPC  C21324559   7.618   7.400  14.452
  198DOPC  H13R24560   7.566   7.305  14.430
  198DOPC  H13S24561   7.586   7.474  14.376
  198DOPC  C21424562   7.575   7.450  14.591
  198DOPC  H14R24563   7.607   7.377  14.669
  198DOPC  H14S24564   7.464   7.455  14.594
  198DOPC  C21524565   7.629   7.590  14.625
  198DOPC  H15R24566   7.608   7.657  14.539
  198DOPC  H15S24567   7.740   7.583  14.637
  198DOPC  C21624568   7.568   7.648  14.753
  198DOPC  H16R24569   7.592   7.581  14.838
  198DOPC  H16S24570   7.457   7.650  14.742
  198DOPC  C21724571   7.617   7.791  14.785
  198DOPC  H17R24572   7.727   7.789  14.794
  198DOPC  H17S24573   7.576   7.819  14.885
  198DOPC  C21824574   7.575   7.897  14.683
  198DOPC  H18R24575   7.609   7.998  14.716
  198DOPC  H18S24576   7.465   7.900  14.673
  198DOPC  H18T24577   7.619   7.876  14.584
  198DOPC   C3324578   7.389   7.626  13.600
  198DOPC   H3X24579   7.470   7.686  13.555
  198DOPC   H3Y24580   7.404   7.520  13.569
  198DOPC   C3424581   7.400   7.628  13.753
  198DOPC   H4X24582   7.492   7.572  13.781
  198DOPC   H4Y24583   7.314   7.575  13.798
  198DOPC   C3524584   7.409   7.769  13.813
  198DOPC   H5X24585   7.313   7.823  13.802
  198DOPC   H5Y24586   7.485   7.825  13.754
  198DOPC   C3624587   7.455   7.769  13.960
  198DOPC   H6X24588   7.516   7.679  13.981
  198DOPC   H6Y24589   7.521   7.858  13.974
  198DOPC   C3724590   7.343   7.781  14.064
  198DOPC   H7X24591   7.392   7.803  14.161
  198DOPC   H7Y24592   7.278   7.867  14.038
  198DOPC   C3824593   7.259   7.653  14.081
  198DOPC   H8X24594   7.327   7.567  14.093
  198DOPC   H8Y24595   7.199   7.636  13.989
  198DOPC   C3924596   7.168   7.672  14.201
  198DOPC   H9X24597   7.099   7.758  14.193
  198DOPC  C31024598   7.165   7.597  14.312
  198DOPC  H10X24599   7.094   7.625  14.391
  198DOPC  C31124600   7.248   7.476  14.344
  198DOPC  H11X24601   7.338   7.506  14.403
  198DOPC  H11Y24602   7.284   7.424  14.253
  198DOPC  C31224603   7.167   7.376  14.428
  198DOPC  H12X24604   7.079   7.339  14.370
  198DOPC  H12Y24605   7.128   7.428  14.518
  198DOPC  C31324606   7.249   7.255  14.475
  198DOPC  H13X24607   7.280   7.196  14.385
  198DOPC  H13Y24608   7.342   7.291  14.524
  198DOPC  C31424609   7.175   7.163  14.573
  198DOPC  H14X24610   7.088   7.117  14.521
  198DOPC  H14Y24611   7.242   7.079  14.602
  198DOPC  C31524612   7.124   7.231  14.701
  198DOPC  H15X24613   7.081   7.152  14.767
  198DOPC  H15Y24614   7.042   7.301  14.676
  198DOPC  C31624615   7.230   7.307  14.783
  198DOPC  H16X24616   7.270   7.392  14.724
  198DOPC  H16Y24617   7.181   7.349  14.873
  198DOPC  C31724618   7.347   7.218  14.829
  198DOPC  H17X24619   7.306   7.128  14.879
  198DOPC  H17Y24620   7.404   7.185  14.740
  198DOPC  C31824621   7.442   7.289  14.926
  198DOPC  H18X24622   7.388   7.320  15.019
  198DOPC  H18Y24623   7.526   7.222  14.955
  198DOPC  H18Z24624   7.484   7.380  14.879
  199DOPC     N24625   7.061   0.288  12.916
  199DOPC   C1224626   6.983   0.418  12.917
  199DOPC  H12A24627   6.968   0.450  12.815
  199DOPC  H12B24628   7.041   0.494  12.968
  199DOPC   C1324629   7.089   0.246  13.057
  199DOPC  H13A24630   7.150   0.319  13.109
  199DOPC  H13B24631   6.996   0.246  13.112
  199DOPC  H13C24632   7.136   0.149  13.064
  199DOPC   C1424633   7.190   0.307  12.841
  199DOPC  H14A24634   7.246   0.215  12.838
  199DOPC  H14B24635   7.170   0.339  12.740
  199DOPC  H14C24636   7.250   0.383  12.888
  199DOPC   C1524637   6.980   0.184  12.846
  199DOPC  H15A24638   6.951   0.219  12.748
  199DOPC  H15B24639   6.888   0.164  12.901
  199DOPC  H15C24640   7.032   0.090  12.835
  199DOPC   C1124641   6.845   0.418  12.989
  199DOPC  H11A24642   6.794   0.514  12.966
  199DOPC  H11B24643   6.781   0.338  12.947
  199DOPC     P24644   6.912   0.521  13.216
  199DOPC   O1324645   6.799   0.615  13.237
  199DOPC   O1424646   7.035   0.574  13.153
  199DOPC   O1224647   6.859   0.399  13.130
  199DOPC   O1124648   6.949   0.452  13.354
  199DOPC    C124649   6.995   0.532  13.464
  199DOPC    HA24650   6.933   0.508  13.553
  199DOPC    HB24651   6.984   0.641  13.447
  199DOPC    C224652   7.143   0.504  13.500
  199DOPC    HS24653   7.205   0.527  13.411
  199DOPC   O2124654   7.156   0.366  13.542
  199DOPC   C2124655   7.185   0.280  13.447
  199DOPC   O2224656   7.227   0.306  13.335
  199DOPC   C2224657   7.160   0.138  13.496
  199DOPC   H2R24658   7.163   0.073  13.405
  199DOPC   H2S24659   7.057   0.133  13.538
  199DOPC    C324660   7.191   0.597  13.615
  199DOPC    HX24661   7.190   0.701  13.576
  199DOPC    HY24662   7.297   0.573  13.638
  199DOPC   O3124663   7.104   0.591  13.730
  199DOPC   C3124664   7.150   0.525  13.836
  199DOPC   O3224665   7.262   0.481  13.851
  199DOPC   C3224666   7.037   0.511  13.939
  199DOPC   H2X24667   6.944   0.485  13.886
  199DOPC   H2Y24668   7.065   0.427  14.007
  199DOPC   C2324669   7.266   0.086  13.597
  199DOPC   H3R24670   7.367   0.119  13.565
  199DOPC   H3S24671   7.265   8.424  13.595
  199DOPC   C2424672   7.240   0.129  13.742
  199DOPC   H4R24673   7.225   0.239  13.746
  199DOPC   H4S24674   7.330   0.106  13.803
  199DOPC   C2524675   7.120   0.058  13.807
  199DOPC   H5R24676   7.140   8.398  13.813
  199DOPC   H5S24677   7.030   0.071  13.742
  199DOPC   C2624678   7.087   0.115  13.945
  199DOPC   H6R24679   7.062   0.222  13.932
  199DOPC   H6S24680   7.177   0.109  14.010
  199DOPC   C2724681   6.970   0.043  14.014
  199DOPC   H7R24682   7.005   8.391  14.045
  199DOPC   H7S24683   6.888   0.027  13.941
  199DOPC   C2824684   6.917   0.118  14.138
  199DOPC   H8R24685   7.003   0.149  14.200
  199DOPC   H8S24686   6.857   0.046  14.198
  199DOPC   C2924687   6.833   0.238  14.101
  199DOPC   H9R24688   6.858   0.283  14.003
  199DOPC  C21024689   6.733   0.292  14.173
  199DOPC  H10R24690   6.681   0.380  14.133
  199DOPC  C21124691   6.683   0.245  14.307
  199DOPC  H11R24692   6.731   0.150  14.340
  199DOPC  H11S24693   6.574   0.223  14.300
  199DOPC  C21224694   6.703   0.351  14.417
  199DOPC  H12R24695   6.647   0.320  14.508
  199DOPC  H12S24696   6.660   0.447  14.383
  199DOPC  C21324697   6.850   0.375  14.458
  199DOPC  H13R24698   6.855   0.468  14.518
  199DOPC  H13S24699   6.912   0.392  14.366
  199DOPC  C21424700   6.911   0.260  14.539
  199DOPC  H14R24701   6.901   0.166  14.481
  199DOPC  H14S24702   6.853   0.247  14.633
  199DOPC  C21524703   7.060   0.279  14.573
  199DOPC  H15R24704   7.117   0.280  14.477
  199DOPC  H15S24705   7.095   0.191  14.630
  199DOPC  C21624706   7.094   0.407  14.651
  199DOPC  H16R24707   7.066   0.495  14.590
  199DOPC  H16S24708   7.204   0.410  14.665
  199DOPC  C21724709   7.029   0.419  14.789
  199DOPC  H17R24710   6.918   0.414  14.778
  199DOPC  H17S24711   7.053   0.520  14.830
  199DOPC  C21824712   7.075   0.314  14.890
  199DOPC  H18R24713   7.031   0.333  14.990
  199DOPC  H18S24714   7.186   0.315  14.900
  199DOPC  H18T24715   7.044   0.212  14.858
  199DOPC   C3324716   7.017   0.639  14.024
  199DOPC   H3X24717   6.994   0.724  13.956
  199DOPC   H3Y24718   7.111   0.662  14.077
  199DOPC   C3424719   6.902   0.625  14.125
  199DOPC   H4X24720   6.922   0.537  14.190
  199DOPC   H4Y24721   6.808   0.606  14.070
  199DOPC   C3524722   6.883   0.749  14.215
  199DOPC   H5X24723   6.795   0.731  14.281
  199DOPC   H5Y24724   6.859   0.838  14.152
  199DOPC   C3624725   7.005   0.779  14.302
  199DOPC   H6X24726   7.037   0.686  14.353
  199DOPC   H6Y24727   7.089   0.812  14.236
  199DOPC   C3724728   6.983   0.887  14.409
  199DOPC   H7X24729   6.954   0.983  14.361
  199DOPC   H7Y24730   6.898   0.856  14.472
  199DOPC   C3824731   7.106   0.908  14.500
  199DOPC   H8X24732   7.137   0.808  14.539
  199DOPC   H8Y24733   7.073   0.967  14.588
  199DOPC   C3924734   7.223   0.980  14.436
  199DOPC   H9X24735   7.221   1.089  14.448
  199DOPC  C31024736   7.325   0.925  14.367
  199DOPC  H10X24737   7.403   0.991  14.328
  199DOPC  C31124738   7.345   0.778  14.336
  199DOPC  H11X24739   7.336   0.765  14.226
  199DOPC  H11Y24740   7.268   0.714  14.382
  199DOPC  C31224741   7.484   0.724  14.377
  199DOPC  H12X24742   7.563   0.797  14.347
  199DOPC  H12Y24743   7.503   0.631  14.320
  199DOPC  C31324744   7.497   0.693  14.527
  199DOPC  H13X24745   7.605   0.684  14.550
  199DOPC  H13Y24746   7.456   0.776  14.587
  199DOPC  C31424747   7.430   0.560  14.565
  199DOPC  H14X24748   7.320   0.572  14.560
  199DOPC  H14Y24749   7.459   0.484  14.489
  199DOPC  C31524750   7.472   0.507  14.703
  199DOPC  H15X24751   7.583   0.502  14.708
  199DOPC  H15Y24752   7.434   0.404  14.715
  199DOPC  C31624753   7.420   0.592  14.820
  199DOPC  H16X24754   7.458   0.696  14.810
  199DOPC  H16Y24755   7.309   0.597  14.814
  199DOPC  C31724756   7.461   0.536  14.956
  199DOPC  H17X24757   7.426   0.431  14.963
  199DOPC  H17Y24758   7.572   0.534  14.962
  199DOPC  C31824759   7.405   0.616  15.074
  199DOPC  H18X24760   7.439   0.572  15.170
  199DOPC  H18Y24761   7.439   0.721  15.069
  199DOPC  H18Z24762   7.294   0.614  15.072
  200DOPC     N24763   1.247   0.145  12.887
  200DOPC   C1224764   1.272   0.295  12.890
  200DOPC  H12A24765   1.238   0.337  12.796
  200DOPC  H12B24766   1.379   0.312  12.895
  200DOPC   C1324767   1.263   0.086  13.023
  200DOPC  H13A24768   1.188   0.128  13.088
  200DOPC  H13B24769   1.244   8.428  13.021
  200DOPC  H13C24770   1.361   0.105  13.065
  200DOPC   C1424771   1.338   0.079  12.788
  200DOPC  H14A24772   1.443   0.091  12.812
  200DOPC  H14B24773   1.318   8.422  12.782
  200DOPC  H14C24774   1.321   0.120  12.689
  200DOPC   C1524775   1.105   0.118  12.844
  200DOPC  H15A24776   1.086   0.156  12.745
  200DOPC  H15B24777   1.038   0.165  12.914
  200DOPC  H15C24778   1.082   0.012  12.847
  200DOPC   C1124779   1.207   0.380  13.003
  200DOPC  H11A24780   1.243   0.345  13.102
  200DOPC  H11B24781   1.242   0.485  12.993
  200DOPC     P24782   0.969   0.328  13.107
  200DOPC   O1324783   0.986   0.182  13.115
  200DOPC   O1424784   0.836   0.380  13.074
  200DOPC   O1224785   1.065   0.379  12.992
  200DOPC   O1124786   1.026   0.396  13.238
  200DOPC    C124787   1.090   0.320  13.341
  200DOPC    HA24788   1.141   0.390  13.410
  200DOPC    HB24789   1.169   0.254  13.300
  200DOPC    C224790   0.991   0.233  13.425
  200DOPC    HS24791   0.891   0.241  13.378
  200DOPC   O2124792   0.987   0.286  13.560
  200DOPC   C2124793   0.887   0.240  13.634
  200DOPC   O2224794   0.800   0.164  13.596
  200DOPC   C2224795   0.890   0.308  13.772
  200DOPC   H2R24796   0.812   0.386  13.768
  200DOPC   H2S24797   0.989   0.356  13.788
  200DOPC    C324798   1.034   0.083  13.423
  200DOPC    HX24799   1.041   0.052  13.317
  200DOPC    HY24800   0.954   0.020  13.468
  200DOPC   O3124801   1.164   0.068  13.485
  200DOPC   C3124802   1.161   0.023  13.610
  200DOPC   O3224803   1.069   8.409  13.661
  200DOPC   C3224804   1.285   0.070  13.685
  200DOPC   H2X24805   1.279   0.025  13.786
  200DOPC   H2Y24806   1.375   0.029  13.633
  200DOPC   C2324807   0.857   0.212  13.888
  200DOPC   H3R24808   0.780   0.138  13.855
  200DOPC   H3S24809   0.812   0.269  13.972
  200DOPC   C2424810   0.979   0.137  13.943
  200DOPC   H4R24811   1.029   0.199  14.020
  200DOPC   H4S24812   1.053   0.120  13.861
  200DOPC   C2524813   0.939   0.001  13.999
  200DOPC   H5R24814   0.900   8.389  13.914
  200DOPC   H5S24815   0.856   0.014  14.072
  200DOPC   C2624816   1.053   8.371  14.065
  200DOPC   H6R24817   1.142   8.373  14.000
  200DOPC   H6S24818   1.020   8.265  14.075
  200DOPC   C2724819   1.088   8.422  14.206
  200DOPC   H7R24820   0.997   8.419  14.271
  200DOPC   H7S24821   1.118   0.080  14.197
  200DOPC   C2824822   1.203   8.344  14.271
  200DOPC   H8R24823   1.232   8.398  14.364
  200DOPC   H8S24824   1.291   8.349  14.204
  200DOPC   C2924825   1.169   8.200  14.301
  200DOPC   H9R24826   1.177   8.133  14.215
  200DOPC  C21024827   1.130   8.149  14.420
  200DOPC  H10R24828   1.112   8.041  14.427
  200DOPC  C21124829   1.111   8.226  14.548
  200DOPC  H11R24830   1.022   8.188  14.603
  200DOPC  H11S24831   1.088   8.333  14.525
  200DOPC  C21224832   1.231   8.221  14.644
  200DOPC  H12R24833   1.324   8.196  14.588
  200DOPC  H12S24834   1.215   8.139  14.717
  200DOPC  C21324835   1.255   8.353  14.718
  200DOPC  H13R24836   1.331   8.335  14.797
  200DOPC  H13S24837   1.162   8.387  14.767
  200DOPC  C21424838   1.309   0.014  14.624
  200DOPC  H14R24839   1.230   0.043  14.551
  200DOPC  H14S24840   1.392   8.418  14.566
  200DOPC  C21524841   1.359   0.140  14.693
  200DOPC  H15R24842   1.406   0.115  14.790
  200DOPC  H15S24843   1.272   0.206  14.714
  200DOPC  C21624844   1.461   0.215  14.605
  200DOPC  H16R24845   1.454   0.324  14.623
  200DOPC  H16S24846   1.435   0.197  14.499
  200DOPC  C21724847   1.605   0.169  14.630
  200DOPC  H17R24848   1.667   0.199  14.542
  200DOPC  H17S24849   1.608   0.058  14.636
  200DOPC  C21824850   1.667   0.230  14.756
  200DOPC  H18R24851   1.667   0.340  14.751
  200DOPC  H18S24852   1.773   0.196  14.768
  200DOPC  H18T24853   1.610   0.199  14.847
  200DOPC   C3324854   1.291   0.224  13.693
  200DOPC   H3X24855   1.193   0.264  13.728
  200DOPC   H3Y24856   1.308   0.266  13.592
  200DOPC   C3424857   1.399   0.277  13.788
  200DOPC   H4X24858   1.405   0.387  13.776
  200DOPC   H4Y24859   1.498   0.235  13.759
  200DOPC   C3524860   1.370   0.245  13.935
  200DOPC   H5X24861   1.376   0.136  13.951
  200DOPC   H5Y24862   1.266   0.277  13.958
  200DOPC   C3624863   1.467   0.314  14.032
  200DOPC   H6X24864   1.571   0.291  14.000
  200DOPC   H6Y24865   1.454   0.424  14.026
  200DOPC   C3724866   1.450   0.267  14.178
  200DOPC   H7X24867   1.462   0.157  14.179
  200DOPC   H7Y24868   1.531   0.310  14.240
  200DOPC   C3824869   1.313   0.301  14.240
  200DOPC   H8X24870   1.302   0.242  14.333
  200DOPC   H8Y24871   1.232   0.267  14.172
  200DOPC   C3924872   1.297   0.447  14.273
  200DOPC   H9X24873   1.392   0.499  14.295
  200DOPC  C31024874   1.182   0.518  14.276
  200DOPC  H10X24875   1.186   0.624  14.301
  200DOPC  C31124876   1.043   0.465  14.246
  200DOPC  H11X24877   1.039   0.429  14.141
  200DOPC  H11Y24878   0.970   0.549  14.253
  200DOPC  C31224879   0.994   0.351  14.337
  200DOPC  H12X24880   1.062   0.264  14.329
  200DOPC  H12Y24881   0.894   0.317  14.302
  200DOPC  C31324882   0.983   0.389  14.486
  200DOPC  H13X24883   1.077   0.436  14.520
  200DOPC  H13Y24884   0.901   0.464  14.499
  200DOPC  C31424885   0.955   0.266  14.573
  200DOPC  H14X24886   0.866   0.213  14.533
  200DOPC  H14Y24887   1.042   0.197  14.564
  200DOPC  C31524888   0.932   0.299  14.721
  200DOPC  H15X24889   0.839   0.361  14.729
  200DOPC  H15Y24890   1.016   0.360  14.759
  200DOPC  C31624891   0.918   0.172  14.805
  200DOPC  H16X24892   0.843   0.105  14.758
  200DOPC  H16Y24893   1.016   0.118  14.803
  200DOPC  C31724894   0.878   0.197  14.951
  200DOPC  H17X24895   0.892   0.102  15.008
  200DOPC  H17Y24896   0.947   0.272  14.996
  200DOPC  C31824897   0.733   0.242  14.969
  200DOPC  H18X24898   0.709   0.258  15.076
  200DOPC  H18Y24899   0.714   0.338  14.915
  200DOPC  H18Z24900   0.663   0.166  14.928
  201SOD    SOD24901   7.941   2.033  17.346
  202SOD    SOD24902   7.398   6.899  12.563
  203SOD    SOD24903   7.893   1.882  19.677
  204SOD    SOD24904   7.882   7.689  10.371
  205SOD    SOD24905   6.808   3.415  19.609
  206SOD    SOD24906   2.940   2.833  11.355
  207SOD    SOD24907   1.701   1.180  12.021
  208SOD    SOD24908   4.109   3.523  18.732
  209SOD    SOD24909   1.349   2.989  12.651
  210SOD    SOD24910   5.197   0.785  17.162
  211SOD    SOD24911   2.604   2.782  19.163
  212SOD    SOD24912   0.638   5.430  18.987
  213SOD    SOD24913   2.739   5.995  10.366
  214SOD    SOD24914   2.554   3.561  18.763
  215SOD    SOD24915   7.372   5.677  19.345
  216SOD    SOD24916   2.034   6.150  18.482
  217SOD    SOD24917   0.975   2.901  11.486
  218SOD    SOD24918   6.432   4.572  19.293
  219SOD    SOD24919   7.706   3.180  19.572
  220SOD    SOD24920   4.498   2.362  10.641
  221SOD    SOD24921   0.303   7.644  11.266
  222SOD    SOD24922   5.358   6.078  18.030
  223SOD    SOD24923   3.135   6.763  11.609
  224SOD    SOD24924   0.472   5.121  10.741
  225SOD    SOD24925   3.352   2.367  11.554
  226SOD    SOD24926   0.963   8.020  19.338
  227CLA    CLA24927   6.591   3.900  11.521
  228CLA    CLA24928   5.537   5.270  10.249
  229CLA    CLA24929   0.526   5.085  11.955
  230CLA    CLA24930   6.427   3.363  18.098
  231CLA    CLA24931   5.003   7.172  19.759
  232CLA    CLA24932   5.084   3.027  19.737
  233CLA    CLA24933   5.099   1.383  18.045
  234CLA    CLA24934   6.863   6.350  19.016
  235CLA    CLA24935   1.735   0.800  10.272
  236CLA    CLA24936   2.998   0.604  18.432
  237CLA    CLA24937   2.751   2.347  17.798
  238CLA    CLA24938   5.820   1.576  11.829
  239CLA    CLA24939   7.964   0.645  12.089
  240CLA    CLA24940   7.042   4.514  17.227
  241CLA    CLA24941   5.330   7.957  12.415
  242CLA    CLA24942   5.704   3.476  18.212
  243CLA    CLA24943   0.905   0.695  11.613
  244CLA    CLA24944   3.808   2.612  12.056
  245CLA    CLA24945   7.765   6.864  11.949
  246CLA    CLA24946   1.200   0.869  19.775
  247CLA    CLA24947   4.521   0.875  11.565
  248CLA    CLA24948   5.018   4.867  11.829
  249CLA    CLA24949   1.981   6.779  11.893
  250CLA    CLA24950   5.059   3.117  18.676
  251CLA    CLA24951   1.327   3.746  18.029
  252CLA    CLA24952   0.733   2.505  12.382
  253TIP3   OH224953   4.518   5.236  17.038
  253TIP3    H124954   4.442   5.208  16.987
  253TIP3    H224955   4.574   5.159  17.041
  254TIP3   OH224956   4.271   4.952  17.126
  254TIP3    H124957   4.207   5.021  17.139
  254TIP3    H224958   4.316   4.975  17.044
  255TIP3   OH224959   3.055   4.892  17.077
  255TIP3    H124960   3.127   4.950  17.101
  255TIP3    H224961   3.020   4.929  16.996
  256TIP3   OH224962   2.703   5.106  17.024
  256TIP3    H124963   2.618   5.146  17.040
  256TIP3    H224964   2.709   5.036  17.089
  257TIP3   OH224965   2.563   2.941  16.903
  257TIP3    H124966   2.502   3.014  16.891
  257TIP3    H224967   2.650   2.979  16.887
  258TIP3   OH224968   6.739   4.483  17.320
  258TIP3    H124969   6.725   4.562  17.268
  258TIP3    H224970   6.829   4.458  17.301
  259TIP3   OH224971   6.528   4.722  16.944
  259TIP3    H124972   6.599   4.661  16.921
  259TIP3    H224973   6.448   4.672  16.928
  260TIP3   OH224974   6.914   4.328  17.001
  260TIP3    H124975   6.965   4.381  17.063
  260TIP3    H224976   6.979   4.276  16.955
  261TIP3   OH224977   1.929   2.690  17.016
  261TIP3    H124978   2.010   2.690  16.964
  261TIP3    H224979   1.860   2.670  16.953
  262TIP3   OH224980   6.900   2.536  17.038
  262TIP3    H124981   6.831   2.594  17.005
  262TIP3    H224982   6.950   2.513  16.960
  263TIP3   OH224983   6.465   2.811  17.040
  263TIP3    H124984   6.465   2.898  17.081
  263TIP3    H224985   6.400   2.819  16.970
  264TIP3   OH224986   3.133   7.086  17.005
  264TIP3    H124987   3.060   7.117  17.059
  264TIP3    H224988   3.095   7.018  16.950
  265TIP3   OH224989   2.902   6.674  16.954
  265TIP3    H124990   2.906   6.643  17.045
  265TIP3    H224991   2.842   6.614  16.911
  266TIP3   OH224992   2.913   7.232  17.098
  266TIP3    H124993   2.957   7.310  17.131
  266TIP3    H224994   2.880   7.257  17.012
  267TIP3   OH224995   1.524   6.412  17.171
  267TIP3    H124996   1.436   6.421  17.135
  267TIP3    H224997   1.578   6.472  17.119
  268TIP3   OH224998   1.068   6.059  17.231
  268TIP3    H124999   1.139   6.049  17.168
  268TIP3    H225000   1.004   6.115  17.188
  269TIP3   OH225001   1.270   6.028  17.050
  269TIP3    H125002   1.279   5.974  16.972
  269TIP3    H225003   1.358   6.066  17.063
  270TIP3   OH225004   1.309   5.605  16.944
  270TIP3    H125005   1.263   5.632  17.024
  270TIP3    H225006   1.333   5.514  16.959
  271TIP3   OH225007   3.675   0.709  17.149
  271TIP3    H125008   3.686   0.803  17.160
  271TIP3    H225009   3.582   0.693  17.167
  272TIP3   OH225010   0.768   5.849  17.107
  272TIP3    H125011   0.750   5.761  17.142
  272TIP3    H225012   0.806   5.832  17.021
  273TIP3   OH225013   6.085   7.907  17.083
  273TIP3    H125014   6.035   7.874  17.009
  273TIP3    H225015   6.092   8.001  17.067
  274TIP3   OH225016   2.251   0.590  17.049
  274TIP3    H125017   2.202   0.572  17.130
  274TIP3    H225018   2.184   0.616  16.986
  275TIP3   OH225019   2.928   8.404  17.164
  275TIP3    H125020   2.974   0.013  17.224
  275TIP3    H225021   2.876   0.013  17.109
  276TIP3   OH225022   2.790   0.163  17.040
  276TIP3    H125023   2.765   0.233  17.100
  276TIP3    H225024   2.820   0.208  16.962
  277TIP3   OH225025   5.901   0.208  17.032
  277TIP3    H125026   5.809   0.201  17.007
  277TIP3    H225027   5.937   0.273  16.971
  278TIP3   OH225028   6.185   0.613  16.871
  278TIP3    H125029   6.264   0.638  16.822
  278TIP3    H225030   6.180   0.677  16.942
  279TIP3   OH225031   7.875   2.184  16.906
  279TIP3    H125032   7.851   2.145  16.822
  279TIP3    H225033   7.924   2.263  16.882
  280TIP3   OH225034   8.199   1.868  17.071
  280TIP3    H125035   8.279   1.897  17.027
  280TIP3    H225036   8.161   1.804  17.011
  281TIP3   OH225037   8.112   1.231  16.789
  281TIP3    H125038   8.195   1.269  16.759
  281TIP3    H225039   8.134   1.141  16.812
  282TIP3   OH225040   1.184   0.299  17.110
  282TIP3    H125041   1.187   0.205  17.130
  282TIP3    H225042   1.097   0.326  17.137
  283TIP3   OH225043   1.612   0.474  16.953
  283TIP3    H125044   1.576   0.386  16.946
  283TIP3    H225045   1.538   0.532  16.935
  284TIP3   OH225046   4.703   3.969  12.861
  284TIP3    H125047   4.732   3.889  12.905
  284TIP3    H225048   4.705   4.037  12.928
  285TIP3   OH225049   4.844   4.407  12.959
  285TIP3    H125050   4.801   4.489  12.983
  285TIP3    H225051   4.902   4.430  12.886
  286TIP3   OH225052   5.460   3.998  13.052
  286TIP3    H125053   5.505   4.073  13.091
  286TIP3    H225054   5.512   3.977  12.974
  287TIP3   OH225055   5.234   4.415  12.782
  287TIP3    H125056   5.277   4.500  12.781
  287TIP3    H225057   5.140   4.435  12.778
  288TIP3   OH225058   3.422   5.659  13.147
  288TIP3    H125059   3.385   5.602  13.215
  288TIP3    H225060   3.356   5.660  13.078
  289TIP3   OH225061   4.174   5.779  12.990
  289TIP3    H125062   4.176   5.871  12.965
  289TIP3    H225063   4.091   5.768  13.036
  290TIP3   OH225064   4.874   5.899  12.885
  290TIP3    H125065   4.830   5.842  12.948
  290TIP3    H225066   4.965   5.871  12.886
  291TIP3   OH225067   4.725   5.450  12.970
  291TIP3    H125068   4.662   5.398  12.919
  291TIP3    H225069   4.808   5.403  12.960
  292TIP3   OH225070   3.214   5.627  12.965
  292TIP3    H125071   3.143   5.664  12.912
  292TIP3    H225072   3.212   5.534  12.946
  293TIP3   OH225073   2.672   5.828  12.754
  293TIP3    H125074   2.666   5.743  12.799
  293TIP3    H225075   2.731   5.880  12.809
  294TIP3   OH225076   2.866   5.942  12.919
  294TIP3    H125077   2.883   6.027  12.958
  294TIP3    H225078   2.839   5.886  12.992
  295TIP3   OH225079   2.746   5.591  12.879
  295TIP3    H125080   2.729   5.505  12.842
  295TIP3    H225081   2.839   5.607  12.861
  296TIP3   OH225082   2.993   5.715  12.804
  296TIP3    H125083   2.975   5.720  12.710
  296TIP3    H225084   2.964   5.800  12.838
  297TIP3   OH225085   2.836   1.855  13.002
  297TIP3    H125086   2.904   1.793  12.976
  297TIP3    H225087   2.829   1.844  13.097
  298TIP3   OH225088   2.909   2.116  13.067
  298TIP3    H125089   2.878   2.031  13.036
  298TIP3    H225090   2.836   2.151  13.118
  299TIP3   OH225091   2.230   1.678  12.892
  299TIP3    H125092   2.184   1.608  12.938
  299TIP3    H225093   2.308   1.637  12.856
  300TIP3   OH225094   2.444   1.541  12.786
  300TIP3    H125095   2.531   1.566  12.816
  300TIP3    H225096   2.428   1.456  12.826
  301TIP3   OH225097   2.235   2.101  12.921
  301TIP3    H125098   2.290   2.037  12.966
  301TIP3    H225099   2.152   2.056  12.905
  302TIP3   OH225100   2.580   1.854  12.859
  302TIP3    H125101   2.514   1.867  12.927
  302TIP3    H225102   2.664   1.856  12.906
  303TIP3   OH225103   6.402   6.664  12.860
  303TIP3    H125104   6.357   6.609  12.796
  303TIP3    H225105   6.461   6.717  12.807
  304TIP3   OH225106   3.142   6.978  13.063
  304TIP3    H125107   3.233   7.005  13.051
  304TIP3    H225108   3.146   6.882  13.063
  305TIP3   OH225109   2.730   7.346  13.013
  305TIP3    H125110   2.805   7.296  13.046
  305TIP3    H225111   2.693   7.292  12.944
  306TIP3   OH225112   0.769   6.112  12.917
  306TIP3    H125113   0.755   6.205  12.939
  306TIP3    H225114   0.840   6.084  12.976
  307TIP3   OH225115   0.655   5.680  12.869
  307TIP3    H125116   0.607   5.688  12.951
  307TIP3    H225117   0.707   5.600  12.879
  308TIP3   OH225118   0.765   5.448  12.974
  308TIP3    H125119   0.846   5.467  13.022
  308TIP3    H225120   0.746   5.357  12.995
  309TIP3   OH225121   4.387   7.877  12.827
  309TIP3    H125122   4.345   7.839  12.904
  309TIP3    H225123   4.480   7.854  12.836
  310TIP3   OH225124   3.846   7.877  13.075
  310TIP3    H125125   3.829   7.963  13.035
  310TIP3    H225126   3.759   7.842  13.093
  311TIP3   OH225127   1.179   2.486  12.907
  311TIP3    H125128   1.106   2.446  12.860
  311TIP3    H225129   1.257   2.443  12.871
  312TIP3   OH225130   0.738   2.698  12.946
  312TIP3    H125131   0.679   2.633  12.986
  312TIP3    H225132   0.824   2.676  12.982
  313TIP3   OH225133   7.795   2.699  12.716
  313TIP3    H125134   7.811   2.617  12.762
  313TIP3    H225135   7.740   2.750  12.777
  314TIP3   OH225136   7.416   2.517  12.970
  314TIP3    H125137   7.345   2.464  13.006
  314TIP3    H225138   7.454   2.462  12.901
  315TIP3   OH225139   7.429   2.961  12.945
  315TIP3    H125140   7.475   2.898  13.001
  315TIP3    H225141   7.476   3.043  12.958
  316TIP3   OH225142   6.092   0.227  12.925
  316TIP3    H125143   6.018   0.220  12.864
  316TIP3    H225144   6.073   0.306  12.976
  317TIP3   OH225145   6.339   0.307  13.008
  317TIP3    H125146   6.271   0.251  12.970
  317TIP3    H225147   6.291   0.372  13.058
  318TIP3   OH225148   6.530   0.502  12.954
  318TIP3    H125149   6.483   0.423  12.981
  318TIP3    H225150   6.590   0.520  13.027
  319TIP3   OH225151   7.665   1.413  12.925
  319TIP3    H125152   7.599   1.375  12.983
  319TIP3    H225153   7.654   1.366  12.843
  320TIP3   OH225154   0.207   7.312  12.880
  320TIP3    H125155   0.234   7.402  12.895
  320TIP3    H225156   0.194   7.275  12.967
  321TIP3   OH225157   8.026   0.251  12.970
  321TIP3    H125158   7.970   0.205  12.907
  321TIP3    H225159   8.110   0.259  12.925
  322TIP3   OH225160   7.812   0.419  12.779
  322TIP3    H125161   7.839   0.327  12.777
  322TIP3    H225162   7.830   0.447  12.869
  323TIP3   OH225163   1.381   1.121  17.548
  323TIP3    H125164   1.349   1.211  17.541
  323TIP3    H225165   1.309   1.067  17.515
  324TIP3   OH225166   1.413   1.042  18.096
  324TIP3    H125167   1.396   0.984  18.169
  324TIP3    H225168   1.380   0.996  18.019
  325TIP3   OH225169   0.415   1.056  18.137
  325TIP3    H125170   0.437   0.963  18.125
  325TIP3    H225171   0.421   1.071  18.231
  326TIP3   OH225172   1.614   1.407  17.870
  326TIP3    H125173   1.631   1.324  17.914
  326TIP3    H225174   1.636   1.474  17.934
  327TIP3   OH225175   0.554   1.515  17.925
  327TIP3    H125176   0.535   1.421  17.934
  327TIP3    H225177   0.647   1.522  17.946
  328TIP3   OH225178   0.088   0.713  17.642
  328TIP3    H125179   0.012   0.741  17.593
  328TIP3    H225180   0.112   0.628  17.604
  329TIP3   OH225181   0.101   0.959  17.824
  329TIP3    H125182   0.140   0.879  17.858
  329TIP3    H225183   0.086   0.941  17.731
  330TIP3   OH225184   1.400   1.874  17.861
  330TIP3    H125185   1.424   1.819  17.786
  330TIP3    H225186   1.392   1.813  17.934
  331TIP3   OH225187   1.017   1.360  18.048
  331TIP3    H125188   1.060   1.308  17.980
  331TIP3    H225189   1.089   1.401  18.096
  332TIP3   OH225190   2.081   0.298  18.203
  332TIP3    H125191   2.092   0.375  18.259
  332TIP3    H225192   2.144   0.311  18.132
  333TIP3   OH225193   1.328   0.671  18.027
  333TIP3    H125194   1.362   0.584  18.046
  333TIP3    H225195   1.365   0.694  17.942
  334TIP3   OH225196   1.562   0.490  17.673
  334TIP3    H125197   1.612   0.459  17.749
  334TIP3    H225198   1.629   0.522  17.612
  335TIP3   OH225199   0.182   0.704  17.895
  335TIP3    H125200   0.243   0.630  17.905
  335TIP3    H225201   0.151   0.696  17.805
  336TIP3   OH225202   2.112   0.528  18.353
  336TIP3    H125203   2.045   0.590  18.325
  336TIP3    H225204   2.114   0.536  18.449
  337TIP3   OH225205   0.589   0.443  18.161
  337TIP3    H125206   0.608   0.532  18.131
  337TIP3    H225207   0.503   0.450  18.202
  338TIP3   OH225208   1.300   1.392  17.503
  338TIP3    H125209   1.250   1.472  17.513
  338TIP3    H225210   1.386   1.413  17.539
  339TIP3   OH225211   0.845   1.187  18.200
  339TIP3    H125212   0.776   1.244  18.234
  339TIP3    H225213   0.905   1.246  18.154
  340TIP3   OH225214   1.655   0.413  17.931
  340TIP3    H125215   1.573   0.415  17.979
  340TIP3    H225216   1.705   0.488  17.963
  341TIP3   OH225217   0.641   1.368  18.272
  341TIP3    H125218   0.616   1.384  18.181
  341TIP3    H225219   0.559   1.378  18.321
  342TIP3   OH225220   0.377   1.288  17.343
  342TIP3    H125221   0.370   1.301  17.249
  342TIP3    H225222   0.354   1.372  17.381
  343TIP3   OH225223   1.646   1.632  18.051
  343TIP3    H125224   1.553   1.653  18.059
  343TIP3    H225225   1.687   1.715  18.026
  344TIP3   OH225226   1.804   0.263  18.240
  344TIP3    H125227   1.766   0.270  18.153
  344TIP3    H225228   1.898   0.275  18.227
  345TIP3   OH225229   0.998   0.159  17.915
  345TIP3    H125230   0.982   0.065  17.927
  345TIP3    H225231   0.995   0.195  18.004
  346TIP3   OH225232   1.480   1.729  17.621
  346TIP3    H125233   1.504   1.636  17.618
  346TIP3    H225234   1.563   1.776  17.620
  347TIP3   OH225235   1.547   1.459  17.605
  347TIP3    H125236   1.609   1.410  17.551
  347TIP3    H225237   1.572   1.437  17.695
  348TIP3   OH225238   1.834   1.401  18.411
  348TIP3    H125239   1.838   1.337  18.339
  348TIP3    H225240   1.826   1.486  18.367
  349TIP3   OH225241   1.171   0.985  17.426
  349TIP3    H125242   1.097   1.045  17.425
  349TIP3    H225243   1.208   0.991  17.337
  350TIP3   OH225244   1.304   1.011  17.187
  350TIP3    H125245   1.383   0.958  17.196
  350TIP3    H225246   1.288   1.016  17.093
  351TIP3   OH225247   1.964   0.975  18.226
  351TIP3    H125248   1.908   1.052  18.224
  351TIP3    H225249   2.032   0.993  18.162
  352TIP3   OH225250   1.626   1.028  17.465
  352TIP3    H125251   1.545   1.054  17.509
  352TIP3    H225252   1.683   1.000  17.537
  353TIP3   OH225253   1.512   0.785  18.473
  353TIP3    H125254   1.536   0.870  18.508
  353TIP3    H225255   1.458   0.804  18.396
  354TIP3   OH225256   0.570   1.115  17.714
  354TIP3    H125257   0.503   1.108  17.645
  354TIP3    H225258   0.627   1.040  17.700
  355TIP3   OH225259   0.827   1.546  17.948
  355TIP3    H125260   0.831   1.534  17.853
  355TIP3    H225261   0.892   1.486  17.983
  356TIP3   OH225262   0.726   1.012  18.017
  356TIP3    H125263   0.674   1.080  17.974
  356TIP3    H225264   0.775   1.059  18.084
  357TIP3   OH225265   1.377   1.694  18.097
  357TIP3    H125266   1.371   1.743  18.178
  357TIP3    H225267   1.327   1.615  18.112
  358TIP3   OH225268   0.786   1.454  18.500
  358TIP3    H125269   0.718   1.515  18.529
  358TIP3    H225270   0.752   1.418  18.417
  359TIP3   OH225271   1.544   0.876  17.250
  359TIP3    H125272   1.574   0.931  17.322
  359TIP3    H225273   1.619   0.871  17.191
  360TIP3   OH225274   0.431   1.043  18.423
  360TIP3    H125275   0.457   1.092  18.501
  360TIP3    H225276   0.337   1.027  18.435
  361TIP3   OH225277   1.238   1.716  17.486
  361TIP3    H125278   1.320   1.718  17.536
  361TIP3    H225279   1.206   1.806  17.488
  362TIP3   OH225280   0.597   1.650  18.545
  362TIP3    H125281   0.604   1.722  18.482
  362TIP3    H225282   0.506   1.621  18.539
  363TIP3   OH225283   1.769   8.391  17.242
  363TIP3    H125284   1.720   0.009  17.291
  363TIP3    H225285   1.765   8.421  17.151
  364TIP3   OH225286   0.405   1.068  17.500
  364TIP3    H125287   0.397   1.149  17.448
  364TIP3    H225288   0.342   1.008  17.460
  365TIP3   OH225289   0.177   1.276  18.360
  365TIP3    H125290   0.089   1.283  18.323
  365TIP3    H225291   0.179   1.191  18.403
  366TIP3   OH225292   0.156   1.617  18.113
  366TIP3    H125293   0.162   1.521  18.117
  366TIP3    H225294   0.227   1.648  18.168
  367TIP3   OH225295   2.016   1.733  18.589
  367TIP3    H125296   2.037   1.640  18.581
  367TIP3    H225297   1.930   1.734  18.631
  368TIP3   OH225298   0.970   1.668  18.465
  368TIP3    H125299   0.972   1.737  18.531
  368TIP3    H225300   0.903   1.607  18.497
  369TIP3   OH225301   1.147   1.989  17.473
  369TIP3    H125302   1.054   1.982  17.495
  369TIP3    H225303   1.170   2.079  17.494
  370TIP3   OH225304   1.442   1.993  17.450
  370TIP3    H125305   1.348   1.981  17.463
  370TIP3    H225306   1.482   1.924  17.503
  371TIP3   OH225307   1.767   0.683  18.529
  371TIP3    H125308   1.682   0.726  18.517
  371TIP3    H225309   1.751   0.591  18.504
  372TIP3   OH225310   0.401   1.429  18.404
  372TIP3    H125311   0.395   1.430  18.499
  372TIP3    H225312   0.326   1.378  18.376
  373TIP3   OH225313   0.617   0.169  18.126
  373TIP3    H125314   0.533   0.158  18.081
  373TIP3    H225315   0.624   0.263  18.142
  374TIP3   OH225316   1.121   0.151  18.344
  374TIP3    H125317   1.148   0.059  18.346
  374TIP3    H225318   1.027   0.149  18.361
  375TIP3   OH225319   1.405   0.521  18.513
  375TIP3    H125320   1.383   0.513  18.605
  375TIP3    H225321   1.444   0.608  18.504
  376TIP3   OH225322   0.715   0.735  18.040
  376TIP3    H125323   0.629   0.737  18.082
  376TIP3    H225324   0.733   0.827  18.019
  377TIP3   OH225325   1.259   0.755  17.561
  377TIP3    H125326   1.223   0.833  17.519
  377TIP3    H225327   1.316   0.716  17.494
  378TIP3   OH225328   1.106   0.807  18.655
  378TIP3    H125329   1.056   0.738  18.698
  378TIP3    H225330   1.186   0.815  18.707
  379TIP3   OH225331   1.434   0.714  17.776
  379TIP3    H125332   1.371   0.744  17.710
  379TIP3    H225333   1.470   0.633  17.741
  380TIP3   OH225334   0.483   0.719  18.184
  380TIP3    H125335   0.521   0.756  18.264
  380TIP3    H225336   0.416   0.658  18.215
  381TIP3   OH225337   1.331   0.826  18.257
  381TIP3    H125338   1.334   0.768  18.181
  381TIP3    H225339   1.247   0.806  18.300
  382TIP3   OH225340   1.412   0.413  18.061
  382TIP3    H125341   1.378   0.397  18.149
  382TIP3    H225342   1.360   0.355  18.005
  383TIP3   OH225343   1.734   2.054  18.693
  383TIP3    H125344   1.747   2.087  18.604
  383TIP3    H225345   1.812   2.083  18.741
  384TIP3   OH225346   0.472   1.176  18.668
  384TIP3    H125347   0.547   1.171  18.728
  384TIP3    H225348   0.449   1.269  18.667
  385TIP3   OH225349   1.070   0.598  17.945
  385TIP3    H125350   1.158   0.623  17.974
  385TIP3    H225351   1.021   0.584  18.027
  386TIP3   OH225352   0.921   0.610  18.186
  386TIP3    H125353   0.855   0.663  18.140
  386TIP3    H225354   0.965   0.672  18.244
  387TIP3   OH225355   0.986   1.196  17.435
  387TIP3    H125356   1.039   1.275  17.440
  387TIP3    H225357   0.909   1.216  17.489
  388TIP3   OH225358   1.847   1.227  18.191
  388TIP3    H125359   1.924   1.266  18.149
  388TIP3    H225360   1.785   1.214  18.120
  389TIP3   OH225361   1.276   0.422  17.355
  389TIP3    H125362   1.261   0.398  17.264
  389TIP3    H225363   1.326   0.503  17.352
  390TIP3   OH225364   1.164   1.472  18.445
  390TIP3    H125365   1.124   1.409  18.505
  390TIP3    H225366   1.104   1.546  18.445
  391TIP3   OH225367   1.445   0.648  17.378
  391TIP3    H125368   1.530   0.618  17.410
  391TIP3    H225369   1.466   0.724  17.323
  392TIP3   OH225370   0.540   1.239  17.962
  392TIP3    H125371   0.534   1.201  17.874
  392TIP3    H225372   0.486   1.181  18.016
  393TIP3   OH225373   0.162   1.029  18.486
  393TIP3    H125374   0.168   1.033  18.582
  393TIP3    H225375   0.074   0.993  18.470
  394TIP3   OH225376   0.932   1.026  18.635
  394TIP3    H125377   0.896   1.005  18.549
  394TIP3    H225378   1.004   0.964  18.647
  395TIP3   OH225379   1.419   1.517  18.546
  395TIP3    H125380   1.335   1.497  18.503
  395TIP3    H225381   1.396   1.536  18.637
  396TIP3   OH225382   1.875   0.764  17.290
  396TIP3    H125383   1.847   0.724  17.207
  396TIP3    H225384   1.894   0.855  17.268
  397TIP3   OH225385   2.073   1.457  18.545
  397TIP3    H125386   1.983   1.440  18.519
  397TIP3    H225387   2.126   1.400  18.489
  398TIP3   OH225388   1.930   1.641  17.315
  398TIP3    H125389   1.971   1.569  17.363
  398TIP3    H225390   1.974   1.641  17.230
  399TIP3   OH225391   1.653   1.150  18.000
  399TIP3    H125392   1.571   1.128  18.045
  399TIP3    H225393   1.673   1.071  17.949
  400TIP3   OH225394   0.718   1.541  17.682
  400TIP3    H125395   0.714   1.617  17.624
  400TIP3    H225396   0.636   1.543  17.730
  401TIP3   OH225397   0.146   1.025  17.077
  401TIP3    H125398   0.159   1.102  17.021
  401TIP3    H225399   0.062   0.990  17.048
  402TIP3   OH225400   0.775   1.281  17.596
  402TIP3    H125401   0.763   1.373  17.617
  402TIP3    H225402   0.700   1.237  17.636
  403TIP3   OH225403   0.892   1.834  18.255
  403TIP3    H125404   0.969   1.890  18.242
  403TIP3    H225405   0.921   1.768  18.319
  404TIP3   OH225406   0.673   1.775  17.532
  404TIP3    H125407   0.582   1.784  17.503
  404TIP3    H225408   0.699   1.863  17.559
  405TIP3   OH225409   1.249   1.447  18.182
  405TIP3    H125410   1.223   1.455  18.274
  405TIP3    H225411   1.319   1.382  18.183
  406TIP3   OH225412   1.571   1.727  18.455
  406TIP3    H125413   1.523   1.650  18.486
  406TIP3    H225414   1.504   1.783  18.416
  407TIP3   OH225415   0.337   0.487  18.265
  407TIP3    H125416   0.282   0.427  18.214
  407TIP3    H225417   0.309   0.474  18.355
  408TIP3   OH225418   1.707   1.295  17.442
  408TIP3    H125419   1.675   1.204  17.440
  408TIP3    H225420   1.801   1.287  17.431
  409TIP3   OH225421   0.378   1.674  18.268
  409TIP3    H125422   0.397   1.592  18.312
  409TIP3    H225423   0.457   1.726  18.278
  410TIP3   OH225424   0.860   1.523  17.144
  410TIP3    H125425   0.933   1.514  17.204
  410TIP3    H225426   0.820   1.607  17.166
  411TIP3   OH225427   1.294   0.373  18.302
  411TIP3    H125428   1.325   0.412  18.384
  411TIP3    H225429   1.238   0.301  18.329
  412TIP3   OH225430   1.435   0.284  17.535
  412TIP3    H125431   1.373   0.326  17.474
  412TIP3    H225432   1.471   0.356  17.585
  413TIP3   OH225433   1.051   1.586  17.335
  413TIP3    H125434   0.980   1.651  17.329
  413TIP3    H225435   1.116   1.627  17.392
  414TIP3   OH225436   1.062   0.586  17.668
  414TIP3    H125437   1.128   0.647  17.634
  414TIP3    H225438   1.072   0.591  17.763
  415TIP3   OH225439   1.091   0.737  18.385
  415TIP3    H125440   1.094   0.770  18.475
  415TIP3    H225441   1.124   0.647  18.391
  416TIP3   OH225442   1.042   0.367  17.503
  416TIP3    H125443   1.042   0.442  17.562
  416TIP3    H225444   1.125   0.375  17.454
  417TIP3   OH225445   0.841   1.765  17.310
  417TIP3    H125446   0.832   1.857  17.282
  417TIP3    H225447   0.783   1.758  17.385
  418TIP3   OH225448   1.691   0.442  18.432
  418TIP3    H125449   1.597   0.426  18.440
  418TIP3    H225450   1.721   0.377  18.369
  419TIP3   OH225451   1.655   0.855  17.883
  419TIP3    H125452   1.574   0.815  17.851
  419TIP3    H225453   1.694   0.789  17.939
  420TIP3   OH225454   1.760   1.885  18.017
  420TIP3    H125455   1.749   1.942  17.942
  420TIP3    H225456   1.855   1.884  18.034
  421TIP3   OH225457   0.385   0.140  17.972
  421TIP3    H125458   0.379   0.156  17.878
  421TIP3    H225459   0.384   0.045  17.981
  422TIP3   OH225460   0.304   1.542  17.429
  422TIP3    H125461   0.226   1.568  17.477
  422TIP3    H225462   0.294   1.581  17.342
  423TIP3   OH225463   0.228   1.995  18.759
  423TIP3    H125464   0.306   1.962  18.804
  423TIP3    H225465   0.188   1.917  18.720
  424TIP3   OH225466   0.626   1.689  18.822
  424TIP3    H125467   0.708   1.649  18.852
  424TIP3    H225468   0.628   1.679  18.727
  425TIP3   OH225469   1.342   1.587  18.804
  425TIP3    H125470   1.346   1.510  18.861
  425TIP3    H225471   1.421   1.636  18.825
  426TIP3   OH225472   1.763   1.696  17.080
  426TIP3    H125473   1.763   1.688  17.176
  426TIP3    H225474   1.852   1.673  17.054
  427TIP3   OH225475   0.145   1.330  18.786
  427TIP3    H125476   0.157   1.236  18.771
  427TIP3    H225477   0.050   1.343  18.780
  428TIP3   OH225478   0.889   1.297  18.707
  428TIP3    H125479   0.860   1.339  18.626
  428TIP3    H225480   0.919   1.210  18.680
  429TIP3   OH225481   1.595   1.295  18.513
  429TIP3    H125482   1.679   1.334  18.487
  429TIP3    H225483   1.537   1.370  18.529
  430TIP3   OH225484   0.230   1.064  18.753
  430TIP3    H125485   0.321   1.087  18.731
  430TIP3    H225486   0.235   1.031  18.843
  431TIP3   OH225487   0.620   0.840  18.390
  431TIP3    H125488   0.559   0.912  18.409
  431TIP3    H225489   0.706   0.882  18.386
  432TIP3   OH225490   1.307   1.142  18.865
  432TIP3    H125491   1.390   1.096  18.853
  432TIP3    H225492   1.245   1.075  18.892
  433TIP3   OH225493   2.003   1.161  16.975
  433TIP3    H125494   1.953   1.148  16.894
  433TIP3    H225495   2.020   1.255  16.977
  434TIP3   OH225496   0.614   0.598  18.529
  434TIP3    H125497   0.687   0.545  18.496
  434TIP3    H225498   0.623   0.681  18.482
  435TIP3   OH225499   0.803   0.400  18.330
  435TIP3    H125500   0.867   0.460  18.291
  435TIP3    H225501   0.724   0.412  18.278
  436TIP3   OH225502   0.870   0.963  18.368
  436TIP3    H125503   0.951   0.917  18.346
  436TIP3    H225504   0.869   1.039  18.310
  437TIP3   OH225505   1.313   0.768  18.852
  437TIP3    H125506   1.332   0.677  18.828
  437TIP3    H225507   1.384   0.793  18.910
  438TIP3   OH225508   1.618   1.026  18.562
  438TIP3    H125509   1.598   1.116  18.538
  438TIP3    H225510   1.713   1.025  18.573
  439TIP3   OH225511   0.541   0.610  18.794
  439TIP3    H125512   0.463   0.554  18.801
  439TIP3    H225513   0.560   0.612  18.700
  440TIP3   OH225514   0.811   0.123  18.351
  440TIP3    H125515   0.820   0.218  18.364
  440TIP3    H225516   0.745   0.115  18.282
  441TIP3   OH225517   0.986   0.601  18.788
  441TIP3    H125518   1.047   0.550  18.842
  441TIP3    H225519   0.901   0.560  18.803
  442TIP3   OH225520   1.343   0.499  18.786
  442TIP3    H125521   1.264   0.461  18.825
  442TIP3    H225522   1.415   0.444  18.817
  443TIP3   OH225523   1.518   0.326  18.907
  443TIP3    H125524   1.514   0.231  18.892
  443TIP3    H225525   1.474   0.339  18.991
  444TIP3   OH225526   0.331   0.421  18.811
  444TIP3    H125527   0.330   0.358  18.739
  444TIP3    H225528   0.366   0.371  18.885
  445TIP3   OH225529   0.785   0.068  18.641
  445TIP3    H125530   0.819   8.428  18.653
  445TIP3    H225531   0.792   0.084  18.547
  446TIP3   OH225532   0.941   0.259  18.777
  446TIP3    H125533   0.894   0.188  18.733
  446TIP3    H225534   0.874   0.325  18.795
  447TIP3   OH225535   0.828   2.040  17.248
  447TIP3    H125536   0.847   2.122  17.294
  447TIP3    H225537   0.755   2.062  17.190
  448TIP3   OH225538   0.205   1.783  17.895
  448TIP3    H125539   0.181   1.723  17.966
  448TIP3    H225540   0.301   1.786  17.898
  449TIP3   OH225541   2.035   1.909  18.049
  449TIP3    H125542   2.057   1.977  18.113
  449TIP3    H225543   2.119   1.882  18.013
  450TIP3   OH225544   1.929   1.892  18.377
  450TIP3    H125545   1.892   1.821  18.323
  450TIP3    H225546   1.972   1.846  18.449
  451TIP3   OH225547   1.910   1.391  18.900
  451TIP3    H125548   1.817   1.402  18.919
  451TIP3    H225549   1.950   1.472  18.931
  452TIP3   OH225550   1.981   1.217  17.417
  452TIP3    H125551   2.037   1.294  17.410
  452TIP3    H225552   2.023   1.163  17.485
  453TIP3   OH225553   2.072   1.020  17.609
  453TIP3    H125554   1.986   0.999  17.646
  453TIP3    H225555   2.131   1.021  17.684
  454TIP3   OH225556   2.103   1.309  18.118
  454TIP3    H125557   2.138   1.227  18.084
  454TIP3    H225558   2.170   1.374  18.097
  455TIP3   OH225559   1.785   1.650  18.296
  455TIP3    H125560   1.711   1.680  18.349
  455TIP3    H225561   1.747   1.637  18.208
  456TIP3   OH225562   1.954   1.021  17.216
  456TIP3    H125563   1.960   1.073  17.136
  456TIP3    H225564   1.958   1.086  17.287
  457TIP3   OH225565   1.819   0.642  17.055
  457TIP3    H125566   1.882   0.656  16.985
  457TIP3    H225567   1.756   0.579  17.019
  458TIP3   OH225568   1.804   0.916  17.659
  458TIP3    H125569   1.812   0.827  17.626
  458TIP3    H225570   1.757   0.907  17.742
  459TIP3   OH225571   0.164   1.140  18.035
  459TIP3    H125572   0.165   1.095  17.951
  459TIP3    H225573   0.249   1.121  18.074
  460TIP3   OH225574   1.891   1.027  18.620
  460TIP3    H125575   1.924   0.938  18.633
  460TIP3    H225576   1.954   1.069  18.562
  461TIP3   OH225577   2.021   0.778  18.584
  461TIP3    H125578   1.934   0.740  18.569
  461TIP3    H225579   2.073   0.705  18.618
  462TIP3   OH225580   1.715   0.584  17.455
  462TIP3    H125581   1.749   0.496  17.435
  462TIP3    H225582   1.770   0.643  17.404
  463TIP3   OH225583   1.790   0.645  18.021
  463TIP3    H125584   1.878   0.649  17.984
  463TIP3    H225585   1.803   0.657  18.115
  464TIP3   OH225586   1.906   0.708  18.276
  464TIP3    H125587   1.853   0.707  18.355
  464TIP3    H225588   1.924   0.801  18.260
  465TIP3   OH225589   0.112   0.586  18.776
  465TIP3    H125590   0.182   0.523  18.794
  465TIP3    H225591   0.149   0.643  18.708
  466TIP3   OH225592   2.110   0.149  18.813
  466TIP3    H125593   2.201   0.148  18.784
  466TIP3    H225594   2.065   0.203  18.748
  467TIP3   OH225595   1.792   0.313  17.439
  467TIP3    H125596   1.819   0.284  17.527
  467TIP3    H225597   1.730   0.246  17.410
  468TIP3   OH225598   0.206   0.292  18.116
  468TIP3    H125599   0.269   0.240  18.066
  468TIP3    H225600   0.131   0.302  18.057
  469TIP3   OH225601   8.390   0.716  18.030
  469TIP3    H125602   0.030   0.712  17.994
  469TIP3    H225603   8.379   0.807  18.058
  470TIP3   OH225604   1.965   0.309  18.641
  470TIP3    H125605   1.890   0.336  18.694
  470TIP3    H225606   1.929   0.245  18.579
  471TIP3   OH225607   1.703   1.881  17.611
  471TIP3    H125608   1.783   1.883  17.558
  471TIP3    H225609   1.718   1.944  17.681
  472TIP3   OH225610   0.139   0.123  18.334
  472TIP3    H125611   0.044   0.129  18.325
  472TIP3    H225612   0.173   0.180  18.265
  473TIP3   OH225613   0.377   1.442  18.680
  473TIP3    H125614   0.290   1.413  18.706
  473TIP3    H225615   0.407   1.497  18.752
  474TIP3   OH225616   0.616   1.840  18.338
  474TIP3    H125617   0.594   1.933  18.331
  474TIP3    H225618   0.706   1.834  18.307
  475TIP3   OH225619   1.008   1.886  18.642
  475TIP3    H125620   1.033   1.829  18.715
  475TIP3    H225621   1.088   1.933  18.620
  476TIP3   OH225622   1.254   2.014  18.578
  476TIP3    H125623   1.306   1.963  18.515
  476TIP3    H225624   1.317   2.039  18.646
  477TIP3   OH225625   1.869   0.112  18.468
  477TIP3    H125626   1.828   0.154  18.393
  477TIP3    H225627   1.833   0.023  18.470
  478TIP3   OH225628   0.330   2.215  18.417
  478TIP3    H125629   0.253   2.167  18.386
  478TIP3    H225630   0.320   2.215  18.513
  479TIP3   OH225631   0.578   2.131  18.316
  479TIP3    H125632   0.496   2.144  18.364
  479TIP3    H225633   0.582   2.204  18.255
  480TIP3   OH225634   1.132   1.993  18.220
  480TIP3    H125635   1.154   2.029  18.134
  480TIP3    H225636   1.126   2.070  18.278
  481TIP3   OH225637   1.370   1.881  18.328
  481TIP3    H125638   1.288   1.915  18.292
  481TIP3    H225639   1.438   1.931  18.283
  482TIP3   OH225640   1.576   2.004  18.196
  482TIP3    H125641   1.613   2.092  18.197
  482TIP3    H225642   1.633   1.955  18.136
  483TIP3   OH225643   0.486   1.783  17.923
  483TIP3    H125644   0.493   1.688  17.921
  483TIP3    H225645   0.571   1.813  17.957
  484TIP3   OH225646   0.760   1.813  18.010
  484TIP3    H125647   0.785   1.724  17.983
  484TIP3    H225648   0.801   1.823  18.096
  485TIP3   OH225649   1.264   0.246  17.905
  485TIP3    H125650   1.173   0.220  17.894
  485TIP3    H225651   1.313   0.190  17.845
  486TIP3   OH225652   1.676   0.155  17.816
  486TIP3    H125653   1.756   0.169  17.765
  486TIP3    H225654   1.665   0.236  17.865
  487TIP3   OH225655   1.907   0.237  17.683
  487TIP3    H125656   1.982   0.187  17.651
  487TIP3    H225657   1.945   0.300  17.744
  488TIP3   OH225658   0.372   0.138  17.700
  488TIP3    H125659   0.341   0.182  17.621
  488TIP3    H225660   0.362   0.045  17.682
  489TIP3   OH225661   0.243   0.086  17.290
  489TIP3    H125662   0.201   0.144  17.226
  489TIP3    H225663   0.261   0.143  17.365
  490TIP3   OH225664   0.914   0.159  17.647
  490TIP3    H125665   0.963   0.221  17.593
  490TIP3    H225666   0.950   0.170  17.735
  491TIP3   OH225667   1.418   0.093  17.735
  491TIP3    H125668   1.410   0.145  17.655
  491TIP3    H225669   1.508   0.108  17.764
  492TIP3   OH225670   1.589   0.115  17.378
  492TIP3    H125671   1.538   0.174  17.433
  492TIP3    H225672   1.526   0.050  17.347
  493TIP3   OH225673   0.258   1.655  17.184
  493TIP3    H125674   0.243   1.591  17.114
  493TIP3    H225675   0.273   1.737  17.138
  494TIP3   OH225676   0.940   0.348  17.237
  494TIP3    H125677   0.960   0.351  17.331
  494TIP3    H225678   0.849   0.375  17.231
  495TIP3   OH225679   1.088   1.975  17.194
  495TIP3    H125680   1.123   1.972  17.283
  495TIP3    H225681   0.994   1.990  17.205
  496TIP3   OH225682   1.935   1.890  17.437
  496TIP3    H125683   1.927   1.802  17.399
  496TIP3    H225684   1.890   1.947  17.374
  497TIP3   OH225685   0.341   0.213  18.633
  497TIP3    H125686   0.311   0.159  18.560
  497TIP3    H225687   0.407   0.161  18.677
  498TIP3   OH225688   0.537   0.067  18.770
  498TIP3    H125689   0.624   0.077  18.732
  498TIP3    H225690   0.523   8.421  18.774
  499TIP3   OH225691   1.530   0.057  18.875
  499TIP3    H125692   1.507   8.417  18.845
  499TIP3    H225693   1.613   0.046  18.920
  500TIP3   OH225694   1.748   1.775  18.666
  500TIP3    H125695   1.694   1.757  18.589
  500TIP3    H225696   1.741   1.870  18.678
  501TIP3   OH225697   3.459   1.042  17.625
  501TIP3    H125698   3.407   1.025  17.703
  501TIP3    H225699   3.397   1.031  17.552
  502TIP3   OH225700   3.176   1.006  18.068
  502TIP3    H125701   3.241   0.959  18.118
  502TIP3    H225702   3.142   0.942  18.005
  503TIP3   OH225703   2.363   0.940  18.242
  503TIP3    H125704   2.398   0.852  18.252
  503TIP3    H225705   2.386   0.985  18.323
  504TIP3   OH225706   2.553   1.409  17.930
  504TIP3    H125707   2.530   1.320  17.902
  504TIP3    H225708   2.649   1.411  17.927
  505TIP3   OH225709   2.106   0.783  17.459
  505TIP3    H125710   2.115   0.865  17.508
  505TIP3    H225711   2.022   0.790  17.415
  506TIP3   OH225712   2.273   0.994  17.816
  506TIP3    H125713   2.298   0.903  17.835
  506TIP3    H225714   2.356   1.042  17.818
  507TIP3   OH225715   3.073   1.271  18.068
  507TIP3    H125716   3.108   1.182  18.061
  507TIP3    H225717   3.146   1.323  18.102
  508TIP3   OH225718   4.122   0.309  18.177
  508TIP3    H125719   4.103   0.390  18.226
  508TIP3    H225720   4.184   0.336  18.110
  509TIP3   OH225721   3.481   0.660  17.995
  509TIP3    H125722   3.480   0.568  18.020
  509TIP3    H225723   3.421   0.666  17.921
  510TIP3   OH225724   2.669   0.412  17.845
  510TIP3    H125725   2.709   0.492  17.809
  510TIP3    H225726   2.615   0.378  17.773
  511TIP3   OH225727   3.549   0.503  17.670
  511TIP3    H125728   3.601   0.470  17.744
  511TIP3    H225729   3.611   0.556  17.620
  512TIP3   OH225730   2.321   0.723  17.883
  512TIP3    H125731   2.375   0.681  17.950
  512TIP3    H225732   2.350   0.684  17.801
  513TIP3   OH225733   2.855   0.887  17.806
  513TIP3    H125734   2.942   0.855  17.832
  513TIP3    H225735   2.806   0.808  17.785
  514TIP3   OH225736   4.024   0.510  18.336
  514TIP3    H125737   3.988   0.593  18.306
  514TIP3    H225738   3.962   0.479  18.402
  515TIP3   OH225739   2.592   0.386  18.228
  515TIP3    H125740   2.562   0.447  18.161
  515TIP3    H225741   2.524   0.389  18.296
  516TIP3   OH225742   2.828   1.195  18.175
  516TIP3    H125743   2.779   1.271  18.209
  516TIP3    H225744   2.908   1.232  18.139
  517TIP3   OH225745   3.709   0.430  17.890
  517TIP3    H125746   3.638   0.426  17.954
  517TIP3    H225747   3.773   0.489  17.929
  518TIP3   OH225748   2.504   0.549  18.019
  518TIP3    H125749   2.559   0.620  18.052
  518TIP3    H225750   2.560   0.504  17.955
  519TIP3   OH225751   2.688   1.417  18.278
  519TIP3    H125752   2.682   1.491  18.218
  519TIP3    H225753   2.600   1.406  18.312
  520TIP3   OH225754   2.131   1.455  17.386
  520TIP3    H125755   2.161   1.455  17.295
  520TIP3    H225756   2.190   1.515  17.431
  521TIP3   OH225757   3.856   0.249  18.256
  521TIP3    H125758   3.802   0.243  18.176
  521TIP3    H225759   3.943   0.272  18.224
  522TIP3   OH225760   2.985   0.110  17.946
  522TIP3    H125761   2.984   0.022  17.983
  522TIP3    H225762   2.908   0.153  17.983
  523TIP3   OH225763   3.859   1.393  18.410
  523TIP3    H125764   3.863   1.332  18.336
  523TIP3    H225765   3.823   1.473  18.373
  524TIP3   OH225766   3.264   0.998  17.427
  524TIP3    H125767   3.174   1.031  17.426
  524TIP3    H225768   3.298   1.018  17.340
  525TIP3   OH225769   3.220   0.855  17.069
  525TIP3    H125770   3.285   0.901  17.015
  525TIP3    H225771   3.270   0.788  17.116
  526TIP3   OH225772   4.007   0.969  18.236
  526TIP3    H125773   3.956   1.050  18.233
  526TIP3    H225774   4.070   0.977  18.165
  527TIP3   OH225775   3.719   1.091  17.548
  527TIP3    H125776   3.630   1.080  17.582
  527TIP3    H225777   3.768   1.018  17.587
  528TIP3   OH225778   3.675   0.802  18.449
  528TIP3    H125779   3.684   0.879  18.505
  528TIP3    H225780   3.588   0.811  18.410
  529TIP3   OH225781   2.744   1.103  17.667
  529TIP3    H125782   2.710   1.059  17.589
  529TIP3    H225783   2.791   1.035  17.715
  530TIP3   OH225784   2.854   1.445  17.904
  530TIP3    H125785   2.886   1.480  17.821
  530TIP3    H225786   2.926   1.391  17.937
  531TIP3   OH225787   2.708   1.000  18.015
  531TIP3    H125788   2.775   0.977  17.951
  531TIP3    H225789   2.749   1.065  18.072
  532TIP3   OH225790   3.505   1.588  18.168
  532TIP3    H125791   3.463   1.672  18.185
  532TIP3    H225792   3.434   1.524  18.172
  533TIP3   OH225793   2.820   1.480  18.514
  533TIP3    H125794   2.752   1.536  18.551
  533TIP3    H225795   2.786   1.453  18.429
  534TIP3   OH225796   3.614   0.964  17.320
  534TIP3    H125797   3.654   1.023  17.384
  534TIP3    H225798   3.648   0.993  17.236
  535TIP3   OH225799   2.390   1.037  18.504
  535TIP3    H125800   2.406   1.108  18.567
  535TIP3    H225801   2.294   1.029  18.502
  536TIP3   OH225802   3.204   1.625  17.537
  536TIP3    H125803   3.280   1.676  17.563
  536TIP3    H225804   3.216   1.610  17.443
  537TIP3   OH225805   2.626   1.666  18.587
  537TIP3    H125806   2.666   1.728  18.526
  537TIP3    H225807   2.534   1.660  18.559
  538TIP3   OH225808   3.902   0.196  17.303
  538TIP3    H125809   3.807   0.189  17.311
  538TIP3    H225810   3.927   0.263  17.366
  539TIP3   OH225811   2.646   0.981  17.442
  539TIP3    H125812   2.550   0.982  17.445
  539TIP3    H225813   2.666   0.912  17.379
  540TIP3   OH225814   2.189   1.271  18.380
  540TIP3    H125815   2.155   1.284  18.291
  540TIP3    H225816   2.169   1.179  18.400
  541TIP3   OH225817   2.317   1.483  18.084
  541TIP3    H125818   2.399   1.462  18.038
  541TIP3    H225819   2.335   1.565  18.129
  542TIP3   OH225820   4.053   1.686  18.583
  542TIP3    H125821   4.062   1.591  18.586
  542TIP3    H225822   3.967   1.704  18.622
  543TIP3   OH225823   3.028   1.670  18.481
  543TIP3    H125824   3.028   1.749  18.535
  543TIP3    H225825   2.953   1.620  18.512
  544TIP3   OH225826   2.496   1.823  17.664
  544TIP3    H125827   2.512   1.777  17.746
  544TIP3    H225828   2.447   1.760  17.610
  545TIP3   OH225829   3.851   0.654  18.613
  545TIP3    H125830   3.788   0.708  18.565
  545TIP3    H225831   3.834   0.565  18.582
  546TIP3   OH225832   2.445   1.371  18.428
  546TIP3    H125833   2.459   1.327  18.511
  546TIP3    H225834   2.366   1.331  18.392
  547TIP3   OH225835   2.731   0.217  18.044
  547TIP3    H125836   2.717   0.274  17.968
  547TIP3    H225837   2.690   0.264  18.117
  548TIP3   OH225838   3.178   0.134  18.346
  548TIP3    H125839   3.184   0.042  18.371
  548TIP3    H225840   3.085   0.154  18.351
  549TIP3   OH225841   3.500   0.456  18.486
  549TIP3    H125842   3.460   0.448  18.573
  549TIP3    H225843   3.449   0.525  18.443
  550TIP3   OH225844   3.722   0.984  17.069
  550TIP3    H125845   3.671   0.959  16.992
  550TIP3    H225846   3.799   1.029  17.033
  551TIP3   OH225847   3.319   0.413  17.242
  551TIP3    H125848   3.231   0.394  17.274
  551TIP3    H225849   3.333   0.350  17.172
  552TIP3   OH225850   2.696   0.734  18.100
  552TIP3    H125851   2.695   0.744  18.195
  552TIP3    H225852   2.687   0.823  18.066
  553TIP3   OH225853   2.695   0.666  17.720
  553TIP3    H125854   2.600   0.667  17.710
  553TIP3    H225855   2.729   0.658  17.631
  554TIP3   OH225856   3.266   0.737  17.518
  554TIP3    H125857   3.248   0.827  17.491
  554TIP3    H225858   3.358   0.724  17.496
  555TIP3   OH225859   3.137   0.833  18.610
  555TIP3    H125860   3.097   0.765  18.557
  555TIP3    H225861   3.215   0.792  18.647
  556TIP3   OH225862   3.325   0.647  17.772
  556TIP3    H125863   3.287   0.684  17.692
  556TIP3    H225864   3.391   0.585  17.740
  557TIP3   OH225865   2.476   0.701  18.315
  557TIP3    H125866   2.561   0.722  18.353
  557TIP3    H225867   2.453   0.616  18.352
  558TIP3   OH225868   2.046   0.400  17.857
  558TIP3    H125869   2.125   0.370  17.902
  558TIP3    H225870   2.035   0.491  17.884
  559TIP3   OH225871   2.096   0.572  17.281
  559TIP3    H125872   2.129   0.631  17.348
  559TIP3    H225873   2.012   0.610  17.254
  560TIP3   OH225874   3.360   0.826  18.185
  560TIP3    H125875   3.410   0.777  18.120
  560TIP3    H225876   3.333   0.760  18.248
  561TIP3   OH225877   3.043   0.477  17.764
  561TIP3    H125878   3.005   0.504  17.848
  561TIP3    H225879   3.104   0.407  17.788
  562TIP3   OH225880   2.424   0.604  17.657
  562TIP3    H125881   2.374   0.626  17.579
  562TIP3    H225882   2.446   0.512  17.646
  563TIP3   OH225883   2.769   0.641  17.460
  563TIP3    H125884   2.862   0.621  17.453
  563TIP3    H225885   2.747   0.686  17.378
  564TIP3   OH225886   3.481   0.378  18.034
  564TIP3    H125887   3.438   0.365  18.119
  564TIP3    H225888   3.457   0.301  17.983
  565TIP3   OH225889   2.679   0.797  17.240
  565TIP3    H125890   2.599   0.793  17.188
  565TIP3    H225891   2.746   0.829  17.180
  566TIP3   OH225892   3.818   2.053  18.695
  566TIP3    H125893   3.850   2.063  18.605
  566TIP3    H225894   3.891   2.080  18.750
  567TIP3   OH225895   2.420   1.250  18.681
  567TIP3    H125896   2.492   1.245  18.744
  567TIP3    H225897   2.345   1.279  18.733
  568TIP3   OH225898   3.098   0.782  17.909
  568TIP3    H125899   3.166   0.728  17.871
  568TIP3    H225900   3.061   0.729  17.979
  569TIP3   OH225901   2.513   0.339  17.622
  569TIP3    H125902   2.467   0.256  17.629
  569TIP3    H225903   2.572   0.328  17.548
  570TIP3   OH225904   2.965   0.640  18.104
  570TIP3    H125905   2.872   0.663  18.101
  570TIP3    H225906   2.983   0.627  18.197
  571TIP3   OH225907   3.001   1.077  17.424
  571TIP3    H125908   2.930   1.014  17.438
  571TIP3    H225909   2.971   1.156  17.469
  572TIP3   OH225910   3.885   1.220  18.193
  572TIP3    H125911   3.969   1.243  18.154
  572TIP3    H225912   3.836   1.179  18.123
  573TIP3   OH225913   3.398   0.675  17.200
  573TIP3    H125914   3.365   0.585  17.207
  573TIP3    H225915   3.426   0.697  17.288
  574TIP3   OH225916   3.187   1.448  18.456
  574TIP3    H125917   3.127   1.389  18.502
  574TIP3    H225918   3.143   1.533  18.458
  575TIP3   OH225919   3.529   0.732  17.435
  575TIP3    H125920   3.612   0.692  17.461
  575TIP3    H225921   3.553   0.819  17.403
  576TIP3   OH225922   2.527   1.128  17.848
  576TIP3    H125923   2.593   1.132  17.778
  576TIP3    H225924   2.570   1.082  17.919
  577TIP3   OH225925   2.117   1.005  18.454
  577TIP3    H125926   2.105   0.923  18.503
  577TIP3    H225927   2.074   0.989  18.370
  578TIP3   OH225928   2.968   1.045  18.634
  578TIP3    H125929   2.920   1.036  18.552
  578TIP3    H225930   3.036   0.978  18.630
  579TIP3   OH225931   3.442   1.436  18.567
  579TIP3    H125932   3.357   1.444  18.525
  579TIP3    H225933   3.434   1.488  18.648
  580TIP3   OH225934   3.913   0.644  17.278
  580TIP3    H125935   3.832   0.647  17.227
  580TIP3    H225936   3.964   0.717  17.245
  581TIP3   OH225937   4.097   1.410  18.550
  581TIP3    H125938   4.009   1.401  18.513
  581TIP3    H225939   4.153   1.359  18.493
  582TIP3   OH225940   3.784   1.565  17.297
  582TIP3    H125941   3.787   1.482  17.345
  582TIP3    H225942   3.739   1.625  17.355
  583TIP3   OH225943   3.735   1.067  18.017
  583TIP3    H125944   3.645   1.068  18.049
  583TIP3    H225945   3.744   0.983  17.972
  584TIP3   OH225946   2.946   1.555  17.646
  584TIP3    H125947   3.036   1.575  17.618
  584TIP3    H225948   2.898   1.637  17.634
  585TIP3   OH225949   2.169   0.937  17.035
  585TIP3    H125950   2.143   1.022  16.999
  585TIP3    H225951   2.124   0.932  17.119
  586TIP3   OH225952   2.879   1.308  17.516
  586TIP3    H125953   2.903   1.391  17.558
  586TIP3    H225954   2.826   1.263  17.582
  587TIP3   OH225955   2.953   1.756  18.230
  587TIP3    H125956   3.016   1.823  18.202
  587TIP3    H225957   2.993   1.717  18.307
  588TIP3   OH225958   2.792   1.821  17.614
  588TIP3    H125959   2.697   1.826  17.623
  588TIP3    H225960   2.825   1.895  17.666
  589TIP3   OH225961   3.303   1.386  18.213
  589TIP3    H125962   3.259   1.415  18.293
  589TIP3    H225963   3.358   1.314  18.241
  590TIP3   OH225964   3.625   1.852  18.409
  590TIP3    H125965   3.543   1.838  18.361
  590TIP3    H225966   3.662   1.930  18.369
  591TIP3   OH225967   4.058   2.022  17.274
  591TIP3    H125968   3.963   2.032  17.262
  591TIP3    H225969   4.084   2.099  17.325
  592TIP3   OH225970   2.381   0.452  18.402
  592TIP3    H125971   2.293   0.473  18.371
  592TIP3    H225972   2.372   0.439  18.497
  593TIP3   OH225973   3.832   1.330  17.455
  593TIP3    H125974   3.791   1.247  17.480
  593TIP3    H225975   3.920   1.306  17.427
  594TIP3   OH225976   2.348   1.740  18.237
  594TIP3    H125977   2.354   1.696  18.322
  594TIP3    H225978   2.360   1.833  18.257
  595TIP3   OH225979   2.816   1.579  17.186
  595TIP3    H125980   2.875   1.595  17.112
  595TIP3    H225981   2.823   1.658  17.240
  596TIP3   OH225982   3.358   0.330  18.274
  596TIP3    H125983   3.410   0.341  18.354
  596TIP3    H225984   3.295   0.261  18.296
  597TIP3   OH225985   3.429   0.324  17.488
  597TIP3    H125986   3.401   0.375  17.412
  597TIP3    H225987   3.461   0.389  17.551
  598TIP3   OH225988   3.039   0.572  17.505
  598TIP3    H125989   3.114   0.631  17.504
  598TIP3    H225990   3.034   0.541  17.595
  599TIP3   OH225991   3.299   0.599  18.340
  599TIP3    H125992   3.210   0.609  18.373
  599TIP3    H225993   3.300   0.514  18.297
  600TIP3   OH225994   3.192   0.199  17.569
  600TIP3    H125995   3.192   0.226  17.660
  600TIP3    H225996   3.279   0.223  17.536
  601TIP3   OH225997   2.852   1.807  17.334
  601TIP3    H125998   2.898   1.889  17.313
  601TIP3    H225999   2.838   1.812  17.428
  602TIP3   OH226000   3.780   0.427  18.464
  602TIP3    H126001   3.685   0.435  18.474
  602TIP3    H226002   3.792   0.363  18.395
  603TIP3   OH226003   3.711   0.803  17.914
  603TIP3    H126004   3.627   0.765  17.938
  603TIP3    H226005   3.776   0.741  17.946
  604TIP3   OH226006   2.429   0.799  17.106
  604TIP3    H126007   2.365   0.865  17.079
  604TIP3    H226008   2.387   0.715  17.085
  605TIP3   OH226009   3.800   1.979  18.012
  605TIP3    H126010   3.788   2.009  17.922
  605TIP3    H226011   3.895   1.972  18.023
  606TIP3   OH226012   2.394   0.138  17.892
  606TIP3    H126013   2.390   0.129  17.797
  606TIP3    H226014   2.409   0.049  17.924
  607TIP3   OH226015   2.267   1.681  17.514
  607TIP3    H126016   2.223   1.707  17.594
  607TIP3    H226017   2.257   1.756  17.455
  608TIP3   OH226018   2.253   2.046  18.707
  608TIP3    H126019   2.313   2.010  18.772
  608TIP3    H226020   2.235   1.972  18.648
  609TIP3   OH226021   2.611   1.722  18.862
  609TIP3    H126022   2.668   1.666  18.914
  609TIP3    H226023   2.627   1.695  18.771
  610TIP3   OH226024   3.412   1.575  18.807
  610TIP3    H126025   3.411   1.505  18.873
  610TIP3    H226026   3.490   1.626  18.828
  611TIP3   OH226027   2.169   1.356  18.788
  611TIP3    H126028   2.085   1.341  18.832
  611TIP3    H226029   2.145   1.394  18.704
  612TIP3   OH226030   2.877   1.297  18.713
  612TIP3    H126031   2.863   1.346  18.632
  612TIP3    H226032   2.914   1.213  18.685
  613TIP3   OH226033   3.654   1.263  18.551
  613TIP3    H126034   3.724   1.315  18.510
  613TIP3    H226035   3.581   1.324  18.557
  614TIP3   OH226036   2.459   0.791  18.827
  614TIP3    H126037   2.456   0.835  18.742
  614TIP3    H226038   2.408   0.848  18.885
  615TIP3   OH226039   2.739   0.769  18.371
  615TIP3    H126040   2.768   0.859  18.385
  615TIP3    H226041   2.813   0.715  18.397
  616TIP3   OH226042   2.880   0.911  17.091
  616TIP3    H126043   2.859   0.984  17.033
  616TIP3    H226044   2.975   0.905  17.088
  617TIP3   OH226045   3.352   1.168  18.843
  617TIP3    H126046   3.383   1.156  18.753
  617TIP3    H226047   3.311   1.084  18.865
  618TIP3   OH226048   3.959   1.070  16.958
  618TIP3    H126049   3.971   1.105  16.870
  618TIP3    H226050   4.047   1.066  16.995
  619TIP3   OH226051   2.754   0.511  18.612
  619TIP3    H126052   2.752   0.427  18.566
  619TIP3    H226053   2.823   0.561  18.568
  620TIP3   OH226054   2.824   0.347  18.380
  620TIP3    H126055   2.884   0.421  18.384
  620TIP3    H226056   2.752   0.378  18.325
  621TIP3   OH226057   2.886   1.007  18.370
  621TIP3    H126058   2.966   0.973  18.330
  621TIP3    H226059   2.855   1.074  18.308
  622TIP3   OH226060   3.368   0.729  18.740
  622TIP3    H126061   3.361   0.633  18.738
  622TIP3    H226062   3.461   0.746  18.728
  623TIP3   OH226063   3.718   1.010  18.619
  623TIP3    H126064   3.688   1.098  18.595
  623TIP3    H226065   3.813   1.019  18.631
  624TIP3   OH226066   2.681   0.615  18.854
  624TIP3    H126067   2.601   0.667  18.846
  624TIP3    H226068   2.697   0.581  18.766
  625TIP3   OH226069   2.856   0.081  18.346
  625TIP3    H126070   2.848   0.174  18.370
  625TIP3    H226071   2.816   0.076  18.260
  626TIP3   OH226072   3.082   0.477  18.719
  626TIP3    H126073   3.000   0.453  18.763
  626TIP3    H226074   3.054   0.512  18.634
  627TIP3   OH226075   3.355   0.451  18.721
  627TIP3    H126076   3.260   0.450  18.710
  627TIP3    H226077   3.370   0.406  18.804
  628TIP3   OH226078   3.641   0.309  18.945
  628TIP3    H126079   3.600   0.232  18.906
  628TIP3    H226080   3.575   0.344  19.005
  629TIP3   OH226081   2.334   0.417  18.803
  629TIP3    H126082   2.336   0.334  18.755
  629TIP3    H226083   2.388   0.402  18.880
  630TIP3   OH226084   2.845   0.046  18.643
  630TIP3    H126085   2.844   8.400  18.656
  630TIP3    H226086   2.852   0.057  18.548
  631TIP3   OH226087   2.929   0.133  18.895
  631TIP3    H126088   2.911   0.105  18.805
  631TIP3    H226089   2.915   0.228  18.893
  632TIP3   OH226090   2.948   2.092  17.149
  632TIP3    H126091   3.028   2.143  17.155
  632TIP3    H226092   2.879   2.156  17.130
  633TIP3   OH226093   2.080   1.997  17.647
  633TIP3    H126094   2.027   1.966  17.573
  633TIP3    H226095   2.102   1.917  17.696
  634TIP3   OH226096   2.156   1.756  17.761
  634TIP3    H126097   2.103   1.685  17.796
  634TIP3    H226098   2.212   1.784  17.834
  635TIP3   OH226099   4.064   1.946  18.118
  635TIP3    H126100   4.038   1.882  18.185
  635TIP3    H226101   4.114   2.012  18.165
  636TIP3   OH226102   3.980   1.787  18.335
  636TIP3    H126103   3.912   1.725  18.310
  636TIP3    H226104   4.020   1.750  18.413
  637TIP3   OH226105   3.964   1.381  18.932
  637TIP3    H126106   3.870   1.395  18.937
  637TIP3    H226107   4.002   1.458  18.974
  638TIP3   OH226108   4.085   1.241  17.387
  638TIP3    H126109   4.164   1.294  17.376
  638TIP3    H226110   4.106   1.157  17.348
  639TIP3   OH226111   4.121   0.818  17.653
  639TIP3    H126112   4.032   0.852  17.660
  639TIP3    H226113   4.176   0.883  17.697
  640TIP3   OH226114   4.148   1.248  18.119
  640TIP3    H126115   4.180   1.167  18.080
  640TIP3    H226116   4.212   1.314  18.092
  641TIP3   OH226117   3.748   1.624  18.304
  641TIP3    H126118   3.711   1.698  18.352
  641TIP3    H226119   3.678   1.597  18.245
  642TIP3   OH226120   4.035   0.845  17.141
  642TIP3    H126121   3.964   0.894  17.098
  642TIP3    H226122   4.113   0.897  17.124
  643TIP3   OH226123   3.829   0.855  17.663
  643TIP3    H126124   3.813   0.772  17.618
  643TIP3    H226125   3.787   0.844  17.749
  644TIP3   OH226126   2.179   1.048  18.071
  644TIP3    H126127   2.207   1.030  17.981
  644TIP3    H226128   2.249   1.012  18.125
  645TIP3   OH226129   3.993   1.021  18.661
  645TIP3    H126130   4.025   0.931  18.668
  645TIP3    H226131   4.049   1.061  18.596
  646TIP3   OH226132   4.103   0.766  18.618
  646TIP3    H126133   4.017   0.723  18.611
  646TIP3    H226134   4.161   0.698  18.652
  647TIP3   OH226135   3.773   0.611  17.515
  647TIP3    H126136   3.797   0.520  17.535
  647TIP3    H226137   3.825   0.633  17.438
  648TIP3   OH226138   3.881   0.611  18.016
  648TIP3    H126139   3.972   0.632  17.993
  648TIP3    H226140   3.872   0.638  18.107
  649TIP3   OH226141   3.873   0.730  18.265
  649TIP3    H126142   3.802   0.748  18.326
  649TIP3    H226143   3.919   0.814  18.256
  650TIP3   OH226144   2.139   0.524  18.631
  650TIP3    H126145   2.205   0.507  18.698
  650TIP3    H226146   2.078   0.451  18.639
  651TIP3   OH226147   4.216   0.110  18.787
  651TIP3    H126148   4.307   0.124  18.762
  651TIP3    H226149   4.167   0.178  18.741
  652TIP3   OH226150   3.836   0.343  17.541
  652TIP3    H126151   3.884   0.291  17.606
  652TIP3    H226152   3.766   0.285  17.511
  653TIP3   OH226153   2.277   0.357  18.010
  653TIP3    H126154   2.322   0.281  17.974
  653TIP3    H226155   2.346   0.423  18.019
  654TIP3   OH226156   2.064   0.656  17.974
  654TIP3    H126157   2.143   0.688  17.931
  654TIP3    H226158   2.082   0.665  18.067
  655TIP3   OH226159   4.074   0.311  18.658
  655TIP3    H126160   4.004   0.336  18.718
  655TIP3    H226161   4.030   0.257  18.592
  656TIP3   OH226162   2.062   0.307  17.357
  656TIP3    H126163   1.968   0.305  17.375
  656TIP3    H226164   2.079   0.396  17.327
  657TIP3   OH226165   2.101   0.045  18.328
  657TIP3    H126166   2.033   0.066  18.393
  657TIP3    H226167   2.109   0.124  18.275
  658TIP3   OH226168   2.363   1.625  18.490
  658TIP3    H126169   2.277   1.612  18.531
  658TIP3    H226170   2.392   1.536  18.468
  659TIP3   OH226171   2.737   1.824  18.395
  659TIP3    H126172   2.702   1.904  18.357
  659TIP3    H226173   2.807   1.798  18.335
  660TIP3   OH226174   3.073   1.906  18.641
  660TIP3    H126175   3.101   1.839  18.703
  660TIP3    H226176   3.153   1.953  18.618
  661TIP3   OH226177   3.322   2.027  18.583
  661TIP3    H126178   3.376   1.970  18.529
  661TIP3    H226179   3.381   2.060  18.650
  662TIP3   OH226180   3.963   0.113  18.474
  662TIP3    H126181   3.913   0.159  18.406
  662TIP3    H226182   3.923   0.025  18.478
  663TIP3   OH226183   2.357   2.015  18.281
  663TIP3    H126184   2.268   2.043  18.259
  663TIP3    H226185   2.385   2.075  18.349
  664TIP3   OH226186   2.644   2.047  18.265
  664TIP3    H126187   2.554   2.027  18.240
  664TIP3    H226188   2.678   2.098  18.191
  665TIP3   OH226189   3.151   1.967  18.196
  665TIP3    H126190   3.094   1.998  18.126
  665TIP3    H226191   3.160   2.042  18.255
  666TIP3   OH226192   3.408   1.850  18.224
  666TIP3    H126193   3.315   1.875  18.220
  666TIP3    H226194   3.450   1.906  18.159
  667TIP3   OH226195   3.714   2.069  18.257
  667TIP3    H126196   3.689   2.160  18.240
  667TIP3    H226197   3.740   2.035  18.172
  668TIP3   OH226198   2.306   1.832  17.983
  668TIP3    H126199   2.306   1.799  18.073
  668TIP3    H226200   2.387   1.800  17.945
  669TIP3   OH226201   2.533   1.688  17.908
  669TIP3    H126202   2.525   1.593  17.898
  669TIP3    H226203   2.604   1.700  17.972
  670TIP3   OH226204   2.746   1.627  18.089
  670TIP3    H126205   2.792   1.570  18.026
  670TIP3    H226206   2.816   1.676  18.131
  671TIP3   OH226207   3.198   0.253  17.837
  671TIP3    H126208   3.135   0.205  17.891
  671TIP3    H226209   3.283   0.215  17.860
  672TIP3   OH226210   3.731   0.163  17.824
  672TIP3    H126211   3.817   0.158  17.782
  672TIP3    H226212   3.720   0.255  17.847
  673TIP3   OH226213   3.983   0.179  17.712
  673TIP3    H126214   4.027   0.094  17.719
  673TIP3    H226215   4.052   0.243  17.730
  674TIP3   OH226216   2.391   0.082  17.617
  674TIP3    H126217   2.353   0.102  17.531
  674TIP3    H226218   2.384   8.436  17.624
  675TIP3   OH226219   2.297   0.168  17.370
  675TIP3    H126220   2.344   0.229  17.313
  675TIP3    H226221   2.208   0.202  17.373
  676TIP3   OH226222   3.005   0.014  17.680
  676TIP3    H126223   3.066   0.064  17.626
  676TIP3    H226224   3.003   0.061  17.763
  677TIP3   OH226225   3.451   0.132  17.874
  677TIP3    H126226   3.543   0.143  17.850
  677TIP3    H226227   3.432   0.041  17.853
  678TIP3   OH226228   3.649   0.173  17.418
  678TIP3    H126229   3.568   0.218  17.442
  678TIP3    H226230   3.623   0.083  17.403
  679TIP3   OH226231   2.215   1.912  17.367
  679TIP3    H126232   2.122   1.923  17.389
  679TIP3    H226233   2.246   2.000  17.347
  680TIP3   OH226234   3.082   0.342  17.357
  680TIP3    H126235   3.103   0.282  17.429
  680TIP3    H226236   3.052   0.422  17.400
  681TIP3   OH226237   2.356   0.170  18.683
  681TIP3    H126238   2.356   0.121  18.601
  681TIP3    H226239   2.442   0.152  18.722
  682TIP3   OH226240   2.605   0.107  18.780
  682TIP3    H126241   2.693   0.118  18.743
  682TIP3    H226242   2.588   0.013  18.775
  683TIP3   OH226243   2.377   1.999  17.075
  683TIP3    H126244   2.351   2.069  17.136
  683TIP3    H226245   2.407   1.928  17.132
  684TIP3   OH226246   3.528   0.098  18.804
  684TIP3    H126247   3.534   0.003  18.804
  684TIP3    H226248   3.498   0.120  18.716
  685TIP3   OH226249   3.783   1.780  18.649
  685TIP3    H126250   3.724   1.786  18.574
  685TIP3    H226251   3.796   1.871  18.676
  686TIP3   OH226252   5.466   1.116  17.659
  686TIP3    H126253   5.443   1.133  17.568
  686TIP3    H226254   5.395   1.154  17.710
  687TIP3   OH226255   5.215   0.910  18.117
  687TIP3    H126256   5.249   0.848  18.181
  687TIP3    H226257   5.197   0.857  18.039
  688TIP3   OH226258   4.468   0.956  18.140
  688TIP3    H126259   4.487   0.910  18.222
  688TIP3    H226260   4.554   0.975  18.103
  689TIP3   OH226261   4.594   1.368  17.935
  689TIP3    H126262   4.573   1.283  17.897
  689TIP3    H226263   4.682   1.387  17.902
  690TIP3   OH226264   4.214   0.574  17.577
  690TIP3    H126265   4.193   0.661  17.610
  690TIP3    H226266   4.141   0.552  17.519
  691TIP3   OH226267   4.322   0.957  17.801
  691TIP3    H126268   4.359   0.871  17.822
  691TIP3    H226269   4.396   1.016  17.802
  692TIP3   OH226270   5.327   1.193  18.147
  692TIP3    H126271   5.292   1.105  18.134
  692TIP3    H226272   5.260   1.251  18.113
  693TIP3   OH226273   6.191   0.332  18.156
  693TIP3    H126274   6.165   0.418  18.189
  693TIP3    H226275   6.258   0.351  18.090
  694TIP3   OH226276   5.521   0.657  18.023
  694TIP3    H126277   5.524   0.562  18.036
  694TIP3    H226278   5.463   0.668  17.947
  695TIP3   OH226279   4.766   0.418  17.838
  695TIP3    H126280   4.774   0.504  17.796
  695TIP3    H226281   4.713   0.367  17.777
  696TIP3   OH226282   5.594   0.465  17.686
  696TIP3    H126283   5.655   0.447  17.758
  696TIP3    H226284   5.642   0.522  17.627
  697TIP3   OH226285   4.399   0.698  17.878
  697TIP3    H126286   4.448   0.653  17.947
  697TIP3    H226287   4.427   0.657  17.797
  698TIP3   OH226288   4.891   0.841  17.845
  698TIP3    H126289   4.982   0.815  17.863
  698TIP3    H226290   4.854   0.766  17.797
  699TIP3   OH226291   6.095   0.565  18.265
  699TIP3    H126292   6.057   0.652  18.255
  699TIP3    H226293   6.030   0.516  18.315
  700TIP3   OH226294   4.656   0.322  18.223
  700TIP3    H126295   4.606   0.381  18.167
  700TIP3    H226296   4.589   0.281  18.279
  701TIP3   OH226297   5.403   1.159  17.385
  701TIP3    H126298   5.497   1.156  17.368
  701TIP3    H226299   5.377   1.247  17.357
  702TIP3   OH226300   4.882   1.176  18.150
  702TIP3    H126301   4.836   1.238  18.207
  702TIP3    H226302   4.951   1.229  18.110
  703TIP3   OH226303   5.767   0.426  17.900
  703TIP3    H126304   5.696   0.417  17.964
  703TIP3    H226305   5.824   0.495  17.936
  704TIP3   OH226306   4.573   0.512  18.024
  704TIP3    H126307   4.617   0.584  18.069
  704TIP3    H226308   4.637   0.479  17.962
  705TIP3   OH226309   4.751   1.354  18.318
  705TIP3    H126310   4.758   1.447  18.299
  705TIP3    H226311   4.660   1.341  18.343
  706TIP3   OH226312   4.320   1.376  17.336
  706TIP3    H126313   4.403   1.359  17.291
  706TIP3    H226314   4.333   1.462  17.377
  707TIP3   OH226315   5.795   1.461  17.997
  707TIP3    H126316   5.727   1.505  18.048
  707TIP3    H226317   5.769   1.474  17.906
  708TIP3   OH226318   5.943   0.220  18.204
  708TIP3    H126319   5.905   0.188  18.122
  708TIP3    H226320   6.029   0.254  18.178
  709TIP3   OH226321   5.040   0.063  17.922
  709TIP3    H126322   5.042   8.426  17.966
  709TIP3    H226323   4.964   0.108  17.960
  710TIP3   OH226324   5.715   1.486  17.731
  710TIP3    H126325   5.710   1.419  17.662
  710TIP3    H226326   5.714   1.569  17.683
  711TIP3   OH226327   6.033   1.413  18.372
  711TIP3    H126328   6.018   1.355  18.297
  711TIP3    H226329   5.974   1.487  18.357
  712TIP3   OH226330   5.236   0.943  17.342
  712TIP3    H126331   5.153   0.985  17.367
  712TIP3    H226332   5.301   1.012  17.350
  713TIP3   OH226333   5.414   0.826  17.099
  713TIP3    H126334   5.488   0.867  17.144
  713TIP3    H226335   5.447   0.809  17.011
  714TIP3   OH226336   6.076   1.042  18.181
  714TIP3    H126337   6.029   1.125  18.175
  714TIP3    H226338   6.156   1.057  18.131
  715TIP3   OH226339   5.756   0.814  18.427
  715TIP3    H126340   5.731   0.882  18.490
  715TIP3    H226341   5.674   0.786  18.388
  716TIP3   OH226342   4.759   1.018  17.674
  716TIP3    H126343   4.791   1.007  17.584
  716TIP3    H226344   4.820   0.966  17.727
  717TIP3   OH226345   4.857   1.458  17.868
  717TIP3    H126346   4.885   1.446  17.777
  717TIP3    H226347   4.931   1.426  17.919
  718TIP3   OH226348   4.730   0.978  18.029
  718TIP3    H126349   4.789   0.940  17.964
  718TIP3    H226350   4.780   1.049  18.068
  719TIP3   OH226351   5.622   1.581  18.171
  719TIP3    H126352   5.582   1.666  18.188
  719TIP3    H226353   5.564   1.518  18.213
  720TIP3   OH226354   4.907   1.426  18.538
  720TIP3    H126355   4.845   1.494  18.563
  720TIP3    H226356   4.871   1.388  18.458
  721TIP3   OH226357   5.645   0.933  17.208
  721TIP3    H126358   5.643   1.012  17.262
  721TIP3    H226359   5.718   0.946  17.148
  722TIP3   OH226360   4.631   0.971  18.566
  722TIP3    H126361   4.615   1.065  18.573
  722TIP3    H226362   4.604   0.936  18.651
  723TIP3   OH226363   4.705   1.624  18.564
  723TIP3    H126364   4.732   1.643  18.474
  723TIP3    H226365   4.609   1.628  18.562
  724TIP3   OH226366   6.069   0.133  17.238
  724TIP3    H126367   5.997   0.154  17.178
  724TIP3    H226368   6.143   0.182  17.204
  725TIP3   OH226369   4.795   0.942  17.397
  725TIP3    H126370   4.727   1.009  17.392
  725TIP3    H226371   4.747   0.860  17.410
  726TIP3   OH226372   4.238   1.239  18.385
  726TIP3    H126373   4.203   1.244  18.296
  726TIP3    H226374   4.228   1.147  18.409
  727TIP3   OH226375   4.351   1.420  18.065
  727TIP3    H126376   4.432   1.404  18.016
  727TIP3    H226377   4.375   1.489  18.128
  728TIP3   OH226378   6.253   1.677  18.631
  728TIP3    H126379   6.247   1.585  18.605
  728TIP3    H226380   6.162   1.704  18.645
  729TIP3   OH226381   5.172   1.510  18.536
  729TIP3    H126382   5.174   1.580  18.601
  729TIP3    H226383   5.081   1.481  18.536
  730TIP3   OH226384   5.581   1.829  17.066
  730TIP3    H126385   5.654   1.781  17.105
  730TIP3    H226386   5.554   1.890  17.135
  731TIP3   OH226387   5.937   0.647  18.555
  731TIP3    H126388   5.874   0.707  18.516
  731TIP3    H226389   5.922   0.563  18.510
  732TIP3   OH226390   4.492   1.344  18.411
  732TIP3    H126391   4.496   1.348  18.506
  732TIP3    H226392   4.408   1.303  18.392
  733TIP3   OH226393   4.810   0.196  18.025
  733TIP3    H126394   4.800   0.264  17.958
  733TIP3    H226395   4.764   0.231  18.101
  734TIP3   OH226396   5.274   0.135  18.407
  734TIP3    H126397   5.277   0.040  18.417
  734TIP3    H226398   5.189   0.160  18.444
  735TIP3   OH226399   5.610   0.476  18.453
  735TIP3    H126400   5.584   0.490  18.544
  735TIP3    H226401   5.580   0.555  18.407
  736TIP3   OH226402   5.164   0.552  17.156
  736TIP3    H126403   5.129   0.492  17.222
  736TIP3    H226404   5.128   0.521  17.073
  737TIP3   OH226405   4.696   0.723  18.147
  737TIP3    H126406   4.647   0.746  18.226
  737TIP3    H226407   4.712   0.806  18.103
  738TIP3   OH226408   4.753   0.648  17.687
  738TIP3    H126409   4.658   0.643  17.678
  738TIP3    H226410   4.785   0.648  17.596
  739TIP3   OH226411   5.334   0.743  17.513
  739TIP3    H126412   5.300   0.822  17.471
  739TIP3    H226413   5.417   0.726  17.468
  740TIP3   OH226414   5.247   0.783  18.602
  740TIP3    H126415   5.205   0.703  18.634
  740TIP3    H226416   5.331   0.786  18.649
  741TIP3   OH226417   5.394   0.652  17.771
  741TIP3    H126418   5.376   0.697  17.688
  741TIP3    H226419   5.453   0.581  17.748
  742TIP3   OH226420   4.543   0.807  18.363
  742TIP3    H126421   4.576   0.866  18.430
  742TIP3    H226422   4.473   0.758  18.405
  743TIP3   OH226423   4.836   0.473  16.952
  743TIP3    H126424   4.758   0.446  16.904
  743TIP3    H226425   4.908   0.427  16.908
  744TIP3   OH226426   4.192   0.349  17.750
  744TIP3    H126427   4.234   0.364  17.834
  744TIP3    H226428   4.204   0.432  17.703
  745TIP3   OH226429   5.529   0.703  18.304
  745TIP3    H126430   5.540   0.696  18.209
  745TIP3    H226431   5.435   0.717  18.317
  746TIP3   OH226432   5.051   0.491  17.791
  746TIP3    H126433   4.966   0.454  17.813
  746TIP3    H226434   5.112   0.418  17.802
  747TIP3   OH226435   4.486   0.563  17.656
  747TIP3    H126436   4.400   0.563  17.613
  747TIP3    H226437   4.517   0.473  17.646
  748TIP3   OH226438   4.829   0.633  17.418
  748TIP3    H126439   4.924   0.640  17.432
  748TIP3    H226440   4.819   0.641  17.323
  749TIP3   OH226441   5.536   0.382  18.040
  749TIP3    H126442   5.515   0.347  18.126
  749TIP3    H226443   5.506   0.315  17.979
  750TIP3   OH226444   4.781   0.662  17.139
  750TIP3    H126445   4.701   0.698  17.101
  750TIP3    H226446   4.806   0.591  17.079
  751TIP3   OH226447   5.923   2.052  18.684
  751TIP3    H126448   5.945   2.068  18.592
  751TIP3    H226449   5.996   2.089  18.733
  752TIP3   OH226450   4.482   1.353  18.690
  752TIP3    H126451   4.552   1.320  18.745
  752TIP3    H226452   4.402   1.334  18.739
  753TIP3   OH226453   5.153   0.730  17.894
  753TIP3    H126454   5.241   0.723  17.858
  753TIP3    H226455   5.112   0.645  17.876
  754TIP3   OH226456   4.607   0.312  17.639
  754TIP3    H126457   4.569   0.224  17.638
  754TIP3    H226458   4.669   0.313  17.567
  755TIP3   OH226459   4.946   0.656  18.251
  755TIP3    H126460   4.863   0.663  18.204
  755TIP3    H226461   4.974   0.747  18.262
  756TIP3   OH226462   5.974   1.296  18.122
  756TIP3    H126463   6.052   1.320  18.073
  756TIP3    H226464   5.906   1.355  18.091
  757TIP3   OH226465   5.417   0.486  17.296
  757TIP3    H126466   5.345   0.512  17.238
  757TIP3    H226467   5.469   0.566  17.306
  758TIP3   OH226468   5.387   1.332  18.562
  758TIP3    H126469   5.371   1.277  18.639
  758TIP3    H226470   5.309   1.387  18.556
  759TIP3   OH226471   5.567   0.713  17.366
  759TIP3    H126472   5.642   0.682  17.415
  759TIP3    H226473   5.601   0.785  17.313
  760TIP3   OH226474   4.561   1.103  17.838
  760TIP3    H126475   4.622   1.086  17.766
  760TIP3    H226476   4.603   1.064  17.915
  761TIP3   OH226477   4.179   0.976  18.450
  761TIP3    H126478   4.172   0.899  18.505
  761TIP3    H226479   4.120   0.960  18.377
  762TIP3   OH226480   5.059   0.986  18.655
  762TIP3    H126481   4.990   0.944  18.604
  762TIP3    H226482   5.138   0.936  18.633
  763TIP3   OH226483   5.508   1.759  18.556
  763TIP3    H126484   5.459   1.709  18.490
  763TIP3    H226485   5.503   1.706  18.635
  764TIP3   OH226486   6.095   0.650  17.389
  764TIP3    H126487   6.017   0.594  17.381
  764TIP3    H226488   6.066   0.735  17.358
  765TIP3   OH226489   6.250   1.412  18.539
  765TIP3    H126490   6.166   1.413  18.492
  765TIP3    H226491   6.305   1.353  18.488
  766TIP3   OH226492   4.938   1.428  17.609
  766TIP3    H126493   4.999   1.489  17.568
  766TIP3    H226494   4.888   1.392  17.536
  767TIP3   OH226495   5.060   1.590  18.274
  767TIP3    H126496   5.120   1.562  18.343
  767TIP3    H226497   5.073   1.525  18.204
  768TIP3   OH226498   5.475   1.379  18.296
  768TIP3    H126499   5.436   1.366  18.382
  768TIP3    H226500   5.429   1.317  18.239
  769TIP3   OH226501   5.762   1.818  18.456
  769TIP3    H126502   5.674   1.803  18.490
  769TIP3    H226503   5.752   1.893  18.397
  770TIP3   OH226504   6.186   1.976  17.138
  770TIP3    H126505   6.148   2.054  17.097
  770TIP3    H226506   6.111   1.928  17.172
  771TIP3   OH226507   4.437   0.231  18.381
  771TIP3    H126508   4.384   0.303  18.413
  771TIP3    H226509   4.373   0.164  18.356
  772TIP3   OH226510   4.441   1.586  18.276
  772TIP3    H126511   4.469   1.501  18.310
  772TIP3    H226512   4.423   1.639  18.354
  773TIP3   OH226513   4.589   1.120  17.410
  773TIP3    H126514   4.532   1.145  17.483
  773TIP3    H226515   4.559   1.174  17.337
  774TIP3   OH226516   5.475   0.287  18.286
  774TIP3    H126517   5.517   0.336  18.357
  774TIP3    H226518   5.408   0.235  18.331
  775TIP3   OH226519   5.476   0.302  17.491
  775TIP3    H126520   5.456   0.358  17.415
  775TIP3    H226521   5.514   0.362  17.555
  776TIP3   OH226522   5.090   0.606  17.535
  776TIP3    H126523   5.174   0.652  17.535
  776TIP3    H226524   5.077   0.578  17.625
  777TIP3   OH226525   5.252   0.730  18.330
  777TIP3    H126526   5.247   0.760  18.420
  777TIP3    H226527   5.181   0.666  18.321
  778TIP3   OH226528   5.214   0.224  17.545
  778TIP3    H126529   5.212   0.252  17.637
  778TIP3    H226530   5.306   0.235  17.519
  779TIP3   OH226531   4.797   0.357  17.448
  779TIP3    H126532   4.795   0.452  17.437
  779TIP3    H226533   4.877   0.329  17.403
  780TIP3   OH226534   5.878   0.431  18.384
  780TIP3    H126535   5.784   0.437  18.405
  780TIP3    H226536   5.885   0.355  18.327
  781TIP3   OH226537   5.725   0.779  17.868
  781TIP3    H126538   5.647   0.755  17.919
  781TIP3    H226539   5.795   0.725  17.905
  782TIP3   OH226540   4.546   1.286  17.189
  782TIP3    H126541   4.640   1.284  17.167
  782TIP3    H226542   4.509   1.214  17.138
  783TIP3   OH226543   4.397   0.722  16.935
  783TIP3    H126544   4.388   0.811  16.901
  783TIP3    H226545   4.417   0.668  16.859
  784TIP3   OH226546   5.942   1.966  18.045
  784TIP3    H126547   5.916   1.899  17.981
  784TIP3    H226548   6.033   1.943  18.066
  785TIP3   OH226549   4.465   0.130  17.933
  785TIP3    H126550   4.474   0.123  17.838
  785TIP3    H226551   4.468   0.039  17.964
  786TIP3   OH226552   4.342   1.629  17.451
  786TIP3    H126553   4.362   1.643  17.544
  786TIP3    H226554   4.313   1.714  17.419
  787TIP3   OH226555   4.300   1.986  18.734
  787TIP3    H126556   4.369   1.958  18.793
  787TIP3    H226557   4.273   1.905  18.689
  788TIP3   OH226558   4.708   1.718  18.830
  788TIP3    H126559   4.784   1.679  18.873
  788TIP3    H226560   4.714   1.688  18.739
  789TIP3   OH226561   5.492   1.619  18.797
  789TIP3    H126562   5.487   1.531  18.835
  789TIP3    H226563   5.572   1.657  18.834
  790TIP3   OH226564   4.214   1.367  18.797
  790TIP3    H126565   4.136   1.353  18.851
  790TIP3    H226566   4.179   1.383  18.709
  791TIP3   OH226567   4.991   1.253  18.734
  791TIP3    H126568   4.974   1.302  18.653
  791TIP3    H226569   5.023   1.168  18.704
  792TIP3   OH226570   5.640   1.227  18.508
  792TIP3    H126571   5.651   1.268  18.422
  792TIP3    H226572   5.556   1.260  18.539
  793TIP3   OH226573   4.550   0.873  18.807
  793TIP3    H126574   4.587   0.788  18.835
  793TIP3    H226575   4.488   0.895  18.877
  794TIP3   OH226576   4.977   0.839  17.213
  794TIP3    H126577   4.926   0.891  17.275
  794TIP3    H226578   4.913   0.781  17.171
  795TIP3   OH226579   4.873   0.855  18.496
  795TIP3    H126580   4.789   0.899  18.512
  795TIP3    H226581   4.902   0.889  18.412
  796TIP3   OH226582   5.412   1.159  18.797
  796TIP3    H126583   5.499   1.124  18.816
  796TIP3    H226584   5.352   1.090  18.826
  797TIP3   OH226585   4.854   0.594  18.594
  797TIP3    H126586   4.858   0.531  18.522
  797TIP3    H226587   4.864   0.679  18.552
  798TIP3   OH226588   4.877   0.413  18.371
  798TIP3    H126589   4.913   0.488  18.324
  798TIP3    H226590   4.800   0.387  18.321
  799TIP3   OH226591   4.977   0.940  18.254
  799TIP3    H126592   5.064   0.938  18.213
  799TIP3    H226593   4.938   1.022  18.226
  800TIP3   OH226594   5.487   0.776  18.746
  800TIP3    H126595   5.510   0.683  18.743
  800TIP3    H226596   5.569   0.821  18.728
  801TIP3   OH226597   5.744   1.008  18.637
  801TIP3    H126598   5.712   1.086  18.592
  801TIP3    H226599   5.839   1.016  18.634
  802TIP3   OH226600   4.696   0.619  18.820
  802TIP3    H126601   4.620   0.562  18.806
  802TIP3    H226602   4.745   0.613  18.738
  803TIP3   OH226603   4.982   0.153  18.414
  803TIP3    H126604   4.944   0.241  18.423
  803TIP3    H226605   5.009   0.148  18.323
  804TIP3   OH226606   5.120   0.552  18.677
  804TIP3    H126607   5.124   0.465  18.716
  804TIP3    H226608   5.027   0.567  18.661
  805TIP3   OH226609   5.533   0.501  18.726
  805TIP3    H126610   5.447   0.462  18.742
  805TIP3    H226611   5.594   0.449  18.778
  806TIP3   OH226612   5.667   0.327  18.903
  806TIP3    H126613   5.639   0.236  18.887
  806TIP3    H226614   5.622   0.351  18.984
  807TIP3   OH226615   4.485   0.430  18.797
  807TIP3    H126616   4.477   0.350  18.745
  807TIP3    H226617   4.507   0.398  18.885
  808TIP3   OH226618   4.953   0.074  18.686
  808TIP3    H126619   4.948   8.427  18.693
  808TIP3    H226620   4.963   0.090  18.592
  809TIP3   OH226621   5.083   0.301  18.796
  809TIP3    H126622   5.052   0.217  18.762
  809TIP3    H226623   5.007   0.339  18.841
  810TIP3   OH226624   4.352   1.825  17.812
  810TIP3    H126625   4.260   1.820  17.837
  810TIP3    H226626   4.399   1.802  17.892
  811TIP3   OH226627   6.201   1.888  18.128
  811TIP3    H126628   6.171   1.845  18.207
  811TIP3    H226629   6.240   1.970  18.158
  812TIP3   OH226630   6.086   1.785  18.351
  812TIP3    H126631   6.022   1.721  18.318
  812TIP3    H226632   6.093   1.765  18.445
  813TIP3   OH226633   6.023   1.393  18.909
  813TIP3    H126634   5.930   1.404  18.932
  813TIP3    H226635   6.064   1.474  18.940
  814TIP3   OH226636   6.194   1.362  17.980
  814TIP3    H126637   6.262   1.295  17.989
  814TIP3    H226638   6.242   1.445  17.989
  815TIP3   OH226639   5.869   1.622  18.297
  815TIP3    H126640   5.825   1.684  18.356
  815TIP3    H226641   5.800   1.594  18.236
  816TIP3   OH226642   5.974   0.889  17.306
  816TIP3    H126643   5.940   0.916  17.220
  816TIP3    H226644   5.950   0.960  17.365
  817TIP3   OH226645   4.213   0.985  18.050
  817TIP3    H126646   4.232   0.985  17.956
  817TIP3    H226647   4.299   0.975  18.092
  818TIP3   OH226648   6.024   1.000  18.640
  818TIP3    H126649   6.051   0.911  18.664
  818TIP3    H226650   6.082   1.024  18.568
  819TIP3   OH226651   6.198   0.740  18.550
  819TIP3    H126652   6.110   0.703  18.548
  819TIP3    H226653   6.255   0.667  18.575
  820TIP3   OH226654   5.769   0.613  17.527
  820TIP3    H126655   5.810   0.528  17.515
  820TIP3    H226656   5.828   0.661  17.586
  821TIP3   OH226657   5.920   0.638  17.999
  821TIP3    H126658   6.013   0.627  17.980
  821TIP3    H226659   5.917   0.684  18.082
  822TIP3   OH226660   5.951   0.797  18.227
  822TIP3    H126661   5.883   0.811  18.294
  822TIP3    H226662   5.986   0.884  18.211
  823TIP3   OH226663   4.245   0.547  18.715
  823TIP3    H126664   4.328   0.509  18.743
  823TIP3    H226665   4.190   0.471  18.695
  824TIP3   OH226666   6.282   0.104  18.800
  824TIP3    H126667   6.374   0.115  18.777
  824TIP3    H226668   6.236   0.165  18.742
  825TIP3   OH226669   5.876   0.365  17.519
  825TIP3    H126670   5.939   0.329  17.581
  825TIP3    H226671   5.825   0.290  17.490
  826TIP3   OH226672   4.333   0.363  17.994
  826TIP3    H126673   4.375   0.278  17.979
  826TIP3    H226674   4.406   0.423  18.008
  827TIP3   OH226675   4.136   0.713  17.985
  827TIP3    H126676   4.218   0.696  17.939
  827TIP3    H226677   4.147   0.801  18.021
  828TIP3   OH226678   6.137   0.292  18.651
  828TIP3    H126679   6.065   0.318  18.708
  828TIP3    H226680   6.095   0.240  18.582
  829TIP3   OH226681   6.292   0.270  17.142
  829TIP3    H126682   6.339   0.188  17.158
  829TIP3    H226683   6.321   0.298  17.055
  830TIP3   OH226684   4.198   0.088  18.328
  830TIP3    H126685   4.128   0.095  18.394
  830TIP3    H226686   4.175   0.154  18.262
  831TIP3   OH226687   4.422   1.605  18.572
  831TIP3    H126688   4.329   1.621  18.589
  831TIP3    H226689   4.441   1.523  18.618
  832TIP3   OH226690   4.790   1.629  18.301
  832TIP3    H126691   4.759   1.641  18.211
  832TIP3    H226692   4.886   1.629  18.293
  833TIP3   OH226693   5.152   1.935  18.669
  833TIP3    H126694   5.160   1.844  18.696
  833TIP3    H226695   5.242   1.966  18.658
  834TIP3   OH226696   5.413   2.015  18.615
  834TIP3    H126697   5.453   1.932  18.590
  834TIP3    H226698   5.483   2.061  18.663
  835TIP3   OH226699   6.037   0.113  18.448
  835TIP3    H126700   5.987   0.147  18.373
  835TIP3    H226701   6.018   0.019  18.448
  836TIP3   OH226702   4.432   2.228  18.360
  836TIP3    H126703   4.348   2.188  18.336
  836TIP3    H226704   4.442   2.208  18.453
  837TIP3   OH226705   4.711   2.235  18.283
  837TIP3    H126706   4.622   2.211  18.308
  837TIP3    H226707   4.704   2.327  18.257
  838TIP3   OH226708   5.313   1.996  18.186
  838TIP3    H126709   5.262   2.050  18.126
  838TIP3    H226710   5.299   2.034  18.272
  839TIP3   OH226711   5.541   1.843  18.212
  839TIP3    H126712   5.459   1.891  18.201
  839TIP3    H226713   5.608   1.911  18.221
  840TIP3   OH226714   5.771   2.027  18.256
  840TIP3    H126715   5.747   2.120  18.245
  840TIP3    H226716   5.823   2.007  18.179
  841TIP3   OH226717   4.488   1.775  18.047
  841TIP3    H126718   4.449   1.739  18.127
  841TIP3    H226719   4.572   1.729  18.038
  842TIP3   OH226720   4.703   1.606  18.038
  842TIP3    H126721   4.641   1.533  18.032
  842TIP3    H226722   4.775   1.581  17.980
  843TIP3   OH226723   5.207   0.264  17.819
  843TIP3    H126724   5.162   0.196  17.869
  843TIP3    H226725   5.300   0.248  17.836
  844TIP3   OH226726   5.895   0.178  17.898
  844TIP3    H126727   5.962   0.190  17.830
  844TIP3    H226728   5.845   0.259  17.896
  845TIP3   OH226729   6.068   0.256  17.691
  845TIP3    H126730   6.115   0.205  17.624
  845TIP3    H226731   6.131   0.323  17.718
  846TIP3   OH226732   4.471   0.070  17.659
  846TIP3    H126733   4.386   0.085  17.618
  846TIP3    H226734   4.480   8.423  17.660
  847TIP3   OH226735   5.095   8.441  17.654
  847TIP3    H126736   5.126   0.068  17.604
  847TIP3    H226737   5.085   0.026  17.743
  848TIP3   OH226738   5.480   0.212  17.823
  848TIP3    H126739   5.524   0.268  17.759
  848TIP3    H226740   5.510   0.124  17.802
  849TIP3   OH226741   5.711   0.147  17.465
  849TIP3    H126742   5.624   0.187  17.464
  849TIP3    H226743   5.694   0.053  17.465
  850TIP3   OH226744   4.274   1.889  17.375
  850TIP3    H126745   4.192   1.921  17.338
  850TIP3    H226746   4.302   1.959  17.435
  851TIP3   OH226747   5.077   0.390  17.366
  851TIP3    H126748   5.122   0.318  17.411
  851TIP3    H226749   5.081   0.464  17.428
  852TIP3   OH226750   4.464   0.186  18.670
  852TIP3    H126751   4.479   0.176  18.576
  852TIP3    H226752   4.545   0.157  18.711
  853TIP3   OH226753   4.701   0.126  18.802
  853TIP3    H126754   4.791   0.131  18.770
  853TIP3    H226755   4.682   0.033  18.806
  854TIP3   OH226756   4.404   1.813  17.142
  854TIP3    H126757   4.352   1.832  17.220
  854TIP3    H226758   4.485   1.863  17.153
  855TIP3   OH226759   5.574   0.070  18.861
  855TIP3    H126760   5.493   0.038  18.899
  855TIP3    H226761   5.611   8.443  18.815
  856TIP3   OH226762   5.988   1.783  18.621
  856TIP3    H126763   5.909   1.771  18.568
  856TIP3    H226764   5.975   1.868  18.664
  857TIP3   OH226765   7.651   1.126  17.576
  857TIP3    H126766   7.621   1.213  17.605
  857TIP3    H226767   7.582   1.096  17.517
  858TIP3   OH226768   7.522   0.829  18.070
  858TIP3    H126769   7.530   0.796  18.159
  858TIP3    H226770   7.584   0.903  18.066
  859TIP3   OH226771   6.549   1.020  18.142
  859TIP3    H126772   6.556   0.951  18.208
  859TIP3    H226773   6.636   1.023  18.102
  860TIP3   OH226774   7.888   1.407  17.862
  860TIP3    H126775   7.882   1.320  17.902
  860TIP3    H226776   7.877   1.468  17.934
  861TIP3   OH226777   6.770   1.491  18.064
  861TIP3    H126778   6.744   1.419  18.008
  861TIP3    H226779   6.860   1.510  18.039
  862TIP3   OH226780   6.283   0.665  17.603
  862TIP3    H126781   6.262   0.585  17.651
  862TIP3    H226782   6.221   0.665  17.529
  863TIP3   OH226783   6.303   0.909  17.826
  863TIP3    H126784   6.357   0.841  17.865
  863TIP3    H226785   6.277   0.874  17.740
  864TIP3   OH226786   7.583   1.940  17.749
  864TIP3    H126787   7.650   1.903  17.692
  864TIP3    H226788   7.513   1.874  17.749
  865TIP3   OH226789   7.205   1.349  18.023
  865TIP3    H126790   7.253   1.322  17.945
  865TIP3    H226791   7.273   1.379  18.083
  866TIP3   OH226792   8.204   0.345  18.157
  866TIP3    H126793   8.191   0.410  18.227
  866TIP3    H226794   8.214   0.398  18.078
  867TIP3   OH226795   6.758   0.392  17.822
  867TIP3    H126796   6.803   0.465  17.779
  867TIP3    H226797   6.711   0.348  17.751
  868TIP3   OH226798   6.453   0.684  17.893
  868TIP3    H126799   6.517   0.645  17.952
  868TIP3    H226800   6.480   0.656  17.805
  869TIP3   OH226801   6.899   0.884  17.797
  869TIP3    H126802   6.992   0.861  17.807
  869TIP3    H226803   6.858   0.803  17.766
  870TIP3   OH226804   8.155   0.516  18.372
  870TIP3    H126805   8.128   0.603  18.343
  870TIP3    H226806   8.216   0.531  18.443
  871TIP3   OH226807   6.695   0.336  18.232
  871TIP3    H126808   6.662   0.407  18.177
  871TIP3    H226809   6.627   0.322  18.298
  872TIP3   OH226810   7.552   1.376  17.628
  872TIP3    H126811   7.502   1.425  17.562
  872TIP3    H226812   7.601   1.443  17.676
  873TIP3   OH226813   7.016   1.168  18.141
  873TIP3    H126814   6.962   1.223  18.197
  873TIP3    H226815   7.078   1.229  18.099
  874TIP3   OH226816   6.644   0.531  18.034
  874TIP3    H126817   6.702   0.600  18.065
  874TIP3    H226818   6.695   0.487  17.966
  875TIP3   OH226819   6.841   1.330  18.287
  875TIP3    H126820   6.800   1.389  18.224
  875TIP3    H226821   6.768   1.294  18.337
  876TIP3   OH226822   6.553   1.428  17.357
  876TIP3    H126823   6.516   1.468  17.278
  876TIP3    H226824   6.538   1.493  17.426
  877TIP3   OH226825   7.846   1.606  18.054
  877TIP3    H126826   7.755   1.621  18.080
  877TIP3    H226827   7.877   1.691  18.025
  878TIP3   OH226828   7.998   0.162  18.174
  878TIP3    H126829   7.960   0.146  18.087
  878TIP3    H226830   8.066   0.227  18.159
  879TIP3   OH226831   7.048   0.057  17.898
  879TIP3    H126832   7.031   8.414  17.917
  879TIP3    H226833   6.977   0.104  17.942
  880TIP3   OH226834   7.748   1.775  17.574
  880TIP3    H126835   7.780   1.687  17.591
  880TIP3    H226836   7.826   1.831  17.575
  881TIP3   OH226837   7.840   1.525  17.619
  881TIP3    H126838   7.877   1.466  17.553
  881TIP3    H226839   7.862   1.483  17.703
  882TIP3   OH226840   8.004   1.343  18.378
  882TIP3    H126841   8.014   1.299  18.294
  882TIP3    H226842   7.995   1.436  18.355
  883TIP3   OH226843   8.182   0.998  18.238
  883TIP3    H126844   8.123   1.070  18.213
  883TIP3    H226845   8.240   0.987  18.163
  884TIP3   OH226846   7.908   1.064  17.644
  884TIP3    H126847   7.820   1.089  17.618
  884TIP3    H226848   7.907   0.968  17.642
  885TIP3   OH226849   7.812   0.805  18.425
  885TIP3    H126850   7.804   0.884  18.479
  885TIP3    H226851   7.724   0.792  18.388
  886TIP3   OH226852   6.825   1.127  17.673
  886TIP3    H126853   6.778   1.111  17.592
  886TIP3    H226854   6.845   1.040  17.708
  887TIP3   OH226855   7.018   1.548  17.958
  887TIP3    H126856   6.998   1.539  17.865
  887TIP3    H226857   7.083   1.480  17.976
  888TIP3   OH226858   6.809   1.013  18.030
  888TIP3    H126859   6.841   0.975  17.948
  888TIP3    H226860   6.884   1.059  18.066
  889TIP3   OH226861   7.598   1.637  18.168
  889TIP3    H126862   7.572   1.706  18.230
  889TIP3    H226863   7.523   1.577  18.167
  890TIP3   OH226864   6.969   1.447  18.506
  890TIP3    H126865   6.906   1.513  18.533
  890TIP3    H226866   6.932   1.408  18.427
  891TIP3   OH226867   6.690   0.973  18.532
  891TIP3    H126868   6.675   1.066  18.520
  891TIP3    H226869   6.665   0.956  18.623
  892TIP3   OH226870   7.485   1.699  17.638
  892TIP3    H126871   7.573   1.717  17.605
  892TIP3    H226872   7.444   1.644  17.570
  893TIP3   OH226873   6.803   1.662  18.556
  893TIP3    H126874   6.822   1.724  18.486
  893TIP3    H226875   6.707   1.652  18.554
  894TIP3   OH226876   8.035   0.079  17.249
  894TIP3    H126877   7.958   0.111  17.296
  894TIP3    H226878   8.087   0.157  17.232
  895TIP3   OH226879   6.674   1.091  17.437
  895TIP3    H126880   6.687   1.134  17.353
  895TIP3    H226881   6.591   1.126  17.470
  896TIP3   OH226882   6.372   1.210  18.381
  896TIP3    H126883   6.371   1.202  18.286
  896TIP3    H226884   6.319   1.137  18.411
  897TIP3   OH226885   6.309   1.627  18.024
  897TIP3    H126886   6.375   1.635  18.093
  897TIP3    H226887   6.250   1.702  18.039
  898TIP3   OH226888   8.186   1.672  18.628
  898TIP3    H126889   8.210   1.587  18.664
  898TIP3    H226890   8.098   1.689  18.664
  899TIP3   OH226891   7.182   1.631  18.483
  899TIP3    H126892   7.183   1.707  18.542
  899TIP3    H226893   7.102   1.583  18.508
  900TIP3   OH226894   7.522   2.053  17.430
  900TIP3    H126895   7.464   1.979  17.412
  900TIP3    H226896   7.469   2.113  17.483
  901TIP3   OH226897   6.689   1.819  17.724
  901TIP3    H126898   6.715   1.808  17.815
  901TIP3    H226899   6.605   1.775  17.716
  902TIP3   OH226900   7.701   2.141  17.126
  902TIP3    H126901   7.752   2.165  17.049
  902TIP3    H226902   7.709   2.046  17.131
  903TIP3   OH226903   7.739   1.914  17.324
  903TIP3    H126904   7.661   1.962  17.350
  903TIP3    H226905   7.738   1.834  17.378
  904TIP3   OH226906   7.938   0.648  18.620
  904TIP3    H126907   7.889   0.706  18.560
  904TIP3    H226908   7.925   0.561  18.583
  905TIP3   OH226909   6.637   1.241  18.455
  905TIP3    H126910   6.629   1.294  18.535
  905TIP3    H226911   6.547   1.230  18.425
  906TIP3   OH226912   6.824   0.190  18.025
  906TIP3    H126913   6.803   0.248  17.951
  906TIP3    H226914   6.786   0.233  18.101
  907TIP3   OH226915   7.313   0.187  18.411
  907TIP3    H126916   7.353   0.100  18.423
  907TIP3    H226917   7.219   0.171  18.416
  908TIP3   OH226918   7.638   0.508  18.451
  908TIP3    H126919   7.614   0.498  18.543
  908TIP3    H226920   7.729   0.478  18.447
  909TIP3   OH226921   6.781   0.749  18.139
  909TIP3    H126922   6.719   0.765  18.210
  909TIP3    H226923   6.801   0.836  18.104
  910TIP3   OH226924   6.812   0.642  17.683
  910TIP3    H126925   6.717   0.635  17.672
  910TIP3    H226926   6.848   0.617  17.598
  911TIP3   OH226927   7.292   0.793  18.624
  911TIP3    H126928   7.248   0.715  18.657
  911TIP3    H226929   7.380   0.789  18.662
  912TIP3   OH226930   6.594   0.817  18.330
  912TIP3    H126931   6.629   0.870  18.402
  912TIP3    H226932   6.528   0.762  18.371
  913TIP3   OH226933   6.935   0.527  17.163
  913TIP3    H126934   6.908   0.438  17.186
  913TIP3    H226935   7.027   0.519  17.138
  914TIP3   OH226936   6.288   0.418  17.741
  914TIP3    H126937   6.312   0.423  17.833
  914TIP3    H226938   6.356   0.362  17.702
  915TIP3   OH226939   6.268   0.420  17.377
  915TIP3    H126940   6.279   0.388  17.287
  915TIP3    H226941   6.219   0.501  17.368
  916TIP3   OH226942   7.550   0.742  18.332
  916TIP3    H126943   7.576   0.656  18.366
  916TIP3    H226944   7.455   0.743  18.342
  917TIP3   OH226945   6.548   0.586  17.637
  917TIP3    H126946   6.462   0.617  17.607
  917TIP3    H226947   6.555   0.497  17.603
  918TIP3   OH226948   7.932   2.027  18.680
  918TIP3    H126949   7.964   2.040  18.591
  918TIP3    H226950   8.001   2.061  18.736
  919TIP3   OH226951   6.599   1.372  18.694
  919TIP3    H126952   6.667   1.339  18.752
  919TIP3    H226953   6.517   1.349  18.738
  920TIP3   OH226954   6.604   0.318  17.565
  920TIP3    H126955   6.554   0.241  17.592
  920TIP3    H226956   6.629   0.299  17.474
  921TIP3   OH226957   7.004   0.613  18.259
  921TIP3    H126958   6.944   0.673  18.215
  921TIP3    H226959   7.081   0.667  18.277
  922TIP3   OH226960   7.211   1.334  17.423
  922TIP3    H126961   7.233   1.244  17.402
  922TIP3    H226962   7.153   1.328  17.499
  923TIP3   OH226963   8.057   1.222  18.132
  923TIP3    H126964   8.119   1.283  18.092
  923TIP3    H226965   8.004   1.191  18.059
  924TIP3   OH226966   7.347   1.416  18.460
  924TIP3    H126967   7.300   1.351  18.512
  924TIP3    H226968   7.293   1.495  18.465
  925TIP3   OH226969   6.747   1.267  17.906
  925TIP3    H126970   6.767   1.236  17.817
  925TIP3    H226971   6.741   1.187  17.958
  926TIP3   OH226972   7.414   1.522  17.435
  926TIP3    H126973   7.436   1.548  17.345
  926TIP3    H226974   7.341   1.461  17.425
  927TIP3   OH226975   6.208   0.993  18.429
  927TIP3    H126976   6.215   0.902  18.459
  927TIP3    H226977   6.158   0.987  18.347
  928TIP3   OH226978   7.105   0.997  18.656
  928TIP3    H126979   7.035   0.952  18.610
  928TIP3    H226980   7.183   0.943  18.641
  929TIP3   OH226981   7.598   1.485  18.555
  929TIP3    H126982   7.515   1.457  18.518
  929TIP3    H226983   7.578   1.508  18.646
  930TIP3   OH226984   8.319   0.717  17.245
  930TIP3    H126985   8.261   0.663  17.191
  930TIP3    H226986   8.354   0.783  17.184
  931TIP3   OH226987   8.220   1.253  18.523
  931TIP3    H126988   8.139   1.287  18.485
  931TIP3    H226989   8.284   1.255  18.452
  932TIP3   OH226990   8.072   1.600  17.338
  932TIP3    H126991   8.013   1.531  17.371
  932TIP3    H226992   8.130   1.555  17.277
  933TIP3   OH226993   7.913   1.122  17.918
  933TIP3    H126994   7.916   1.128  17.822
  933TIP3    H226995   7.891   1.031  17.936
  934TIP3   OH226996   6.919   1.548  17.697
  934TIP3    H126997   6.940   1.632  17.656
  934TIP3    H226998   6.824   1.540  17.686
  935TIP3   OH226999   7.036   1.305  17.630
  935TIP3    H127000   6.999   1.390  17.655
  935TIP3    H227001   6.965   1.243  17.647
  936TIP3   OH227002   7.141   1.813  18.279
  936TIP3    H127003   7.219   1.870  18.278
  936TIP3    H227004   7.163   1.744  18.341
  937TIP3   OH227005   6.930   1.807  17.590
  937TIP3    H127006   6.839   1.813  17.621
  937TIP3    H227007   6.972   1.886  17.622
  938TIP3   OH227008   7.420   1.412  18.194
  938TIP3    H127009   7.390   1.414  18.285
  938TIP3    H227010   7.496   1.355  18.196
  939TIP3   OH227011   7.752   1.698  18.478
  939TIP3    H127012   7.698   1.622  18.502
  939TIP3    H227013   7.690   1.759  18.437
  940TIP3   OH227014   6.494   0.318  18.424
  940TIP3    H127015   6.448   0.383  18.477
  940TIP3    H227016   6.426   0.256  18.398
  941TIP3   OH227017   7.926   1.368  17.400
  941TIP3    H127018   7.839   1.339  17.372
  941TIP3    H227019   7.986   1.299  17.369
  942TIP3   OH227020   6.491   1.693  18.226
  942TIP3    H127021   6.585   1.675  18.221
  942TIP3    H227022   6.470   1.690  18.319
  943TIP3   OH227023   7.111   1.523  17.247
  943TIP3    H127024   7.140   1.453  17.307
  943TIP3    H227025   7.123   1.603  17.297
  944TIP3   OH227026   6.664   1.232  17.199
  944TIP3    H127027   6.635   1.298  17.261
  944TIP3    H227028   6.651   1.272  17.113
  945TIP3   OH227029   7.369   0.462  18.381
  945TIP3    H127030   7.464   0.461  18.396
  945TIP3    H227031   7.344   0.370  18.388
  946TIP3   OH227032   7.359   1.846  17.325
  946TIP3    H127033   7.268   1.824  17.348
  946TIP3    H227034   7.392   1.769  17.279
  947TIP3   OH227035   7.263   0.717  18.357
  947TIP3    H127036   7.261   0.745  18.448
  947TIP3    H227037   7.284   0.624  18.361
  948TIP3   OH227038   7.089   1.775  17.365
  948TIP3    H127039   7.018   1.770  17.302
  948TIP3    H227040   7.045   1.783  17.450
  949TIP3   OH227041   6.935   0.251  17.225
  949TIP3    H127042   7.016   0.227  17.270
  949TIP3    H227043   6.916   0.177  17.167
  950TIP3   OH227044   7.909   0.418  18.462
  950TIP3    H127045   7.905   0.324  18.444
  950TIP3    H227046   7.991   0.446  18.421
  951TIP3   OH227047   7.876   0.843  17.900
  951TIP3    H127048   7.914   0.827  17.814
  951TIP3    H227049   7.908   0.771  17.954
  952TIP3   OH227050   7.963   1.860  18.013
  952TIP3    H127051   7.957   1.925  17.944
  952TIP3    H227052   8.055   1.861  18.039
  953TIP3   OH227053   6.502   0.153  17.894
  953TIP3    H127054   6.483   0.140  17.801
  953TIP3    H227055   6.510   0.064  17.930
  954TIP3   OH227056   6.496   1.643  17.526
  954TIP3    H127057   6.461   1.657  17.615
  954TIP3    H227058   6.481   1.727  17.482
  955TIP3   OH227059   6.348   1.932  18.718
  955TIP3    H127060   6.400   1.910  18.795
  955TIP3    H227061   6.322   1.848  18.682
  956TIP3   OH227062   6.879   1.817  18.777
  956TIP3    H127063   6.940   1.760  18.824
  956TIP3    H227064   6.852   1.766  18.701
  957TIP3   OH227065   7.470   1.611  17.176
  957TIP3    H127066   7.534   1.661  17.126
  957TIP3    H227067   7.465   1.527  17.130
  958TIP3   OH227068   7.547   1.566  18.814
  958TIP3    H127069   7.544   1.494  18.877
  958TIP3    H227070   7.622   1.618  18.842
  959TIP3   OH227071   6.343   1.330  18.789
  959TIP3    H127072   6.285   1.259  18.818
  959TIP3    H227073   6.303   1.363  18.709
  960TIP3   OH227074   7.043   1.276  18.711
  960TIP3    H127075   7.023   1.319  18.628
  960TIP3    H227076   7.068   1.187  18.686
  961TIP3   OH227077   7.779   1.271  18.526
  961TIP3    H127078   7.855   1.303  18.478
  961TIP3    H227079   7.722   1.347  18.536
  962TIP3   OH227080   6.629   0.885  18.788
  962TIP3    H127081   6.669   0.801  18.812
  962TIP3    H227082   6.575   0.907  18.864
  963TIP3   OH227083   6.931   0.845  18.499
  963TIP3    H127084   6.846   0.889  18.505
  963TIP3    H227085   6.964   0.867  18.412
  964TIP3   OH227086   7.503   1.138  18.890
  964TIP3    H127087   7.587   1.097  18.870
  964TIP3    H227088   7.441   1.065  18.895
  965TIP3   OH227089   6.908   0.587  18.602
  965TIP3    H127090   6.907   0.521  18.533
  965TIP3    H227091   6.918   0.670  18.555
  966TIP3   OH227092   6.916   0.394  18.389
  966TIP3    H127093   6.957   0.465  18.340
  966TIP3    H227094   6.836   0.374  18.340
  967TIP3   OH227095   7.051   0.916  18.262
  967TIP3    H127096   7.143   0.890  18.266
  967TIP3    H227097   7.053   1.002  18.221
  968TIP3   OH227098   7.533   0.752  18.758
  968TIP3    H127099   7.540   0.658  18.743
  968TIP3    H227100   7.624   0.783  18.751
  969TIP3   OH227101   7.823   1.015  18.601
  969TIP3    H127102   7.796   1.102  18.574
  969TIP3    H227103   7.918   1.022  18.614
  970TIP3   OH227104   6.751   0.623  18.824
  970TIP3    H127105   6.677   0.563  18.815
  970TIP3    H227106   6.801   0.613  18.743
  971TIP3   OH227107   7.030   0.144  18.382
  971TIP3    H127108   6.990   0.228  18.401
  971TIP3    H227109   7.044   0.145  18.287
  972TIP3   OH227110   7.168   0.564  18.701
  972TIP3    H127111   7.175   0.475  18.734
  972TIP3    H227112   7.076   0.573  18.675
  973TIP3   OH227113   7.548   0.481  18.710
  973TIP3    H127114   7.459   0.444  18.715
  973TIP3    H227115   7.600   0.424  18.767
  974TIP3   OH227116   7.691   0.319  18.881
  974TIP3    H127117   7.692   0.224  18.889
  974TIP3    H227118   7.653   0.350  18.963
  975TIP3   OH227119   6.551   0.415  18.809
  975TIP3    H127120   6.548   0.334  18.758
  975TIP3    H227121   6.576   0.387  18.897
  976TIP3   OH227122   7.033   0.080  18.662
  976TIP3    H127123   7.072   8.441  18.662
  976TIP3    H227124   7.027   0.104  18.570
  977TIP3   OH227125   7.143   0.304  18.799
  977TIP3    H127126   7.115   0.224  18.754
  977TIP3    H227127   7.064   0.337  18.841
  978TIP3   OH227128   6.432   1.728  17.789
  978TIP3    H127129   6.385   1.666  17.844
  978TIP3    H227130   6.441   1.807  17.843
  979TIP3   OH227131   8.223   1.876  18.141
  979TIP3    H127132   8.194   1.841  18.225
  979TIP3    H227133   8.255   1.964  18.161
  980TIP3   OH227134   8.133   1.791  18.386
  980TIP3    H127135   8.072   1.724  18.355
  980TIP3    H227136   8.169   1.756  18.467
  981TIP3   OH227137   8.068   1.396  18.901
  981TIP3    H127138   7.979   1.400  18.936
  981TIP3    H227139   8.107   1.481  18.922
  982TIP3   OH227140   8.085   1.164  17.300
  982TIP3    H127141   8.137   1.138  17.224
  982TIP3    H227142   8.122   1.113  17.372
  983TIP3   OH227143   8.164   1.049  17.543
  983TIP3    H127144   8.074   1.059  17.575
  983TIP3    H227145   8.214   1.113  17.594
  984TIP3   OH227146   8.269   1.382  18.044
  984TIP3    H127147   8.314   1.353  17.965
  984TIP3    H227148   8.275   1.478  18.041
  985TIP3   OH227149   7.950   1.603  18.309
  985TIP3    H127150   7.876   1.637  18.361
  985TIP3    H227151   7.916   1.600  18.220
  986TIP3   OH227152   8.119   0.590  17.085
  986TIP3    H127153   8.075   0.670  17.115
  986TIP3    H227154   8.147   0.610  16.996
  987TIP3   OH227155   7.991   0.796  17.651
  987TIP3    H127156   7.981   0.724  17.589
  987TIP3    H227157   8.084   0.817  17.648
  988TIP3   OH227158   6.308   1.095  18.036
  988TIP3    H127159   6.301   1.041  17.957
  988TIP3    H227160   6.394   1.073  18.072
  989TIP3   OH227161   8.096   1.035  18.646
  989TIP3    H127162   8.142   0.952  18.634
  989TIP3    H227163   8.151   1.099  18.601
  990TIP3   OH227164   8.187   0.771  18.602
  990TIP3    H127165   8.098   0.739  18.612
  990TIP3    H227166   8.242   0.694  18.617
  991TIP3   OH227167   8.002   0.583  17.484
  991TIP3    H127168   7.970   0.497  17.513
  991TIP3    H227169   8.092   0.567  17.457
  992TIP3   OH227170   7.988   0.628  18.030
  992TIP3    H127171   8.066   0.584  17.996
  992TIP3    H227172   8.013   0.658  18.117
  993TIP3   OH227173   8.046   0.752  18.281
  993TIP3    H127174   7.964   0.772  18.326
  993TIP3    H227175   8.089   0.837  18.270
  994TIP3   OH227176   6.338   0.494  18.630
  994TIP3    H127177   6.402   0.475  18.699
  994TIP3    H227178   6.269   0.430  18.642
  995TIP3   OH227179   8.330   0.113  18.799
  995TIP3    H127180   8.420   0.111  18.767
  995TIP3    H227181   8.283   0.166  18.734
  996TIP3   OH227182   7.945   0.335  17.579
  996TIP3    H127183   8.011   0.284  17.626
  996TIP3    H227184   7.905   0.273  17.518
  997TIP3   OH227185   6.407   0.386  17.993
  997TIP3    H127186   6.441   0.300  17.967
  997TIP3    H227187   6.485   0.437  18.015
  998TIP3   OH227188   6.193   0.633  17.993
  998TIP3    H127189   6.281   0.649  17.958
  998TIP3    H227190   6.207   0.620  18.087
  999TIP3   OH227191   8.171   0.276  18.641
  999TIP3    H127192   8.095   0.295  18.695
  999TIP3    H227193   8.137   0.225  18.567
 1000TIP3   OH227194   8.183   0.340  17.199
 1000TIP3    H127195   8.253   0.310  17.141
 1000TIP3    H227196   8.146   0.416  17.155
 1001TIP3   OH227197   6.223   0.168  17.476
 1001TIP3    H127198   6.166   0.136  17.406
 1001TIP3    H227199   6.245   0.258  17.450
 1002TIP3   OH227200   7.952   1.964  17.575
 1002TIP3    H127201   8.044   1.939  17.580
 1002TIP3    H227202   7.932   1.999  17.662
 1003TIP3   OH227203   6.287   0.155  18.342
 1003TIP3    H127204   6.207   0.146  18.394
 1003TIP3    H227205   6.261   0.209  18.268
 1004TIP3   OH227206   6.529   1.611  18.553
 1004TIP3    H127207   6.442   1.638  18.584
 1004TIP3    H227208   6.547   1.530  18.601
 1005TIP3   OH227209   6.873   1.836  18.360
 1005TIP3    H127210   6.849   1.929  18.354
 1005TIP3    H227211   6.964   1.833  18.331
 1006TIP3   OH227212   7.239   1.868  18.621
 1006TIP3    H127213   7.260   1.818  18.701
 1006TIP3    H227214   7.318   1.919  18.603
 1007TIP3   OH227215   7.470   2.014  18.572
 1007TIP3    H127216   7.521   1.964  18.507
 1007TIP3    H227217   7.535   2.044  18.635
 1008TIP3   OH227218   8.075   0.103  18.432
 1008TIP3    H127219   8.035   0.119  18.347
 1008TIP3    H227220   8.064   0.009  18.447
 1009TIP3   OH227221   6.541   2.130  18.369
 1009TIP3    H127222   6.452   2.127  18.334
 1009TIP3    H227223   6.529   2.137  18.464
 1010TIP3   OH227224   6.815   2.106  18.329
 1010TIP3    H127225   6.723   2.113  18.354
 1010TIP3    H227226   6.817   2.138  18.238
 1011TIP3   OH227227   7.354   1.994  18.238
 1011TIP3    H127228   7.330   2.026  18.151
 1011TIP3    H227229   7.346   2.070  18.295
 1012TIP3   OH227230   7.576   1.869  18.345
 1012TIP3    H127231   7.499   1.908  18.304
 1012TIP3    H227232   7.650   1.905  18.297
 1013TIP3   OH227233   7.798   1.955  18.215
 1013TIP3    H127234   7.847   2.037  18.225
 1013TIP3    H227235   7.843   1.909  18.144
 1014TIP3   OH227236   6.503   1.906  17.999
 1014TIP3    H127237   6.455   1.876  18.077
 1014TIP3    H227238   6.587   1.859  18.004
 1015TIP3   OH227239   6.736   1.760  17.991
 1015TIP3    H127240   6.733   1.668  18.017
 1015TIP3    H227241   6.823   1.789  18.018
 1016TIP3   OH227242   7.002   1.811  18.044
 1016TIP3    H127243   7.018   1.723  18.008
 1016TIP3    H227244   7.050   1.811  18.128
 1017TIP3   OH227245   7.933   0.133  17.895
 1017TIP3    H127246   8.005   0.164  17.841
 1017TIP3    H227247   7.856   0.143  17.840
 1018TIP3   OH227248   8.152   0.214  17.722
 1018TIP3    H127249   8.197   0.140  17.682
 1018TIP3    H227250   8.216   0.285  17.719
 1019TIP3   OH227251   6.444   0.102  17.630
 1019TIP3    H127252   6.363   0.112  17.579
 1019TIP3    H227253   6.461   0.008  17.630
 1020TIP3   OH227254   6.401   0.025  17.219
 1020TIP3    H127255   6.479   0.021  17.162
 1020TIP3    H227256   6.436   0.047  17.305
 1021TIP3   OH227257   7.186   8.440  17.665
 1021TIP3    H127258   7.244   0.060  17.631
 1021TIP3    H227259   7.144   0.031  17.742
 1022TIP3   OH227260   7.693   0.153  17.733
 1022TIP3    H127261   7.643   0.182  17.657
 1022TIP3    H227262   7.683   0.058  17.734
 1023TIP3   OH227263   7.820   0.180  17.393
 1023TIP3    H127264   7.752   0.242  17.367
 1023TIP3    H227265   7.773   0.100  17.417
 1024TIP3   OH227266   6.419   1.883  17.408
 1024TIP3    H127267   6.326   1.860  17.404
 1024TIP3    H227268   6.425   1.965  17.359
 1025TIP3   OH227269   6.665   0.211  17.301
 1025TIP3    H127270   6.642   0.155  17.227
 1025TIP3    H227271   6.758   0.231  17.289
 1026TIP3   OH227272   8.104   1.871  17.326
 1026TIP3    H127273   8.090   1.778  17.340
 1026TIP3    H227274   8.145   1.877  17.239
 1027TIP3   OH227275   6.543   0.163  18.697
 1027TIP3    H127276   6.560   0.165  18.603
 1027TIP3    H227277   6.622   0.123  18.734
 1028TIP3   OH227278   6.786   0.071  18.808
 1028TIP3    H127279   6.870   0.086  18.764
 1028TIP3    H227280   6.786   8.427  18.831
 1029TIP3   OH227281   7.745   0.052  18.906
 1029TIP3    H127282   7.736   8.422  18.852
 1029TIP3    H227283   7.835   0.047  18.940
 1030TIP3   OH227284   7.924   1.746  18.689
 1030TIP3    H127285   7.868   1.725  18.615
 1030TIP3    H227286   7.925   1.842  18.693
 1031TIP3   OH227287   8.316   0.815  17.507
 1031TIP3    H127288   8.267   0.896  17.504
 1031TIP3    H227289   8.319   0.785  17.416
 1032TIP3   OH227290   8.356   1.251  18.278
 1032TIP3    H127291   8.328   1.303  18.203
 1032TIP3    H227292   8.324   1.163  18.259
 1033TIP3   OH227293   8.340   1.653  18.021
 1033TIP3    H127294   8.427   1.650  18.060
 1033TIP3    H227295   8.298   1.729  18.060
 1034TIP3   OH227296   8.350   0.424  17.674
 1034TIP3    H127297   8.443   0.427  17.654
 1034TIP3    H227298   8.307   0.452  17.594
 1035TIP3   OH227299   8.352   0.935  18.451
 1035TIP3    H127300   8.303   0.873  18.505
 1035TIP3    H227301   8.293   0.955  18.378
 1036TIP3   OH227302   8.314   1.349  18.765
 1036TIP3    H127303   8.234   1.351  18.817
 1036TIP3    H227304   8.287   1.312  18.681
 1037TIP3   OH227305   8.225   1.942  17.608
 1037TIP3    H127306   8.247   1.904  17.523
 1037TIP3    H227307   8.284   1.897  17.670
 1038TIP3   OH227308   8.397   1.805  17.781
 1038TIP3    H127309   8.356   1.745  17.844
 1038TIP3    H227310   0.041   1.805  17.805
 1039TIP3   OH227311   8.376   1.002  18.045
 1039TIP3    H127312   8.392   0.985  17.953
 1039TIP3    H227313   0.000   1.057  18.073
 1040TIP3   OH227314   8.313   0.525  18.617
 1040TIP3    H127315   8.387   0.529  18.678
 1040TIP3    H227316   8.275   0.438  18.632
 1041TIP3   OH227317   8.232   0.513  17.937
 1041TIP3    H127318   8.264   0.489  17.850
 1041TIP3    H227319   8.288   0.585  17.965
 1042TIP3   OH227320   8.257   0.495  17.421
 1042TIP3    H127321   8.237   0.428  17.355
 1042TIP3    H227322   8.307   0.561  17.373
 1043TIP3   OH227323   8.315   0.129  18.290
 1043TIP3    H127324   8.244   0.126  18.354
 1043TIP3    H227325   8.289   0.199  18.229
 1044TIP3   OH227326   1.387   3.185  17.500
 1044TIP3    H127327   1.367   3.275  17.523
 1044TIP3    H227328   1.306   3.152  17.461
 1045TIP3   OH227329   1.018   2.839  18.161
 1045TIP3    H127330   1.096   2.807  18.206
 1045TIP3    H227331   1.035   2.819  18.069
 1046TIP3   OH227332   0.361   2.937  18.102
 1046TIP3    H127333   0.378   2.877  18.174
 1046TIP3    H227334   0.448   2.971  18.078
 1047TIP3   OH227335   1.513   3.572  17.832
 1047TIP3    H127336   1.479   3.491  17.870
 1047TIP3    H227337   1.475   3.641  17.887
 1048TIP3   OH227338   0.535   3.498  17.994
 1048TIP3    H127339   0.506   3.416  17.953
 1048TIP3    H227340   0.628   3.504  17.973
 1049TIP3   OH227341   0.127   2.753  17.584
 1049TIP3    H127342   0.163   2.821  17.641
 1049TIP3    H227343   0.041   2.785  17.559
 1050TIP3   OH227344   0.235   2.931  17.761
 1050TIP3    H127345   0.310   2.891  17.804
 1050TIP3    H227346   0.217   3.010  17.814
 1051TIP3   OH227347   1.404   3.999  17.858
 1051TIP3    H127348   1.421   3.957  17.773
 1051TIP3    H227349   1.378   3.928  17.916
 1052TIP3   OH227350   0.969   3.344  18.083
 1052TIP3    H127351   1.042   3.313  18.029
 1052TIP3    H227352   1.010   3.371  18.165
 1053TIP3   OH227353   1.977   2.343  18.172
 1053TIP3    H127354   1.964   2.427  18.215
 1053TIP3    H227355   2.049   2.358  18.110
 1054TIP3   OH227356   1.456   2.674  17.997
 1054TIP3    H127357   1.478   2.583  18.019
 1054TIP3    H227358   1.392   2.667  17.926
 1055TIP3   OH227359   0.697   2.463  17.723
 1055TIP3    H127360   0.688   2.550  17.684
 1055TIP3    H227361   0.688   2.403  17.649
 1056TIP3   OH227362   1.541   2.554  17.676
 1056TIP3    H127363   1.601   2.521  17.743
 1056TIP3    H227364   1.597   2.599  17.613
 1057TIP3   OH227365   0.298   2.629  17.862
 1057TIP3    H127366   0.374   2.589  17.906
 1057TIP3    H227367   0.330   2.650  17.775
 1058TIP3   OH227368   0.758   2.920  17.802
 1058TIP3    H127369   0.851   2.902  17.811
 1058TIP3    H227370   0.724   2.848  17.749
 1059TIP3   OH227371   1.938   2.583  18.312
 1059TIP3    H127372   1.892   2.664  18.287
 1059TIP3    H227373   2.022   2.612  18.347
 1060TIP3   OH227374   0.535   2.383  18.193
 1060TIP3    H127375   0.539   2.422  18.106
 1060TIP3    H227376   0.463   2.428  18.237
 1061TIP3   OH227377   1.323   3.457  17.560
 1061TIP3    H127378   1.253   3.471  17.496
 1061TIP3    H227379   1.293   3.503  17.638
 1062TIP3   OH227380   0.749   3.206  18.181
 1062TIP3    H127381   0.699   3.276  18.224
 1062TIP3    H227382   0.826   3.250  18.145
 1063TIP3   OH227383   1.736   2.484  17.854
 1063TIP3    H127384   1.813   2.430  17.836
 1063TIP3    H227385   1.767   2.549  17.918
 1064TIP3   OH227386   0.542   2.511  17.945
 1064TIP3    H127387   0.576   2.593  17.982
 1064TIP3    H227388   0.599   2.493  17.870
 1065TIP3   OH227389   0.609   3.441  18.271
 1065TIP3    H127390   0.578   3.473  18.186
 1065TIP3    H227391   0.533   3.451  18.329
 1066TIP3   OH227392   0.049   3.368  17.445
 1066TIP3    H127393   0.134   3.327  17.464
 1066TIP3    H227394   0.068   3.462  17.440
 1067TIP3   OH227395   1.636   3.750  18.122
 1067TIP3    H127396   1.545   3.748  18.094
 1067TIP3    H227397   1.671   3.832  18.085
 1068TIP3   OH227398   1.708   2.253  18.202
 1068TIP3    H127399   1.647   2.315  18.162
 1068TIP3    H227400   1.794   2.284  18.174
 1069TIP3   OH227401   0.783   2.057  17.875
 1069TIP3    H127402   0.775   1.971  17.915
 1069TIP3    H227403   0.831   2.109  17.939
 1070TIP3   OH227404   1.481   3.860  17.624
 1070TIP3    H127405   1.495   3.772  17.589
 1070TIP3    H227406   1.566   3.886  17.659
 1071TIP3   OH227407   1.572   3.599  17.563
 1071TIP3    H127408   1.499   3.542  17.536
 1071TIP3    H227409   1.573   3.592  17.659
 1072TIP3   OH227410   1.820   3.424  18.391
 1072TIP3    H127411   1.808   3.363  18.318
 1072TIP3    H227412   1.823   3.510  18.349
 1073TIP3   OH227413   1.169   3.050  17.345
 1073TIP3    H127414   1.113   3.128  17.347
 1073TIP3    H227415   1.116   2.984  17.299
 1074TIP3   OH227416   1.008   2.863  17.208
 1074TIP3    H127417   1.061   2.814  17.145
 1074TIP3    H227418   0.938   2.903  17.156
 1075TIP3   OH227419   1.947   3.052  18.208
 1075TIP3    H127420   1.892   3.129  18.192
 1075TIP3    H227421   2.019   3.061  18.145
 1076TIP3   OH227422   1.619   3.051  17.447
 1076TIP3    H127423   1.549   3.103  17.487
 1076TIP3    H227424   1.662   3.008  17.521
 1077TIP3   OH227425   1.598   2.903  18.444
 1077TIP3    H127426   1.570   2.985  18.485
 1077TIP3    H227427   1.537   2.891  18.371
 1078TIP3   OH227428   0.622   3.123  17.647
 1078TIP3    H127429   0.604   3.091  17.559
 1078TIP3    H227430   0.672   3.052  17.688
 1079TIP3   OH227431   0.805   3.521  17.944
 1079TIP3    H127432   0.850   3.531  17.861
 1079TIP3    H227433   0.861   3.463  17.996
 1080TIP3   OH227434   0.616   3.024  18.018
 1080TIP3    H127435   0.674   3.001  17.946
 1080TIP3    H227436   0.668   3.080  18.075
 1081TIP3   OH227437   1.231   3.674  18.321
 1081TIP3    H127438   1.225   3.769  18.327
 1081TIP3    H227439   1.261   3.658  18.231
 1082TIP3   OH227440   0.792   3.563  18.465
 1082TIP3    H127441   0.732   3.634  18.489
 1082TIP3    H227442   0.750   3.520  18.390
 1083TIP3   OH227443   1.418   2.928  17.295
 1083TIP3    H127444   1.477   2.977  17.353
 1083TIP3    H227445   1.336   2.976  17.299
 1084TIP3   OH227446   0.438   3.050  18.561
 1084TIP3    H127447   0.453   3.140  18.589
 1084TIP3    H227448   0.351   3.050  18.521
 1085TIP3   OH227449   1.209   3.637  17.755
 1085TIP3    H127450   1.237   3.657  17.845
 1085TIP3    H227451   1.235   3.714  17.705
 1086TIP3   OH227452   0.606   3.760  18.524
 1086TIP3    H127453   0.611   3.806  18.440
 1086TIP3    H227454   0.512   3.748  18.539
 1087TIP3   OH227455   1.822   2.066  17.263
 1087TIP3    H127456   1.751   2.120  17.296
 1087TIP3    H227457   1.884   2.128  17.226
 1088TIP3   OH227458   0.573   2.983  17.383
 1088TIP3    H127459   0.578   2.996  17.288
 1088TIP3    H227460   0.501   2.922  17.394
 1089TIP3   OH227461   0.172   3.301  18.404
 1089TIP3    H127462   0.088   3.304  18.357
 1089TIP3    H227463   0.172   3.217  18.449
 1090TIP3   OH227464   0.192   3.725  18.104
 1090TIP3    H127465   0.259   3.656  18.094
 1090TIP3    H227466   0.240   3.800  18.139
 1091TIP3   OH227467   2.085   3.749  18.651
 1091TIP3    H127468   2.072   3.660  18.619
 1091TIP3    H227469   2.000   3.774  18.687
 1092TIP3   OH227470   1.061   3.630  18.540
 1092TIP3    H127471   1.112   3.650  18.461
 1092TIP3    H227472   0.973   3.613  18.508
 1093TIP3   OH227473   1.163   4.077  17.376
 1093TIP3    H127474   1.140   4.018  17.303
 1093TIP3    H227475   1.113   4.156  17.359
 1094TIP3   OH227476   0.427   3.864  17.641
 1094TIP3    H127477   0.468   3.826  17.719
 1094TIP3    H227478   0.339   3.889  17.671
 1095TIP3   OH227479   1.430   4.085  17.465
 1095TIP3    H127480   1.337   4.082  17.441
 1095TIP3    H227481   1.443   4.008  17.519
 1096TIP3   OH227482   1.784   2.773  18.601
 1096TIP3    H127483   1.719   2.819  18.549
 1096TIP3    H227484   1.771   2.680  18.580
 1097TIP3   OH227485   0.387   3.464  18.448
 1097TIP3    H127486   0.418   3.414  18.523
 1097TIP3    H227487   0.309   3.418  18.419
 1098TIP3   OH227488   1.121   2.198  18.406
 1098TIP3    H127489   1.158   2.147  18.479
 1098TIP3    H227490   1.027   2.203  18.426
 1099TIP3   OH227491   1.456   2.538  18.483
 1099TIP3    H127492   1.419   2.533  18.571
 1099TIP3    H227493   1.435   2.626  18.452
 1100TIP3   OH227494   1.013   2.308  17.118
 1100TIP3    H127495   0.987   2.308  17.210
 1100TIP3    H227496   1.100   2.347  17.117
 1101TIP3   OH227497   0.616   2.743  18.067
 1101TIP3    H127498   0.556   2.743  18.141
 1101TIP3    H227499   0.623   2.835  18.042
 1102TIP3   OH227500   0.666   2.722  17.631
 1102TIP3    H127501   0.573   2.714  17.608
 1102TIP3    H227502   0.710   2.739  17.547
 1103TIP3   OH227503   1.206   2.700  17.494
 1103TIP3    H127504   1.174   2.780  17.452
 1103TIP3    H227505   1.292   2.684  17.455
 1104TIP3   OH227506   1.129   2.738  18.571
 1104TIP3    H127507   1.077   2.677  18.624
 1104TIP3    H227508   1.196   2.771  18.631
 1105TIP3   OH227509   1.302   2.668  17.758
 1105TIP3    H127510   1.256   2.686  17.676
 1105TIP3    H227511   1.384   2.626  17.730
 1106TIP3   OH227512   0.444   2.738  18.280
 1106TIP3    H127513   0.498   2.771  18.352
 1106TIP3    H227514   0.405   2.658  18.315
 1107TIP3   OH227515   0.778   2.408  16.994
 1107TIP3    H127516   0.764   2.474  17.062
 1107TIP3    H227517   0.859   2.364  17.020
 1108TIP3   OH227518   0.103   2.504  17.701
 1108TIP3    H127519   0.153   2.533  17.778
 1108TIP3    H227520   0.103   2.580  17.643
 1109TIP3   OH227521   1.443   2.838  18.220
 1109TIP3    H127522   1.459   2.785  18.143
 1109TIP3    H227523   1.358   2.809  18.253
 1110TIP3   OH227524   0.959   2.501  17.798
 1110TIP3    H127525   0.865   2.490  17.784
 1110TIP3    H227526   0.993   2.413  17.811
 1111TIP3   OH227527   0.394   2.662  17.602
 1111TIP3    H127528   0.311   2.688  17.563
 1111TIP3    H227529   0.414   2.577  17.562
 1112TIP3   OH227530   0.795   2.787  17.395
 1112TIP3    H127531   0.874   2.793  17.341
 1112TIP3    H227532   0.738   2.857  17.362
 1113TIP3   OH227533   1.481   2.399  18.088
 1113TIP3    H127534   1.405   2.398  18.147
 1113TIP3    H227535   1.461   2.330  18.024
 1114TIP3   OH227536   1.800   4.106  18.715
 1114TIP3    H127537   1.824   4.111  18.622
 1114TIP3    H227538   1.869   4.155  18.759
 1115TIP3   OH227539   0.434   3.306  18.672
 1115TIP3    H127540   0.506   3.308  18.735
 1115TIP3    H227541   0.356   3.330  18.724
 1116TIP3   OH227542   1.064   2.739  17.903
 1116TIP3    H127543   1.151   2.734  17.863
 1116TIP3    H227544   1.019   2.659  17.874
 1117TIP3   OH227545   0.833   2.639  18.203
 1117TIP3    H127546   0.764   2.671  18.146
 1117TIP3    H227547   0.903   2.703  18.195
 1118TIP3   OH227548   0.978   3.251  17.348
 1118TIP3    H127549   0.912   3.237  17.280
 1118TIP3    H227550   0.927   3.263  17.428
 1119TIP3   OH227551   1.761   3.258  18.167
 1119TIP3    H127552   1.737   3.321  18.099
 1119TIP3    H227553   1.701   3.184  18.152
 1120TIP3   OH227554   1.112   3.357  18.588
 1120TIP3    H127555   1.172   3.314  18.649
 1120TIP3    H227556   1.126   3.450  18.602
 1121TIP3   OH227557   1.459   2.671  17.387
 1121TIP3    H127558   1.554   2.665  17.400
 1121TIP3    H227559   1.448   2.748  17.332
 1122TIP3   OH227560   0.491   3.238  17.876
 1122TIP3    H127561   0.522   3.219  17.788
 1122TIP3    H227562   0.533   3.171  17.931
 1123TIP3   OH227563   1.102   3.495  17.402
 1123TIP3    H127564   1.077   3.559  17.335
 1123TIP3    H227565   1.067   3.412  17.371
 1124TIP3   OH227566   0.161   3.048  18.525
 1124TIP3    H127567   0.162   3.006  18.610
 1124TIP3    H227568   0.077   3.022  18.486
 1125TIP3   OH227569   0.924   2.932  18.601
 1125TIP3    H127570   0.892   2.963  18.517
 1125TIP3    H227571   0.993   2.870  18.579
 1126TIP3   OH227572   1.456   3.648  18.494
 1126TIP3    H127573   1.379   3.649  18.437
 1126TIP3    H227574   1.421   3.656  18.583
 1127TIP3   OH227575   1.923   2.720  17.287
 1127TIP3    H127576   1.908   2.703  17.194
 1127TIP3    H227577   1.959   2.808  17.289
 1128TIP3   OH227578   2.043   3.496  18.545
 1128TIP3    H127579   1.955   3.477  18.512
 1128TIP3    H227580   2.101   3.438  18.497
 1129TIP3   OH227581   1.788   3.722  17.418
 1129TIP3    H127582   1.716   3.680  17.466
 1129TIP3    H227583   1.864   3.666  17.435
 1130TIP3   OH227584   1.610   3.037  18.098
 1130TIP3    H127585   1.544   2.984  18.143
 1130TIP3    H227586   1.628   2.990  18.018
 1131TIP3   OH227587   0.958   3.526  17.707
 1131TIP3    H127588   1.042   3.560  17.736
 1131TIP3    H227589   0.960   3.533  17.612
 1132TIP3   OH227590   0.835   3.298  17.576
 1132TIP3    H127591   0.859   3.361  17.644
 1132TIP3    H227592   0.757   3.254  17.609
 1133TIP3   OH227593   1.022   3.858  18.073
 1133TIP3    H127594   1.045   3.947  18.102
 1133TIP3    H227595   1.106   3.817  18.052
 1134TIP3   OH227596   0.572   3.982  17.437
 1134TIP3    H127597   0.521   3.938  17.506
 1134TIP3    H227598   0.618   4.053  17.483
 1135TIP3   OH227599   1.102   3.412  18.310
 1135TIP3    H127600   1.102   3.377  18.399
 1135TIP3    H227601   1.152   3.493  18.316
 1136TIP3   OH227602   1.664   3.834  18.480
 1136TIP3    H127603   1.586   3.778  18.478
 1136TIP3    H227604   1.640   3.910  18.428
 1137TIP3   OH227605   1.947   4.000  17.151
 1137TIP3    H127606   2.026   4.052  17.142
 1137TIP3    H227607   1.896   4.044  17.219
 1138TIP3   OH227608   0.333   2.489  18.367
 1138TIP3    H127609   0.257   2.517  18.419
 1138TIP3    H227610   0.338   2.394  18.383
 1139TIP3   OH227611   0.355   3.931  18.199
 1139TIP3    H127612   0.441   3.897  18.224
 1139TIP3    H227613   0.340   4.004  18.259
 1140TIP3   OH227614   0.768   3.546  16.984
 1140TIP3    H127615   0.864   3.550  16.983
 1140TIP3    H227616   0.741   3.610  16.918
 1141TIP3   OH227617   0.646   3.559  17.240
 1141TIP3    H127618   0.692   3.545  17.157
 1141TIP3    H227619   0.700   3.623  17.287
 1142TIP3   OH227620   1.281   2.415  18.297
 1142TIP3    H127621   1.346   2.433  18.365
 1142TIP3    H227622   1.227   2.346  18.333
 1143TIP3   OH227623   1.424   2.399  17.473
 1143TIP3    H127624   1.418   2.467  17.407
 1143TIP3    H227625   1.461   2.443  17.550
 1144TIP3   OH227626   1.000   3.682  17.224
 1144TIP3    H127627   0.916   3.715  17.256
 1144TIP3    H227628   1.042   3.758  17.184
 1145TIP3   OH227629   1.041   2.476  17.529
 1145TIP3    H127630   1.093   2.551  17.501
 1145TIP3    H227631   1.010   2.499  17.616
 1146TIP3   OH227632   1.217   2.704  18.311
 1146TIP3    H127633   1.178   2.713  18.398
 1146TIP3    H227634   1.220   2.610  18.295
 1147TIP3   OH227635   1.199   2.250  17.547
 1147TIP3    H127636   1.140   2.324  17.533
 1147TIP3    H227637   1.285   2.283  17.521
 1148TIP3   OH227638   0.780   3.820  17.331
 1148TIP3    H127639   0.846   3.889  17.319
 1148TIP3    H227640   0.709   3.863  17.380
 1149TIP3   OH227641   1.741   2.519  18.505
 1149TIP3    H127642   1.648   2.506  18.485
 1149TIP3    H227643   1.784   2.524  18.420
 1150TIP3   OH227644   1.651   2.845  17.889
 1150TIP3    H127645   1.572   2.795  17.908
 1150TIP3    H227646   1.722   2.793  17.926
 1151TIP3   OH227647   0.403   3.459  17.133
 1151TIP3    H127648   0.472   3.490  17.190
 1151TIP3    H227649   0.449   3.418  17.059
 1152TIP3   OH227650   1.782   3.988  18.077
 1152TIP3    H127651   1.772   4.044  18.000
 1152TIP3    H227652   1.877   3.983  18.090
 1153TIP3   OH227653   0.115   3.648  17.379
 1153TIP3    H127654   0.074   3.726  17.343
 1153TIP3    H227655   0.177   3.680  17.445
 1154TIP3   OH227656   0.320   4.011  18.623
 1154TIP3    H127657   0.367   4.004  18.706
 1154TIP3    H227658   0.315   3.920  18.591
 1155TIP3   OH227659   0.646   3.811  18.796
 1155TIP3    H127660   0.719   3.757  18.825
 1155TIP3    H227661   0.643   3.798  18.701
 1156TIP3   OH227662   1.385   3.666  18.757
 1156TIP3    H127663   1.362   3.591  18.813
 1156TIP3    H227664   1.456   3.710  18.804
 1157TIP3   OH227665   0.194   3.358  18.817
 1157TIP3    H127666   0.198   3.277  18.867
 1157TIP3    H227667   0.102   3.363  18.788
 1158TIP3   OH227668   0.575   3.348  16.948
 1158TIP3    H127669   0.646   3.411  16.952
 1158TIP3    H227670   0.618   3.263  16.935
 1159TIP3   OH227671   0.855   3.408  18.683
 1159TIP3    H127672   0.827   3.458  18.607
 1159TIP3    H227673   0.937   3.367  18.656
 1160TIP3   OH227674   1.586   3.396  18.537
 1160TIP3    H127675   1.670   3.407  18.493
 1160TIP3    H227676   1.540   3.479  18.524
 1161TIP3   OH227677   0.281   2.949  18.778
 1161TIP3    H127678   0.353   2.972  18.718
 1161TIP3    H227679   0.280   3.020  18.842
 1162TIP3   OH227680   0.616   2.855  18.460
 1162TIP3    H127681   0.565   2.925  18.502
 1162TIP3    H227682   0.691   2.901  18.421
 1163TIP3   OH227683   1.274   3.224  18.775
 1163TIP3    H127684   1.359   3.192  18.744
 1163TIP3    H227685   1.233   3.148  18.816
 1164TIP3   OH227686   0.725   2.629  18.585
 1164TIP3    H127687   0.729   2.564  18.515
 1164TIP3    H227688   0.697   2.709  18.542
 1165TIP3   OH227689   0.740   2.450  18.371
 1165TIP3    H127690   0.788   2.513  18.317
 1165TIP3    H227691   0.667   2.423  18.315
 1166TIP3   OH227692   0.834   2.979  18.333
 1166TIP3    H127693   0.898   2.937  18.275
 1166TIP3    H227694   0.811   3.060  18.288
 1167TIP3   OH227695   1.340   2.804  18.746
 1167TIP3    H127696   1.350   2.710  18.753
 1167TIP3    H227697   1.429   2.838  18.743
 1168TIP3   OH227698   1.580   3.137  18.626
 1168TIP3    H127699   1.571   3.227  18.593
 1168TIP3    H227700   1.674   3.120  18.623
 1169TIP3   OH227701   0.615   2.635  18.836
 1169TIP3    H127702   0.526   2.601  18.824
 1169TIP3    H227703   0.650   2.642  18.747
 1170TIP3   OH227704   0.833   2.199  18.435
 1170TIP3    H127705   0.815   2.293  18.425
 1170TIP3    H227706   0.760   2.156  18.391
 1171TIP3   OH227707   0.966   2.576  18.722
 1171TIP3    H127708   0.937   2.527  18.800
 1171TIP3    H227709   0.885   2.597  18.676
 1172TIP3   OH227710   1.338   2.529  18.737
 1172TIP3    H127711   1.248   2.504  18.758
 1172TIP3    H227712   1.392   2.466  18.784
 1173TIP3   OH227713   1.470   2.333  18.879
 1173TIP3    H127714   1.458   2.243  18.851
 1173TIP3    H227715   1.432   2.337  18.967
 1174TIP3   OH227716   0.370   2.495  18.822
 1174TIP3    H127717   0.358   2.423  18.760
 1174TIP3    H227718   0.392   2.452  18.905
 1175TIP3   OH227719   0.799   2.072  18.678
 1175TIP3    H127720   0.857   1.996  18.671
 1175TIP3    H227721   0.810   2.119  18.595
 1176TIP3   OH227722   0.908   2.198  18.897
 1176TIP3    H127723   0.872   2.153  18.820
 1176TIP3    H227724   0.861   2.281  18.901
 1177TIP3   OH227725   0.128   3.483  17.158
 1177TIP3    H127726   0.134   3.547  17.229
 1177TIP3    H227727   0.219   3.465  17.134
 1178TIP3   OH227728   0.060   4.035  17.511
 1178TIP3    H127729   8.423   4.054  17.550
 1178TIP3    H227730   0.116   4.012  17.585
 1179TIP3   OH227731   0.174   3.948  17.749
 1179TIP3    H127732   0.090   3.929  17.792
 1179TIP3    H227733   0.231   3.977  17.820
 1180TIP3   OH227734   2.055   3.986  18.142
 1180TIP3    H127735   2.048   3.931  18.220
 1180TIP3    H227736   2.097   4.067  18.174
 1181TIP3   OH227737   2.042   3.841  18.380
 1181TIP3    H127738   1.976   3.778  18.351
 1181TIP3    H227739   2.066   3.811  18.468
 1182TIP3   OH227740   1.869   3.468  18.887
 1182TIP3    H127741   1.777   3.470  18.912
 1182TIP3    H227742   1.905   3.551  18.919
 1183TIP3   OH227743   1.958   3.210  17.349
 1183TIP3    H127744   2.019   3.284  17.351
 1183TIP3    H227745   1.963   3.172  17.437
 1184TIP3   OH227746   1.992   3.052  17.580
 1184TIP3    H127747   1.914   3.002  17.602
 1184TIP3    H227748   2.052   3.039  17.654
 1185TIP3   OH227749   2.147   3.315  18.146
 1185TIP3    H127750   2.160   3.231  18.101
 1185TIP3    H227751   2.153   3.381  18.077
 1186TIP3   OH227752   1.822   3.688  18.310
 1186TIP3    H127753   1.771   3.732  18.379
 1186TIP3    H227754   1.769   3.698  18.231
 1187TIP3   OH227755   2.039   2.964  17.254
 1187TIP3    H127756   2.117   2.975  17.200
 1187TIP3    H227757   2.024   3.050  17.293
 1188TIP3   OH227758   1.759   2.898  17.635
 1188TIP3    H127759   1.753   2.811  17.595
 1188TIP3    H227760   1.721   2.887  17.722
 1189TIP3   OH227761   0.236   3.137  17.952
 1189TIP3    H127762   0.306   3.196  17.925
 1189TIP3    H227763   0.276   3.081  18.018
 1190TIP3   OH227764   1.844   3.057  18.634
 1190TIP3    H127765   1.837   2.962  18.643
 1190TIP3    H227766   1.917   3.070  18.574
 1191TIP3   OH227767   2.057   2.778  18.519
 1191TIP3    H127768   1.967   2.771  18.552
 1191TIP3    H227769   2.098   2.695  18.541
 1192TIP3   OH227770   1.735   2.649  17.486
 1192TIP3    H127771   1.759   2.557  17.501
 1192TIP3    H227772   1.794   2.677  17.415
 1193TIP3   OH227773   1.828   2.685  18.022
 1193TIP3    H127774   1.920   2.710  18.012
 1193TIP3    H227775   1.804   2.719  18.108
 1194TIP3   OH227776   1.805   2.820  18.265
 1194TIP3    H127777   1.733   2.852  18.319
 1194TIP3    H227778   1.854   2.898  18.241
 1195TIP3   OH227779   0.133   2.473  18.621
 1195TIP3    H127780   0.168   2.533  18.686
 1195TIP3    H227781   0.177   2.390  18.639
 1196TIP3   OH227782   2.004   2.151  18.776
 1196TIP3    H127783   2.090   2.115  18.753
 1196TIP3    H227784   1.986   2.216  18.708
 1197TIP3   OH227785   1.794   2.383  17.525
 1197TIP3    H127786   1.847   2.331  17.585
 1197TIP3    H227787   1.741   2.318  17.478
 1198TIP3   OH227788   0.116   2.813  18.032
 1198TIP3    H127789   0.147   2.754  17.964
 1198TIP3    H227790   0.195   2.853  18.067
 1199TIP3   OH227791   1.936   2.333  18.578
 1199TIP3    H127792   1.867   2.400  18.577
 1199TIP3    H227793   1.903   2.264  18.520
 1200TIP3   OH227794   2.035   2.210  17.150
 1200TIP3    H127795   2.123   2.187  17.182
 1200TIP3    H227796   2.024   2.302  17.174
 1201TIP3   OH227797   1.725   3.932  17.715
 1201TIP3    H127798   1.799   3.936  17.654
 1201TIP3    H227799   1.739   4.006  17.774
 1202TIP3   OH227800   0.110   2.076  18.324
 1202TIP3    H127801   0.114   1.982  18.303
 1202TIP3    H227802   0.020   2.100  18.306
 1203TIP3   OH227803   0.334   3.717  18.567
 1203TIP3    H127804   0.343   3.642  18.509
 1203TIP3    H227805   0.289   3.683  18.644
 1204TIP3   OH227806   0.616   3.881  18.276
 1204TIP3    H127807   0.646   3.972  18.285
 1204TIP3    H227808   0.671   3.845  18.206
 1205TIP3   OH227809   1.015   4.047  18.682
 1205TIP3    H127810   1.026   3.957  18.714
 1205TIP3    H227811   1.088   4.058  18.621
 1206TIP3   OH227812   1.228   4.086  18.505
 1206TIP3    H127813   1.241   4.033  18.426
 1206TIP3    H227814   1.315   4.093  18.543
 1207TIP3   OH227815   1.808   2.133  18.436
 1207TIP3    H127816   1.765   2.168  18.359
 1207TIP3    H227817   1.838   2.046  18.410
 1208TIP3   OH227818   0.342   4.143  18.375
 1208TIP3    H127819   0.270   4.206  18.366
 1208TIP3    H227820   0.331   4.107  18.463
 1209TIP3   OH227821   0.617   4.164  18.309
 1209TIP3    H127822   0.526   4.162  18.339
 1209TIP3    H227823   0.613   4.201  18.221
 1210TIP3   OH227824   1.079   4.126  18.163
 1210TIP3    H127825   1.001   4.149  18.112
 1210TIP3    H227826   1.089   4.197  18.226
 1211TIP3   OH227827   1.264   3.948  18.268
 1211TIP3    H127828   1.208   4.012  18.224
 1211TIP3    H227829   1.306   3.901  18.196
 1212TIP3   OH227830   1.666   4.073  18.312
 1212TIP3    H127831   1.620   4.153  18.288
 1212TIP3    H227832   1.696   4.036  18.229
 1213TIP3   OH227833   0.374   4.004  17.931
 1213TIP3    H127834   0.358   3.998  18.025
 1213TIP3    H227835   0.433   3.931  17.912
 1214TIP3   OH227836   0.527   3.774  17.902
 1214TIP3    H127837   0.508   3.683  17.924
 1214TIP3    H227838   0.610   3.792  17.946
 1215TIP3   OH227839   0.762   3.774  18.060
 1215TIP3    H127840   0.775   3.684  18.030
 1215TIP3    H227841   0.850   3.811  18.066
 1216TIP3   OH227842   1.029   2.233  17.779
 1216TIP3    H127843   0.971   2.161  17.755
 1216TIP3    H227844   1.097   2.231  17.712
 1217TIP3   OH227845   1.736   2.070  17.811
 1217TIP3    H127846   1.801   2.137  17.789
 1217TIP3    H227847   1.656   2.119  17.831
 1218TIP3   OH227848   1.946   2.234  17.715
 1218TIP3    H127849   1.987   2.151  17.691
 1218TIP3    H227850   2.019   2.294  17.727
 1219TIP3   OH227851   0.740   2.031  17.603
 1219TIP3    H127852   0.714   2.116  17.568
 1219TIP3    H227853   0.751   2.047  17.697
 1220TIP3   OH227854   1.468   2.148  17.861
 1220TIP3    H127855   1.427   2.174  17.779
 1220TIP3    H227856   1.445   2.055  17.870
 1221TIP3   OH227857   1.616   2.203  17.402
 1221TIP3    H127858   1.552   2.274  17.403
 1221TIP3    H227859   1.564   2.124  17.414
 1222TIP3   OH227860   0.016   3.892  17.283
 1222TIP3    H127861   8.374   3.913  17.260
 1222TIP3    H227862   0.034   3.947  17.360
 1223TIP3   OH227863   0.894   2.285  17.383
 1223TIP3    H127864   0.808   2.286  17.426
 1223TIP3    H227865   0.943   2.355  17.426
 1224TIP3   OH227866   1.101   3.934  17.143
 1224TIP3    H127867   1.193   3.927  17.118
 1224TIP3    H227868   1.064   3.998  17.083
 1225TIP3   OH227869   1.916   3.954  17.516
 1225TIP3    H127870   1.877   3.876  17.475
 1225TIP3    H227871   1.891   4.026  17.459
 1226TIP3   OH227872   0.318   2.247  18.695
 1226TIP3    H127873   0.265   2.172  18.721
 1226TIP3    H227874   0.406   2.226  18.724
 1227TIP3   OH227875   0.553   2.140  18.807
 1227TIP3    H127876   0.636   2.122  18.764
 1227TIP3    H227877   0.523   2.055  18.839
 1228TIP3   OH227878   1.461   2.069  18.773
 1228TIP3    H127879   1.455   2.007  18.846
 1228TIP3    H227880   1.552   2.063  18.744
 1229TIP3   OH227881   1.819   3.829  18.710
 1229TIP3    H127882   1.765   3.817  18.632
 1229TIP3    H227883   1.811   3.922  18.730
 1230TIP3   OH227884   3.499   3.285  17.494
 1230TIP3    H127885   3.465   3.374  17.479
 1230TIP3    H227886   3.421   3.234  17.517
 1231TIP3   OH227887   3.070   2.984  18.125
 1231TIP3    H127888   3.158   2.955  18.149
 1231TIP3    H227889   3.047   2.931  18.049
 1232TIP3   OH227890   2.403   2.965  18.189
 1232TIP3    H127891   2.417   2.875  18.218
 1232TIP3    H227892   2.485   2.989  18.145
 1233TIP3   OH227893   2.583   3.556  18.011
 1233TIP3    H127894   2.563   3.466  17.984
 1233TIP3    H227895   2.669   3.574  17.974
 1234TIP3   OH227896   2.164   2.721  17.478
 1234TIP3    H127897   2.149   2.815  17.482
 1234TIP3    H227898   2.090   2.687  17.427
 1235TIP3   OH227899   2.230   2.991  17.782
 1235TIP3    H127900   2.251   2.899  17.801
 1235TIP3    H227901   2.302   3.020  17.726
 1236TIP3   OH227902   3.320   3.950  17.702
 1236TIP3    H127903   3.369   3.895  17.640
 1236TIP3    H227904   3.239   3.901  17.718
 1237TIP3   OH227905   3.045   3.259  18.110
 1237TIP3    H127906   3.061   3.165  18.116
 1237TIP3    H227907   3.090   3.286  18.030
 1238TIP3   OH227908   4.036   2.348  18.207
 1238TIP3    H127909   4.037   2.428  18.260
 1238TIP3    H227910   3.974   2.367  18.136
 1239TIP3   OH227911   3.479   2.713  18.061
 1239TIP3    H127912   3.464   2.619  18.073
 1239TIP3    H227913   3.502   2.722  17.969
 1240TIP3   OH227914   2.666   2.619  17.924
 1240TIP3    H127915   2.658   2.670  17.844
 1240TIP3    H227916   2.702   2.535  17.895
 1241TIP3   OH227917   3.561   2.478  17.662
 1241TIP3    H127918   3.611   2.397  17.648
 1241TIP3    H227919   3.476   2.461  17.623
 1242TIP3   OH227920   2.301   2.734  17.860
 1242TIP3    H127921   2.342   2.677  17.926
 1242TIP3    H227922   2.331   2.698  17.776
 1243TIP3   OH227923   2.772   2.948  17.845
 1243TIP3    H127924   2.855   2.906  17.864
 1243TIP3    H227925   2.725   2.886  17.789
 1244TIP3   OH227926   4.026   2.573  18.364
 1244TIP3    H127927   3.996   2.660  18.338
 1244TIP3    H227928   4.099   2.589  18.424
 1245TIP3   OH227929   2.584   2.412  18.228
 1245TIP3    H127930   2.533   2.448  18.156
 1245TIP3    H227931   2.529   2.423  18.305
 1246TIP3   OH227932   2.790   3.227  18.200
 1246TIP3    H127933   2.747   3.309  18.224
 1246TIP3    H227934   2.875   3.253  18.166
 1247TIP3   OH227935   3.853   2.448  18.019
 1247TIP3    H127936   3.848   2.424  17.927
 1247TIP3    H227937   3.880   2.539  18.019
 1248TIP3   OH227938   2.431   2.576  18.054
 1248TIP3    H127939   2.441   2.632  18.131
 1248TIP3    H227940   2.512   2.586  18.005
 1249TIP3   OH227941   2.652   3.455  18.277
 1249TIP3    H127942   2.616   3.498  18.200
 1249TIP3    H227943   2.576   3.419  18.323
 1250TIP3   OH227944   2.145   3.416  17.359
 1250TIP3    H127945   2.225   3.436  17.312
 1250TIP3    H227946   2.119   3.499  17.400
 1251TIP3   OH227947   3.656   2.330  18.181
 1251TIP3    H127948   3.575   2.369  18.147
 1251TIP3    H227949   3.725   2.369  18.127
 1252TIP3   OH227950   2.961   2.060  18.020
 1252TIP3    H127951   2.940   2.044  17.928
 1252TIP3    H227952   2.893   2.120  18.050
 1253TIP3   OH227953   3.882   3.460  18.381
 1253TIP3    H127954   3.877   3.397  18.310
 1253TIP3    H227955   3.854   3.543  18.342
 1254TIP3   OH227956   3.300   3.070  17.508
 1254TIP3    H127957   3.220   3.119  17.527
 1254TIP3    H227958   3.290   3.044  17.416
 1255TIP3   OH227959   3.146   2.892  17.100
 1255TIP3    H127960   3.221   2.916  17.155
 1255TIP3    H227961   3.106   2.818  17.145
 1256TIP3   OH227962   4.025   3.073  18.243
 1256TIP3    H127963   3.961   3.142  18.231
 1256TIP3    H227964   4.089   3.087  18.173
 1257TIP3   OH227965   3.764   3.186  17.465
 1257TIP3    H127966   3.679   3.217  17.494
 1257TIP3    H227967   3.786   3.115  17.525
 1258TIP3   OH227968   3.684   2.878  18.437
 1258TIP3    H127969   3.685   2.955  18.495
 1258TIP3    H227970   3.608   2.892  18.380
 1259TIP3   OH227971   2.710   3.187  17.716
 1259TIP3    H127972   2.686   3.165  17.626
 1259TIP3    H227973   2.742   3.105  17.753
 1260TIP3   OH227974   2.822   3.612  17.877
 1260TIP3    H127975   2.789   3.627  17.789
 1260TIP3    H227976   2.880   3.536  17.869
 1261TIP3   OH227977   2.642   3.035  18.069
 1261TIP3    H127978   2.689   3.013  17.988
 1261TIP3    H227979   2.699   3.098  18.113
 1262TIP3   OH227980   3.570   3.679  18.146
 1262TIP3    H127981   3.518   3.754  18.175
 1262TIP3    H227982   3.516   3.603  18.170
 1263TIP3   OH227983   2.827   3.528  18.481
 1263TIP3    H127984   2.761   3.584  18.522
 1263TIP3    H227985   2.787   3.498  18.400
 1264TIP3   OH227986   3.373   2.944  17.252
 1264TIP3    H127987   3.415   2.867  17.291
 1264TIP3    H227988   3.440   3.012  17.253
 1265TIP3   OH227989   2.488   3.059  18.451
 1265TIP3    H127990   2.492   3.154  18.443
 1265TIP3    H227991   2.440   3.030  18.373
 1266TIP3   OH227992   2.621   3.698  18.576
 1266TIP3    H127993   2.679   3.768  18.544
 1266TIP3    H227994   2.542   3.708  18.522
 1267TIP3   OH227995   2.630   3.111  17.459
 1267TIP3    H127996   2.550   3.158  17.435
 1267TIP3    H227997   2.616   3.021  17.428
 1268TIP3   OH227998   4.333   3.625  17.174
 1268TIP3    H127999   4.259   3.605  17.117
 1268TIP3    H228000   4.390   3.681  17.122
 1269TIP3   OH228001   2.182   3.297  18.415
 1269TIP3    H128002   2.164   3.306  18.321
 1269TIP3    H228003   2.144   3.213  18.439
 1270TIP3   OH228004   2.309   3.675  18.009
 1270TIP3    H128005   2.390   3.625  18.004
 1270TIP3    H228006   2.308   3.709  18.099
 1271TIP3   OH228007   3.969   3.660  18.602
 1271TIP3    H128008   3.918   3.614  18.535
 1271TIP3    H228009   3.908   3.724  18.638
 1272TIP3   OH228010   3.050   3.707  18.479
 1272TIP3    H128011   3.039   3.779  18.541
 1272TIP3    H228012   2.972   3.652  18.491
 1273TIP3   OH228013   3.061   4.200  17.429
 1273TIP3    H128014   3.099   4.127  17.379
 1273TIP3    H228015   3.137   4.253  17.455
 1274TIP3   OH228016   2.498   3.930  17.708
 1274TIP3    H128017   2.530   3.905  17.795
 1274TIP3    H228018   2.435   3.862  17.686
 1275TIP3   OH228019   3.827   2.713  18.614
 1275TIP3    H128020   3.773   2.764  18.553
 1275TIP3    H228021   3.816   2.623  18.586
 1276TIP3   OH228022   2.452   3.343  18.438
 1276TIP3    H128023   2.453   3.360  18.532
 1276TIP3    H228024   2.360   3.333  18.416
 1277TIP3   OH228025   2.743   2.229  18.085
 1277TIP3    H128026   2.746   2.260  17.994
 1277TIP3    H228027   2.691   2.295  18.131
 1278TIP3   OH228028   3.168   2.173  18.393
 1278TIP3    H128029   3.209   2.127  18.467
 1278TIP3    H228030   3.075   2.174  18.416
 1279TIP3   OH228031   3.521   2.516  18.490
 1279TIP3    H128032   3.456   2.528  18.559
 1279TIP3    H228033   3.503   2.587  18.428
 1280TIP3   OH228034   2.754   2.774  18.138
 1280TIP3    H128035   2.715   2.859  18.119
 1280TIP3    H228036   2.728   2.718  18.065
 1281TIP3   OH228037   2.632   2.764  17.692
 1281TIP3    H128038   2.553   2.722  17.657
 1281TIP3    H228039   2.700   2.746  17.626
 1282TIP3   OH228040   3.350   2.803  17.595
 1282TIP3    H128041   3.335   2.896  17.578
 1282TIP3    H228042   3.399   2.772  17.519
 1283TIP3   OH228043   3.150   2.827  18.621
 1283TIP3    H128044   3.106   2.749  18.655
 1283TIP3    H228045   3.231   2.833  18.672
 1284TIP3   OH228046   3.542   2.722  17.789
 1284TIP3    H128047   3.473   2.760  17.734
 1284TIP3    H228048   3.557   2.636  17.752
 1285TIP3   OH228049   2.482   2.714  18.292
 1285TIP3    H128050   2.564   2.749  18.326
 1285TIP3    H228051   2.458   2.644  18.352
 1286TIP3   OH228052   2.180   2.383  17.732
 1286TIP3    H128053   2.179   2.397  17.826
 1286TIP3    H228054   2.272   2.374  17.709
 1287TIP3   OH228055   2.057   2.472  17.249
 1287TIP3    H128056   2.126   2.515  17.198
 1287TIP3    H228057   1.992   2.541  17.263
 1288TIP3   OH228058   3.312   2.878  18.202
 1288TIP3    H128059   3.375   2.829  18.149
 1288TIP3    H228060   3.270   2.812  18.257
 1289TIP3   OH228061   3.052   2.436  17.712
 1289TIP3    H128062   2.959   2.416  17.725
 1289TIP3    H228063   3.095   2.400  17.790
 1290TIP3   OH228064   2.394   2.631  17.623
 1290TIP3    H128065   2.321   2.645  17.562
 1290TIP3    H228066   2.411   2.537  17.619
 1291TIP3   OH228067   2.841   2.719  17.523
 1291TIP3    H128068   2.926   2.723  17.566
 1291TIP3    H228069   2.854   2.660  17.448
 1292TIP3   OH228070   3.413   2.444  18.088
 1292TIP3    H128071   3.346   2.436  18.156
 1292TIP3    H228072   3.370   2.411  18.008
 1293TIP3   OH228073   3.839   4.120  18.696
 1293TIP3    H128074   3.867   4.134  18.606
 1293TIP3    H228075   3.911   4.152  18.749
 1294TIP3   OH228076   2.423   3.377  18.714
 1294TIP3    H128077   2.443   3.285  18.729
 1294TIP3    H228078   2.329   3.384  18.731
 1295TIP3   OH228079   3.003   2.807  17.915
 1295TIP3    H128080   3.036   2.780  17.829
 1295TIP3    H228081   3.005   2.728  17.968
 1296TIP3   OH228082   2.453   2.351  17.671
 1296TIP3    H128083   2.436   2.257  17.667
 1296TIP3    H228084   2.542   2.358  17.706
 1297TIP3   OH228085   2.992   2.637  18.153
 1297TIP3    H128086   2.918   2.697  18.162
 1297TIP3    H228087   3.056   2.667  18.218
 1298TIP3   OH228088   3.076   3.224  17.547
 1298TIP3    H128089   3.012   3.217  17.476
 1298TIP3    H228090   3.037   3.287  17.608
 1299TIP3   OH228091   3.871   3.290  18.162
 1299TIP3    H128092   3.931   3.337  18.103
 1299TIP3    H228093   3.817   3.236  18.103
 1300TIP3   OH228094   3.244   3.511  18.459
 1300TIP3    H128095   3.191   3.440  18.495
 1300TIP3    H228096   3.185   3.586  18.459
 1301TIP3   OH228097   3.512   2.735  17.373
 1301TIP3    H128098   3.603   2.746  17.400
 1301TIP3    H228099   3.512   2.658  17.316
 1302TIP3   OH228100   2.571   3.292  17.935
 1302TIP3    H128101   2.614   3.270  17.852
 1302TIP3    H228102   2.570   3.210  17.984
 1303TIP3   OH228103   2.058   3.049  18.457
 1303TIP3    H128104   2.080   2.958  18.477
 1303TIP3    H228105   2.020   3.046  18.370
 1304TIP3   OH228106   2.991   3.059  18.600
 1304TIP3    H128107   2.949   3.049  18.514
 1304TIP3    H228108   3.055   2.989  18.604
 1305TIP3   OH228109   3.492   3.564  18.570
 1305TIP3    H128110   3.411   3.539  18.525
 1305TIP3    H228111   3.464   3.589  18.658
 1306TIP3   OH228112   3.991   2.680  17.269
 1306TIP3    H128113   3.917   2.649  17.217
 1306TIP3    H228114   4.064   2.622  17.244
 1307TIP3   OH228115   4.112   3.403  18.534
 1307TIP3    H128116   4.034   3.414  18.479
 1307TIP3    H228117   4.177   3.363  18.477
 1308TIP3   OH228118   3.731   3.116  17.996
 1308TIP3    H128119   3.636   3.110  17.990
 1308TIP3    H228120   3.763   3.037  17.952
 1309TIP3   OH228121   2.749   3.608  17.603
 1309TIP3    H128122   2.751   3.704  17.595
 1309TIP3    H228123   2.709   3.578  17.521
 1310TIP3   OH228124   2.900   3.390  17.708
 1310TIP3    H128125   2.857   3.458  17.656
 1310TIP3    H228126   2.837   3.319  17.713
 1311TIP3   OH228127   3.003   3.869  18.256
 1311TIP3    H128128   3.074   3.933  18.251
 1311TIP3    H228129   3.034   3.803  18.319
 1312TIP3   OH228130   2.745   3.883  17.579
 1312TIP3    H128131   2.660   3.911  17.613
 1312TIP3    H228132   2.805   3.954  17.604
 1313TIP3   OH228133   3.410   3.476  18.239
 1313TIP3    H128134   3.349   3.493  18.310
 1313TIP3    H228135   3.402   3.382  18.222
 1314TIP3   OH228136   3.600   3.804  18.488
 1314TIP3    H128137   3.557   3.722  18.512
 1314TIP3    H228138   3.542   3.841  18.421
 1315TIP3   OH228139   4.132   4.136  17.255
 1315TIP3    H128140   4.196   4.073  17.223
 1315TIP3    H228141   4.183   4.196  17.310
 1316TIP3   OH228142   2.406   2.479  18.443
 1316TIP3    H128143   2.315   2.503  18.458
 1316TIP3    H228144   2.424   2.410  18.508
 1317TIP3   OH228145   3.569   3.137  17.264
 1317TIP3    H128146   3.660   3.132  17.293
 1317TIP3    H228147   3.528   3.201  17.322
 1318TIP3   OH228148   2.305   3.814  18.250
 1318TIP3    H128149   2.332   3.897  18.212
 1318TIP3    H228150   2.225   3.833  18.298
 1319TIP3   OH228151   2.669   3.579  17.328
 1319TIP3    H128152   2.715   3.512  17.278
 1319TIP3    H228153   2.716   3.660  17.310
 1320TIP3   OH228154   2.396   3.240  17.389
 1320TIP3    H128155   2.308   3.257  17.421
 1320TIP3    H228156   2.415   3.313  17.331
 1321TIP3   OH228157   3.283   2.424  18.346
 1321TIP3    H128158   3.369   2.409  18.386
 1321TIP3    H228159   3.238   2.340  18.355
 1322TIP3   OH228160   3.361   2.354  17.284
 1322TIP3    H128161   3.426   2.418  17.256
 1322TIP3    H228162   3.394   2.270  17.253
 1323TIP3   OH228163   3.086   2.708  17.667
 1323TIP3    H128164   3.176   2.730  17.642
 1323TIP3    H228165   3.087   2.613  17.676
 1324TIP3   OH228166   3.182   2.688  18.354
 1324TIP3    H128167   3.171   2.717  18.445
 1324TIP3    H228168   3.209   2.597  18.361
 1325TIP3   OH228169   3.309   2.402  17.569
 1325TIP3    H128170   3.214   2.411  17.579
 1325TIP3    H228171   3.322   2.382  17.476
 1326TIP3   OH228172   2.841   3.800  17.334
 1326TIP3    H128173   2.933   3.776  17.345
 1326TIP3    H228174   2.813   3.831  17.420
 1327TIP3   OH228175   3.796   2.456  18.519
 1327TIP3    H128176   3.701   2.452  18.503
 1327TIP3    H228177   3.835   2.451  18.431
 1328TIP3   OH228178   3.770   2.868  17.869
 1328TIP3    H128179   3.692   2.815  17.848
 1328TIP3    H228180   3.826   2.809  17.919
 1329TIP3   OH228181   2.392   3.475  17.244
 1329TIP3    H128182   2.468   3.531  17.256
 1329TIP3    H228183   2.363   3.494  17.155
 1330TIP3   OH228184   2.440   2.694  16.946
 1330TIP3    H128185   2.507   2.638  16.987
 1330TIP3    H228186   2.484   2.777  16.929
 1331TIP3   OH228187   3.847   3.935  17.960
 1331TIP3    H128188   3.844   3.981  17.877
 1331TIP3    H228189   3.940   3.938  17.986
 1332TIP3   OH228190   2.316   2.135  17.956
 1332TIP3    H128191   2.339   2.130  17.864
 1332TIP3    H228192   2.319   2.045  17.987
 1333TIP3   OH228193   2.070   3.667  17.453
 1333TIP3    H128194   2.076   3.707  17.539
 1333TIP3    H228195   2.106   3.733  17.393
 1334TIP3   OH228196   2.229   4.045  18.732
 1334TIP3    H128197   2.289   4.004  18.793
 1334TIP3    H228198   2.184   3.972  18.689
 1335TIP3   OH228199   2.695   3.961  18.919
 1335TIP3    H128200   2.771   3.997  18.965
 1335TIP3    H228201   2.729   3.886  18.871
 1336TIP3   OH228202   3.417   3.653  18.820
 1336TIP3    H128203   3.414   3.577  18.878
 1336TIP3    H228204   3.491   3.705  18.852
 1337TIP3   OH228205   2.157   3.390  18.773
 1337TIP3    H128206   2.102   3.318  18.801
 1337TIP3    H228207   2.110   3.431  18.701
 1338TIP3   OH228208   2.937   3.344  18.665
 1338TIP3    H128209   2.911   3.386  18.583
 1338TIP3    H228210   2.961   3.255  18.639
 1339TIP3   OH228211   3.689   3.360  18.559
 1339TIP3    H128212   3.753   3.395  18.496
 1339TIP3    H228213   3.621   3.426  18.564
 1340TIP3   OH228214   2.446   3.108  18.741
 1340TIP3    H128215   2.455   3.064  18.656
 1340TIP3    H228216   2.401   3.044  18.796
 1341TIP3   OH228217   2.879   3.199  17.356
 1341TIP3    H128218   2.793   3.167  17.386
 1341TIP3    H228219   2.893   3.156  17.272
 1342TIP3   OH228220   2.683   2.854  18.439
 1342TIP3    H128221   2.620   2.924  18.458
 1342TIP3    H228222   2.758   2.899  18.400
 1343TIP3   OH228223   2.923   3.068  17.114
 1343TIP3    H128224   2.881   3.070  17.028
 1343TIP3    H228225   3.000   3.012  17.102
 1344TIP3   OH228226   3.374   3.193  18.908
 1344TIP3    H128227   3.459   3.153  18.888
 1344TIP3    H228228   3.312   3.121  18.900
 1345TIP3   OH228229   2.803   2.625  18.544
 1345TIP3    H128230   2.818   2.565  18.471
 1345TIP3    H228231   2.767   2.704  18.505
 1346TIP3   OH228232   2.843   2.461  18.322
 1346TIP3    H128233   2.899   2.500  18.255
 1346TIP3    H228234   2.759   2.449  18.278
 1347TIP3   OH228235   2.891   3.016  18.343
 1347TIP3    H128236   2.957   2.988  18.278
 1347TIP3    H228237   2.848   3.091  18.302
 1348TIP3   OH228238   3.374   2.791  18.792
 1348TIP3    H128239   3.362   2.701  18.764
 1348TIP3    H228240   3.469   2.803  18.797
 1349TIP3   OH228241   3.715   3.092  18.609
 1349TIP3    H128242   3.698   3.184  18.590
 1349TIP3    H228243   3.809   3.087  18.627
 1350TIP3   OH228244   2.693   2.631  18.798
 1350TIP3    H128245   2.604   2.596  18.793
 1350TIP3    H228246   2.723   2.632  18.707
 1351TIP3   OH228247   2.884   2.197  18.418
 1351TIP3    H128248   2.877   2.288  18.389
 1351TIP3    H228249   2.825   2.149  18.360
 1352TIP3   OH228250   3.039   2.583  18.694
 1352TIP3    H128251   3.008   2.538  18.772
 1352TIP3    H228252   2.962   2.591  18.638
 1353TIP3   OH228253   3.320   2.542  18.684
 1353TIP3    H128254   3.224   2.545  18.682
 1353TIP3    H228255   3.341   2.463  18.733
 1354TIP3   OH228256   3.387   2.324  18.840
 1354TIP3    H128257   3.433   2.245  18.812
 1354TIP3    H228258   3.439   2.358  18.913
 1355TIP3   OH228259   2.440   2.502  18.835
 1355TIP3    H128260   2.421   2.447  18.759
 1355TIP3    H228261   2.459   2.441  18.905
 1356TIP3   OH228262   2.850   2.077  18.669
 1356TIP3    H128263   2.913   2.005  18.661
 1356TIP3    H228264   2.855   2.122  18.585
 1357TIP3   OH228265   2.900   2.181  18.920
 1357TIP3    H128266   2.884   2.136  18.837
 1357TIP3    H228267   2.911   2.273  18.895
 1358TIP3   OH228268   2.111   4.076  17.688
 1358TIP3    H128269   2.055   4.030  17.626
 1358TIP3    H228270   2.125   4.013  17.759
 1359TIP3   OH228271   2.167   3.895  17.901
 1359TIP3    H128272   2.199   3.808  17.922
 1359TIP3    H228273   2.112   3.920  17.976
 1360TIP3   OH228274   4.100   3.924  18.095
 1360TIP3    H128275   4.070   3.917  18.186
 1360TIP3    H228276   4.165   3.994  18.096
 1361TIP3   OH228277   4.005   3.874  18.354
 1361TIP3    H128278   3.930   3.822  18.326
 1361TIP3    H228279   4.046   3.822  18.423
 1362TIP3   OH228280   3.948   3.477  18.899
 1362TIP3    H128281   3.855   3.484  18.920
 1362TIP3    H228282   3.991   3.536  18.960
 1363TIP3   OH228283   4.323   3.181  17.469
 1363TIP3    H128284   4.312   3.276  17.474
 1363TIP3    H228285   4.246   3.146  17.515
 1364TIP3   OH228286   4.120   3.034  17.598
 1364TIP3    H128287   4.025   3.019  17.605
 1364TIP3    H228288   4.152   3.027  17.687
 1365TIP3   OH228289   4.066   3.420  18.017
 1365TIP3    H128290   4.133   3.353  18.020
 1365TIP3    H228291   4.115   3.502  18.010
 1366TIP3   OH228292   3.788   3.710  18.311
 1366TIP3    H128293   3.731   3.749  18.377
 1366TIP3    H228294   3.732   3.698  18.234
 1367TIP3   OH228295   3.847   2.961  17.616
 1367TIP3    H128296   3.823   2.887  17.560
 1367TIP3    H228297   3.819   2.933  17.704
 1368TIP3   OH228298   2.179   3.055  18.049
 1368TIP3    H128299   2.200   3.044  17.956
 1368TIP3    H228300   2.258   3.027  18.095
 1369TIP3   OH228301   3.987   3.066  18.677
 1369TIP3    H128302   4.004   2.973  18.692
 1369TIP3    H228303   4.051   3.092  18.611
 1370TIP3   OH228304   4.090   2.798  18.599
 1370TIP3    H128305   4.001   2.763  18.604
 1370TIP3    H228306   4.147   2.722  18.611
 1371TIP3   OH228307   3.788   2.734  17.457
 1371TIP3    H128308   3.777   2.645  17.490
 1371TIP3    H228309   3.856   2.726  17.389
 1372TIP3   OH228310   3.943   2.712  18.033
 1372TIP3    H128311   4.038   2.720  18.027
 1372TIP3    H228312   3.923   2.742  18.122
 1373TIP3   OH228313   3.917   2.820  18.291
 1373TIP3    H128314   3.835   2.838  18.337
 1373TIP3    H228315   3.954   2.906  18.272
 1374TIP3   OH228316   2.148   2.516  18.564
 1374TIP3    H128317   2.181   2.501  18.652
 1374TIP3    H228318   2.078   2.451  18.554
 1375TIP3   OH228319   4.074   2.132  18.804
 1375TIP3    H128320   4.156   2.093  18.773
 1375TIP3    H228321   4.067   2.215  18.756
 1376TIP3   OH228322   2.212   2.385  18.013
 1376TIP3    H128323   2.251   2.299  18.003
 1376TIP3    H228324   2.287   2.443  18.031
 1377TIP3   OH228325   2.079   2.787  18.016
 1377TIP3    H128326   2.149   2.759  17.958
 1377TIP3    H228327   2.101   2.877  18.039
 1378TIP3   OH228328   4.007   2.390  18.693
 1378TIP3    H128329   3.963   2.416  18.774
 1378TIP3    H228330   3.940   2.399  18.625
 1379TIP3   OH228331   2.132   2.300  17.459
 1379TIP3    H128332   2.138   2.338  17.546
 1379TIP3    H228333   2.094   2.369  17.405
 1380TIP3   OH228334   2.092   2.092  18.254
 1380TIP3    H128335   2.029   2.040  18.304
 1380TIP3    H228336   2.045   2.174  18.235
 1381TIP3   OH228337   2.353   3.692  18.764
 1381TIP3    H128338   2.270   3.708  18.719
 1381TIP3    H228339   2.373   3.775  18.807
 1382TIP3   OH228340   2.771   3.887  18.433
 1382TIP3    H128341   2.737   3.974  18.412
 1382TIP3    H228342   2.843   3.874  18.372
 1383TIP3   OH228343   3.092   3.972  18.641
 1383TIP3    H128344   3.120   3.911  18.709
 1383TIP3    H228345   3.170   4.024  18.621
 1384TIP3   OH228346   3.335   4.118  18.596
 1384TIP3    H128347   3.389   4.064  18.538
 1384TIP3    H228348   3.395   4.148  18.664
 1385TIP3   OH228349   3.925   2.040  18.435
 1385TIP3    H128350   3.856   2.069  18.376
 1385TIP3    H228351   3.947   1.952  18.407
 1386TIP3   OH228352   2.430   4.181  18.385
 1386TIP3    H128353   2.343   4.177  18.346
 1386TIP3    H228354   2.416   4.214  18.474
 1387TIP3   OH228355   2.699   4.143  18.329
 1387TIP3    H128356   2.607   4.154  18.351
 1387TIP3    H228357   2.704   4.163  18.236
 1388TIP3   OH228358   3.218   4.064  18.229
 1388TIP3    H128359   3.198   4.096  18.141
 1388TIP3    H228360   3.216   4.142  18.284
 1389TIP3   OH228361   3.456   3.910  18.277
 1389TIP3    H128362   3.377   3.958  18.254
 1389TIP3    H228363   3.527   3.959  18.235
 1390TIP3   OH228364   3.683   4.021  18.167
 1390TIP3    H128365   3.741   4.093  18.190
 1390TIP3    H228366   3.725   3.979  18.092
 1391TIP3   OH228367   2.381   4.005  18.044
 1391TIP3    H128368   2.310   3.975  17.987
 1391TIP3    H228369   2.456   3.950  18.020
 1392TIP3   OH228370   2.587   3.843  17.956
 1392TIP3    H128371   2.578   3.751  17.981
 1392TIP3    H228372   2.678   3.865  17.976
 1393TIP3   OH228373   2.861   3.868  18.011
 1393TIP3    H128374   2.872   3.782  17.971
 1393TIP3    H228375   2.907   3.862  18.094
 1394TIP3   OH228376   3.299   2.339  17.850
 1394TIP3    H128377   3.315   2.245  17.845
 1394TIP3    H228378   3.317   2.372  17.762
 1395TIP3   OH228379   3.766   2.062  17.747
 1395TIP3    H128380   3.825   2.119  17.697
 1395TIP3    H228381   3.700   2.034  17.684
 1396TIP3   OH228382   3.959   2.235  17.626
 1396TIP3    H128383   4.000   2.221  17.541
 1396TIP3    H228384   4.024   2.286  17.676
 1397TIP3   OH228385   2.362   2.081  17.686
 1397TIP3    H128386   2.274   2.060  17.655
 1397TIP3    H228387   2.413   2.002  17.669
 1398TIP3   OH228388   2.288   2.172  17.280
 1398TIP3    H128389   2.368   2.224  17.282
 1398TIP3    H228390   2.233   2.210  17.348
 1399TIP3   OH228391   2.875   2.063  17.744
 1399TIP3    H128392   2.943   2.095  17.685
 1399TIP3    H228393   2.820   2.139  17.761
 1400TIP3   OH228394   2.151   3.880  17.301
 1400TIP3    H128395   2.075   3.895  17.245
 1400TIP3    H228396   2.201   3.961  17.296
 1401TIP3   OH228397   2.500   2.338  17.316
 1401TIP3    H128398   2.558   2.390  17.260
 1401TIP3    H228399   2.532   2.354  17.405
 1402TIP3   OH228400   3.125   2.306  17.120
 1402TIP3    H128401   3.196   2.333  17.178
 1402TIP3    H228402   3.061   2.377  17.126
 1403TIP3   OH228403   3.186   4.001  17.275
 1403TIP3    H128404   3.271   4.039  17.255
 1403TIP3    H228405   3.203   3.907  17.282
 1404TIP3   OH228406   3.976   4.137  17.491
 1404TIP3    H128407   4.011   4.120  17.404
 1404TIP3    H228408   3.911   4.206  17.478
 1405TIP3   OH228409   2.404   2.288  18.655
 1405TIP3    H128410   2.336   2.220  18.659
 1405TIP3    H228411   2.483   2.245  18.688
 1406TIP3   OH228412   2.593   2.132  18.787
 1406TIP3    H128413   2.676   2.106  18.748
 1406TIP3    H228414   2.552   2.050  18.815
 1407TIP3   OH228415   3.531   2.092  18.769
 1407TIP3    H128416   3.525   2.031  18.842
 1407TIP3    H228417   3.622   2.086  18.741
 1408TIP3   OH228418   3.784   3.846  18.687
 1408TIP3    H128419   3.716   3.842  18.620
 1408TIP3    H228420   3.804   3.940  18.695
 1409TIP3   OH228421   5.444   3.270  17.555
 1409TIP3    H128422   5.410   3.359  17.550
 1409TIP3    H228423   5.405   3.225  17.480
 1410TIP3   OH228424   5.578   3.036  18.093
 1410TIP3    H128425   5.571   2.959  18.149
 1410TIP3    H228426   5.513   3.097  18.128
 1411TIP3   OH228427   4.386   3.032  18.223
 1411TIP3    H128428   4.388   2.936  18.212
 1411TIP3    H228429   4.436   3.047  18.303
 1412TIP3   OH228430   5.738   3.389  17.902
 1412TIP3    H128431   5.733   3.295  17.887
 1412TIP3    H228432   5.720   3.399  17.996
 1413TIP3   OH228433   4.698   3.558  18.029
 1413TIP3    H128434   4.677   3.477  17.984
 1413TIP3    H228435   4.790   3.574  18.008
 1414TIP3   OH228436   4.236   2.829  17.443
 1414TIP3    H128437   4.193   2.897  17.493
 1414TIP3    H228438   4.165   2.777  17.405
 1415TIP3   OH228439   4.288   3.024  17.831
 1415TIP3    H128440   4.317   2.935  17.850
 1415TIP3    H228441   4.367   3.067  17.797
 1416TIP3   OH228442   5.474   3.907  17.920
 1416TIP3    H128443   5.500   3.888  17.830
 1416TIP3    H228444   5.506   3.833  17.971
 1417TIP3   OH228445   5.172   3.421  18.063
 1417TIP3    H128446   5.221   3.410  17.981
 1417TIP3    H228447   5.239   3.420  18.131
 1418TIP3   OH228448   6.218   2.369  18.135
 1418TIP3    H128449   6.195   2.451  18.178
 1418TIP3    H228450   6.300   2.388  18.090
 1419TIP3   OH228451   5.491   2.645  18.033
 1419TIP3    H128452   5.498   2.550  18.043
 1419TIP3    H228453   5.518   2.662  17.943
 1420TIP3   OH228454   4.809   2.549  17.794
 1420TIP3    H128455   4.779   2.618  17.735
 1420TIP3    H228456   4.835   2.477  17.737
 1421TIP3   OH228457   5.633   2.491  17.563
 1421TIP3    H128458   5.655   2.409  17.519
 1421TIP3    H228459   5.635   2.557  17.494
 1422TIP3   OH228460   4.416   2.772  17.859
 1422TIP3    H128461   4.490   2.733  17.906
 1422TIP3    H228462   4.426   2.741  17.769
 1423TIP3   OH228463   4.879   2.951  17.750
 1423TIP3    H128464   4.963   2.922  17.715
 1423TIP3    H228465   4.818   2.883  17.724
 1424TIP3   OH228466   6.147   2.605  18.275
 1424TIP3    H128467   6.091   2.676  18.246
 1424TIP3    H228468   6.206   2.645  18.339
 1425TIP3   OH228469   4.666   2.505  18.230
 1425TIP3    H128470   4.648   2.551  18.148
 1425TIP3    H228471   4.586   2.515  18.281
 1426TIP3   OH228472   5.316   3.508  17.478
 1426TIP3    H128473   5.312   3.483  17.386
 1426TIP3    H228474   5.329   3.602  17.476
 1427TIP3   OH228475   4.973   3.250  18.168
 1427TIP3    H128476   4.909   3.309  18.209
 1427TIP3    H228477   5.040   3.309  18.132
 1428TIP3   OH228478   4.643   2.653  17.991
 1428TIP3    H128479   4.695   2.721  18.034
 1428TIP3    H228480   4.703   2.614  17.927
 1429TIP3   OH228481   4.772   3.432  18.276
 1429TIP3    H128482   4.742   3.478  18.198
 1429TIP3    H228483   4.692   3.412  18.324
 1430TIP3   OH228484   4.366   3.492  17.422
 1430TIP3    H128485   4.350   3.537  17.339
 1430TIP3    H228486   4.376   3.563  17.486
 1431TIP3   OH228487   5.841   3.716  17.984
 1431TIP3    H128488   5.811   3.643  18.038
 1431TIP3    H228489   5.809   3.695  17.896
 1432TIP3   OH228490   5.726   2.299  18.209
 1432TIP3    H128491   5.649   2.317  18.155
 1432TIP3    H228492   5.725   2.368  18.275
 1433TIP3   OH228493   5.109   2.190  18.124
 1433TIP3    H128494   5.013   2.182  18.126
 1433TIP3    H228495   5.132   2.227  18.209
 1434TIP3   OH228496   5.571   3.836  17.658
 1434TIP3    H128497   5.625   3.761  17.682
 1434TIP3    H228498   5.624   3.885  17.596
 1435TIP3   OH228499   5.735   3.617  17.744
 1435TIP3    H128500   5.757   3.590  17.655
 1435TIP3    H228501   5.727   3.535  17.792
 1436TIP3   OH228502   5.989   3.378  18.484
 1436TIP3    H128503   5.992   3.372  18.388
 1436TIP3    H228504   5.896   3.381  18.505
 1437TIP3   OH228505   5.355   3.138  17.324
 1437TIP3    H128506   5.260   3.122  17.325
 1437TIP3    H228507   5.364   3.221  17.278
 1438TIP3   OH228508   6.104   3.081  18.230
 1438TIP3    H128509   6.053   3.162  18.226
 1438TIP3    H228510   6.156   3.082  18.150
 1439TIP3   OH228511   5.675   3.127  17.584
 1439TIP3    H128512   5.600   3.187  17.578
 1439TIP3    H228513   5.695   3.123  17.677
 1440TIP3   OH228514   5.765   2.837  18.424
 1440TIP3    H128515   5.757   2.915  18.480
 1440TIP3    H228516   5.686   2.838  18.370
 1441TIP3   OH228517   4.753   3.185  17.664
 1441TIP3    H128518   4.701   3.151  17.591
 1441TIP3    H228519   4.802   3.109  17.695
 1442TIP3   OH228520   4.963   3.597  17.953
 1442TIP3    H128521   4.978   3.588  17.859
 1442TIP3    H228522   5.033   3.547  17.994
 1443TIP3   OH228523   4.818   3.077  18.006
 1443TIP3    H128524   4.859   3.047  17.925
 1443TIP3    H228525   4.885   3.130  18.048
 1444TIP3   OH228526   5.526   3.723  18.123
 1444TIP3    H128527   5.468   3.716  18.199
 1444TIP3    H228528   5.588   3.651  18.133
 1445TIP3   OH228529   4.928   3.551  18.477
 1445TIP3    H128530   4.865   3.620  18.498
 1445TIP3    H228531   4.889   3.505  18.402
 1446TIP3   OH228532   5.563   2.954  17.394
 1446TIP3    H128533   5.610   3.009  17.457
 1446TIP3    H228534   5.496   3.012  17.357
 1447TIP3   OH228535   4.450   3.037  18.500
 1447TIP3    H128536   4.471   3.043  18.593
 1447TIP3    H228537   4.355   3.025  18.497
 1448TIP3   OH228538   5.336   3.789  17.491
 1448TIP3    H128539   5.413   3.800  17.547
 1448TIP3    H228540   5.315   3.877  17.461
 1449TIP3   OH228541   4.743   3.752  18.522
 1449TIP3    H128542   4.789   3.823  18.476
 1449TIP3    H228543   4.663   3.739  18.472
 1450TIP3   OH228544   4.600   3.092  17.443
 1450TIP3    H128545   4.597   3.175  17.395
 1450TIP3    H228546   4.509   3.075  17.467
 1451TIP3   OH228547   6.281   3.744  17.253
 1451TIP3    H128548   6.199   3.741  17.204
 1451TIP3    H228549   6.339   3.683  17.208
 1452TIP3   OH228550   4.286   3.282  18.357
 1452TIP3    H128551   4.277   3.278  18.261
 1452TIP3    H228552   4.279   3.191  18.385
 1453TIP3   OH228553   4.197   3.676  18.012
 1453TIP3    H128554   4.280   3.677  18.059
 1453TIP3    H228555   4.151   3.754  18.044
 1454TIP3   OH228556   6.193   3.763  18.615
 1454TIP3    H128557   6.195   3.668  18.604
 1454TIP3    H228558   6.104   3.782  18.644
 1455TIP3   OH228559   5.144   3.729  18.462
 1455TIP3    H128560   5.170   3.743  18.553
 1455TIP3    H228561   5.076   3.661  18.467
 1456TIP3   OH228562   5.252   4.038  17.391
 1456TIP3    H128563   5.271   4.028  17.298
 1456TIP3    H228564   5.261   4.132  17.407
 1457TIP3   OH228565   4.589   3.918  17.677
 1457TIP3    H128566   4.621   3.881  17.760
 1457TIP3    H228567   4.539   3.847  17.637
 1458TIP3   OH228568   5.968   2.720  18.581
 1458TIP3    H128569   5.896   2.765  18.536
 1458TIP3    H228570   5.966   2.631  18.545
 1459TIP3   OH228571   4.530   3.404  18.436
 1459TIP3    H128572   4.544   3.370  18.524
 1459TIP3    H228573   4.452   3.357  18.405
 1460TIP3   OH228574   5.252   2.144  18.418
 1460TIP3    H128575   5.297   2.103  18.492
 1460TIP3    H228576   5.161   2.153  18.447
 1461TIP3   OH228577   5.709   2.520  18.389
 1461TIP3    H128578   5.637   2.504  18.450
 1461TIP3    H228579   5.699   2.611  18.363
 1462TIP3   OH228580   4.784   2.839  18.142
 1462TIP3    H128581   4.732   2.857  18.220
 1462TIP3    H228582   4.788   2.923  18.096
 1463TIP3   OH228583   4.716   2.751  17.632
 1463TIP3    H128584   4.624   2.740  17.609
 1463TIP3    H228585   4.762   2.756  17.548
 1464TIP3   OH228586   5.394   2.779  17.556
 1464TIP3    H128587   5.437   2.858  17.523
 1464TIP3    H228588   5.406   2.715  17.486
 1465TIP3   OH228589   5.314   2.697  18.674
 1465TIP3    H128590   5.232   2.681  18.720
 1465TIP3    H228591   5.353   2.772  18.720
 1466TIP3   OH228592   5.571   2.675  17.763
 1466TIP3    H128593   5.504   2.723  17.715
 1466TIP3    H228594   5.595   2.602  17.705
 1467TIP3   OH228595   4.424   2.757  18.256
 1467TIP3    H128596   4.507   2.788  18.294
 1467TIP3    H228597   4.414   2.668  18.291
 1468TIP3   OH228598   5.546   2.803  18.255
 1468TIP3    H128599   5.534   2.750  18.176
 1468TIP3    H228600   5.469   2.784  18.308
 1469TIP3   OH228601   5.089   2.583  17.809
 1469TIP3    H128602   4.996   2.575  17.830
 1469TIP3    H228603   5.131   2.602  17.892
 1470TIP3   OH228604   4.439   2.693  17.585
 1470TIP3    H128605   4.378   2.746  17.533
 1470TIP3    H228606   4.409   2.603  17.572
 1471TIP3   OH228607   4.887   2.761  17.415
 1471TIP3    H128608   4.969   2.754  17.463
 1471TIP3    H228609   4.900   2.707  17.337
 1472TIP3   OH228610   5.495   2.369  18.075
 1472TIP3    H128611   5.452   2.371  18.161
 1472TIP3    H228612   5.435   2.319  18.019
 1473TIP3   OH228613   4.667   2.692  17.175
 1473TIP3    H128614   4.651   2.702  17.269
 1473TIP3    H228615   4.753   2.649  17.170
 1474TIP3   OH228616   5.918   4.122  18.704
 1474TIP3    H128617   5.925   4.123  18.609
 1474TIP3    H228618   6.002   4.156  18.735
 1475TIP3   OH228619   4.539   3.319  18.706
 1475TIP3    H128620   4.618   3.340  18.755
 1475TIP3    H228621   4.529   3.224  18.715
 1476TIP3   OH228622   5.203   2.641  18.047
 1476TIP3    H128623   5.297   2.654  18.058
 1476TIP3    H228624   5.164   2.686  18.121
 1477TIP3   OH228625   5.036   2.763  18.242
 1477TIP3    H128626   4.954   2.780  18.196
 1477TIP3    H228627   5.064   2.849  18.274
 1478TIP3   OH228628   5.052   3.225  17.309
 1478TIP3    H128629   4.989   3.152  17.303
 1478TIP3    H228630   5.017   3.281  17.379
 1479TIP3   OH228631   5.982   3.330  18.213
 1479TIP3    H128632   6.035   3.385  18.155
 1479TIP3    H228633   5.892   3.361  18.200
 1480TIP3   OH228634   5.430   3.365  18.537
 1480TIP3    H128635   5.423   3.294  18.601
 1480TIP3    H228636   5.346   3.411  18.543
 1481TIP3   OH228637   5.665   2.687  17.374
 1481TIP3    H128638   5.627   2.775  17.370
 1481TIP3    H228639   5.670   2.659  17.283
 1482TIP3   OH228640   4.680   3.307  17.910
 1482TIP3    H128641   4.698   3.286  17.818
 1482TIP3    H228642   4.708   3.230  17.958
 1483TIP3   OH228643   5.282   3.387  17.224
 1483TIP3    H128644   5.286   3.430  17.138
 1483TIP3    H228645   5.195   3.347  17.227
 1484TIP3   OH228646   4.176   3.027  18.470
 1484TIP3    H128647   4.152   2.941  18.506
 1484TIP3    H228648   4.124   3.034  18.390
 1485TIP3   OH228649   4.886   2.906  18.514
 1485TIP3    H128650   4.936   2.933  18.437
 1485TIP3    H228651   4.917   2.963  18.584
 1486TIP3   OH228652   5.573   3.605  18.466
 1486TIP3    H128653   5.613   3.568  18.387
 1486TIP3    H228654   5.524   3.533  18.505
 1487TIP3   OH228655   6.233   3.488  18.554
 1487TIP3    H128656   6.141   3.465  18.541
 1487TIP3    H228657   6.281   3.432  18.494
 1488TIP3   OH228658   5.719   3.103  17.864
 1488TIP3    H128659   5.667   3.085  17.942
 1488TIP3    H228660   5.758   3.018  17.840
 1489TIP3   OH228661   5.002   3.587  17.672
 1489TIP3    H128662   5.087   3.601  17.630
 1489TIP3    H228663   4.954   3.668  17.657
 1490TIP3   OH228664   4.910   3.366  17.510
 1490TIP3    H128665   4.943   3.439  17.563
 1490TIP3    H228666   4.862   3.311  17.573
 1491TIP3   OH228667   5.104   3.894  18.244
 1491TIP3    H128668   5.190   3.924  18.217
 1491TIP3    H228669   5.122   3.833  18.316
 1492TIP3   OH228670   4.871   3.828  17.640
 1492TIP3    H128671   4.785   3.870  17.630
 1492TIP3    H228672   4.934   3.897  17.616
 1493TIP3   OH228673   5.395   3.390  18.235
 1493TIP3    H128674   5.405   3.368  18.327
 1493TIP3    H228675   5.482   3.414  18.206
 1494TIP3   OH228676   5.786   3.518  17.492
 1494TIP3    H128677   5.809   3.431  17.461
 1494TIP3    H228678   5.754   3.564  17.413
 1495TIP3   OH228679   5.714   3.836  18.493
 1495TIP3    H128680   5.658   3.758  18.496
 1495TIP3    H228681   5.662   3.902  18.447
 1496TIP3   OH228682   6.246   3.948  17.447
 1496TIP3    H128683   6.268   3.880  17.383
 1496TIP3    H228684   6.150   3.952  17.446
 1497TIP3   OH228685   4.418   2.506  18.372
 1497TIP3    H128686   4.356   2.519  18.443
 1497TIP3    H228687   4.419   2.411  18.359
 1498TIP3   OH228688   5.855   3.260  17.413
 1498TIP3    H128689   5.804   3.206  17.474
 1498TIP3    H228690   5.939   3.215  17.405
 1499TIP3   OH228691   4.439   3.713  18.150
 1499TIP3    H128692   4.516   3.669  18.113
 1499TIP3    H228693   4.453   3.710  18.245
 1500TIP3   OH228694   4.576   3.338  17.326
 1500TIP3    H128695   4.500   3.385  17.361
 1500TIP3    H228696   4.652   3.387  17.356
 1501TIP3   OH228697   5.400   2.366  18.333
 1501TIP3    H128698   5.425   2.414  18.412
 1501TIP3    H228699   5.350   2.291  18.366
 1502TIP3   OH228700   5.117   3.773  17.245
 1502TIP3    H128701   5.173   3.778  17.322
 1502TIP3    H228702   5.178   3.765  17.172
 1503TIP3   OH228703   5.113   2.731  17.579
 1503TIP3    H128704   5.204   2.762  17.573
 1503TIP3    H228705   5.110   2.683  17.662
 1504TIP3   OH228706   5.323   2.728  18.396
 1504TIP3    H128707   5.322   2.725  18.492
 1504TIP3    H228708   5.237   2.697  18.370
 1505TIP3   OH228709   5.176   2.341  17.707
 1505TIP3    H128710   5.158   2.427  17.745
 1505TIP3    H228711   5.186   2.358  17.613
 1506TIP3   OH228712   4.921   3.903  17.085
 1506TIP3    H128713   4.969   3.980  17.055
 1506TIP3    H228714   4.980   3.861  17.148
 1507TIP3   OH228715   5.975   2.474  18.452
 1507TIP3    H128716   5.884   2.475  18.423
 1507TIP3    H228717   6.025   2.502  18.375
 1508TIP3   OH228718   5.803   2.843  17.802
 1508TIP3    H128719   5.725   2.787  17.794
 1508TIP3    H228720   5.852   2.807  17.875
 1509TIP3   OH228721   5.924   3.963  18.072
 1509TIP3    H128722   5.890   3.878  18.045
 1509TIP3    H228723   6.018   3.949  18.084
 1510TIP3   OH228724   4.384   3.739  17.576
 1510TIP3    H128725   4.333   3.778  17.646
 1510TIP3    H228726   4.360   3.789  17.498
 1511TIP3   OH228727   4.370   4.138  18.711
 1511TIP3    H128728   4.432   4.099  18.772
 1511TIP3    H228729   4.378   4.084  18.632
 1512TIP3   OH228730   4.757   3.812  18.794
 1512TIP3    H128731   4.837   3.771  18.826
 1512TIP3    H228732   4.755   3.791  18.700
 1513TIP3   OH228733   5.447   3.652  18.821
 1513TIP3    H128734   5.463   3.560  18.844
 1513TIP3    H228735   5.534   3.692  18.823
 1514TIP3   OH228736   4.290   3.384  18.812
 1514TIP3    H128737   4.277   3.301  18.858
 1514TIP3    H228738   4.371   3.372  18.763
 1515TIP3   OH228739   4.976   3.417  18.712
 1515TIP3    H128740   4.967   3.456  18.625
 1515TIP3    H228741   5.010   3.330  18.695
 1516TIP3   OH228742   5.708   3.307  18.478
 1516TIP3    H128743   5.711   3.345  18.390
 1516TIP3    H228744   5.619   3.324  18.508
 1517TIP3   OH228745   4.492   3.056  18.771
 1517TIP3    H128746   4.550   2.986  18.803
 1517TIP3    H228747   4.430   3.070  18.843
 1518TIP3   OH228748   4.850   3.025  17.320
 1518TIP3    H128749   4.766   3.044  17.362
 1518TIP3    H228750   4.870   2.936  17.347
 1519TIP3   OH228751   4.644   2.883  18.380
 1519TIP3    H128752   4.724   2.885  18.432
 1519TIP3    H228753   4.583   2.940  18.426
 1520TIP3   OH228754   5.370   3.174  18.737
 1520TIP3    H128755   5.405   3.085  18.750
 1520TIP3    H228756   5.277   3.161  18.722
 1521TIP3   OH228757   4.872   2.639  18.585
 1521TIP3    H128758   4.892   2.589  18.506
 1521TIP3    H228759   4.876   2.730  18.558
 1522TIP3   OH228760   4.924   2.515  18.342
 1522TIP3    H128761   4.972   2.585  18.298
 1522TIP3    H228762   4.839   2.513  18.298
 1523TIP3   OH228763   5.051   3.030  18.332
 1523TIP3    H128764   5.084   3.071  18.412
 1523TIP3    H228765   5.029   3.104  18.275
 1524TIP3   OH228766   5.643   2.695  18.828
 1524TIP3    H128767   5.640   2.600  18.823
 1524TIP3    H228768   5.736   2.716  18.843
 1525TIP3   OH228769   5.799   3.065  18.579
 1525TIP3    H128770   5.762   3.147  18.544
 1525TIP3    H228771   5.893   3.082  18.582
 1526TIP3   OH228772   4.686   2.593  18.783
 1526TIP3    H128773   4.607   2.548  18.750
 1526TIP3    H228774   4.741   2.603  18.706
 1527TIP3   OH228775   4.960   2.238  18.418
 1527TIP3    H128776   4.965   2.333  18.409
 1527TIP3    H228777   4.876   2.215  18.377
 1528TIP3   OH228778   5.055   2.650  18.794
 1528TIP3    H128779   5.032   2.577  18.851
 1528TIP3    H228780   4.997   2.641  18.719
 1529TIP3   OH228781   5.497   2.494  18.574
 1529TIP3    H128782   5.438   2.563  18.604
 1529TIP3    H228783   5.536   2.459  18.655
 1530TIP3   OH228784   5.628   2.392  18.821
 1530TIP3    H128785   5.619   2.299  18.804
 1530TIP3    H228786   5.576   2.407  18.900
 1531TIP3   OH228787   4.446   2.441  18.739
 1531TIP3    H128788   4.449   2.360  18.689
 1531TIP3    H228789   4.468   2.415  18.828
 1532TIP3   OH228790   4.933   2.103  18.674
 1532TIP3    H128791   5.001   2.036  18.669
 1532TIP3    H228792   4.938   2.148  18.590
 1533TIP3   OH228793   5.031   2.211  18.914
 1533TIP3    H128794   5.002   2.169  18.833
 1533TIP3    H228795   4.979   2.292  18.918
 1534TIP3   OH228796   5.092   4.121  17.026
 1534TIP3    H128797   5.175   4.083  17.055
 1534TIP3    H228798   5.117   4.200  16.979
 1535TIP3   OH228799   4.229   4.094  17.630
 1535TIP3    H128800   4.142   4.109  17.592
 1535TIP3    H228801   4.221   4.011  17.676
 1536TIP3   OH228802   4.255   3.857  17.794
 1536TIP3    H128803   4.224   3.784  17.848
 1536TIP3    H228804   4.316   3.904  17.851
 1537TIP3   OH228805   6.207   3.972  18.120
 1537TIP3    H128806   6.184   3.938  18.207
 1537TIP3    H228807   6.299   3.996  18.127
 1538TIP3   OH228808   6.112   3.871  18.361
 1538TIP3    H128809   6.044   3.807  18.340
 1538TIP3    H228810   6.156   3.835  18.438
 1539TIP3   OH228811   6.048   3.422  18.887
 1539TIP3    H128812   5.955   3.440  18.895
 1539TIP3    H228813   6.090   3.499  18.926
 1540TIP3   OH228814   6.114   3.152  17.353
 1540TIP3    H128815   6.173   3.223  17.329
 1540TIP3    H228816   6.163   3.103  17.420
 1541TIP3   OH228817   6.239   3.001  17.555
 1541TIP3    H128818   6.160   2.958  17.587
 1541TIP3    H228819   6.287   3.026  17.634
 1542TIP3   OH228820   6.140   3.477  18.045
 1542TIP3    H128821   6.226   3.436  18.042
 1542TIP3    H228822   6.116   3.487  17.953
 1543TIP3   OH228823   5.905   3.697  18.339
 1543TIP3    H128824   5.835   3.744  18.386
 1543TIP3    H228825   5.859   3.629  18.290
 1544TIP3   OH228826   6.027   2.845  17.630
 1544TIP3    H128827   5.992   2.775  17.575
 1544TIP3    H228828   5.955   2.866  17.691
 1545TIP3   OH228829   4.221   3.172  18.061
 1545TIP3    H128830   4.225   3.132  17.975
 1545TIP3    H228831   4.288   3.126  18.112
 1546TIP3   OH228832   6.069   3.140  18.590
 1546TIP3    H128833   6.145   3.106  18.542
 1546TIP3    H228834   6.052   3.226  18.550
 1547TIP3   OH228835   6.233   2.766  18.504
 1547TIP3    H128836   6.143   2.762  18.537
 1547TIP3    H228837   6.279   2.695  18.550
 1548TIP3   OH228838   5.921   2.638  17.489
 1548TIP3    H128839   5.927   2.543  17.503
 1548TIP3    H228840   5.832   2.651  17.457
 1549TIP3   OH228841   5.974   2.753  17.997
 1549TIP3    H128842   6.066   2.770  17.977
 1549TIP3    H228843   5.963   2.780  18.088
 1550TIP3   OH228844   5.986   2.831  18.258
 1550TIP3    H128845   5.908   2.838  18.314
 1550TIP3    H228846   6.020   2.920  18.254
 1551TIP3   OH228847   4.224   2.544  18.594
 1551TIP3    H128848   4.299   2.525  18.651
 1551TIP3    H228849   4.155   2.485  18.624
 1552TIP3   OH228850   6.173   2.136  18.792
 1552TIP3    H128851   6.238   2.077  18.753
 1552TIP3    H228852   6.173   2.213  18.735
 1553TIP3   OH228853   4.219   2.749  18.057
 1553TIP3    H128854   4.277   2.750  17.980
 1553TIP3    H228855   4.279   2.746  18.132
 1554TIP3   OH228856   6.115   2.378  18.666
 1554TIP3    H128857   6.049   2.399  18.731
 1554TIP3    H228858   6.074   2.397  18.582
 1555TIP3   OH228859   4.167   2.136  18.313
 1555TIP3    H128860   4.098   2.107  18.373
 1555TIP3    H228861   4.129   2.212  18.269
 1556TIP3   OH228862   4.491   3.675  18.422
 1556TIP3    H128863   4.509   3.580  18.422
 1556TIP3    H228864   4.455   3.691  18.509
 1557TIP3   OH228865   4.859   3.944  18.373
 1557TIP3    H128866   4.832   4.034  18.355
 1557TIP3    H228867   4.943   3.935  18.328
 1558TIP3   OH228868   5.158   4.032  18.666
 1558TIP3    H128869   5.171   3.938  18.681
 1558TIP3    H228870   5.235   4.058  18.616
 1559TIP3   OH228871   5.395   4.125  18.544
 1559TIP3    H128872   5.439   4.085  18.469
 1559TIP3    H228873   5.460   4.124  18.614
 1560TIP3   OH228874   6.012   2.049  18.411
 1560TIP3    H128875   5.929   2.058  18.364
 1560TIP3    H228876   6.041   1.960  18.392
 1561TIP3   OH228877   4.490   4.234  18.384
 1561TIP3    H128878   4.396   4.231  18.363
 1561TIP3    H228879   4.495   4.289  18.462
 1562TIP3   OH228880   4.764   4.200  18.319
 1562TIP3    H128881   4.672   4.204  18.345
 1562TIP3    H228882   4.764   4.216  18.225
 1563TIP3   OH228883   5.352   3.999  18.150
 1563TIP3    H128884   5.394   3.956  18.076
 1563TIP3    H228885   5.314   4.079  18.113
 1564TIP3   OH228886   5.558   4.019  18.347
 1564TIP3    H128887   5.496   4.000  18.276
 1564TIP3    H228888   5.632   4.061  18.303
 1565TIP3   OH228889   5.788   4.137  18.235
 1565TIP3    H128890   5.781   4.219  18.186
 1565TIP3    H228891   5.827   4.075  18.172
 1566TIP3   OH228892   4.433   3.951  17.994
 1566TIP3    H128893   4.418   3.889  18.066
 1566TIP3    H228894   4.519   3.927  17.960
 1567TIP3   OH228895   4.671   3.828  17.929
 1567TIP3    H128896   4.675   3.735  17.951
 1567TIP3    H228897   4.757   3.861  17.954
 1568TIP3   OH228898   4.932   3.879  18.020
 1568TIP3    H128899   4.954   3.792  17.986
 1568TIP3    H228900   4.986   3.888  18.098
 1569TIP3   OH228901   5.304   2.228  17.928
 1569TIP3    H128902   5.227   2.222  17.985
 1569TIP3    H228903   5.270   2.259  17.845
 1570TIP3   OH228904   4.903   2.349  17.628
 1570TIP3    H128905   4.925   2.373  17.538
 1570TIP3    H228906   4.985   2.318  17.666
 1571TIP3   OH228907   4.311   3.849  17.338
 1571TIP3    H128908   4.314   3.766  17.290
 1571TIP3    H228909   4.321   3.916  17.270
 1572TIP3   OH228910   5.127   2.471  17.463
 1572TIP3    H128911   5.147   2.477  17.369
 1572TIP3    H228912   5.120   2.562  17.492
 1573TIP3   OH228913   5.334   3.996  17.124
 1573TIP3    H128914   5.429   3.997  17.120
 1573TIP3    H228915   5.309   3.910  17.089
 1574TIP3   OH228916   4.460   2.187  18.632
 1574TIP3    H128917   4.397   2.121  18.662
 1574TIP3    H228918   4.541   2.165  18.677
 1575TIP3   OH228919   4.675   2.118  18.791
 1575TIP3    H128920   4.763   2.104  18.756
 1575TIP3    H228921   4.648   2.032  18.824
 1576TIP3   OH228922   5.644   2.109  18.770
 1576TIP3    H128923   5.626   2.046  18.839
 1576TIP3    H228924   5.732   2.087  18.740
 1577TIP3   OH228925   5.921   3.838  18.680
 1577TIP3    H128926   5.855   3.828  18.611
 1577TIP3    H228927   5.918   3.932  18.701
 1578TIP3   OH228928   6.609   3.145  17.980
 1578TIP3    H128929   6.550   3.072  18.002
 1578TIP3    H228930   6.565   3.222  18.015
 1579TIP3   OH228931   7.975   3.439  18.003
 1579TIP3    H128932   7.958   3.429  17.910
 1579TIP3    H228933   7.916   3.510  18.031
 1580TIP3   OH228934   6.683   3.541  18.050
 1580TIP3    H128935   6.599   3.499  18.067
 1580TIP3    H228936   6.724   3.490  17.981
 1581TIP3   OH228937   6.333   2.755  17.475
 1581TIP3    H128938   6.316   2.848  17.485
 1581TIP3    H228939   6.253   2.712  17.506
 1582TIP3   OH228940   6.411   3.032  17.776
 1582TIP3    H128941   6.444   2.944  17.795
 1582TIP3    H228942   6.489   3.087  17.774
 1583TIP3   OH228943   7.590   3.989  17.757
 1583TIP3    H128944   7.531   3.952  17.691
 1583TIP3    H228945   7.636   3.914  17.794
 1584TIP3   OH228946   7.168   3.414  18.052
 1584TIP3    H128947   7.122   3.476  17.997
 1584TIP3    H228948   7.242   3.463  18.088
 1585TIP3   OH228949   8.168   2.359  18.180
 1585TIP3    H128950   8.155   2.428  18.246
 1585TIP3    H228951   8.192   2.406  18.100
 1586TIP3   OH228952   7.620   2.686  18.044
 1586TIP3    H128953   7.683   2.619  18.017
 1586TIP3    H228954   7.535   2.643  18.038
 1587TIP3   OH228955   6.875   2.520  17.749
 1587TIP3    H128956   6.882   2.611  17.721
 1587TIP3    H228957   6.816   2.479  17.685
 1588TIP3   OH228958   7.720   2.488  17.703
 1588TIP3    H128959   7.751   2.492  17.794
 1588TIP3    H228960   7.785   2.536  17.653
 1589TIP3   OH228961   6.504   2.776  17.841
 1589TIP3    H128962   6.549   2.714  17.898
 1589TIP3    H228963   6.529   2.751  17.752
 1590TIP3   OH228964   6.976   2.975  17.766
 1590TIP3    H128965   6.940   2.987  17.853
 1590TIP3    H228966   6.929   2.900  17.730
 1591TIP3   OH228967   8.130   2.561  18.361
 1591TIP3    H128968   8.108   2.651  18.337
 1591TIP3    H228969   8.200   2.570  18.426
 1592TIP3   OH228970   6.727   2.455  18.224
 1592TIP3    H128971   6.688   2.501  18.150
 1592TIP3    H228972   6.669   2.475  18.298
 1593TIP3   OH228973   6.990   3.233  18.157
 1593TIP3    H128974   6.930   3.294  18.199
 1593TIP3    H228975   7.055   3.288  18.113
 1594TIP3   OH228976   7.817   2.515  17.961
 1594TIP3    H128977   7.807   2.435  18.013
 1594TIP3    H228978   7.900   2.552  17.991
 1595TIP3   OH228979   6.686   2.586  17.966
 1595TIP3    H128980   6.730   2.655  18.015
 1595TIP3    H228981   6.752   2.554  17.905
 1596TIP3   OH228982   6.825   3.426  18.271
 1596TIP3    H128983   6.784   3.478  18.202
 1596TIP3    H228984   6.752   3.401  18.328
 1597TIP3   OH228985   6.288   3.377  17.293
 1597TIP3    H128986   6.324   3.430  17.221
 1597TIP3    H228987   6.229   3.437  17.339
 1598TIP3   OH228988   7.801   3.650  18.055
 1598TIP3    H128989   7.725   3.672  18.108
 1598TIP3    H228990   7.782   3.687  17.969
 1599TIP3   OH228991   7.956   2.185  18.229
 1599TIP3    H128992   7.880   2.227  18.188
 1599TIP3    H228993   8.030   2.242  18.206
 1600TIP3   OH228994   7.015   2.078  17.968
 1600TIP3    H128995   7.004   1.988  18.000
 1600TIP3    H228996   6.944   2.127  18.010
 1601TIP3   OH228997   7.732   3.739  17.799
 1601TIP3    H128998   7.687   3.679  17.739
 1601TIP3    H228999   7.802   3.778  17.747
 1602TIP3   OH229000   7.821   3.519  17.387
 1602TIP3    H129001   7.764   3.444  17.370
 1602TIP3    H229002   7.767   3.579  17.438
 1603TIP3   OH229003   8.020   3.414  18.389
 1603TIP3    H129004   8.020   3.351  18.317
 1603TIP3    H229005   8.017   3.500  18.346
 1604TIP3   OH229006   8.199   3.019  18.202
 1604TIP3    H129007   8.138   3.093  18.200
 1604TIP3    H229008   8.275   3.049  18.152
 1605TIP3   OH229009   7.761   2.990  17.512
 1605TIP3    H129010   7.717   3.069  17.542
 1605TIP3    H229011   7.829   2.974  17.577
 1606TIP3   OH229012   7.828   2.891  18.459
 1606TIP3    H129013   7.815   2.976  18.502
 1606TIP3    H229014   7.757   2.885  18.395
 1607TIP3   OH229015   6.847   3.196  17.654
 1607TIP3    H129016   6.806   3.168  17.572
 1607TIP3    H229017   6.896   3.119  17.684
 1608TIP3   OH229018   6.996   3.577  17.897
 1608TIP3    H129019   6.997   3.615  17.809
 1608TIP3    H229020   6.929   3.508  17.892
 1609TIP3   OH229021   6.857   3.034  18.013
 1609TIP3    H129022   6.772   3.074  17.996
 1609TIP3    H229023   6.908   3.102  18.056
 1610TIP3   OH229024   7.584   3.716  18.212
 1610TIP3    H129025   7.546   3.795  18.249
 1610TIP3    H229026   7.509   3.659  18.195
 1611TIP3   OH229027   6.944   3.526  18.505
 1611TIP3    H129028   6.871   3.581  18.535
 1611TIP3    H229029   6.916   3.492  18.420
 1612TIP3   OH229030   6.537   2.990  18.556
 1612TIP3    H129031   6.562   3.073  18.598
 1612TIP3    H229032   6.451   3.007  18.517
 1613TIP3   OH229033   7.440   3.870  17.557
 1613TIP3    H129034   7.419   3.778  17.543
 1613TIP3    H229035   7.369   3.918  17.515
 1614TIP3   OH229036   6.746   3.714  18.567
 1614TIP3    H129037   6.785   3.779  18.508
 1614TIP3    H229038   6.653   3.714  18.544
 1615TIP3   OH229039   8.004   2.170  17.168
 1615TIP3    H129040   7.970   2.151  17.080
 1615TIP3    H229041   8.052   2.252  17.158
 1616TIP3   OH229042   6.724   3.091  17.422
 1616TIP3    H129043   6.664   3.157  17.388
 1616TIP3    H229044   6.672   3.010  17.423
 1617TIP3   OH229045   6.364   3.305  18.396
 1617TIP3    H129046   6.374   3.322  18.303
 1617TIP3    H229047   6.340   3.212  18.401
 1618TIP3   OH229048   6.335   3.664  18.146
 1618TIP3    H129049   6.384   3.582  18.137
 1618TIP3    H229050   6.243   3.639  18.136
 1619TIP3   OH229051   8.170   3.766  18.582
 1619TIP3    H129052   8.192   3.676  18.606
 1619TIP3    H229053   8.088   3.784  18.627
 1620TIP3   OH229054   7.162   3.704  18.488
 1620TIP3    H129055   7.150   3.781  18.544
 1620TIP3    H229056   7.081   3.654  18.499
 1621TIP3   OH229057   7.259   4.042  17.430
 1621TIP3    H129058   7.212   4.045  17.346
 1621TIP3    H229059   7.200   4.084  17.492
 1622TIP3   OH229060   6.681   3.959  17.721
 1622TIP3    H129061   6.696   3.907  17.800
 1622TIP3    H229062   6.593   3.936  17.693
 1623TIP3   OH229063   7.533   4.090  17.390
 1623TIP3    H129064   7.437   4.095  17.394
 1623TIP3    H229065   7.556   4.019  17.450
 1624TIP3   OH229066   7.938   2.734  18.656
 1624TIP3    H129067   7.895   2.793  18.594
 1624TIP3    H229068   7.922   2.647  18.620
 1625TIP3   OH229069   6.631   3.359  18.453
 1625TIP3    H129070   6.631   3.315  18.538
 1625TIP3    H229071   6.541   3.346  18.420
 1626TIP3   OH229072   6.800   2.220  18.079
 1626TIP3    H129073   6.723   2.203  18.024
 1626TIP3    H229074   6.779   2.302  18.124
 1627TIP3   OH229075   7.331   2.206  18.411
 1627TIP3    H129076   7.359   2.157  18.488
 1627TIP3    H229077   7.237   2.221  18.424
 1628TIP3   OH229078   7.620   2.549  18.474
 1628TIP3    H129079   7.611   2.548  18.569
 1628TIP3    H229080   7.564   2.621  18.445
 1629TIP3   OH229081   6.794   2.786  18.125
 1629TIP3    H129082   6.748   2.805  18.207
 1629TIP3    H229083   6.812   2.873  18.088
 1630TIP3   OH229084   6.857   2.768  17.629
 1630TIP3    H129085   6.764   2.759  17.606
 1630TIP3    H229086   6.903   2.762  17.546
 1631TIP3   OH229087   7.307   2.859  18.654
 1631TIP3    H129088   7.265   2.781  18.689
 1631TIP3    H229089   7.347   2.901  18.730
 1632TIP3   OH229090   6.681   2.817  18.385
 1632TIP3    H129091   6.626   2.875  18.437
 1632TIP3    H229092   6.650   2.729  18.408
 1633TIP3   OH229093   6.379   2.618  17.234
 1633TIP3    H129094   6.418   2.675  17.168
 1633TIP3    H229095   6.369   2.673  17.311
 1634TIP3   OH229096   7.632   2.857  18.265
 1634TIP3    H129097   7.630   2.798  18.190
 1634TIP3    H229098   7.557   2.831  18.318
 1635TIP3   OH229099   7.138   2.409  17.682
 1635TIP3    H129100   7.052   2.439  17.710
 1635TIP3    H229101   7.166   2.349  17.751
 1636TIP3   OH229102   6.587   2.702  17.585
 1636TIP3    H129103   6.505   2.715  17.538
 1636TIP3    H229104   6.614   2.613  17.562
 1637TIP3   OH229105   7.032   2.741  17.411
 1637TIP3    H129106   7.105   2.682  17.431
 1637TIP3    H229107   7.072   2.813  17.361
 1638TIP3   OH229108   7.740   2.293  18.101
 1638TIP3    H129109   7.667   2.304  18.162
 1638TIP3    H229110   7.704   2.243  18.028
 1639TIP3   OH229111   7.925   4.106  18.664
 1639TIP3    H129112   7.958   4.115  18.574
 1639TIP3    H229113   7.995   4.142  18.719
 1640TIP3   OH229114   6.588   3.228  18.696
 1640TIP3    H129115   6.658   3.241  18.761
 1640TIP3    H229116   6.511   3.269  18.735
 1641TIP3   OH229117   6.712   2.457  17.530
 1641TIP3    H129118   6.674   2.370  17.512
 1641TIP3    H229119   6.764   2.476  17.452
 1642TIP3   OH229120   7.044   2.729  18.232
 1642TIP3    H129121   6.962   2.735  18.183
 1642TIP3    H229122   7.072   2.820  18.244
 1643TIP3   OH229123   8.008   3.225  18.182
 1643TIP3    H129124   7.998   3.292  18.114
 1643TIP3    H229125   7.933   3.166  18.169
 1644TIP3   OH229126   7.358   3.515  18.473
 1644TIP3    H129127   7.320   3.453  18.535
 1644TIP3    H229128   7.296   3.588  18.472
 1645TIP3   OH229129   7.671   2.734  17.465
 1645TIP3    H129130   7.755   2.692  17.482
 1645TIP3    H229131   7.691   2.828  17.464
 1646TIP3   OH229132   6.792   3.355  17.874
 1646TIP3    H129133   6.819   3.322  17.789
 1646TIP3    H229134   6.731   3.289  17.908
 1647TIP3   OH229135   6.280   3.029  18.435
 1647TIP3    H129136   6.269   2.937  18.458
 1647TIP3    H229137   6.224   3.041  18.358
 1648TIP3   OH229138   7.097   3.054  18.644
 1648TIP3    H129139   7.023   3.014  18.599
 1648TIP3    H229140   7.171   2.995  18.628
 1649TIP3   OH229141   7.615   3.600  18.537
 1649TIP3    H129142   7.530   3.576  18.501
 1649TIP3    H229143   7.598   3.617  18.629
 1650TIP3   OH229144   8.124   2.736  17.394
 1650TIP3    H129145   8.156   2.650  17.366
 1650TIP3    H229146   8.142   2.793  17.319
 1651TIP3   OH229147   8.241   3.295  18.512
 1651TIP3    H129148   8.166   3.344  18.478
 1651TIP3    H229149   8.298   3.281  18.437
 1652TIP3   OH229150   8.070   3.639  17.325
 1652TIP3    H129151   7.988   3.594  17.347
 1652TIP3    H229152   8.059   3.668  17.235
 1653TIP3   OH229153   7.813   3.037  18.138
 1653TIP3    H129154   7.744   2.991  18.186
 1653TIP3    H229155   7.826   2.985  18.059
 1654TIP3   OH229156   6.971   3.683  17.642
 1654TIP3    H129157   6.964   3.777  17.628
 1654TIP3    H229158   6.943   3.644  17.558
 1655TIP3   OH229159   6.429   3.067  17.135
 1655TIP3    H129160   6.479   3.125  17.192
 1655TIP3    H229161   6.355   3.120  17.106
 1656TIP3   OH229162   7.116   3.860  18.262
 1656TIP3    H129163   7.181   3.930  18.254
 1656TIP3    H229164   7.152   3.802  18.329
 1657TIP3   OH229165   6.928   3.956  17.584
 1657TIP3    H129166   6.843   3.966  17.627
 1657TIP3    H229167   6.972   4.040  17.596
 1658TIP3   OH229168   7.397   3.507  18.198
 1658TIP3    H129169   7.380   3.504  18.292
 1658TIP3    H229170   7.461   3.437  18.183
 1659TIP3   OH229171   7.792   3.800  18.436
 1659TIP3    H129172   7.717   3.742  18.446
 1659TIP3    H229173   7.762   3.867  18.374
 1660TIP3   OH229174   8.149   3.984  17.167
 1660TIP3    H129175   8.182   4.026  17.087
 1660TIP3    H229176   8.110   3.902  17.137
 1661TIP3   OH229177   6.589   2.556  18.460
 1661TIP3    H129178   6.495   2.560  18.475
 1661TIP3    H229179   6.624   2.509  18.535
 1662TIP3   OH229180   6.454   3.869  18.294
 1662TIP3    H129181   6.411   3.804  18.237
 1662TIP3    H229182   6.472   3.821  18.375
 1663TIP3   OH229183   6.914   3.597  17.310
 1663TIP3    H129184   7.001   3.568  17.282
 1663TIP3    H229185   6.921   3.693  17.311
 1664TIP3   OH229186   6.541   3.260  17.305
 1664TIP3    H129187   6.455   3.297  17.321
 1664TIP3    H229188   6.593   3.334  17.273
 1665TIP3   OH229189   7.545   2.345  18.289
 1665TIP3    H129190   7.572   2.409  18.355
 1665TIP3    H229191   7.469   2.301  18.327
 1666TIP3   OH229192   7.509   2.518  17.528
 1666TIP3    H129193   7.549   2.594  17.484
 1666TIP3    H229194   7.571   2.495  17.596
 1667TIP3   OH229195   7.240   2.580  17.492
 1667TIP3    H129196   7.334   2.565  17.502
 1667TIP3    H229197   7.199   2.521  17.555
 1668TIP3   OH229198   7.425   2.752  18.422
 1668TIP3    H129199   7.394   2.796  18.501
 1668TIP3    H229200   7.346   2.712  18.385
 1669TIP3   OH229201   7.376   2.269  17.542
 1669TIP3    H129202   7.299   2.294  17.593
 1669TIP3    H229203   7.425   2.351  17.532
 1670TIP3   OH229204   6.973   3.862  17.326
 1670TIP3    H129205   7.010   3.934  17.276
 1670TIP3    H229206   6.955   3.900  17.413
 1671TIP3   OH229207   6.869   2.529  17.316
 1671TIP3    H129208   6.873   2.525  17.220
 1671TIP3    H229209   6.921   2.606  17.339
 1672TIP3   OH229210   7.902   2.499  18.515
 1672TIP3    H129211   7.812   2.502  18.483
 1672TIP3    H229212   7.956   2.511  18.437
 1673TIP3   OH229213   7.837   2.838  17.940
 1673TIP3    H129214   7.755   2.794  17.962
 1673TIP3    H229215   7.905   2.780  17.974
 1674TIP3   OH229216   6.695   3.466  17.200
 1674TIP3    H129217   6.759   3.519  17.247
 1674TIP3    H229218   6.748   3.410  17.142
 1675TIP3   OH229219   7.970   4.000  18.044
 1675TIP3    H129220   7.949   4.034  17.957
 1675TIP3    H229221   8.065   3.996  18.046
 1676TIP3   OH229222   6.575   2.165  17.922
 1676TIP3    H129223   6.581   2.150  17.828
 1676TIP3    H229224   6.540   2.083  17.957
 1677TIP3   OH229225   6.416   3.923  17.669
 1677TIP3    H129226   6.365   3.884  17.740
 1677TIP3    H229227   6.357   3.922  17.594
 1678TIP3   OH229228   6.297   3.999  18.753
 1678TIP3    H129229   6.390   3.992  18.773
 1678TIP3    H229230   6.279   3.925  18.695
 1679TIP3   OH229231   6.762   3.813  18.824
 1679TIP3    H129232   6.851   3.793  18.851
 1679TIP3    H229233   6.754   3.775  18.736
 1680TIP3   OH229234   7.570   3.629  18.811
 1680TIP3    H129235   7.582   3.550  18.863
 1680TIP3    H229236   7.638   3.689  18.841
 1681TIP3   OH229237   6.344   3.363  18.780
 1681TIP3    H129238   6.262   3.329  18.818
 1681TIP3    H229239   6.316   3.411  18.702
 1682TIP3   OH229240   6.841   3.291  17.047
 1682TIP3    H129241   6.882   3.234  17.113
 1682TIP3    H229242   6.823   3.233  16.973
 1683TIP3   OH229243   7.029   3.341  18.699
 1683TIP3    H129244   7.002   3.394  18.623
 1683TIP3    H229245   7.053   3.257  18.661
 1684TIP3   OH229246   7.785   3.379  18.542
 1684TIP3    H129247   7.865   3.397  18.494
 1684TIP3    H229248   7.733   3.458  18.535
 1685TIP3   OH229249   6.597   2.848  18.796
 1685TIP3    H129250   6.576   2.886  18.711
 1685TIP3    H229251   6.554   2.905  18.860
 1686TIP3   OH229252   6.935   3.116  17.240
 1686TIP3    H129253   6.864   3.110  17.304
 1686TIP3    H229254   7.009   3.074  17.283
 1687TIP3   OH229255   6.926   2.911  18.478
 1687TIP3    H129256   6.838   2.891  18.447
 1687TIP3    H229257   6.972   2.944  18.401
 1688TIP3   OH229258   7.166   2.949  17.275
 1688TIP3    H129259   7.130   2.951  17.186
 1688TIP3    H229260   7.260   2.960  17.264
 1689TIP3   OH229261   7.557   3.262  18.759
 1689TIP3    H129262   7.621   3.278  18.689
 1689TIP3    H229263   7.511   3.182  18.732
 1690TIP3   OH229264   6.962   2.657  18.584
 1690TIP3    H129265   6.959   2.593  18.513
 1690TIP3    H229266   6.953   2.742  18.541
 1691TIP3   OH229267   6.968   2.492  18.358
 1691TIP3    H129268   7.009   2.564  18.309
 1691TIP3    H229269   6.888   2.473  18.310
 1692TIP3   OH229270   7.088   3.005  18.275
 1692TIP3    H129271   7.174   3.038  18.298
 1692TIP3    H229272   7.045   3.078  18.230
 1693TIP3   OH229273   7.625   2.797  18.897
 1693TIP3    H129274   7.630   2.726  18.832
 1693TIP3    H229275   7.698   2.855  18.876
 1694TIP3   OH229276   7.829   3.120  18.613
 1694TIP3    H129277   7.813   3.210  18.585
 1694TIP3    H229278   7.924   3.114  18.621
 1695TIP3   OH229279   6.830   2.693  18.825
 1695TIP3    H129280   6.747   2.740  18.815
 1695TIP3    H229281   6.863   2.684  18.736
 1696TIP3   OH229282   7.048   2.231  18.430
 1696TIP3    H129283   7.026   2.322  18.413
 1696TIP3    H229284   6.972   2.182  18.401
 1697TIP3   OH229285   7.180   2.636  18.752
 1697TIP3    H129286   7.153   2.574  18.821
 1697TIP3    H229287   7.106   2.638  18.692
 1698TIP3   OH229288   7.576   2.558  18.750
 1698TIP3    H129289   7.484   2.544  18.772
 1698TIP3    H229290   7.621   2.483  18.788
 1699TIP3   OH229291   7.689   2.337  18.876
 1699TIP3    H129292   7.671   2.252  18.836
 1699TIP3    H229293   7.638   2.336  18.957
 1700TIP3   OH229294   6.557   2.398  18.720
 1700TIP3    H129295   6.546   2.309  18.686
 1700TIP3    H229296   6.592   2.386  18.808
 1701TIP3   OH229297   7.129   2.120  18.673
 1701TIP3    H129298   7.143   2.028  18.652
 1701TIP3    H229299   7.090   2.157  18.593
 1702TIP3   OH229300   7.122   2.219  18.926
 1702TIP3    H129301   7.124   2.176  18.841
 1702TIP3    H229302   7.068   2.297  18.913
 1703TIP3   OH229303   7.094   4.088  17.210
 1703TIP3    H129304   7.114   4.076  17.117
 1703TIP3    H229305   7.056   4.176  17.215
 1704TIP3   OH229306   6.438   3.544  17.121
 1704TIP3    H129307   6.526   3.530  17.156
 1704TIP3    H229308   6.449   3.551  17.027
 1705TIP3   OH229309   6.286   3.828  17.895
 1705TIP3    H129310   6.326   3.752  17.938
 1705TIP3    H229311   6.244   3.876  17.967
 1706TIP3   OH229312   8.253   4.004  18.110
 1706TIP3    H129313   8.220   3.954  18.184
 1706TIP3    H229314   8.282   4.087  18.148
 1707TIP3   OH229315   8.150   3.871  18.327
 1707TIP3    H129316   8.092   3.802  18.294
 1707TIP3    H229317   8.175   3.841  18.415
 1708TIP3   OH229318   8.095   3.448  18.908
 1708TIP3    H129319   8.012   3.461  18.954
 1708TIP3    H229320   8.135   3.534  18.906
 1709TIP3   OH229321   8.288   3.168  17.410
 1709TIP3    H129322   8.369   3.205  17.445
 1709TIP3    H229323   8.241   3.135  17.486
 1710TIP3   OH229324   8.154   3.060  17.629
 1710TIP3    H129325   8.080   3.000  17.643
 1710TIP3    H229326   8.154   3.116  17.706
 1711TIP3   OH229327   8.245   3.445  18.100
 1711TIP3    H129328   8.156   3.452  18.065
 1711TIP3    H229329   8.286   3.529  18.077
 1712TIP3   OH229330   7.970   3.666  18.274
 1712TIP3    H129331   7.909   3.707  18.335
 1712TIP3    H229332   7.923   3.664  18.191
 1713TIP3   OH229333   8.134   2.991  17.248
 1713TIP3    H129334   8.055   3.005  17.301
 1713TIP3    H229335   8.202   3.040  17.294
 1714TIP3   OH229336   7.948   2.885  17.689
 1714TIP3    H129337   7.942   2.795  17.656
 1714TIP3    H229338   7.909   2.880  17.777
 1715TIP3   OH229339   6.289   3.091  18.021
 1715TIP3    H129340   6.305   3.088  17.926
 1715TIP3    H229341   6.323   3.176  18.048
 1716TIP3   OH229342   8.105   3.091  18.644
 1716TIP3    H129343   8.148   3.007  18.629
 1716TIP3    H229344   8.159   3.155  18.598
 1717TIP3   OH229345   8.195   2.823  18.596
 1717TIP3    H129346   8.108   2.795  18.624
 1717TIP3    H229347   8.247   2.743  18.597
 1718TIP3   OH229348   7.921   2.630  17.545
 1718TIP3    H129349   7.942   2.537  17.532
 1718TIP3    H229350   7.986   2.677  17.495
 1719TIP3   OH229351   8.027   2.669  18.057
 1719TIP3    H129352   8.119   2.685  18.035
 1719TIP3    H229353   8.016   2.706  18.144
 1720TIP3   OH229354   8.036   2.810  18.293
 1720TIP3    H129355   7.967   2.844  18.351
 1720TIP3    H229356   8.086   2.887  18.267
 1721TIP3   OH229357   6.343   2.534  18.609
 1721TIP3    H129358   6.414   2.496  18.659
 1721TIP3    H229359   6.267   2.480  18.629
 1722TIP3   OH229360   8.178   2.146  18.766
 1722TIP3    H129361   8.234   2.105  18.700
 1722TIP3    H229362   8.153   2.230  18.728
 1723TIP3   OH229363   7.976   2.363  17.498
 1723TIP3    H129364   8.019   2.306  17.562
 1723TIP3    H229365   7.901   2.313  17.466
 1724TIP3   OH229366   6.462   2.408  18.006
 1724TIP3    H129367   6.497   2.323  17.978
 1724TIP3    H229368   6.531   2.471  17.983
 1725TIP3   OH229369   6.244   2.813  17.973
 1725TIP3    H129370   6.325   2.791  17.927
 1725TIP3    H229371   6.255   2.904  18.001
 1726TIP3   OH229372   8.100   2.399  18.686
 1726TIP3    H129373   8.051   2.424  18.764
 1726TIP3    H229374   8.041   2.419  18.613
 1727TIP3   OH229375   6.300   2.356  17.280
 1727TIP3    H129376   6.217   2.373  17.324
 1727TIP3    H229377   6.334   2.443  17.259
 1728TIP3   OH229378   7.926   3.872  17.659
 1728TIP3    H129379   7.985   3.882  17.583
 1728TIP3    H229380   7.930   3.957  17.703
 1729TIP3   OH229381   6.259   2.127  18.272
 1729TIP3    H129382   6.183   2.121  18.330
 1729TIP3    H229383   6.247   2.210  18.225
 1730TIP3   OH229384   6.464   3.706  18.520
 1730TIP3    H129385   6.382   3.734  18.560
 1730TIP3    H229386   6.451   3.614  18.500
 1731TIP3   OH229387   6.876   3.895  18.408
 1731TIP3    H129388   6.848   3.985  18.394
 1731TIP3    H229389   6.950   3.883  18.349
 1732TIP3   OH229390   7.203   3.940  18.646
 1732TIP3    H129391   7.243   3.873  18.701
 1732TIP3    H229392   7.277   3.993  18.616
 1733TIP3   OH229393   7.431   4.087  18.565
 1733TIP3    H129394   7.469   4.040  18.491
 1733TIP3    H229395   7.506   4.108  18.620
 1734TIP3   OH229396   8.072   2.054  18.443
 1734TIP3    H129397   8.020   2.092  18.372
 1734TIP3    H229398   8.084   1.962  18.418
 1735TIP3   OH229399   6.507   4.135  18.413
 1735TIP3    H129400   6.418   4.169  18.411
 1735TIP3    H229401   6.500   4.047  18.376
 1736TIP3   OH229402   6.789   4.155  18.361
 1736TIP3    H129403   6.695   4.154  18.380
 1736TIP3    H229404   6.794   4.185  18.270
 1737TIP3   OH229405   7.280   4.094  18.217
 1737TIP3    H129406   7.204   4.105  18.160
 1737TIP3    H229407   7.285   4.175  18.267
 1738TIP3   OH229408   7.511   3.968  18.320
 1738TIP3    H129409   7.441   4.010  18.270
 1738TIP3    H229410   7.592   3.998  18.278
 1739TIP3   OH229411   7.776   4.018  18.243
 1739TIP3    H129412   7.807   4.108  18.257
 1739TIP3    H229413   7.828   3.987  18.168
 1740TIP3   OH229414   6.521   4.003  18.062
 1740TIP3    H129415   6.511   3.963  18.149
 1740TIP3    H229416   6.576   3.941  18.013
 1741TIP3   OH229417   6.702   3.815  17.965
 1741TIP3    H129418   6.686   3.724  17.991
 1741TIP3    H229419   6.794   3.830  17.988
 1742TIP3   OH229420   6.971   3.834  18.028
 1742TIP3    H129421   6.991   3.750  17.986
 1742TIP3    H229422   7.022   3.831  18.110
 1743TIP3   OH229423   7.223   2.207  17.844
 1743TIP3    H129424   7.155   2.169  17.899
 1743TIP3    H229425   7.292   2.140  17.842
 1744TIP3   OH229426   7.935   2.072  17.831
 1744TIP3    H129427   7.997   2.138  17.798
 1744TIP3    H229428   7.855   2.121  17.849
 1745TIP3   OH229429   8.129   2.201  17.668
 1745TIP3    H129430   8.169   2.115  17.652
 1745TIP3    H229431   8.200   2.263  17.652
 1746TIP3   OH229432   6.586   2.072  17.659
 1746TIP3    H129433   6.526   2.048  17.588
 1746TIP3    H229434   6.636   1.992  17.677
 1747TIP3   OH229435   6.402   2.103  17.247
 1747TIP3    H129436   6.379   2.195  17.262
 1747TIP3    H229437   6.324   2.064  17.209
 1748TIP3   OH229438   7.024   2.041  17.692
 1748TIP3    H129439   7.074   2.120  17.670
 1748TIP3    H229440   7.009   2.047  17.786
 1749TIP3   OH229441   7.674   2.177  17.855
 1749TIP3    H129442   7.644   2.238  17.788
 1749TIP3    H229443   7.638   2.093  17.829
 1750TIP3   OH229444   7.773   2.201  17.392
 1750TIP3    H129445   7.693   2.165  17.430
 1750TIP3    H229446   7.752   2.214  17.299
 1751TIP3   OH229447   6.358   4.205  17.500
 1751TIP3    H129448   6.326   4.119  17.473
 1751TIP3    H229449   6.402   4.240  17.423
 1752TIP3   OH229450   8.117   3.887  17.442
 1752TIP3    H129451   8.104   3.796  17.417
 1752TIP3    H229452   8.118   3.936  17.360
 1753TIP3   OH229453   6.531   2.131  18.650
 1753TIP3    H129454   6.466   2.063  18.664
 1753TIP3    H229455   6.608   2.102  18.700
 1754TIP3   OH229456   6.723   2.041  18.835
 1754TIP3    H129457   6.792   1.979  18.811
 1754TIP3    H229458   6.656   1.987  18.877
 1755TIP3   OH229459   6.566   4.143  17.119
 1755TIP3    H129460   6.651   4.139  17.075
 1755TIP3    H229461   6.521   4.063  17.093
 1756TIP3   OH229462   7.670   2.082  18.761
 1756TIP3    H129463   7.656   2.019  18.832
 1756TIP3    H229464   7.758   2.062  18.728
 1757TIP3   OH229465   7.917   3.828  18.680
 1757TIP3    H129466   7.872   3.809  18.597
 1757TIP3    H229467   7.918   3.924  18.684
 1758TIP3   OH229468   8.324   2.853  17.546
 1758TIP3    H129469   8.278   2.927  17.586
 1758TIP3    H229470   8.255   2.803  17.503
 1759TIP3   OH229471   8.378   3.273  18.267
 1759TIP3    H129472   8.333   3.337  18.212
 1759TIP3    H229473   8.407   3.205  18.206
 1760TIP3   OH229474   8.372   3.693  18.060
 1760TIP3    H129475   0.018   3.694  18.071
 1760TIP3    H229476   8.339   3.753  18.127
 1761TIP3   OH229477   8.327   2.374  17.592
 1761TIP3    H129478   8.403   2.420  17.630
 1761TIP3    H229479   8.312   2.418  17.508
 1762TIP3   OH229480   8.361   2.973  18.434
 1762TIP3    H129481   8.304   2.919  18.488
 1762TIP3    H229482   8.308   2.996  18.358
 1763TIP3   OH229483   8.363   3.361  18.759
 1763TIP3    H129484   8.283   3.377  18.809
 1763TIP3    H229485   8.333   3.337  18.671
 1764TIP3   OH229486   8.262   4.030  17.637
 1764TIP3    H129487   8.211   3.973  17.579
 1764TIP3    H229488   8.285   3.974  17.711
 1765TIP3   OH229489   8.365   3.902  17.869
 1765TIP3    H129490   8.366   3.813  17.903
 1765TIP3    H229491   8.327   3.954  17.941
 1766TIP3   OH229492   8.441   3.068  18.075
 1766TIP3    H129493   0.023   2.978  18.065
 1766TIP3    H229494   0.056   3.120  18.025
 1767TIP3   OH229495   8.309   2.566  18.577
 1767TIP3    H129496   8.399   2.536  18.585
 1767TIP3    H229497   8.258   2.500  18.625
 1768TIP3   OH229498   8.287   2.762  18.073
 1768TIP3    H129499   8.381   2.767  18.057
 1768TIP3    H229500   8.266   2.843  18.121
 1769TIP3   OH229501   8.183   2.474  17.343
 1769TIP3    H129502   8.113   2.428  17.390
 1769TIP3    H229503   8.172   2.446  17.252
 1770TIP3   OH229504   8.289   2.123  18.271
 1770TIP3    H129505   8.228   2.107  18.344
 1770TIP3    H229506   8.259   2.205  18.233
 1771TIP3   OH229507   1.374   5.271  17.586
 1771TIP3    H129508   1.334   5.355  17.609
 1771TIP3    H229509   1.314   5.232  17.523
 1772TIP3   OH229510   1.115   5.101  18.138
 1772TIP3    H129511   1.194   5.077  18.187
 1772TIP3    H229512   1.114   5.042  18.063
 1773TIP3   OH229513   0.381   5.083  18.186
 1773TIP3    H129514   0.375   4.991  18.212
 1773TIP3    H229515   0.413   5.128  18.264
 1774TIP3   OH229516   1.715   5.525  17.849
 1774TIP3    H129517   1.723   5.439  17.889
 1774TIP3    H229518   1.702   5.585  17.922
 1775TIP3   OH229519   0.545   5.536  17.990
 1775TIP3    H129520   0.512   5.446  17.985
 1775TIP3    H229521   0.640   5.528  17.984
 1776TIP3   OH229522   0.124   4.888  17.561
 1776TIP3    H129523   0.060   4.889  17.489
 1776TIP3    H229524   0.128   4.797  17.588
 1777TIP3   OH229525   0.163   5.052  17.773
 1777TIP3    H129526   0.153   4.999  17.693
 1777TIP3    H229527   0.137   5.140  17.747
 1778TIP3   OH229528   1.354   5.953  17.802
 1778TIP3    H129529   1.422   5.908  17.751
 1778TIP3    H229530   1.272   5.911  17.776
 1779TIP3   OH229531   1.029   5.375  18.093
 1779TIP3    H129532   1.061   5.284  18.093
 1779TIP3    H229533   1.100   5.425  18.132
 1780TIP3   OH229534   2.181   4.466  18.242
 1780TIP3    H129535   2.108   4.526  18.255
 1780TIP3    H229536   2.212   4.485  18.153
 1781TIP3   OH229537   1.440   4.828  18.017
 1781TIP3    H129538   1.441   4.735  18.040
 1781TIP3    H229539   1.399   4.830  17.930
 1782TIP3   OH229540   1.553   4.705  17.654
 1782TIP3    H129541   1.596   4.675  17.734
 1782TIP3    H229542   1.625   4.728  17.596
 1783TIP3   OH229543   1.987   4.646  18.336
 1783TIP3    H129544   1.945   4.730  18.320
 1783TIP3    H229545   2.036   4.658  18.417
 1784TIP3   OH229546   0.505   4.519  18.196
 1784TIP3    H129547   0.499   4.568  18.115
 1784TIP3    H229548   0.420   4.533  18.239
 1785TIP3   OH229549   1.211   5.501  17.589
 1785TIP3    H129550   1.188   5.511  17.497
 1785TIP3    H229551   1.224   5.590  17.621
 1786TIP3   OH229552   0.785   5.320  18.212
 1786TIP3    H129553   0.736   5.395  18.244
 1786TIP3    H229554   0.864   5.357  18.174
 1787TIP3   OH229555   1.705   4.635  17.869
 1787TIP3    H129556   1.728   4.547  17.898
 1787TIP3    H229557   1.757   4.693  17.925
 1788TIP3   OH229558   0.558   4.630  17.943
 1788TIP3    H129559   0.577   4.716  17.980
 1788TIP3    H229560   0.641   4.600  17.906
 1789TIP3   OH229561   0.663   5.558  18.295
 1789TIP3    H129562   0.671   5.626  18.229
 1789TIP3    H229563   0.572   5.564  18.325
 1790TIP3   OH229564   0.300   5.595  17.434
 1790TIP3    H129565   0.259   5.596  17.347
 1790TIP3    H229566   0.283   5.683  17.469
 1791TIP3   OH229567   1.654   5.714  18.055
 1791TIP3    H129568   1.568   5.703  18.094
 1791TIP3    H229569   1.649   5.797  18.007
 1792TIP3   OH229570   1.556   4.305  18.188
 1792TIP3    H129571   1.524   4.395  18.183
 1792TIP3    H229572   1.548   4.271  18.099
 1793TIP3   OH229573   0.852   4.186  18.021
 1793TIP3    H129574   0.834   4.135  17.941
 1793TIP3    H229575   0.769   4.228  18.041
 1794TIP3   OH229576   1.506   5.820  17.604
 1794TIP3    H129577   1.549   5.736  17.591
 1794TIP3    H229578   1.577   5.882  17.620
 1795TIP3   OH229579   1.683   5.602  17.584
 1795TIP3    H129580   1.700   5.523  17.532
 1795TIP3    H229581   1.696   5.574  17.674
 1796TIP3   OH229582   1.805   5.515  18.414
 1796TIP3    H129583   1.820   5.460  18.337
 1796TIP3    H229584   1.791   5.603  18.378
 1797TIP3   OH229585   1.202   5.190  17.381
 1797TIP3    H129586   1.146   5.265  17.363
 1797TIP3    H229587   1.251   5.177  17.299
 1798TIP3   OH229588   1.985   5.120  18.247
 1798TIP3    H129589   1.931   5.199  18.238
 1798TIP3    H229590   2.048   5.127  18.175
 1799TIP3   OH229591   1.603   5.153  17.492
 1799TIP3    H129592   1.532   5.193  17.541
 1799TIP3    H229593   1.655   5.106  17.557
 1800TIP3   OH229594   1.566   4.918  18.430
 1800TIP3    H129595   1.572   4.998  18.482
 1800TIP3    H229596   1.495   4.935  18.368
 1801TIP3   OH229597   0.835   5.550  17.973
 1801TIP3    H129598   0.852   5.574  17.882
 1801TIP3    H229599   0.906   5.490  17.996
 1802TIP3   OH229600   0.719   5.121  18.031
 1802TIP3    H129601   0.806   5.088  18.012
 1802TIP3    H229602   0.733   5.189  18.097
 1803TIP3   OH229603   1.414   5.707  18.187
 1803TIP3    H129604   1.371   5.791  18.203
 1803TIP3    H229605   1.344   5.643  18.196
 1804TIP3   OH229606   0.810   5.663  18.503
 1804TIP3    H129607   0.736   5.715  18.536
 1804TIP3    H229608   0.774   5.618  18.426
 1805TIP3   OH229609   0.460   5.173  18.436
 1805TIP3    H129610   0.484   5.250  18.488
 1805TIP3    H229611   0.369   5.157  18.458
 1806TIP3   OH229612   1.223   5.780  17.606
 1806TIP3    H129613   1.314   5.797  17.584
 1806TIP3    H229614   1.174   5.805  17.527
 1807TIP3   OH229615   0.578   5.800  18.557
 1807TIP3    H129616   0.598   5.866  18.490
 1807TIP3    H229617   0.516   5.741  18.515
 1808TIP3   OH229618   1.828   4.162  17.348
 1808TIP3    H129619   1.749   4.204  17.381
 1808TIP3    H229620   1.895   4.231  17.351
 1809TIP3   OH229621   0.197   5.423  18.444
 1809TIP3    H129622   0.116   5.425  18.392
 1809TIP3    H229623   0.204   5.333  18.474
 1810TIP3   OH229624   0.097   5.801  18.077
 1810TIP3    H129625   0.150   5.791  17.998
 1810TIP3    H229626   0.152   5.850  18.138
 1811TIP3   OH229627   1.975   5.798  18.646
 1811TIP3    H129628   1.989   5.703  18.638
 1811TIP3    H229629   1.884   5.806  18.674
 1812TIP3   OH229630   1.044   5.797  18.450
 1812TIP3    H129631   1.055   5.876  18.503
 1812TIP3    H229632   0.960   5.762  18.477
 1813TIP3   OH229633   1.124   6.185  17.472
 1813TIP3    H129634   1.106   6.138  17.390
 1813TIP3    H229635   1.039   6.219  17.500
 1814TIP3   OH229636   1.394   6.204  17.522
 1814TIP3    H129637   1.299   6.212  17.508
 1814TIP3    H229638   1.412   6.111  17.509
 1815TIP3   OH229639   1.758   4.803  18.603
 1815TIP3    H129640   1.690   4.841  18.547
 1815TIP3    H229641   1.764   4.712  18.575
 1816TIP3   OH229642   0.428   5.578  18.455
 1816TIP3    H129643   0.464   5.512  18.513
 1816TIP3    H229644   0.344   5.542  18.426
 1817TIP3   OH229645   0.598   4.292  18.066
 1817TIP3    H129646   0.548   4.288  17.985
 1817TIP3    H229647   0.569   4.372  18.109
 1818TIP3   OH229648   1.097   4.306  18.385
 1818TIP3    H129649   1.131   4.234  18.438
 1818TIP3    H229650   1.004   4.311  18.408
 1819TIP3   OH229651   1.493   4.629  18.468
 1819TIP3    H129652   1.461   4.630  18.559
 1819TIP3    H229653   1.505   4.721  18.446
 1820TIP3   OH229654   0.582   4.874  18.056
 1820TIP3    H129655   0.529   4.866  18.135
 1820TIP3    H229656   0.620   4.962  18.062
 1821TIP3   OH229657   1.263   4.946  17.506
 1821TIP3    H129658   1.220   5.026  17.477
 1821TIP3    H229659   1.341   4.939  17.451
 1822TIP3   OH229660   1.087   4.855  18.634
 1822TIP3    H129661   1.050   4.784  18.687
 1822TIP3    H229662   1.171   4.874  18.675
 1823TIP3   OH229663   1.331   4.843  17.756
 1823TIP3    H129664   1.295   4.883  17.677
 1823TIP3    H229665   1.402   4.787  17.724
 1824TIP3   OH229666   0.407   4.819  18.281
 1824TIP3    H129667   0.451   4.809  18.365
 1824TIP3    H229668   0.342   4.748  18.279
 1825TIP3   OH229669   0.135   4.634  17.678
 1825TIP3    H129670   0.201   4.591  17.734
 1825TIP3    H229671   0.145   4.592  17.593
 1826TIP3   OH229672   0.119   4.684  17.194
 1826TIP3    H129673   0.206   4.673  17.156
 1826TIP3    H229674   0.126   4.647  17.282
 1827TIP3   OH229675   1.345   4.948  18.252
 1827TIP3    H129676   1.375   4.909  18.170
 1827TIP3    H229677   1.273   4.892  18.280
 1828TIP3   OH229678   1.394   4.561  18.099
 1828TIP3    H129679   1.333   4.558  18.173
 1828TIP3    H229680   1.355   4.503  18.033
 1829TIP3   OH229681   1.758   6.182  18.719
 1829TIP3    H129682   1.771   6.220  18.632
 1829TIP3    H229683   1.834   6.212  18.770
 1830TIP3   OH229684   0.495   5.371  18.628
 1830TIP3    H129685   0.570   5.365  18.686
 1830TIP3    H229686   0.419   5.357  18.684
 1831TIP3   OH229687   1.127   4.910  17.940
 1831TIP3    H129688   1.196   4.903  17.874
 1831TIP3    H229689   1.092   4.820  17.947
 1832TIP3   OH229690   0.862   4.789  18.292
 1832TIP3    H129691   0.850   4.883  18.285
 1832TIP3    H229692   0.956   4.777  18.305
 1833TIP3   OH229693   0.851   5.408  17.353
 1833TIP3    H129694   0.790   5.336  17.339
 1833TIP3    H229695   0.881   5.398  17.443
 1834TIP3   OH229696   1.864   5.363  18.188
 1834TIP3    H129697   1.945   5.398  18.152
 1834TIP3    H229698   1.811   5.342  18.111
 1835TIP3   OH229699   1.415   4.715  17.278
 1835TIP3    H129700   1.324   4.725  17.249
 1835TIP3    H229701   1.446   4.804  17.293
 1836TIP3   OH229702   1.156   5.548  18.501
 1836TIP3    H129703   1.246   5.565  18.529
 1836TIP3    H229704   1.120   5.635  18.481
 1837TIP3   OH229705   1.474   4.986  17.316
 1837TIP3    H129706   1.520   5.044  17.377
 1837TIP3    H229707   1.425   5.045  17.259
 1838TIP3   OH229708   0.484   5.260  17.990
 1838TIP3    H129709   0.568   5.214  17.992
 1838TIP3    H229710   0.429   5.214  18.053
 1839TIP3   OH229711   1.098   5.553  17.344
 1839TIP3    H129712   1.081   5.647  17.346
 1839TIP3    H229713   1.013   5.513  17.326
 1840TIP3   OH229714   0.196   5.148  18.514
 1840TIP3    H129715   0.215   5.102  18.596
 1840TIP3    H229716   0.107   5.124  18.492
 1841TIP3   OH229717   0.872   5.037  18.694
 1841TIP3    H129718   0.805   5.027  18.627
 1841TIP3    H229719   0.945   4.983  18.663
 1842TIP3   OH229720   1.415   5.633  18.554
 1842TIP3    H129721   1.454   5.707  18.508
 1842TIP3    H229722   1.396   5.667  18.642
 1843TIP3   OH229723   2.014   4.764  17.339
 1843TIP3    H129724   2.057   4.691  17.295
 1843TIP3    H229725   2.043   4.841  17.290
 1844TIP3   OH229726   2.033   5.533  18.571
 1844TIP3    H129727   1.948   5.523  18.527
 1844TIP3    H229728   2.095   5.486  18.515
 1845TIP3   OH229729   1.833   5.791  17.438
 1845TIP3    H129730   1.786   5.741  17.505
 1845TIP3    H229731   1.816   5.743  17.357
 1846TIP3   OH229732   1.695   5.268  17.978
 1846TIP3    H129733   1.601   5.282  17.971
 1846TIP3    H229734   1.708   5.175  17.959
 1847TIP3   OH229735   0.853   5.651  17.710
 1847TIP3    H129736   0.911   5.719  17.678
 1847TIP3    H229737   0.766   5.680  17.684
 1848TIP3   OH229738   0.133   5.257  17.279
 1848TIP3    H129739   0.221   5.285  17.304
 1848TIP3    H229740   0.121   5.291  17.190
 1849TIP3   OH229741   0.947   5.409  17.608
 1849TIP3    H129742   0.910   5.486  17.653
 1849TIP3    H229743   1.042   5.420  17.617
 1850TIP3   OH229744   0.930   5.940  18.239
 1850TIP3    H129745   0.990   6.011  18.216
 1850TIP3    H229746   0.980   5.886  18.301
 1851TIP3   OH229747   1.239   5.485  18.244
 1851TIP3    H129748   1.198   5.500  18.329
 1851TIP3    H229749   1.311   5.426  18.262
 1852TIP3   OH229750   1.755   5.609  17.240
 1852TIP3    H129751   1.760   5.530  17.294
 1852TIP3    H229752   1.669   5.604  17.199
 1853TIP3   OH229753   1.564   5.951  18.411
 1853TIP3    H129754   1.483   5.943  18.362
 1853TIP3    H229755   1.600   6.036  18.385
 1854TIP3   OH229756   0.256   4.558  18.326
 1854TIP3    H129757   0.224   4.573  18.415
 1854TIP3    H229758   0.211   4.479  18.297
 1855TIP3   OH229759   1.749   5.377  17.403
 1855TIP3    H129760   1.685   5.309  17.425
 1855TIP3    H229761   1.832   5.331  17.396
 1856TIP3   OH229762   0.303   5.949  18.198
 1856TIP3    H129763   0.372   5.893  18.162
 1856TIP3    H229764   0.339   5.981  18.281
 1857TIP3   OH229765   0.713   5.624  17.252
 1857TIP3    H129766   0.761   5.547  17.284
 1857TIP3    H229767   0.716   5.686  17.325
 1858TIP3   OH229768   0.411   5.363  17.331
 1858TIP3    H129769   0.376   5.432  17.387
 1858TIP3    H229770   0.430   5.407  17.248
 1859TIP3   OH229771   1.245   4.541  18.338
 1859TIP3    H129772   1.328   4.532  18.386
 1859TIP3    H229773   1.200   4.458  18.354
 1860TIP3   OH229774   1.437   4.524  17.478
 1860TIP3    H129775   1.430   4.581  17.402
 1860TIP3    H229776   1.471   4.580  17.548
 1861TIP3   OH229777   1.046   5.827  17.386
 1861TIP3    H129778   0.952   5.836  17.402
 1861TIP3    H229779   1.068   5.903  17.331
 1862TIP3   OH229780   0.982   4.592  17.583
 1862TIP3    H129781   0.991   4.646  17.505
 1862TIP3    H229782   0.887   4.582  17.595
 1863TIP3   OH229783   1.136   4.794  18.358
 1863TIP3    H129784   1.119   4.811  18.451
 1863TIP3    H229785   1.168   4.704  18.355
 1864TIP3   OH229786   1.221   4.472  17.667
 1864TIP3    H129787   1.139   4.511  17.637
 1864TIP3    H229788   1.279   4.478  17.592
 1865TIP3   OH229789   0.771   5.867  17.395
 1865TIP3    H129790   0.764   5.895  17.303
 1865TIP3    H229791   0.744   5.944  17.445
 1866TIP3   OH229792   1.768   4.549  18.494
 1866TIP3    H129793   1.678   4.542  18.463
 1866TIP3    H229794   1.820   4.554  18.413
 1867TIP3   OH229795   1.666   4.984  17.936
 1867TIP3    H129796   1.584   4.943  17.962
 1867TIP3    H229797   1.734   4.925  17.968
 1868TIP3   OH229798   0.503   5.510  17.107
 1868TIP3    H129799   0.573   5.555  17.154
 1868TIP3    H229800   0.537   5.496  17.019
 1869TIP3   OH229801   1.758   6.057  18.093
 1869TIP3    H129802   1.741   6.099  18.009
 1869TIP3    H229803   1.853   6.057  18.101
 1870TIP3   OH229804   0.455   4.278  17.827
 1870TIP3    H129805   0.486   4.297  17.738
 1870TIP3    H229806   0.432   4.185  17.824
 1871TIP3   OH229807   0.278   5.868  17.515
 1871TIP3    H129808   0.237   5.932  17.456
 1871TIP3    H229809   0.369   5.899  17.524
 1872TIP3   OH229810   0.230   6.122  18.797
 1872TIP3    H129811   0.307   6.084  18.841
 1872TIP3    H229812   0.156   6.077  18.837
 1873TIP3   OH229813   0.638   5.844  18.823
 1873TIP3    H129814   0.732   5.828  18.829
 1873TIP3    H229815   0.619   5.841  18.730
 1874TIP3   OH229816   1.348   5.728  18.805
 1874TIP3    H129817   1.349   5.649  18.859
 1874TIP3    H229818   1.420   5.781  18.838
 1875TIP3   OH229819   0.242   5.332  18.763
 1875TIP3    H129820   0.247   5.237  18.750
 1875TIP3    H229821   0.149   5.351  18.775
 1876TIP3   OH229822   0.928   5.488  18.674
 1876TIP3    H129823   0.886   5.543  18.608
 1876TIP3    H229824   1.015   5.471  18.640
 1877TIP3   OH229825   1.574   5.401  18.527
 1877TIP3    H129826   1.655   5.440  18.494
 1877TIP3    H229827   1.515   5.475  18.540
 1878TIP3   OH229828   0.280   5.054  18.762
 1878TIP3    H129829   0.317   4.967  18.749
 1878TIP3    H229830   0.287   5.069  18.857
 1879TIP3   OH229831   0.646   5.220  17.317
 1879TIP3    H129832   0.566   5.270  17.334
 1879TIP3    H229833   0.629   5.176  17.234
 1880TIP3   OH229834   0.687   5.016  18.487
 1880TIP3    H129835   0.611   5.070  18.465
 1880TIP3    H229836   0.750   5.033  18.417
 1881TIP3   OH229837   1.275   5.298  18.832
 1881TIP3    H129838   1.332   5.266  18.761
 1881TIP3    H229839   1.237   5.218  18.869
 1882TIP3   OH229840   0.553   4.775  18.520
 1882TIP3    H129841   0.607   4.702  18.492
 1882TIP3    H229842   0.611   4.851  18.515
 1883TIP3   OH229843   0.704   4.578  18.383
 1883TIP3    H129844   0.762   4.644  18.344
 1883TIP3    H229845   0.642   4.557  18.313
 1884TIP3   OH229846   0.876   5.072  18.290
 1884TIP3    H129847   0.964   5.073  18.253
 1884TIP3    H229848   0.843   5.161  18.276
 1885TIP3   OH229849   1.337   4.885  18.769
 1885TIP3    H129850   1.355   4.792  18.759
 1885TIP3    H229851   1.423   4.927  18.767
 1886TIP3   OH229852   1.623   5.139  18.591
 1886TIP3    H129853   1.596   5.227  18.566
 1886TIP3    H229854   1.718   5.145  18.602
 1887TIP3   OH229855   0.400   4.801  18.756
 1887TIP3    H129856   0.369   4.711  18.772
 1887TIP3    H229857   0.453   4.795  18.677
 1888TIP3   OH229858   0.817   4.321  18.433
 1888TIP3    H129859   0.782   4.410  18.421
 1888TIP3    H229860   0.755   4.265  18.388
 1889TIP3   OH229861   0.996   4.657  18.802
 1889TIP3    H129862   1.048   4.614  18.870
 1889TIP3    H229863   0.913   4.609  18.802
 1890TIP3   OH229864   1.387   4.617  18.727
 1890TIP3    H129865   1.308   4.564  18.729
 1890TIP3    H229866   1.449   4.570  18.782
 1891TIP3   OH229867   1.530   4.459  18.900
 1891TIP3    H129868   1.536   4.364  18.888
 1891TIP3    H229869   1.480   4.469  18.981
 1892TIP3   OH229870   0.322   4.540  18.810
 1892TIP3    H129871   0.319   4.456  18.763
 1892TIP3    H229872   0.353   4.518  18.897
 1893TIP3   OH229873   0.795   4.205  18.681
 1893TIP3    H129874   0.859   4.134  18.678
 1893TIP3    H229875   0.803   4.249  18.597
 1894TIP3   OH229876   0.955   4.277  18.913
 1894TIP3    H129877   0.944   4.222  18.836
 1894TIP3    H229878   0.892   4.349  18.901
 1895TIP3   OH229879   0.232   5.558  17.169
 1895TIP3    H129880   0.320   5.551  17.132
 1895TIP3    H229881   0.180   5.496  17.118
 1896TIP3   OH229882   0.036   6.254  17.563
 1896TIP3    H129883   8.389   6.250  17.568
 1896TIP3    H229884   0.066   6.178  17.612
 1897TIP3   OH229885   0.123   6.016  17.707
 1897TIP3    H129886   0.164   5.962  17.640
 1897TIP3    H229887   0.183   6.012  17.781
 1898TIP3   OH229888   2.037   6.060  18.105
 1898TIP3    H129889   2.066   5.974  18.136
 1898TIP3    H229890   2.068   6.065  18.015
 1899TIP3   OH229891   1.949   5.945  18.413
 1899TIP3    H129892   1.890   5.895  18.358
 1899TIP3    H229893   1.966   5.888  18.488
 1900TIP3   OH229894   1.900   5.545  18.921
 1900TIP3    H129895   1.807   5.555  18.939
 1900TIP3    H229896   1.941   5.623  18.959
 1901TIP3   OH229897   1.974   5.207  17.390
 1901TIP3    H129898   2.049   5.267  17.391
 1901TIP3    H229899   1.990   5.148  17.463
 1902TIP3   OH229900   2.027   5.045  17.614
 1902TIP3    H129901   1.936   5.035  17.644
 1902TIP3    H229902   2.076   5.071  17.692
 1903TIP3   OH229903   2.137   5.421  18.142
 1903TIP3    H129904   2.172   5.347  18.093
 1903TIP3    H229905   2.201   5.492  18.129
 1904TIP3   OH229906   1.757   5.770  18.309
 1904TIP3    H129907   1.685   5.824  18.339
 1904TIP3    H229908   1.735   5.750  18.218
 1905TIP3   OH229909   1.948   5.072  17.149
 1905TIP3    H129910   1.975   5.136  17.083
 1905TIP3    H229911   1.961   5.116  17.233
 1906TIP3   OH229912   1.695   4.946  17.151
 1906TIP3    H129913   1.764   5.005  17.181
 1906TIP3    H229914   1.624   4.956  17.214
 1907TIP3   OH229915   1.757   4.991  17.666
 1907TIP3    H129916   1.763   4.902  17.631
 1907TIP3    H229917   1.719   4.979  17.753
 1908TIP3   OH229918   0.142   5.115  18.046
 1908TIP3    H129919   0.167   5.091  17.957
 1908TIP3    H229920   0.223   5.109  18.096
 1909TIP3   OH229921   1.900   5.167  18.631
 1909TIP3    H129922   1.939   5.080  18.636
 1909TIP3    H229923   1.959   5.216  18.574
 1910TIP3   OH229924   2.013   4.911  18.597
 1910TIP3    H129925   1.923   4.879  18.599
 1910TIP3    H229926   2.067   4.832  18.605
 1911TIP3   OH229927   1.798   4.742  17.524
 1911TIP3    H129928   1.805   4.648  17.538
 1911TIP3    H229929   1.865   4.762  17.459
 1912TIP3   OH229930   1.851   4.804  18.032
 1912TIP3    H129931   1.944   4.819  18.015
 1912TIP3    H229932   1.843   4.813  18.127
 1913TIP3   OH229933   1.840   4.882  18.299
 1913TIP3    H129934   1.754   4.905  18.334
 1913TIP3    H229935   1.885   4.965  18.288
 1914TIP3   OH229936   0.139   4.524  18.591
 1914TIP3    H129937   0.180   4.567  18.666
 1914TIP3    H229938   0.174   4.435  18.593
 1915TIP3   OH229939   2.031   4.224  18.818
 1915TIP3    H129940   2.109   4.180  18.783
 1915TIP3    H229941   2.022   4.303  18.765
 1916TIP3   OH229942   1.811   4.463  17.540
 1916TIP3    H129943   1.852   4.414  17.611
 1916TIP3    H229944   1.736   4.410  17.514
 1917TIP3   OH229945   0.326   4.523  17.839
 1917TIP3    H129946   0.354   4.431  17.829
 1917TIP3    H229947   0.402   4.567  17.877
 1918TIP3   OH229948   0.032   4.814  17.872
 1918TIP3    H129949   0.063   4.748  17.810
 1918TIP3    H229950   0.079   4.894  17.849
 1919TIP3   OH229951   1.944   4.461  18.691
 1919TIP3    H129952   1.897   4.492  18.768
 1919TIP3    H229953   1.882   4.473  18.619
 1920TIP3   OH229954   0.118   4.519  17.427
 1920TIP3    H129955   0.031   4.488  17.403
 1920TIP3    H229956   0.177   4.447  17.405
 1921TIP3   OH229957   1.714   5.981  17.676
 1921TIP3    H129958   1.801   5.985  17.635
 1921TIP3    H229959   1.716   6.050  17.742
 1922TIP3   OH229960   0.121   4.308  18.275
 1922TIP3    H129961   0.029   4.288  18.288
 1922TIP3    H229962   0.139   4.281  18.185
 1923TIP3   OH229963   0.295   5.603  18.724
 1923TIP3    H129964   0.295   5.640  18.635
 1923TIP3    H229965   0.267   5.512  18.712
 1924TIP3   OH229966   0.667   5.974  18.364
 1924TIP3    H129967   0.642   6.064  18.344
 1924TIP3    H229968   0.750   5.961  18.317
 1925TIP3   OH229969   1.089   6.027  18.599
 1925TIP3    H129970   1.094   5.979  18.681
 1925TIP3    H229971   1.167   6.082  18.598
 1926TIP3   OH229972   1.303   6.201  18.598
 1926TIP3    H129973   1.368   6.195  18.528
 1926TIP3    H229974   1.354   6.220  18.677
 1927TIP3   OH229975   1.907   4.089  18.452
 1927TIP3    H129976   1.824   4.091  18.404
 1927TIP3    H229977   1.948   4.006  18.427
 1928TIP3   OH229978   0.350   6.311  18.414
 1928TIP3    H129979   0.265   6.343  18.385
 1928TIP3    H229980   0.350   6.325  18.508
 1929TIP3   OH229981   0.588   6.235  18.303
 1929TIP3    H129982   0.508   6.257  18.350
 1929TIP3    H229983   0.577   6.275  18.217
 1930TIP3   OH229984   1.124   6.146  18.197
 1930TIP3    H129985   1.126   6.202  18.119
 1930TIP3    H229986   1.117   6.207  18.270
 1931TIP3   OH229987   1.350   5.979  18.225
 1931TIP3    H129988   1.267   6.026  18.227
 1931TIP3    H229989   1.394   6.012  18.146
 1932TIP3   OH229990   1.639   6.193  18.296
 1932TIP3    H129991   1.595   6.267  18.254
 1932TIP3    H229992   1.679   6.145  18.224
 1933TIP3   OH229993   0.299   5.978  17.919
 1933TIP3    H129994   0.279   6.000  18.009
 1933TIP3    H229995   0.376   5.921  17.924
 1934TIP3   OH229996   0.483   5.799  18.051
 1934TIP3    H129997   0.478   5.708  18.022
 1934TIP3    H229998   0.574   5.810  18.079
 1935TIP3   OH229999   0.745   5.765  18.125
 1935TIP3    H130000   0.789   5.700  18.070
 1935TIP3    H230001   0.816   5.824  18.153
 1936TIP3   OH230002   1.276   4.387  17.918
 1936TIP3    H130003   1.208   4.321  17.931
 1936TIP3    H230004   1.260   4.422  17.831
 1937TIP3   OH230005   1.769   4.159  17.864
 1937TIP3    H130006   1.825   4.223  17.819
 1937TIP3    H230007   1.686   4.204  17.875
 1938TIP3   OH230008   1.955   4.314  17.725
 1938TIP3    H130009   2.013   4.239  17.708
 1938TIP3    H230010   2.012   4.382  17.759
 1939TIP3   OH230011   0.192   4.022  17.104
 1939TIP3    H130012   0.153   4.018  17.016
 1939TIP3    H230013   0.126   3.981  17.161
 1940TIP3   OH230014   0.695   4.183  17.575
 1940TIP3    H130015   0.783   4.218  17.584
 1940TIP3    H230016   0.638   4.260  17.577
 1941TIP3   OH230017   1.513   4.241  17.921
 1941TIP3    H130018   1.438   4.300  17.910
 1941TIP3    H230019   1.478   4.155  17.899
 1942TIP3   OH230020   1.598   4.300  17.434
 1942TIP3    H130021   1.539   4.373  17.448
 1942TIP3    H230022   1.544   4.222  17.450
 1943TIP3   OH230023   0.183   6.077  17.374
 1943TIP3    H130024   0.137   6.157  17.398
 1943TIP3    H230025   0.237   6.102  17.299
 1944TIP3   OH230026   1.971   6.019  17.498
 1944TIP3    H130027   1.920   5.942  17.472
 1944TIP3    H230028   1.917   6.094  17.472
 1945TIP3   OH230029   0.316   4.294  18.678
 1945TIP3    H130030   0.289   4.204  18.660
 1945TIP3    H230031   0.406   4.286  18.711
 1946TIP3   OH230032   0.559   4.243  18.813
 1946TIP3    H130033   0.641   4.227  18.767
 1946TIP3    H230034   0.528   4.155  18.837
 1947TIP3   OH230035   1.565   4.191  18.857
 1947TIP3    H130036   1.525   4.114  18.897
 1947TIP3    H230037   1.638   4.156  18.806
 1948TIP3   OH230038   1.709   5.910  18.667
 1948TIP3    H130039   1.661   5.916  18.585
 1948TIP3    H230040   1.727   6.001  18.691
 1949TIP3   OH230041   3.486   5.275  17.784
 1949TIP3    H130042   3.418   5.341  17.799
 1949TIP3    H230043   3.446   5.213  17.723
 1950TIP3   OH230044   3.415   5.254  18.129
 1950TIP3    H130045   3.419   5.176  18.183
 1950TIP3    H230046   3.378   5.224  18.046
 1951TIP3   OH230047   2.435   5.067  18.147
 1951TIP3    H130048   2.444   4.983  18.193
 1951TIP3    H230049   2.523   5.088  18.117
 1952TIP3   OH230050   3.784   5.571  17.893
 1952TIP3    H130051   3.737   5.494  17.926
 1952TIP3    H230052   3.766   5.639  17.958
 1953TIP3   OH230053   2.606   5.621  18.037
 1953TIP3    H130054   2.592   5.534  17.999
 1953TIP3    H230055   2.696   5.644  18.011
 1954TIP3   OH230056   2.150   4.793  17.579
 1954TIP3    H130057   2.114   4.880  17.596
 1954TIP3    H230058   2.105   4.764  17.500
 1955TIP3   OH230059   2.252   5.084  17.795
 1955TIP3    H130060   2.291   5.000  17.822
 1955TIP3    H230061   2.310   5.116  17.726
 1956TIP3   OH230062   3.395   5.890  17.832
 1956TIP3    H130063   3.467   5.939  17.793
 1956TIP3    H230064   3.430   5.857  17.915
 1957TIP3   OH230065   3.065   5.478  18.014
 1957TIP3    H130066   3.107   5.448  17.934
 1957TIP3    H230067   3.137   5.508  18.070
 1958TIP3   OH230068   4.073   4.413  18.179
 1958TIP3    H130069   4.048   4.499  18.214
 1958TIP3    H230070   4.125   4.432  18.101
 1959TIP3   OH230071   3.353   4.840  18.006
 1959TIP3    H130072   3.376   4.749  18.024
 1959TIP3    H230073   3.265   4.836  17.970
 1960TIP3   OH230074   2.709   4.575  17.767
 1960TIP3    H130075   2.704   4.655  17.715
 1960TIP3    H230076   2.644   4.517  17.728
 1961TIP3   OH230077   2.359   4.840  17.889
 1961TIP3    H130078   2.426   4.800  17.945
 1961TIP3    H230079   2.370   4.795  17.805
 1962TIP3   OH230080   2.779   5.013  17.808
 1962TIP3    H130081   2.869   4.982  17.802
 1962TIP3    H230082   2.728   4.949  17.758
 1963TIP3   OH230083   4.003   4.660  18.288
 1963TIP3    H130084   3.955   4.736  18.255
 1963TIP3    H230085   4.081   4.697  18.330
 1964TIP3   OH230086   2.619   4.498  18.201
 1964TIP3    H130087   2.597   4.552  18.126
 1964TIP3    H230088   2.546   4.509  18.262
 1965TIP3   OH230089   3.249   5.428  17.798
 1965TIP3    H130090   3.214   5.389  17.718
 1965TIP3    H230091   3.250   5.522  17.780
 1966TIP3   OH230092   2.863   5.320  18.167
 1966TIP3    H130093   2.809   5.388  18.207
 1966TIP3    H230094   2.928   5.369  18.116
 1967TIP3   OH230095   2.573   4.670  17.987
 1967TIP3    H130096   2.635   4.732  18.024
 1967TIP3    H230097   2.619   4.631  17.913
 1968TIP3   OH230098   2.681   5.500  18.294
 1968TIP3    H130099   2.642   5.549  18.221
 1968TIP3    H230100   2.607   5.458  18.337
 1969TIP3   OH230101   2.193   5.367  17.417
 1969TIP3    H130102   2.272   5.353  17.366
 1969TIP3    H230103   2.216   5.436  17.480
 1970TIP3   OH230104   3.714   5.764  18.086
 1970TIP3    H130105   3.619   5.772  18.086
 1970TIP3    H230106   3.746   5.853  18.067
 1971TIP3   OH230107   3.849   4.249  18.205
 1971TIP3    H130108   3.785   4.294  18.149
 1971TIP3    H230109   3.931   4.297  18.192
 1972TIP3   OH230110   2.925   4.140  17.931
 1972TIP3    H130111   2.906   4.048  17.949
 1972TIP3    H230112   2.856   4.188  17.977
 1973TIP3   OH230113   3.596   6.023  17.679
 1973TIP3    H130114   3.605   5.954  17.613
 1973TIP3    H230115   3.579   6.102  17.628
 1974TIP3   OH230116   3.861   5.634  17.632
 1974TIP3    H130117   3.847   5.552  17.585
 1974TIP3    H230118   3.837   5.615  17.723
 1975TIP3   OH230119   3.897   5.489  18.423
 1975TIP3    H130120   3.891   5.435  18.344
 1975TIP3    H230121   3.884   5.579  18.393
 1976TIP3   OH230122   3.344   5.136  17.594
 1976TIP3    H130123   3.266   5.190  17.582
 1976TIP3    H230124   3.383   5.130  17.507
 1977TIP3   OH230125   4.027   5.131  18.232
 1977TIP3    H130126   3.972   5.209  18.218
 1977TIP3    H230127   4.106   5.148  18.181
 1978TIP3   OH230128   3.666   5.227  17.546
 1978TIP3    H130129   3.630   5.263  17.628
 1978TIP3    H230130   3.726   5.294  17.515
 1979TIP3   OH230131   3.629   4.917  18.413
 1979TIP3    H130132   3.640   4.997  18.466
 1979TIP3    H230133   3.558   4.939  18.352
 1980TIP3   OH230134   2.680   5.257  17.715
 1980TIP3    H130135   2.614   5.237  17.649
 1980TIP3    H230136   2.718   5.172  17.738
 1981TIP3   OH230137   2.859   5.671  17.935
 1981TIP3    H130138   2.851   5.664  17.840
 1981TIP3    H230139   2.932   5.613  17.957
 1982TIP3   OH230140   2.696   5.122  18.052
 1982TIP3    H130141   2.728   5.097  17.965
 1982TIP3    H230142   2.759   5.187  18.083
 1983TIP3   OH230143   3.434   5.775  18.090
 1983TIP3    H130144   3.372   5.829  18.141
 1983TIP3    H230145   3.399   5.686  18.097
 1984TIP3   OH230146   2.824   5.615  18.509
 1984TIP3    H130147   2.763   5.681  18.540
 1984TIP3    H230148   2.782   5.578  18.432
 1985TIP3   OH230149   3.483   5.152  17.355
 1985TIP3    H130150   3.555   5.172  17.415
 1985TIP3    H230151   3.504   5.200  17.275
 1986TIP3   OH230152   2.444   5.117  18.522
 1986TIP3    H130153   2.464   5.206  18.495
 1986TIP3    H230154   2.353   5.103  18.495
 1987TIP3   OH230155   3.231   5.693  17.731
 1987TIP3    H130156   3.288   5.760  17.769
 1987TIP3    H230157   3.183   5.739  17.662
 1988TIP3   OH230158   2.647   5.825  18.569
 1988TIP3    H130159   2.666   5.876  18.490
 1988TIP3    H230160   2.556   5.796  18.559
 1989TIP3   OH230161   2.491   5.181  17.530
 1989TIP3    H130162   2.474   5.245  17.460
 1989TIP3    H230163   2.493   5.096  17.485
 1990TIP3   OH230164   4.076   5.714  17.187
 1990TIP3    H130165   4.020   5.743  17.259
 1990TIP3    H230166   4.137   5.653  17.228
 1991TIP3   OH230167   2.190   5.375  18.410
 1991TIP3    H130168   2.165   5.389  18.318
 1991TIP3    H230169   2.183   5.280  18.422
 1992TIP3   OH230170   2.339   5.620  18.134
 1992TIP3    H130171   2.422   5.610  18.088
 1992TIP3    H230172   2.350   5.700  18.185
 1993TIP3   OH230173   4.125   5.812  18.633
 1993TIP3    H130174   4.124   5.717  18.625
 1993TIP3    H230175   4.043   5.833  18.678
 1994TIP3   OH230176   3.055   5.768  18.462
 1994TIP3    H130177   3.067   5.843  18.520
 1994TIP3    H230178   2.978   5.723  18.496
 1995TIP3   OH230179   2.452   6.023  17.704
 1995TIP3    H130180   2.484   5.971  17.778
 1995TIP3    H230181   2.377   5.974  17.670
 1996TIP3   OH230182   3.846   4.810  18.588
 1996TIP3    H130183   3.776   4.851  18.537
 1996TIP3    H230184   3.842   4.718  18.564
 1997TIP3   OH230185   2.466   5.392  18.446
 1997TIP3    H130186   2.467   5.431  18.534
 1997TIP3    H230187   2.375   5.399  18.417
 1998TIP3   OH230188   2.703   4.261  18.073
 1998TIP3    H130189   2.623   4.251  18.022
 1998TIP3    H230190   2.692   4.344  18.120
 1999TIP3   OH230191   3.206   4.290  18.404
 1999TIP3    H130192   3.238   4.243  18.481
 1999TIP3    H230193   3.111   4.292  18.416
 2000TIP3   OH230194   3.557   4.643  18.467
 2000TIP3    H130195   3.524   4.645  18.557
 2000TIP3    H230196   3.575   4.734  18.446
 2001TIP3   OH230197   3.120   4.680  17.249
 2001TIP3    H130198   3.155   4.611  17.193
 2001TIP3    H230199   3.096   4.750  17.189
 2002TIP3   OH230200   2.731   4.856  18.133
 2002TIP3    H130201   2.656   4.844  18.191
 2002TIP3    H230202   2.725   4.948  18.105
 2003TIP3   OH230203   2.649   4.827  17.650
 2003TIP3    H130204   2.558   4.797  17.651
 2003TIP3    H230205   2.679   4.811  17.561
 2004TIP3   OH230206   3.161   4.905  18.612
 2004TIP3    H130207   3.111   4.836  18.655
 2004TIP3    H230208   3.242   4.910  18.662
 2005TIP3   OH230209   2.501   4.830  18.282
 2005TIP3    H130210   2.543   4.861  18.362
 2005TIP3    H230211   2.461   4.747  18.307
 2006TIP3   OH230212   2.121   4.514  17.814
 2006TIP3    H130213   2.190   4.512  17.880
 2006TIP3    H230214   2.128   4.600  17.774
 2007TIP3   OH230215   3.404   4.976  18.241
 2007TIP3    H130216   3.402   4.937  18.154
 2007TIP3    H230217   3.326   4.942  18.285
 2008TIP3   OH230218   2.999   4.567  17.753
 2008TIP3    H130219   2.906   4.552  17.763
 2008TIP3    H230220   3.040   4.485  17.780
 2009TIP3   OH230221   2.401   4.711  17.654
 2009TIP3    H130222   2.316   4.727  17.613
 2009TIP3    H230223   2.413   4.616  17.646
 2010TIP3   OH230224   2.734   4.752  17.402
 2010TIP3    H130225   2.818   4.712  17.422
 2010TIP3    H230226   2.746   4.794  17.317
 2011TIP3   OH230227   3.381   4.572  18.057
 2011TIP3    H130228   3.357   4.567  18.150
 2011TIP3    H230229   3.323   4.508  18.014
 2012TIP3   OH230230   2.787   4.857  17.150
 2012TIP3    H130231   2.761   4.800  17.078
 2012TIP3    H230232   2.880   4.872  17.136
 2013TIP3   OH230233   3.840   6.181  18.712
 2013TIP3    H130234   3.875   6.187  18.623
 2013TIP3    H230235   3.908   6.221  18.767
 2014TIP3   OH230236   2.429   5.500  18.698
 2014TIP3    H130237   2.499   5.466  18.753
 2014TIP3    H230238   2.349   5.486  18.750
 2015TIP3   OH230239   3.101   4.762  17.924
 2015TIP3    H130240   3.071   4.701  17.857
 2015TIP3    H230241   3.055   4.734  18.004
 2016TIP3   OH230242   2.483   4.445  17.653
 2016TIP3    H130243   2.444   4.358  17.662
 2016TIP3    H230244   2.525   4.444  17.566
 2017TIP3   OH230245   2.973   4.722  18.172
 2017TIP3    H130246   2.897   4.779  18.161
 2017TIP3    H230247   3.034   4.774  18.224
 2018TIP3   OH230248   3.142   5.329  17.560
 2018TIP3    H130249   3.145   5.368  17.473
 2018TIP3    H230250   3.055   5.351  17.593
 2019TIP3   OH230251   3.883   5.361  18.176
 2019TIP3    H130252   3.956   5.409  18.137
 2019TIP3    H230253   3.815   5.363  18.109
 2020TIP3   OH230254   3.253   5.578  18.427
 2020TIP3    H130255   3.213   5.511  18.483
 2020TIP3    H230256   3.191   5.651  18.429
 2021TIP3   OH230257   2.580   5.367  17.947
 2021TIP3    H130258   2.610   5.344  17.859
 2021TIP3    H230259   2.586   5.285  17.996
 2022TIP3   OH230260   2.162   5.100  18.457
 2022TIP3    H130261   2.129   5.032  18.516
 2022TIP3    H230262   2.109   5.093  18.379
 2023TIP3   OH230263   2.993   5.133  18.634
 2023TIP3    H130264   2.945   5.135  18.552
 2023TIP3    H230265   3.056   5.062  18.623
 2024TIP3   OH230266   3.494   5.640  18.552
 2024TIP3    H130267   3.416   5.619  18.501
 2024TIP3    H230268   3.461   5.664  18.639
 2025TIP3   OH230269   4.125   5.540  18.576
 2025TIP3    H130270   4.036   5.520  18.546
 2025TIP3    H230271   4.182   5.501  18.509
 2026TIP3   OH230272   3.916   5.785  17.409
 2026TIP3    H130273   3.908   5.745  17.496
 2026TIP3    H230274   3.846   5.745  17.357
 2027TIP3   OH230275   3.653   5.347  17.998
 2027TIP3    H130276   3.587   5.328  18.064
 2027TIP3    H230277   3.614   5.318  17.916
 2028TIP3   OH230278   2.795   5.675  17.659
 2028TIP3    H130279   2.778   5.769  17.668
 2028TIP3    H230280   2.761   5.653  17.572
 2029TIP3   OH230281   2.435   5.192  17.068
 2029TIP3    H130282   2.377   5.259  17.032
 2029TIP3    H230283   2.393   5.109  17.045
 2030TIP3   OH230284   2.902   5.416  17.656
 2030TIP3    H130285   2.872   5.507  17.664
 2030TIP3    H230286   2.825   5.364  17.677
 2031TIP3   OH230287   2.973   5.923  18.246
 2031TIP3    H130288   3.055   5.969  18.229
 2031TIP3    H230289   2.996   5.858  18.312
 2032TIP3   OH230290   2.724   5.939  17.655
 2032TIP3    H130291   2.637   5.976  17.646
 2032TIP3    H230292   2.783   6.015  17.649
 2033TIP3   OH230293   3.311   5.524  18.158
 2033TIP3    H130294   3.299   5.538  18.253
 2033TIP3    H230295   3.352   5.438  18.151
 2034TIP3   OH230296   3.655   5.857  18.495
 2034TIP3    H130297   3.600   5.781  18.516
 2034TIP3    H230298   3.593   5.922  18.461
 2035TIP3   OH230299   2.406   4.580  18.362
 2035TIP3    H130300   2.329   4.537  18.324
 2035TIP3    H230301   2.398   4.564  18.457
 2036TIP3   OH230302   3.832   5.425  17.442
 2036TIP3    H130303   3.799   5.488  17.378
 2036TIP3    H230304   3.913   5.393  17.405
 2037TIP3   OH230305   2.433   5.845  18.281
 2037TIP3    H130306   2.522   5.880  18.286
 2037TIP3    H230307   2.417   5.809  18.368
 2038TIP3   OH230308   2.717   5.794  17.210
 2038TIP3    H130309   2.810   5.779  17.228
 2038TIP3    H230310   2.707   5.889  17.212
 2039TIP3   OH230311   2.444   5.339  17.306
 2039TIP3    H130312   2.443   5.288  17.225
 2039TIP3    H230313   2.482   5.424  17.281
 2040TIP3   OH230314   3.314   4.562  18.333
 2040TIP3    H130315   3.398   4.571  18.378
 2040TIP3    H230316   3.281   4.476  18.359
 2041TIP3   OH230317   2.984   5.872  17.242
 2041TIP3    H130318   2.920   5.943  17.242
 2041TIP3    H230319   3.068   5.915  17.251
 2042TIP3   OH230320   2.966   4.624  17.471
 2042TIP3    H130321   3.039   4.647  17.414
 2042TIP3    H230322   3.006   4.613  17.557
 2043TIP3   OH230323   3.180   4.824  18.342
 2043TIP3    H130324   3.172   4.846  18.435
 2043TIP3    H230325   3.218   4.736  18.342
 2044TIP3   OH230326   3.280   4.340  17.513
 2044TIP3    H130327   3.293   4.300  17.599
 2044TIP3    H230328   3.364   4.381  17.492
 2045TIP3   OH230329   2.631   4.488  17.429
 2045TIP3    H130330   2.649   4.580  17.410
 2045TIP3    H230331   2.707   4.441  17.395
 2046TIP3   OH230332   3.836   4.554  18.487
 2046TIP3    H130333   3.744   4.550  18.464
 2046TIP3    H230334   3.881   4.573  18.404
 2047TIP3   OH230335   2.546   5.576  17.205
 2047TIP3    H130336   2.602   5.652  17.219
 2047TIP3    H230337   2.539   5.568  17.110
 2048TIP3   OH230338   3.841   6.012  18.053
 2048TIP3    H130339   3.838   6.054  17.967
 2048TIP3    H230340   3.934   5.996  18.068
 2049TIP3   OH230341   2.447   4.260  17.960
 2049TIP3    H130342   2.427   4.244  17.868
 2049TIP3    H230343   2.418   4.180  18.005
 2050TIP3   OH230344   2.205   5.908  17.618
 2050TIP3    H130345   2.129   5.948  17.576
 2050TIP3    H230346   2.218   5.825  17.573
 2051TIP3   OH230347   2.126   6.027  18.651
 2051TIP3    H130348   2.197   6.026  18.715
 2051TIP3    H230349   2.079   5.945  18.667
 2052TIP3   OH230350   2.613   5.974  18.804
 2052TIP3    H130351   2.680   5.946  18.866
 2052TIP3    H230352   2.632   5.925  18.724
 2053TIP3   OH230353   3.414   5.726  18.804
 2053TIP3    H130354   3.417   5.653  18.866
 2053TIP3    H230355   3.490   5.780  18.828
 2054TIP3   OH230356   3.756   5.619  17.255
 2054TIP3    H130357   3.668   5.595  17.227
 2054TIP3    H230358   3.808   5.622  17.174
 2055TIP3   OH230359   2.163   5.505  18.814
 2055TIP3    H130360   2.086   5.492  18.869
 2055TIP3    H230361   2.127   5.515  18.725
 2056TIP3   OH230362   2.889   5.438  18.713
 2056TIP3    H130363   2.877   5.492  18.635
 2056TIP3    H230364   2.932   5.358  18.681
 2057TIP3   OH230365   3.657   5.407  18.541
 2057TIP3    H130366   3.742   5.440  18.511
 2057TIP3    H230367   3.602   5.485  18.550
 2058TIP3   OH230368   2.466   4.978  18.771
 2058TIP3    H130369   2.460   5.018  18.684
 2058TIP3    H230370   2.443   5.049  18.831
 2059TIP3   OH230371   2.670   4.963  18.458
 2059TIP3    H130372   2.600   5.022  18.488
 2059TIP3    H230373   2.740   5.023  18.431
 2060TIP3   OH230374   3.401   5.283  18.873
 2060TIP3    H130375   3.484   5.238  18.855
 2060TIP3    H230376   3.340   5.213  18.897
 2061TIP3   OH230377   3.904   5.198  16.918
 2061TIP3    H130378   3.872   5.134  16.854
 2061TIP3    H230379   3.832   5.259  16.930
 2062TIP3   OH230380   2.785   4.729  18.555
 2062TIP3    H130381   2.800   4.664  18.487
 2062TIP3    H230382   2.750   4.805  18.508
 2063TIP3   OH230383   2.844   4.548  18.347
 2063TIP3    H130384   2.901   4.593  18.284
 2063TIP3    H230385   2.766   4.526  18.297
 2064TIP3   OH230386   2.888   5.122  18.369
 2064TIP3    H130387   2.959   5.071  18.330
 2064TIP3    H230388   2.874   5.194  18.308
 2065TIP3   OH230389   3.396   4.904  18.769
 2065TIP3    H130390   3.421   4.812  18.758
 2065TIP3    H230391   3.479   4.951  18.774
 2066TIP3   OH230392   3.690   5.137  18.568
 2066TIP3    H130393   3.664   5.228  18.553
 2066TIP3    H230394   3.785   5.140  18.577
 2067TIP3   OH230395   2.672   4.784  18.802
 2067TIP3    H130396   2.599   4.845  18.792
 2067TIP3    H230397   2.705   4.770  18.713
 2068TIP3   OH230398   2.923   4.289  18.421
 2068TIP3    H130399   2.899   4.380  18.403
 2068TIP3    H230400   2.852   4.238  18.383
 2069TIP3   OH230401   3.007   4.706  18.720
 2069TIP3    H130402   2.977   4.649  18.791
 2069TIP3    H230403   2.932   4.712  18.661
 2070TIP3   OH230404   3.452   4.634  18.728
 2070TIP3    H130405   3.366   4.595  18.746
 2070TIP3    H230406   3.514   4.578  18.774
 2071TIP3   OH230407   3.589   4.440  18.874
 2071TIP3    H130408   3.568   4.350  18.849
 2071TIP3    H230409   3.535   4.456  18.951
 2072TIP3   OH230410   2.364   4.528  18.633
 2072TIP3    H130411   2.368   4.433  18.636
 2072TIP3    H230412   2.410   4.557  18.712
 2073TIP3   OH230413   2.886   4.161  18.662
 2073TIP3    H130414   2.944   4.085  18.655
 2073TIP3    H230415   2.897   4.206  18.578
 2074TIP3   OH230416   2.956   4.308  18.882
 2074TIP3    H130417   2.933   4.261  18.802
 2074TIP3    H230418   2.906   4.390  18.876
 2075TIP3   OH230419   2.107   6.225  17.656
 2075TIP3    H130420   2.067   6.169  17.590
 2075TIP3    H230421   2.116   6.169  17.733
 2076TIP3   OH230422   2.162   6.044  17.860
 2076TIP3    H130423   2.181   5.981  17.791
 2076TIP3    H230424   2.243   6.049  17.911
 2077TIP3   OH230425   4.115   5.971  18.133
 2077TIP3    H130426   4.092   5.958  18.225
 2077TIP3    H230427   4.179   6.042  18.133
 2078TIP3   OH230428   4.040   5.923  18.392
 2078TIP3    H130429   3.975   5.856  18.370
 2078TIP3    H230430   4.080   5.890  18.472
 2079TIP3   OH230431   3.933   5.521  18.904
 2079TIP3    H130432   3.847   5.548  18.938
 2079TIP3    H230433   3.992   5.592  18.929
 2080TIP3   OH230434   4.085   5.346  17.345
 2080TIP3    H130435   4.141   5.424  17.340
 2080TIP3    H230436   4.128   5.289  17.408
 2081TIP3   OH230437   4.196   5.087  17.666
 2081TIP3    H130438   4.118   5.097  17.721
 2081TIP3    H230439   4.269   5.112  17.722
 2082TIP3   OH230440   4.147   5.454  18.138
 2082TIP3    H130441   4.200   5.388  18.093
 2082TIP3    H230442   4.187   5.537  18.114
 2083TIP3   OH230443   3.842   5.742  18.330
 2083TIP3    H130444   3.775   5.782  18.385
 2083TIP3    H230445   3.803   5.739  18.243
 2084TIP3   OH230446   4.096   5.166  17.115
 2084TIP3    H130447   4.024   5.179  17.053
 2084TIP3    H230448   4.080   5.230  17.185
 2085TIP3   OH230449   2.192   5.151  18.057
 2085TIP3    H130450   2.204   5.144  17.962
 2085TIP3    H230451   2.277   5.128  18.094
 2086TIP3   OH230452   3.965   5.153  18.598
 2086TIP3    H130453   4.012   5.070  18.604
 2086TIP3    H230454   4.007   5.200  18.527
 2087TIP3   OH230455   4.108   4.902  18.567
 2087TIP3    H130456   4.018   4.869  18.576
 2087TIP3    H230457   4.164   4.827  18.588
 2088TIP3   OH230458   3.867   4.838  17.955
 2088TIP3    H130459   3.960   4.840  17.931
 2088TIP3    H230460   3.866   4.859  18.048
 2089TIP3   OH230461   3.875   4.898  18.234
 2089TIP3    H130462   3.796   4.919  18.284
 2089TIP3    H230463   3.928   4.978  18.237
 2090TIP3   OH230464   2.118   4.652  18.585
 2090TIP3    H130465   2.207   4.620  18.598
 2090TIP3    H230466   2.062   4.587  18.628
 2091TIP3   OH230467   4.111   4.216  18.788
 2091TIP3    H130468   4.200   4.191  18.764
 2091TIP3    H230469   4.094   4.295  18.738
 2092TIP3   OH230470   2.331   4.508  18.003
 2092TIP3    H130471   2.369   4.421  17.991
 2092TIP3    H230472   2.405   4.568  17.994
 2093TIP3   OH230473   2.113   4.877  18.013
 2093TIP3    H130474   2.194   4.846  17.971
 2093TIP3    H230475   2.132   4.967  18.039
 2094TIP3   OH230476   4.033   4.471  18.673
 2094TIP3    H130477   3.980   4.491  18.751
 2094TIP3    H230478   3.972   4.483  18.600
 2095TIP3   OH230479   2.006   4.372  17.361
 2095TIP3    H130480   1.955   4.422  17.426
 2095TIP3    H230481   2.055   4.438  17.313
 2096TIP3   OH230482   2.151   4.196  18.311
 2096TIP3    H130483   2.074   4.191  18.368
 2096TIP3    H230484   2.158   4.288  18.287
 2097TIP3   OH230485   2.390   5.729  18.539
 2097TIP3    H130486   2.299   5.751  18.560
 2097TIP3    H230487   2.407   5.649  18.590
 2098TIP3   OH230488   2.697   5.953  18.331
 2098TIP3    H130489   2.689   6.049  18.329
 2098TIP3    H230490   2.785   5.936  18.298
 2099TIP3   OH230491   3.113   5.994  18.621
 2099TIP3    H130492   3.125   5.946  18.703
 2099TIP3    H230493   3.193   6.046  18.612
 2100TIP3   OH230494   3.341   6.157  18.593
 2100TIP3    H130495   3.396   6.116  18.526
 2100TIP3    H230496   3.403   6.193  18.656
 2101TIP3   OH230497   3.950   4.134  18.438
 2101TIP3    H130498   3.903   4.174  18.365
 2101TIP3    H230499   3.968   4.044  18.409
 2102TIP3   OH230500   2.403   6.233  18.377
 2102TIP3    H130501   2.315   6.245  18.341
 2102TIP3    H230502   2.392   6.240  18.471
 2103TIP3   OH230503   2.671   6.229  18.317
 2103TIP3    H130504   2.580   6.232  18.346
 2103TIP3    H230505   2.669   6.269  18.230
 2104TIP3   OH230506   3.240   6.041  18.209
 2104TIP3    H130507   3.246   6.081  18.123
 2104TIP3    H230508   3.212   6.112  18.267
 2105TIP3   OH230509   3.475   6.038  18.378
 2105TIP3    H130510   3.400   6.028  18.320
 2105TIP3    H230511   3.541   6.082  18.324
 2106TIP3   OH230512   3.673   6.152  18.223
 2106TIP3    H130513   3.728   6.228  18.242
 2106TIP3    H230514   3.725   6.099  18.164
 2107TIP3   OH230515   2.375   6.064  18.038
 2107TIP3    H130516   2.374   6.046  18.132
 2107TIP3    H230517   2.441   6.005  18.003
 2108TIP3   OH230518   2.557   5.889  17.934
 2108TIP3    H130519   2.557   5.799  17.965
 2108TIP3    H230520   2.647   5.919  17.947
 2109TIP3   OH230521   2.826   5.943  18.011
 2109TIP3    H130522   2.846   5.858  17.971
 2109TIP3    H230523   2.874   5.942  18.094
 2110TIP3   OH230524   3.118   4.331  17.842
 2110TIP3    H130525   3.063   4.260  17.876
 2110TIP3    H230526   3.198   4.287  17.814
 2111TIP3   OH230527   3.821   4.053  17.710
 2111TIP3    H130528   3.886   4.064  17.641
 2111TIP3    H230529   3.759   4.124  17.696
 2112TIP3   OH230530   2.377   4.185  17.701
 2112TIP3    H130531   2.286   4.162  17.685
 2112TIP3    H230532   2.426   4.103  17.690
 2113TIP3   OH230533   2.156   4.163  17.230
 2113TIP3    H130534   2.192   4.221  17.163
 2113TIP3    H230535   2.121   4.222  17.296
 2114TIP3   OH230536   2.909   4.089  17.641
 2114TIP3    H130537   2.964   4.138  17.580
 2114TIP3    H230538   2.927   4.129  17.726
 2115TIP3   OH230539   3.363   4.216  17.747
 2115TIP3    H130540   3.456   4.230  17.728
 2115TIP3    H230541   3.351   4.121  17.734
 2116TIP3   OH230542   2.033   6.007  17.214
 2116TIP3    H130543   2.042   6.097  17.185
 2116TIP3    H230544   2.027   6.013  17.309
 2117TIP3   OH230545   2.878   4.390  17.351
 2117TIP3    H130546   2.941   4.323  17.377
 2117TIP3    H230547   2.912   4.471  17.388
 2118TIP3   OH230548   4.088   6.003  17.432
 2118TIP3    H130549   4.026   5.930  17.425
 2118TIP3    H230550   4.043   6.077  17.392
 2119TIP3   OH230551   2.396   4.256  18.654
 2119TIP3    H130552   2.336   4.186  18.682
 2119TIP3    H230553   2.477   4.238  18.701
 2120TIP3   OH230554   2.635   4.198  18.787
 2120TIP3    H130555   2.713   4.200  18.732
 2120TIP3    H230556   2.642   4.116  18.836
 2121TIP3   OH230557   3.554   4.171  18.782
 2121TIP3    H130558   3.537   4.111  18.855
 2121TIP3    H230559   3.645   4.153  18.756
 2122TIP3   OH230560   3.848   5.900  18.694
 2122TIP3    H130561   3.787   5.883  18.623
 2122TIP3    H230562   3.844   5.995  18.707
 2123TIP3   OH230563   4.491   5.097  18.210
 2123TIP3    H130564   4.501   5.002  18.222
 2123TIP3    H230565   4.518   5.134  18.294
 2124TIP3   OH230566   5.750   5.581  17.946
 2124TIP3    H130567   5.835   5.544  17.969
 2124TIP3    H230568   5.743   5.660  17.999
 2125TIP3   OH230569   4.570   5.616  17.984
 2125TIP3    H130570   4.476   5.614  18.002
 2125TIP3    H230571   4.595   5.524  17.977
 2126TIP3   OH230572   4.277   4.843  17.563
 2126TIP3    H130573   4.247   4.930  17.590
 2126TIP3    H230574   4.241   4.784  17.629
 2127TIP3   OH230575   4.412   5.118  17.841
 2127TIP3    H130576   4.424   5.024  17.852
 2127TIP3    H230577   4.492   5.147  17.797
 2128TIP3   OH230578   5.505   6.040  17.857
 2128TIP3    H130579   5.517   5.973  17.790
 2128TIP3    H230580   5.569   6.108  17.835
 2129TIP3   OH230581   5.992   4.537  18.020
 2129TIP3    H130582   6.020   4.577  18.102
 2129TIP3    H230583   6.072   4.529  17.968
 2130TIP3   OH230584   5.502   4.802  18.036
 2130TIP3    H130585   5.533   4.713  18.054
 2130TIP3    H230586   5.413   4.790  18.003
 2131TIP3   OH230587   4.812   4.587  17.762
 2131TIP3    H130588   4.809   4.668  17.713
 2131TIP3    H230589   4.759   4.525  17.711
 2132TIP3   OH230590   5.623   4.653  17.581
 2132TIP3    H130591   5.553   4.595  17.551
 2132TIP3    H230592   5.651   4.699  17.501
 2133TIP3   OH230593   4.444   4.845  17.854
 2133TIP3    H130594   4.493   4.786  17.912
 2133TIP3    H230595   4.460   4.811  17.766
 2134TIP3   OH230596   4.877   5.012  17.808
 2134TIP3    H130597   4.968   4.980  17.812
 2134TIP3    H230598   4.832   4.950  17.751
 2135TIP3   OH230599   6.087   4.652  18.250
 2135TIP3    H130600   6.050   4.739  18.267
 2135TIP3    H230601   6.182   4.665  18.251
 2136TIP3   OH230602   4.644   4.514  18.205
 2136TIP3    H130603   4.620   4.565  18.128
 2136TIP3    H230604   4.571   4.526  18.266
 2137TIP3   OH230605   4.811   5.349  18.174
 2137TIP3    H130606   4.741   5.352  18.108
 2137TIP3    H230607   4.806   5.433  18.218
 2138TIP3   OH230608   4.631   4.653  17.963
 2138TIP3    H130609   4.683   4.719  18.009
 2138TIP3    H230610   4.690   4.619  17.896
 2139TIP3   OH230611   4.753   5.590  18.300
 2139TIP3    H130612   4.734   5.675  18.260
 2139TIP3    H230613   4.669   5.561  18.336
 2140TIP3   OH230614   4.262   5.567  17.340
 2140TIP3    H130615   4.351   5.536  17.322
 2140TIP3    H230616   4.275   5.649  17.388
 2141TIP3   OH230617   5.732   5.815  18.093
 2141TIP3    H130618   5.644   5.853  18.088
 2141TIP3    H230619   5.791   5.887  18.070
 2142TIP3   OH230620   5.778   4.378  18.096
 2142TIP3    H130621   5.701   4.435  18.101
 2142TIP3    H230622   5.848   4.437  18.068
 2143TIP3   OH230623   4.961   4.170  17.934
 2143TIP3    H130624   4.950   4.076  17.948
 2143TIP3    H230625   4.885   4.210  17.976
 2144TIP3   OH230626   5.600   5.883  17.643
 2144TIP3    H130627   5.598   5.789  17.657
 2144TIP3    H230628   5.693   5.905  17.639
 2145TIP3   OH230629   5.626   5.612  17.703
 2145TIP3    H130630   5.684   5.562  17.645
 2145TIP3    H230631   5.664   5.600  17.790
 2146TIP3   OH230632   5.964   5.509  18.442
 2146TIP3    H130633   5.951   5.445  18.373
 2146TIP3    H230634   5.939   5.593  18.403
 2147TIP3   OH230635   5.501   5.146  17.411
 2147TIP3    H130636   5.467   5.191  17.333
 2147TIP3    H230637   5.594   5.136  17.395
 2148TIP3   OH230638   5.367   4.771  17.051
 2148TIP3    H130639   5.428   4.785  17.124
 2148TIP3    H230640   5.371   4.677  17.033
 2149TIP3   OH230641   6.111   5.144  18.319
 2149TIP3    H130642   6.052   5.214  18.291
 2149TIP3    H230643   6.189   5.156  18.264
 2150TIP3   OH230644   5.748   4.914  18.469
 2150TIP3    H130645   5.751   4.997  18.517
 2150TIP3    H230646   5.694   4.931  18.393
 2151TIP3   OH230647   4.665   5.190  17.738
 2151TIP3    H130648   4.671   5.205  17.644
 2151TIP3    H230649   4.740   5.132  17.757
 2152TIP3   OH230650   4.872   5.087  18.081
 2152TIP3    H130651   4.869   5.077  17.986
 2152TIP3    H230652   4.851   5.180  18.096
 2153TIP3   OH230653   5.442   5.883  18.138
 2153TIP3    H130654   5.453   5.898  18.232
 2153TIP3    H230655   5.431   5.788  18.130
 2154TIP3   OH230656   4.910   5.637  18.522
 2154TIP3    H130657   4.843   5.689  18.566
 2154TIP3    H230658   4.869   5.609  18.441
 2155TIP3   OH230659   4.531   5.165  18.482
 2155TIP3    H130660   4.548   5.243  18.535
 2155TIP3    H230661   4.436   5.154  18.485
 2156TIP3   OH230662   4.689   5.809  18.575
 2156TIP3    H130663   4.708   5.848  18.490
 2156TIP3    H230664   4.595   5.818  18.586
 2157TIP3   OH230665   4.682   5.202  17.454
 2157TIP3    H130666   4.674   5.278  17.397
 2157TIP3    H230667   4.622   5.137  17.416
 2158TIP3   OH230668   5.952   5.736  17.204
 2158TIP3    H130669   5.938   5.784  17.122
 2158TIP3    H230670   5.946   5.644  17.178
 2159TIP3   OH230671   4.264   5.394  18.387
 2159TIP3    H130672   4.217   5.406  18.305
 2159TIP3    H230673   4.255   5.302  18.408
 2160TIP3   OH230674   4.263   5.719  18.107
 2160TIP3    H130675   4.333   5.753  18.163
 2160TIP3    H230676   4.195   5.786  18.109
 2161TIP3   OH230677   6.192   5.789  18.604
 2161TIP3    H130678   6.198   5.693  18.601
 2161TIP3    H230679   6.112   5.806  18.654
 2162TIP3   OH230680   5.131   5.794  18.459
 2162TIP3    H130681   5.129   5.874  18.511
 2162TIP3    H230682   5.058   5.742  18.493
 2163TIP3   OH230683   5.309   6.150  17.395
 2163TIP3    H130684   5.290   6.093  17.321
 2163TIP3    H230685   5.234   6.139  17.454
 2164TIP3   OH230686   4.465   5.937  17.667
 2164TIP3    H130687   4.535   5.907  17.725
 2164TIP3    H230688   4.386   5.933  17.721
 2165TIP3   OH230689   5.606   6.180  17.186
 2165TIP3    H130690   5.613   6.113  17.117
 2165TIP3    H230691   5.606   6.130  17.268
 2166TIP3   OH230692   5.570   6.087  17.446
 2166TIP3    H130693   5.476   6.102  17.440
 2166TIP3    H230694   5.578   6.015  17.510
 2167TIP3   OH230695   5.948   4.788  18.637
 2167TIP3    H130696   5.881   4.841  18.595
 2167TIP3    H230697   5.950   4.706  18.588
 2168TIP3   OH230698   4.521   5.506  18.414
 2168TIP3    H130699   4.538   5.471  18.502
 2168TIP3    H230700   4.431   5.477  18.394
 2169TIP3   OH230701   4.729   4.285  18.059
 2169TIP3    H130702   4.649   4.263  18.012
 2169TIP3    H230703   4.708   4.367  18.105
 2170TIP3   OH230704   5.272   4.370  18.467
 2170TIP3    H130705   5.308   4.284  18.492
 2170TIP3    H230706   5.178   4.355  18.458
 2171TIP3   OH230707   5.667   4.641  18.500
 2171TIP3    H130708   5.624   4.639  18.585
 2171TIP3    H230709   5.687   4.733  18.485
 2172TIP3   OH230710   4.767   4.835  18.119
 2172TIP3    H130711   4.695   4.838  18.182
 2172TIP3    H230712   4.793   4.927  18.108
 2173TIP3   OH230713   4.778   4.830  17.629
 2173TIP3    H130714   4.688   4.801  17.612
 2173TIP3    H230715   4.821   4.824  17.543
 2174TIP3   OH230716   5.415   4.877  17.445
 2174TIP3    H130717   5.425   4.972  17.443
 2174TIP3    H230718   5.501   4.843  17.421
 2175TIP3   OH230719   5.207   4.925  18.631
 2175TIP3    H130720   5.152   4.855  18.665
 2175TIP3    H230721   5.288   4.919  18.683
 2176TIP3   OH230722   4.562   4.832  18.304
 2176TIP3    H130723   4.616   4.870  18.374
 2176TIP3    H230724   4.525   4.753  18.344
 2177TIP3   OH230725   4.228   4.623  17.738
 2177TIP3    H130726   4.279   4.574  17.802
 2177TIP3    H230727   4.243   4.578  17.655
 2178TIP3   OH230728   4.277   4.740  17.308
 2178TIP3    H130729   4.279   4.806  17.238
 2178TIP3    H230730   4.275   4.791  17.389
 2179TIP3   OH230731   5.586   4.960  18.246
 2179TIP3    H130732   5.566   4.910  18.167
 2179TIP3    H230733   5.512   4.942  18.305
 2180TIP3   OH230734   5.107   4.571  17.765
 2180TIP3    H130735   5.011   4.571  17.767
 2180TIP3    H230736   5.131   4.478  17.767
 2181TIP3   OH230737   4.529   4.711  17.617
 2181TIP3    H130738   4.448   4.731  17.570
 2181TIP3    H230739   4.538   4.615  17.610
 2182TIP3   OH230740   4.933   4.799  17.398
 2182TIP3    H130741   5.020   4.779  17.432
 2182TIP3    H230742   4.915   4.731  17.333
 2183TIP3   OH230743   5.539   4.536  18.115
 2183TIP3    H130744   5.499   4.553  18.200
 2183TIP3    H230745   5.473   4.486  18.067
 2184TIP3   OH230746   5.917   6.192  18.696
 2184TIP3    H130747   5.945   6.198  18.605
 2184TIP3    H230748   5.990   6.228  18.747
 2185TIP3   OH230749   4.550   5.379  18.663
 2185TIP3    H130750   4.621   5.386  18.727
 2185TIP3    H230751   4.476   5.422  18.706
 2186TIP3   OH230752   5.239   4.720  17.965
 2186TIP3    H130753   5.206   4.671  17.890
 2186TIP3    H230754   5.170   4.711  18.031
 2187TIP3   OH230755   4.624   4.431  17.612
 2187TIP3    H130756   4.574   4.355  17.640
 2187TIP3    H230757   4.678   4.400  17.539
 2188TIP3   OH230758   5.023   4.732  18.151
 2188TIP3    H130759   4.936   4.763  18.125
 2188TIP3    H230760   5.061   4.806  18.199
 2189TIP3   OH230761   5.931   5.335  18.230
 2189TIP3    H130762   5.995   5.367  18.166
 2189TIP3    H230763   5.871   5.281  18.179
 2190TIP3   OH230764   5.519   4.498  17.202
 2190TIP3    H130765   5.464   4.492  17.124
 2190TIP3    H230766   5.596   4.446  17.181
 2191TIP3   OH230767   5.323   5.602  18.402
 2191TIP3    H130768   5.331   5.550  18.481
 2191TIP3    H230769   5.249   5.661  18.419
 2192TIP3   OH230770   5.690   4.832  17.365
 2192TIP3    H130771   5.749   4.769  17.324
 2192TIP3    H230772   5.733   4.917  17.350
 2193TIP3   OH230773   4.616   5.331  17.978
 2193TIP3    H130774   4.635   5.298  17.890
 2193TIP3    H230775   4.553   5.268  18.014
 2194TIP3   OH230776   4.255   5.137  18.505
 2194TIP3    H130777   4.269   5.151  18.598
 2194TIP3    H230778   4.209   5.053  18.500
 2195TIP3   OH230779   5.045   5.157  18.608
 2195TIP3    H130780   5.003   5.155  18.521
 2195TIP3    H230781   5.109   5.086  18.605
 2196TIP3   OH230782   5.462   5.882  18.512
 2196TIP3    H130783   5.381   5.844  18.478
 2196TIP3    H230784   5.481   5.831  18.591
 2197TIP3   OH230785   6.154   4.794  17.286
 2197TIP3    H130786   6.101   4.837  17.352
 2197TIP3    H230787   6.175   4.862  17.223
 2198TIP3   OH230788   6.216   5.514  18.559
 2198TIP3    H130789   6.127   5.506  18.525
 2198TIP3    H230790   6.270   5.461  18.499
 2199TIP3   OH230791   5.887   5.971  17.332
 2199TIP3    H130792   5.793   5.957  17.322
 2199TIP3    H230793   5.928   5.893  17.294
 2200TIP3   OH230794   5.745   5.157  18.116
 2200TIP3    H130795   5.703   5.093  18.174
 2200TIP3    H230796   5.683   5.167  18.044
 2201TIP3   OH230797   5.007   5.878  18.215
 2201TIP3    H130798   5.062   5.954  18.198
 2201TIP3    H230799   5.051   5.832  18.286
 2202TIP3   OH230800   5.077   5.978  17.762
 2202TIP3    H130801   5.060   5.987  17.668
 2202TIP3    H230802   5.134   6.052  17.783
 2203TIP3   OH230803   5.428   5.608  18.149
 2203TIP3    H130804   5.389   5.597  18.235
 2203TIP3    H230805   5.505   5.552  18.150
 2204TIP3   OH230806   5.732   5.939  18.453
 2204TIP3    H130807   5.639   5.924  18.472
 2204TIP3    H230808   5.733   6.015  18.396
 2205TIP3   OH230809   4.466   4.597  18.436
 2205TIP3    H130810   4.384   4.623  18.478
 2205TIP3    H230811   4.498   4.523  18.488
 2206TIP3   OH230812   4.452   5.864  18.271
 2206TIP3    H130813   4.548   5.868  18.278
 2206TIP3    H230814   4.422   5.869  18.362
 2207TIP3   OH230815   4.625   5.384  17.250
 2207TIP3    H130816   4.582   5.344  17.175
 2207TIP3    H230817   4.676   5.457  17.213
 2208TIP3   OH230818   5.422   4.582  18.366
 2208TIP3    H130819   5.505   4.577  18.414
 2208TIP3    H230820   5.370   4.510  18.401
 2209TIP3   OH230821   5.406   4.525  17.449
 2209TIP3    H130822   5.450   4.508  17.365
 2209TIP3    H230823   5.343   4.593  17.430
 2210TIP3   OH230824   5.187   4.722  17.510
 2210TIP3    H130825   5.261   4.780  17.494
 2210TIP3    H230826   5.194   4.697  17.602
 2211TIP3   OH230827   5.389   4.861  18.411
 2211TIP3    H130828   5.317   4.876  18.473
 2211TIP3    H230829   5.385   4.768  18.393
 2212TIP3   OH230830   5.237   4.307  17.506
 2212TIP3    H130831   5.225   4.305  17.601
 2212TIP3    H230832   5.311   4.366  17.493
 2213TIP3   OH230833   5.065   6.044  17.481
 2213TIP3    H130834   5.022   6.093  17.411
 2213TIP3    H230835   5.077   5.956  17.444
 2214TIP3   OH230836   4.920   4.586  17.219
 2214TIP3    H130837   4.961   4.541  17.145
 2214TIP3    H230838   4.949   4.537  17.296
 2215TIP3   OH230839   5.942   4.564  18.476
 2215TIP3    H130840   5.848   4.561  18.463
 2215TIP3    H230841   5.979   4.577  18.389
 2216TIP3   OH230842   5.906   6.025  18.050
 2216TIP3    H130843   5.914   6.073  17.969
 2216TIP3    H230844   5.995   6.016  18.083
 2217TIP3   OH230845   4.485   4.229  17.935
 2217TIP3    H130846   4.490   4.217  17.840
 2217TIP3    H230847   4.458   4.143  17.969
 2218TIP3   OH230848   4.307   5.818  17.453
 2218TIP3    H130849   4.235   5.881  17.453
 2218TIP3    H230850   4.370   5.853  17.516
 2219TIP3   OH230851   4.309   6.154  18.708
 2219TIP3    H130852   4.360   6.109  18.775
 2219TIP3    H230853   4.305   6.093  18.635
 2220TIP3   OH230854   4.707   5.872  18.852
 2220TIP3    H130855   4.776   5.826  18.900
 2220TIP3    H230856   4.720   5.846  18.761
 2221TIP3   OH230857   5.238   5.981  17.190
 2221TIP3    H130858   5.197   5.917  17.248
 2221TIP3    H230859   5.269   5.928  17.116
 2222TIP3   OH230860   5.502   5.741  18.749
 2222TIP3    H130861   5.497   5.660  18.799
 2222TIP3    H230862   5.578   5.787  18.783
 2223TIP3   OH230863   4.305   5.459  18.772
 2223TIP3    H130864   4.287   5.365  18.774
 2223TIP3    H230865   4.237   5.496  18.715
 2224TIP3   OH230866   4.981   5.428  18.703
 2224TIP3    H130867   4.971   5.486  18.628
 2224TIP3    H230868   5.014   5.346  18.666
 2225TIP3   OH230869   5.807   5.412  18.651
 2225TIP3    H130870   5.863   5.453  18.585
 2225TIP3    H230871   5.806   5.476  18.723
 2226TIP3   OH230872   4.337   5.179  18.762
 2226TIP3    H130873   4.433   5.189  18.761
 2226TIP3    H230874   4.317   5.150  18.851
 2227TIP3   OH230875   4.862   5.025  17.247
 2227TIP3    H130876   4.841   5.092  17.312
 2227TIP3    H230877   4.887   4.948  17.299
 2228TIP3   OH230878   4.732   4.975  18.468
 2228TIP3    H130879   4.662   5.038  18.487
 2228TIP3    H230880   4.805   5.030  18.438
 2229TIP3   OH230881   5.516   5.271  18.888
 2229TIP3    H130882   5.605   5.235  18.889
 2229TIP3    H230883   5.462   5.199  18.921
 2230TIP3   OH230884   4.826   4.730  18.566
 2230TIP3    H130885   4.844   4.674  18.491
 2230TIP3    H230886   4.798   4.813  18.528
 2231TIP3   OH230887   4.879   4.577  18.339
 2231TIP3    H130888   4.939   4.609  18.272
 2231TIP3    H230889   4.802   4.548  18.291
 2232TIP3   OH230890   4.917   5.151  18.354
 2232TIP3    H130891   4.933   5.103  18.273
 2232TIP3    H230892   4.880   5.234  18.326
 2233TIP3   OH230893   5.450   4.891  18.766
 2233TIP3    H130894   5.473   4.798  18.764
 2233TIP3    H230895   5.518   4.933  18.714
 2234TIP3   OH230896   5.796   5.143  18.612
 2234TIP3    H130897   5.777   5.236  18.615
 2234TIP3    H230898   5.892   5.138  18.603
 2235TIP3   OH230899   4.716   4.709  18.817
 2235TIP3    H130900   4.626   4.679  18.808
 2235TIP3    H230901   4.747   4.718  18.727
 2236TIP3   OH230902   4.981   4.334  18.439
 2236TIP3    H130903   4.955   4.423  18.414
 2236TIP3    H230904   4.917   4.278  18.396
 2237TIP3   OH230905   5.048   4.727  18.737
 2237TIP3    H130906   5.032   4.659  18.803
 2237TIP3    H230907   4.973   4.721  18.678
 2238TIP3   OH230908   5.522   4.623  18.738
 2238TIP3    H130909   5.442   4.570  18.731
 2238TIP3    H230910   5.578   4.573  18.796
 2239TIP3   OH230911   5.668   4.460  18.911
 2239TIP3    H130912   5.671   4.365  18.905
 2239TIP3    H230913   5.616   4.478  18.989
 2240TIP3   OH230914   4.461   4.586  18.798
 2240TIP3    H130915   4.475   4.516  18.734
 2240TIP3    H230916   4.476   4.544  18.883
 2241TIP3   OH230917   4.948   4.204  18.682
 2241TIP3    H130918   5.010   4.132  18.676
 2241TIP3    H230919   4.960   4.252  18.600
 2242TIP3   OH230920   5.054   4.298  18.918
 2242TIP3    H130921   5.027   4.256  18.837
 2242TIP3    H230922   5.004   4.380  18.920
 2243TIP3   OH230923   5.032   6.177  17.221
 2243TIP3    H130924   5.086   6.106  17.185
 2243TIP3    H230925   5.012   6.232  17.146
 2244TIP3   OH230926   4.209   6.138  17.645
 2244TIP3    H130927   4.164   6.097  17.571
 2244TIP3    H230928   4.210   6.071  17.713
 2245TIP3   OH230929   4.246   5.940  17.837
 2245TIP3    H130930   4.194   5.866  17.868
 2245TIP3    H230931   4.292   5.971  17.915
 2246TIP3   OH230932   6.169   6.037  18.128
 2246TIP3    H130933   6.171   5.979  18.204
 2246TIP3    H230934   6.196   6.122  18.162
 2247TIP3   OH230935   6.104   5.907  18.368
 2247TIP3    H130936   6.038   5.841  18.346
 2247TIP3    H230937   6.149   5.872  18.445
 2248TIP3   OH230938   6.033   5.550  18.853
 2248TIP3    H130939   5.945   5.559  18.890
 2248TIP3    H230940   6.082   5.622  18.891
 2249TIP3   OH230941   6.162   5.427  18.109
 2249TIP3    H130942   6.233   5.364  18.112
 2249TIP3    H230943   6.205   5.512  18.119
 2250TIP3   OH230944   5.880   5.746  18.323
 2250TIP3    H130945   5.828   5.804  18.380
 2250TIP3    H230946   5.836   5.752  18.238
 2251TIP3   OH230947   5.890   4.672  17.259
 2251TIP3    H130948   5.982   4.698  17.261
 2251TIP3    H230949   5.889   4.588  17.213
 2252TIP3   OH230950   4.282   5.213  18.072
 2252TIP3    H130951   4.309   5.186  17.984
 2252TIP3    H230952   4.347   5.174  18.130
 2253TIP3   OH230953   6.068   5.136  18.592
 2253TIP3    H130954   6.121   5.060  18.616
 2253TIP3    H230955   6.091   5.153  18.500
 2254TIP3   OH230956   6.206   4.890  18.602
 2254TIP3    H130957   6.119   4.851  18.614
 2254TIP3    H230958   6.267   4.817  18.608
 2255TIP3   OH230959   5.988   4.895  18.314
 2255TIP3    H130960   5.908   4.909  18.364
 2255TIP3    H230961   6.033   4.979  18.316
 2256TIP3   OH230962   4.246   4.653  18.619
 2256TIP3    H130963   4.308   4.644  18.692
 2256TIP3    H230964   4.178   4.588  18.637
 2257TIP3   OH230965   6.159   4.237  18.778
 2257TIP3    H130966   6.215   4.162  18.759
 2257TIP3    H230967   6.183   4.303  18.713
 2258TIP3   OH230968   4.394   4.496  17.922
 2258TIP3    H130969   4.419   4.404  17.931
 2258TIP3    H230970   4.475   4.545  17.933
 2259TIP3   OH230971   4.141   4.833  17.891
 2259TIP3    H130972   4.152   4.753  17.840
 2259TIP3    H230973   4.231   4.863  17.907
 2260TIP3   OH230974   6.133   4.498  18.664
 2260TIP3    H130975   6.074   4.501  18.740
 2260TIP3    H230976   6.076   4.511  18.588
 2261TIP3   OH230977   4.307   4.533  17.489
 2261TIP3    H130978   4.349   4.459  17.446
 2261TIP3    H230979   4.291   4.596  17.418
 2262TIP3   OH230980   5.849   5.999  17.611
 2262TIP3    H130981   5.881   5.993  17.521
 2262TIP3    H230982   5.926   6.023  17.663
 2263TIP3   OH230983   4.207   4.245  18.365
 2263TIP3    H130984   4.130   4.208  18.410
 2263TIP3    H230985   4.170   4.305  18.300
 2264TIP3   OH230986   4.406   5.873  18.619
 2264TIP3    H130987   4.316   5.843  18.623
 2264TIP3    H230988   4.426   5.904  18.707
 2265TIP3   OH230989   4.739   5.904  18.309
 2265TIP3    H130990   4.734   6.000  18.311
 2265TIP3    H230991   4.826   5.886  18.272
 2266TIP3   OH230992   5.152   6.021  18.626
 2266TIP3    H130993   5.173   5.958  18.694
 2266TIP3    H230994   5.231   6.075  18.618
 2267TIP3   OH230995   5.400   6.148  18.589
 2267TIP3    H130996   5.438   6.064  18.564
 2267TIP3    H230997   5.467   6.189  18.643
 2268TIP3   OH230998   5.984   4.106  18.433
 2268TIP3    H130999   5.911   4.123  18.372
 2268TIP3    H231000   6.019   4.022  18.405
 2269TIP3   OH231001   4.483   6.242  18.388
 2269TIP3    H131002   4.392   6.244  18.361
 2269TIP3    H231003   4.485   6.292  18.470
 2270TIP3   OH231004   4.737   6.186  18.302
 2270TIP3    H131005   4.650   6.201  18.340
 2270TIP3    H231006   4.737   6.234  18.220
 2271TIP3   OH231007   5.162   6.103  18.163
 2271TIP3    H131008   5.092   6.153  18.122
 2271TIP3    H231009   5.187   6.154  18.240
 2272TIP3   OH231010   5.465   6.184  18.207
 2272TIP3    H131011   5.410   6.229  18.271
 2272TIP3    H231012   5.554   6.197  18.238
 2273TIP3   OH231013   5.768   6.143  18.263
 2273TIP3    H131014   5.779   6.235  18.243
 2273TIP3    H231015   5.806   6.097  18.188
 2274TIP3   OH231016   4.422   6.019  18.039
 2274TIP3    H131017   4.427   5.979  18.125
 2274TIP3    H231018   4.493   5.978  17.989
 2275TIP3   OH231019   4.617   5.879  17.903
 2275TIP3    H131020   4.613   5.786  17.925
 2275TIP3    H231021   4.709   5.903  17.916
 2276TIP3   OH231022   4.884   5.945  17.959
 2276TIP3    H131023   4.947   5.940  17.887
 2276TIP3    H231024   4.929   5.902  18.032
 2277TIP3   OH231025   5.160   4.288  17.779
 2277TIP3    H131026   5.083   4.256  17.826
 2277TIP3    H231027   5.228   4.223  17.798
 2278TIP3   OH231028   4.491   4.182  17.663
 2278TIP3    H131029   4.400   4.161  17.642
 2278TIP3    H231030   4.537   4.098  17.655
 2279TIP3   OH231031   5.035   4.036  17.566
 2279TIP3    H131032   5.102   4.015  17.501
 2279TIP3    H231033   5.046   4.130  17.582
 2280TIP3   OH231034   5.036   4.488  17.444
 2280TIP3    H131035   5.093   4.412  17.452
 2280TIP3    H231036   5.090   4.562  17.473
 2281TIP3   OH231037   4.503   4.370  18.630
 2281TIP3    H131038   4.439   4.305  18.659
 2281TIP3    H231039   4.586   4.342  18.670
 2282TIP3   OH231040   4.696   4.251  18.789
 2282TIP3    H131041   4.785   4.237  18.755
 2282TIP3    H231042   4.665   4.163  18.812
 2283TIP3   OH231043   5.723   4.188  18.893
 2283TIP3    H131044   5.667   4.112  18.908
 2283TIP3    H231045   5.783   4.162  18.824
 2284TIP3   OH231046   5.913   5.912  18.669
 2284TIP3    H131047   5.855   5.913  18.593
 2284TIP3    H231048   5.924   6.004  18.693
 2285TIP3   OH231049   7.711   5.272  17.566
 2285TIP3    H131050   7.744   5.315  17.645
 2285TIP3    H231051   7.626   5.315  17.549
 2286TIP3   OH231052   7.207   5.008  18.158
 2286TIP3    H131053   7.262   4.945  18.205
 2286TIP3    H231054   7.188   4.966  18.074
 2287TIP3   OH231055   6.584   5.102  18.261
 2287TIP3    H131056   6.589   5.009  18.283
 2287TIP3    H231057   6.653   5.115  18.195
 2288TIP3   OH231058   7.796   5.397  17.805
 2288TIP3    H131059   7.821   5.350  17.885
 2288TIP3    H231060   7.810   5.489  17.826
 2289TIP3   OH231061   6.783   5.638  17.908
 2289TIP3    H131062   6.747   5.550  17.903
 2289TIP3    H231063   6.865   5.628  17.957
 2290TIP3   OH231064   6.410   5.092  17.913
 2290TIP3    H131065   6.441   5.003  17.899
 2290TIP3    H231066   6.411   5.132  17.825
 2291TIP3   OH231067   7.193   5.426  18.073
 2291TIP3    H131068   7.226   5.340  18.046
 2291TIP3    H231069   7.267   5.466  18.120
 2292TIP3   OH231070   8.112   4.432  18.175
 2292TIP3    H131071   8.134   4.511  18.225
 2292TIP3    H231072   8.100   4.463  18.085
 2293TIP3   OH231073   7.622   4.774  18.099
 2293TIP3    H131074   7.604   4.681  18.091
 2293TIP3    H231075   7.620   4.806  18.009
 2294TIP3   OH231076   6.870   4.596  17.764
 2294TIP3    H131077   6.858   4.680  17.720
 2294TIP3    H231078   6.819   4.534  17.711
 2295TIP3   OH231079   7.749   4.653  17.700
 2295TIP3    H131080   7.768   4.591  17.770
 2295TIP3    H231081   7.818   4.638  17.635
 2296TIP3   OH231082   6.497   4.831  17.847
 2296TIP3    H131083   6.560   4.782  17.899
 2296TIP3    H231084   6.508   4.798  17.758
 2297TIP3   OH231085   6.907   5.005  17.841
 2297TIP3    H131086   6.982   4.955  17.876
 2297TIP3    H231087   6.868   4.946  17.776
 2298TIP3   OH231088   8.169   4.654  18.327
 2298TIP3    H131089   8.125   4.739  18.335
 2298TIP3    H231090   8.227   4.650  18.403
 2299TIP3   OH231091   6.717   4.514  18.214
 2299TIP3    H131092   6.695   4.565  18.136
 2299TIP3    H231093   6.649   4.537  18.277
 2300TIP3   OH231094   7.457   5.380  17.532
 2300TIP3    H131095   7.422   5.420  17.453
 2300TIP3    H231096   7.381   5.367  17.589
 2301TIP3   OH231097   6.950   5.341  18.189
 2301TIP3    H131098   6.904   5.415  18.228
 2301TIP3    H231099   7.027   5.379  18.148
 2302TIP3   OH231100   7.752   4.470  17.904
 2302TIP3    H131101   7.686   4.479  17.973
 2302TIP3    H231102   7.733   4.386  17.863
 2303TIP3   OH231103   6.699   4.666  17.973
 2303TIP3    H131104   6.749   4.734  18.019
 2303TIP3    H231105   6.759   4.633  17.907
 2304TIP3   OH231106   6.833   5.568  18.311
 2304TIP3    H131107   6.822   5.662  18.300
 2304TIP3    H231108   6.749   5.538  18.346
 2305TIP3   OH231109   7.827   5.738  18.059
 2305TIP3    H131110   7.731   5.735  18.063
 2305TIP3    H231111   7.846   5.825  18.025
 2306TIP3   OH231112   7.895   4.275  18.255
 2306TIP3    H131113   7.819   4.324  18.223
 2306TIP3    H231114   7.971   4.323  18.223
 2307TIP3   OH231115   7.043   4.114  18.076
 2307TIP3    H131116   7.010   4.030  18.044
 2307TIP3    H231117   6.965   4.170  18.081
 2308TIP3   OH231118   8.058   5.541  18.433
 2308TIP3    H131119   8.047   5.468  18.373
 2308TIP3    H231120   8.040   5.619  18.379
 2309TIP3   OH231121   8.153   5.125  18.325
 2309TIP3    H131122   8.101   5.204  18.309
 2309TIP3    H231123   8.210   5.117  18.249
 2310TIP3   OH231124   7.700   5.001  17.514
 2310TIP3    H131125   7.689   5.096  17.521
 2310TIP3    H231126   7.781   4.983  17.561
 2311TIP3   OH231127   7.790   4.940  18.523
 2311TIP3    H131128   7.794   5.035  18.537
 2311TIP3    H231129   7.718   4.928  18.461
 2312TIP3   OH231130   6.837   5.227  17.686
 2312TIP3    H131131   6.818   5.190  17.600
 2312TIP3    H231132   6.870   5.153  17.737
 2313TIP3   OH231133   7.060   5.646  17.962
 2313TIP3    H131134   7.061   5.635  17.867
 2313TIP3    H231135   7.108   5.570  17.995
 2314TIP3   OH231136   6.799   5.130  18.073
 2314TIP3    H131137   6.838   5.107  17.989
 2314TIP3    H231138   6.851   5.204  18.104
 2315TIP3   OH231139   7.552   5.743  18.094
 2315TIP3    H131140   7.529   5.821  18.145
 2315TIP3    H231141   7.490   5.676  18.124
 2316TIP3   OH231142   6.945   5.618  18.561
 2316TIP3    H131143   6.872   5.671  18.592
 2316TIP3    H231144   6.919   5.592  18.472
 2317TIP3   OH231145   6.685   5.160  18.535
 2317TIP3    H131146   6.669   5.246  18.574
 2317TIP3    H231147   6.633   5.159  18.455
 2318TIP3   OH231148   6.734   5.801  18.600
 2318TIP3    H131149   6.765   5.829  18.514
 2318TIP3    H231150   6.640   5.820  18.599
 2319TIP3   OH231151   8.105   4.249  17.265
 2319TIP3    H131152   8.116   4.158  17.239
 2319TIP3    H231153   8.077   4.294  17.185
 2320TIP3   OH231154   6.818   5.109  17.437
 2320TIP3    H131155   6.906   5.109  17.400
 2320TIP3    H231156   6.772   5.041  17.388
 2321TIP3   OH231157   8.067   5.772  17.238
 2321TIP3    H131158   8.006   5.808  17.303
 2321TIP3    H231159   8.148   5.822  17.251
 2322TIP3   OH231160   6.370   5.339  18.408
 2322TIP3    H131161   6.357   5.309  18.318
 2322TIP3    H231162   6.372   5.258  18.460
 2323TIP3   OH231163   6.312   5.669  18.131
 2323TIP3    H131164   6.375   5.676  18.060
 2323TIP3    H231165   6.327   5.747  18.185
 2324TIP3   OH231166   8.120   5.769  18.605
 2324TIP3    H131167   8.103   5.687  18.559
 2324TIP3    H231168   8.034   5.808  18.617
 2325TIP3   OH231169   7.180   5.768  18.517
 2325TIP3    H131170   7.187   5.851  18.564
 2325TIP3    H231171   7.098   5.730  18.548
 2326TIP3   OH231172   6.704   6.029  17.697
 2326TIP3    H131173   6.716   5.992  17.785
 2326TIP3    H231174   6.622   5.989  17.666
 2327TIP3   OH231175   7.972   4.793  18.667
 2327TIP3    H131176   7.906   4.852  18.628
 2327TIP3    H231177   7.965   4.713  18.615
 2328TIP3   OH231178   6.608   5.482  18.442
 2328TIP3    H131179   6.617   5.462  18.535
 2328TIP3    H231180   6.524   5.445  18.417
 2329TIP3   OH231181   6.804   4.268  18.110
 2329TIP3    H131182   6.735   4.253  18.045
 2329TIP3    H231183   6.786   4.356  18.143
 2330TIP3   OH231184   7.298   4.295  18.422
 2330TIP3    H131185   7.338   4.230  18.479
 2330TIP3    H231186   7.205   4.291  18.441
 2331TIP3   OH231187   7.664   4.617  18.475
 2331TIP3    H131188   7.618   4.618  18.559
 2331TIP3    H231189   7.643   4.701  18.434
 2332TIP3   OH231190   7.887   5.199  17.026
 2332TIP3    H131191   7.799   5.175  16.996
 2332TIP3    H231192   7.881   5.202  17.121
 2333TIP3   OH231193   7.330   4.603  17.154
 2333TIP3    H131194   7.244   4.575  17.188
 2333TIP3    H231195   7.338   4.558  17.070
 2334TIP3   OH231196   6.822   4.859  18.134
 2334TIP3    H131197   6.756   4.849  18.203
 2334TIP3    H231198   6.816   4.951  18.109
 2335TIP3   OH231199   6.805   4.833  17.641
 2335TIP3    H131200   6.715   4.813  17.618
 2335TIP3    H231201   6.855   4.820  17.560
 2336TIP3   OH231202   7.455   4.859  17.487
 2336TIP3    H131203   7.534   4.911  17.500
 2336TIP3    H231204   7.487   4.772  17.462
 2337TIP3   OH231205   7.293   4.881  18.600
 2337TIP3    H131206   7.252   4.812  18.652
 2337TIP3    H231207   7.380   4.892  18.640
 2338TIP3   OH231208   7.627   4.858  17.834
 2338TIP3    H131209   7.559   4.894  17.778
 2338TIP3    H231210   7.663   4.784  17.784
 2339TIP3   OH231211   6.646   4.837  18.340
 2339TIP3    H131212   6.710   4.865  18.406
 2339TIP3    H231213   6.610   4.755  18.375
 2340TIP3   OH231214   6.809   4.687  17.121
 2340TIP3    H131215   6.890   4.640  17.143
 2340TIP3    H231216   6.778   4.646  17.040
 2341TIP3   OH231217   6.218   4.523  17.862
 2341TIP3    H131218   6.303   4.510  17.905
 2341TIP3    H231219   6.233   4.496  17.771
 2342TIP3   OH231220   6.352   4.631  17.409
 2342TIP3    H131221   6.382   4.570  17.342
 2342TIP3    H231222   6.286   4.684  17.365
 2343TIP3   OH231223   7.588   4.859  18.354
 2343TIP3    H131224   7.613   4.837  18.264
 2343TIP3    H231225   7.492   4.867  18.351
 2344TIP3   OH231226   7.149   4.627  17.785
 2344TIP3    H131227   7.057   4.600  17.782
 2344TIP3    H231228   7.198   4.545  17.787
 2345TIP3   OH231229   6.551   4.709  17.602
 2345TIP3    H131230   6.482   4.698  17.536
 2345TIP3    H231231   6.594   4.624  17.605
 2346TIP3   OH231232   6.961   4.755  17.428
 2346TIP3    H131233   7.050   4.755  17.462
 2346TIP3    H231234   6.961   4.688  17.360
 2347TIP3   OH231235   7.546   4.505  18.097
 2347TIP3    H131236   7.496   4.522  18.176
 2347TIP3    H231237   7.495   4.439  18.050
 2348TIP3   OH231238   6.769   4.949  17.203
 2348TIP3    H131239   6.689   4.964  17.151
 2348TIP3    H231240   6.789   4.856  17.189
 2349TIP3   OH231241   7.927   6.190  18.669
 2349TIP3    H131242   7.955   6.214  18.581
 2349TIP3    H231243   7.999   6.218  18.725
 2350TIP3   OH231244   6.620   5.376  18.701
 2350TIP3    H131245   6.683   5.386  18.772
 2350TIP3    H231246   6.535   5.397  18.740
 2351TIP3   OH231247   7.113   4.842  17.950
 2351TIP3    H131248   7.139   4.779  17.882
 2351TIP3    H231249   7.090   4.789  18.025
 2352TIP3   OH231250   6.690   4.467  17.596
 2352TIP3    H131251   6.655   4.381  17.619
 2352TIP3    H231252   6.707   4.462  17.502
 2353TIP3   OH231253   7.056   4.730  18.199
 2353TIP3    H131254   6.978   4.784  18.188
 2353TIP3    H231255   7.117   4.785  18.248
 2354TIP3   OH231256   7.057   5.365  17.290
 2354TIP3    H131257   7.046   5.270  17.282
 2354TIP3    H231258   7.028   5.385  17.379
 2355TIP3   OH231259   8.028   5.352  18.231
 2355TIP3    H131260   8.102   5.386  18.180
 2355TIP3    H231261   7.964   5.325  18.165
 2356TIP3   OH231262   7.510   4.609  17.376
 2356TIP3    H131263   7.456   4.587  17.300
 2356TIP3    H231264   7.591   4.644  17.339
 2357TIP3   OH231265   7.364   5.571  18.476
 2357TIP3    H131266   7.340   5.509  18.545
 2357TIP3    H231267   7.301   5.643  18.486
 2358TIP3   OH231268   7.730   4.775  17.351
 2358TIP3    H131269   7.806   4.731  17.390
 2358TIP3    H231270   7.727   4.860  17.395
 2359TIP3   OH231271   6.723   5.371  17.893
 2359TIP3    H131272   6.756   5.328  17.815
 2359TIP3    H231273   6.692   5.300  17.949
 2360TIP3   OH231274   7.304   5.493  17.336
 2360TIP3    H131275   7.291   5.588  17.330
 2360TIP3    H231276   7.220   5.456  17.307
 2361TIP3   OH231277   6.378   5.101  18.545
 2361TIP3    H131278   6.435   5.083  18.620
 2361TIP3    H231279   6.316   5.027  18.544
 2362TIP3   OH231280   7.144   5.123  18.599
 2362TIP3    H131281   7.102   5.132  18.513
 2362TIP3    H231282   7.199   5.046  18.591
 2363TIP3   OH231283   7.615   5.680  18.522
 2363TIP3    H131284   7.531   5.643  18.494
 2363TIP3    H231285   7.600   5.710  18.612
 2364TIP3   OH231286   8.274   5.391  18.558
 2364TIP3    H131287   8.207   5.452  18.528
 2364TIP3    H231288   8.327   5.373  18.480
 2365TIP3   OH231289   7.850   5.243  18.037
 2365TIP3    H131290   7.769   5.223  18.084
 2365TIP3    H231291   7.869   5.164  17.986
 2366TIP3   OH231292   6.967   5.678  17.695
 2366TIP3    H131293   6.974   5.769  17.667
 2366TIP3    H231294   6.886   5.674  17.745
 2367TIP3   OH231295   6.981   5.428  17.548
 2367TIP3    H131296   6.979   5.514  17.591
 2367TIP3    H231297   6.930   5.371  17.605
 2368TIP3   OH231298   7.111   5.920  18.295
 2368TIP3    H131299   7.174   5.992  18.287
 2368TIP3    H231300   7.149   5.863  18.362
 2369TIP3   OH231301   6.977   5.967  17.657
 2369TIP3    H131302   6.887   5.997  17.662
 2369TIP3    H231303   7.028   6.035  17.700
 2370TIP3   OH231304   7.417   5.519  18.212
 2370TIP3    H131305   7.391   5.540  18.301
 2370TIP3    H231306   7.503   5.479  18.220
 2371TIP3   OH231307   7.765   5.895  18.411
 2371TIP3    H131308   7.692   5.834  18.423
 2371TIP3    H231309   7.734   5.957  18.345
 2372TIP3   OH231310   6.558   4.587  18.438
 2372TIP3    H131311   6.482   4.619  18.486
 2372TIP3    H231312   6.582   4.505  18.483
 2373TIP3   OH231313   7.926   5.237  17.295
 2373TIP3    H131314   7.875   5.262  17.372
 2373TIP3    H231315   8.015   5.227  17.327
 2374TIP3   OH231316   6.438   5.914  18.273
 2374TIP3    H131317   6.468   5.862  18.347
 2374TIP3    H231318   6.437   6.004  18.305
 2375TIP3   OH231319   7.008   5.650  16.898
 2375TIP3    H131320   6.916   5.663  16.873
 2375TIP3    H231321   7.026   5.559  16.874
 2376TIP3   OH231322   7.414   4.544  18.345
 2376TIP3    H131323   7.497   4.538  18.393
 2376TIP3    H231324   7.369   4.462  18.367
 2377TIP3   OH231325   7.550   4.468  17.614
 2377TIP3    H131326   7.529   4.498  17.525
 2377TIP3    H231327   7.611   4.533  17.648
 2378TIP3   OH231328   7.275   5.770  17.328
 2378TIP3    H131329   7.201   5.825  17.355
 2378TIP3    H231330   7.308   5.812  17.249
 2379TIP3   OH231331   7.212   4.732  17.538
 2379TIP3    H131332   7.293   4.783  17.532
 2379TIP3    H231333   7.201   4.714  17.631
 2380TIP3   OH231334   7.306   4.809  18.332
 2380TIP3    H131335   7.292   4.829  18.425
 2380TIP3    H231336   7.331   4.717  18.330
 2381TIP3   OH231337   7.307   4.398  17.722
 2381TIP3    H131338   7.254   4.403  17.642
 2381TIP3    H231339   7.396   4.415  17.692
 2382TIP3   OH231340   7.095   5.963  17.404
 2382TIP3    H131341   7.066   6.041  17.356
 2382TIP3    H231342   7.043   5.963  17.484
 2383TIP3   OH231343   7.939   4.575  18.499
 2383TIP3    H131344   7.844   4.575  18.484
 2383TIP3    H231345   7.978   4.587  18.413
 2384TIP3   OH231346   7.856   4.996  17.911
 2384TIP3    H131347   7.773   4.950  17.902
 2384TIP3    H231348   7.908   4.941  17.970
 2385TIP3   OH231349   6.543   4.984  17.049
 2385TIP3    H131350   6.452   5.013  17.055
 2385TIP3    H231351   6.538   4.898  17.008
 2386TIP3   OH231352   7.910   6.002  18.009
 2386TIP3    H131353   7.912   6.068  17.940
 2386TIP3    H231354   8.002   5.978  18.021
 2387TIP3   OH231355   6.582   4.246  17.945
 2387TIP3    H131356   6.583   4.234  17.850
 2387TIP3    H231357   6.552   4.162  17.980
 2388TIP3   OH231358   6.448   5.947  17.644
 2388TIP3    H131359   6.389   5.955  17.719
 2388TIP3    H231360   6.391   5.964  17.568
 2389TIP3   OH231361   6.396   6.150  18.711
 2389TIP3    H131362   6.429   6.107  18.790
 2389TIP3    H231363   6.396   6.083  18.644
 2390TIP3   OH231364   6.741   5.824  18.879
 2390TIP3    H131365   6.810   5.886  18.902
 2390TIP3    H231366   6.747   5.814  18.784
 2391TIP3   OH231367   7.370   5.902  17.101
 2391TIP3    H131368   7.327   5.863  17.025
 2391TIP3    H231369   7.460   5.871  17.096
 2392TIP3   OH231370   7.558   5.743  18.787
 2392TIP3    H131371   7.532   5.668  18.841
 2392TIP3    H231372   7.638   5.776  18.829
 2393TIP3   OH231373   6.353   5.429  18.785
 2393TIP3    H131374   6.290   5.365  18.819
 2393TIP3    H231375   6.310   5.467  18.709
 2394TIP3   OH231376   7.054   5.420  18.720
 2394TIP3    H131377   7.018   5.480  18.654
 2394TIP3    H231378   7.077   5.341  18.671
 2395TIP3   OH231379   7.804   5.468  18.539
 2395TIP3    H131380   7.887   5.504  18.510
 2395TIP3    H231381   7.741   5.540  18.531
 2396TIP3   OH231382   6.547   5.058  18.764
 2396TIP3    H131383   6.612   5.103  18.711
 2396TIP3    H231384   6.534   5.116  18.839
 2397TIP3   OH231385   7.009   5.086  17.230
 2397TIP3    H131386   6.928   5.035  17.223
 2397TIP3    H231387   7.063   5.055  17.157
 2398TIP3   OH231388   6.860   4.954  18.476
 2398TIP3    H131389   6.802   5.021  18.513
 2398TIP3    H231390   6.925   5.004  18.427
 2399TIP3   OH231391   7.128   4.967  17.011
 2399TIP3    H131392   7.077   4.898  16.968
 2399TIP3    H231393   7.166   5.017  16.938
 2400TIP3   OH231394   7.485   5.300  18.799
 2400TIP3    H131395   7.577   5.274  18.790
 2400TIP3    H231396   7.439   5.219  18.822
 2401TIP3   OH231397   6.946   4.709  18.576
 2401TIP3    H131398   6.943   4.647  18.504
 2401TIP3    H231399   6.921   4.792  18.537
 2402TIP3   OH231400   6.950   4.533  18.360
 2402TIP3    H131401   7.003   4.583  18.298
 2402TIP3    H231402   6.867   4.517  18.313
 2403TIP3   OH231403   7.037   5.122  18.341
 2403TIP3    H131404   7.098   5.087  18.277
 2403TIP3    H231405   6.998   5.198  18.298
 2404TIP3   OH231406   7.547   4.886  18.720
 2404TIP3    H131407   7.547   4.790  18.726
 2404TIP3    H231408   7.633   4.907  18.683
 2405TIP3   OH231409   7.840   5.200  18.595
 2405TIP3    H131410   7.819   5.291  18.573
 2405TIP3    H231411   7.935   5.199  18.605
 2406TIP3   OH231412   6.817   4.696  18.819
 2406TIP3    H131413   6.727   4.666  18.807
 2406TIP3    H231414   6.851   4.705  18.730
 2407TIP3   OH231415   7.018   4.282  18.461
 2407TIP3    H131416   7.001   4.372  18.435
 2407TIP3    H231417   6.946   4.231  18.424
 2408TIP3   OH231418   7.174   4.668  18.733
 2408TIP3    H131419   7.145   4.613  18.805
 2408TIP3    H231420   7.097   4.677  18.677
 2409TIP3   OH231421   7.523   4.612  18.715
 2409TIP3    H131422   7.431   4.591  18.731
 2409TIP3    H231423   7.571   4.544  18.760
 2410TIP3   OH231424   7.658   4.409  18.848
 2410TIP3    H131425   7.645   4.320  18.816
 2410TIP3    H231426   7.616   4.410  18.933
 2411TIP3   OH231427   6.571   4.552  18.781
 2411TIP3    H131428   6.579   4.484  18.714
 2411TIP3    H231429   6.575   4.505  18.864
 2412TIP3   OH231430   7.004   4.134  18.699
 2412TIP3    H131431   7.058   4.058  18.679
 2412TIP3    H231432   7.007   4.187  18.619
 2413TIP3   OH231433   7.114   4.262  18.917
 2413TIP3    H131434   7.080   4.213  18.842
 2413TIP3    H231435   7.071   4.347  18.912
 2414TIP3   OH231436   7.053   6.203  17.263
 2414TIP3    H131437   7.146   6.197  17.241
 2414TIP3    H231438   7.034   6.297  17.263
 2415TIP3   OH231439   6.301   6.216  17.659
 2415TIP3    H131440   6.283   6.159  17.584
 2415TIP3    H231441   6.295   6.158  17.735
 2416TIP3   OH231442   6.299   6.035  17.869
 2416TIP3    H131443   6.229   6.030  17.935
 2416TIP3    H231444   6.380   6.038  17.920
 2417TIP3   OH231445   8.185   5.963  18.025
 2417TIP3    H131446   8.232   6.024  18.082
 2417TIP3    H231447   8.222   5.978  17.938
 2418TIP3   OH231448   8.124   5.970  18.395
 2418TIP3    H131449   8.086   5.905  18.336
 2418TIP3    H231450   8.155   5.919  18.470
 2419TIP3   OH231451   8.118   5.530  18.919
 2419TIP3    H131452   8.039   5.546  18.970
 2419TIP3    H231453   8.150   5.617  18.896
 2420TIP3   OH231454   8.209   5.192  17.351
 2420TIP3    H131455   8.292   5.238  17.363
 2420TIP3    H231456   8.196   5.142  17.431
 2421TIP3   OH231457   8.179   5.022  17.566
 2421TIP3    H131458   8.088   4.997  17.584
 2421TIP3    H231459   8.222   5.022  17.652
 2422TIP3   OH231460   8.251   5.440  18.100
 2422TIP3    H131461   8.278   5.405  18.015
 2422TIP3    H231462   8.258   5.535  18.090
 2423TIP3   OH231463   7.972   5.758  18.292
 2423TIP3    H131464   7.901   5.806  18.335
 2423TIP3    H231465   7.939   5.739  18.204
 2424TIP3   OH231466   8.292   5.028  17.138
 2424TIP3    H131467   8.329   5.087  17.073
 2424TIP3    H231468   8.246   5.085  17.199
 2425TIP3   OH231469   7.932   4.931  17.653
 2425TIP3    H131470   7.913   4.838  17.659
 2425TIP3    H231471   7.912   4.965  17.741
 2426TIP3   OH231472   6.344   5.200  18.161
 2426TIP3    H131473   6.349   5.167  18.071
 2426TIP3    H231474   6.424   5.167  18.203
 2427TIP3   OH231475   8.116   5.176  18.648
 2427TIP3    H131476   8.160   5.092  18.635
 2427TIP3    H231477   8.177   5.241  18.614
 2428TIP3   OH231478   8.226   4.893  18.617
 2428TIP3    H131479   8.138   4.868  18.644
 2428TIP3    H231480   8.272   4.810  18.604
 2429TIP3   OH231481   7.946   4.667  17.503
 2429TIP3    H131482   7.970   4.575  17.490
 2429TIP3    H231483   8.027   4.715  17.485
 2430TIP3   OH231484   8.017   4.853  18.075
 2430TIP3    H131485   8.112   4.842  18.063
 2430TIP3    H231486   8.005   4.856  18.170
 2431TIP3   OH231487   8.019   4.885  18.353
 2431TIP3    H131488   7.943   4.901  18.409
 2431TIP3    H231489   8.067   4.968  18.353
 2432TIP3   OH231490   6.359   4.655  18.624
 2432TIP3    H131491   6.422   4.635  18.693
 2432TIP3    H231492   6.286   4.595  18.640
 2433TIP3   OH231493   8.176   4.209  18.758
 2433TIP3    H131494   8.232   4.169  18.691
 2433TIP3    H231495   8.157   4.296  18.724
 2434TIP3   OH231496   8.043   4.415  17.475
 2434TIP3    H131497   8.060   4.362  17.553
 2434TIP3    H231498   8.045   4.352  17.403
 2435TIP3   OH231499   6.470   4.498  17.967
 2435TIP3    H131500   6.507   4.410  17.964
 2435TIP3    H231501   6.546   4.556  17.962
 2436TIP3   OH231502   6.226   4.797  17.909
 2436TIP3    H131503   6.319   4.817  17.898
 2436TIP3    H231504   6.220   4.703  17.896
 2437TIP3   OH231505   8.107   4.466  18.689
 2437TIP3    H131506   8.047   4.478  18.762
 2437TIP3    H231507   8.057   4.494  18.612
 2438TIP3   OH231508   6.276   4.448  17.607
 2438TIP3    H131509   6.311   4.367  17.571
 2438TIP3    H231510   6.298   4.515  17.542
 2439TIP3   OH231511   6.242   4.217  18.396
 2439TIP3    H131512   6.158   4.177  18.420
 2439TIP3    H231513   6.222   4.274  18.322
 2440TIP3   OH231514   6.458   5.873  18.623
 2440TIP3    H131515   6.369   5.839  18.612
 2440TIP3    H231516   6.465   5.889  18.717
 2441TIP3   OH231517   6.838   5.854  18.344
 2441TIP3    H131518   6.790   5.931  18.315
 2441TIP3    H231519   6.930   5.877  18.330
 2442TIP3   OH231520   7.237   6.022  18.624
 2442TIP3    H131521   7.260   5.980  18.707
 2442TIP3    H231522   7.312   6.079  18.605
 2443TIP3   OH231523   7.463   6.183  18.574
 2443TIP3    H131524   7.525   6.141  18.515
 2443TIP3    H231525   7.516   6.215  18.647
 2444TIP3   OH231526   8.067   4.125  18.419
 2444TIP3    H131527   8.002   4.166  18.361
 2444TIP3    H231528   8.081   4.038  18.382
 2445TIP3   OH231529   6.464   6.182  18.356
 2445TIP3    H131530   6.383   6.221  18.324
 2445TIP3    H231531   6.493   6.240  18.426
 2446TIP3   OH231532   6.720   6.091  18.274
 2446TIP3    H131533   6.633   6.122  18.300
 2446TIP3    H231534   6.758   6.165  18.226
 2447TIP3   OH231535   7.278   6.141  18.227
 2447TIP3    H131536   7.211   6.165  18.163
 2447TIP3    H231537   7.298   6.222  18.273
 2448TIP3   OH231538   7.502   5.973  18.236
 2448TIP3    H131539   7.425   6.030  18.232
 2448TIP3    H231540   7.576   6.032  18.220
 2449TIP3   OH231541   7.746   6.100  18.210
 2449TIP3    H131542   7.776   6.191  18.217
 2449TIP3    H231543   7.799   6.063  18.140
 2450TIP3   OH231544   6.522   6.037  18.026
 2450TIP3    H131545   6.497   5.997  18.109
 2450TIP3    H231546   6.603   5.992  18.002
 2451TIP3   OH231547   6.749   5.907  17.941
 2451TIP3    H131548   6.743   5.813  17.928
 2451TIP3    H231549   6.834   5.921  17.982
 2452TIP3   OH231550   7.006   5.905  18.044
 2452TIP3    H131551   7.028   5.818  18.010
 2452TIP3    H231552   7.040   5.904  18.134
 2453TIP3   OH231553   7.398   4.316  17.970
 2453TIP3    H131554   7.378   4.223  17.979
 2453TIP3    H231555   7.359   4.341  17.886
 2454TIP3   OH231556   7.934   4.119  17.792
 2454TIP3    H131557   8.000   4.181  17.762
 2454TIP3    H231558   7.851   4.165  17.779
 2455TIP3   OH231559   8.143   4.273  17.691
 2455TIP3    H131560   8.190   4.191  17.672
 2455TIP3    H231561   8.212   4.338  17.702
 2456TIP3   OH231562   6.584   4.216  17.668
 2456TIP3    H131563   6.504   4.203  17.616
 2456TIP3    H231564   6.625   4.130  17.673
 2457TIP3   OH231565   6.502   4.336  17.304
 2457TIP3    H131566   6.585   4.383  17.309
 2457TIP3    H231567   6.515   4.271  17.235
 2458TIP3   OH231568   7.090   4.191  17.601
 2458TIP3    H131569   7.092   4.276  17.558
 2458TIP3    H231570   7.123   4.207  17.689
 2459TIP3   OH231571   7.687   4.247  17.752
 2459TIP3    H131572   7.634   4.296  17.689
 2459TIP3    H231573   7.646   4.161  17.755
 2460TIP3   OH231574   6.260   6.035  17.447
 2460TIP3    H131575   6.218   5.956  17.412
 2460TIP3    H231576   6.260   6.096  17.373
 2461TIP3   OH231577   7.150   4.453  17.506
 2461TIP3    H131578   7.115   4.445  17.417
 2461TIP3    H231579   7.170   4.546  17.515
 2462TIP3   OH231580   7.322   6.156  17.204
 2462TIP3    H131581   7.381   6.207  17.149
 2462TIP3    H231582   7.332   6.066  17.171
 2463TIP3   OH231583   6.595   4.346  18.591
 2463TIP3    H131584   6.561   4.280  18.531
 2463TIP3    H231585   6.646   4.296  18.655
 2464TIP3   OH231586   6.722   4.200  18.798
 2464TIP3    H131587   6.807   4.164  18.771
 2464TIP3    H231588   6.669   4.123  18.817
 2465TIP3   OH231589   7.655   4.144  18.747
 2465TIP3    H131590   7.648   4.085  18.823
 2465TIP3    H231591   7.743   4.130  18.713
 2466TIP3   OH231592   7.891   5.914  18.653
 2466TIP3    H131593   7.844   5.907  18.570
 2466TIP3    H231594   7.906   6.008  18.664
 2467TIP3   OH231595   8.358   4.899  17.386
 2467TIP3    H131596   8.291   4.938  17.442
 2467TIP3    H231597   8.360   4.955  17.309
 2468TIP3   OH231598   8.404   5.350  18.313
 2468TIP3    H131599   8.353   5.392  18.243
 2468TIP3    H231600   8.421   5.261  18.281
 2469TIP3   OH231601   8.289   5.704  18.060
 2469TIP3    H131602   8.379   5.735  18.070
 2469TIP3    H231603   8.237   5.784  18.051
 2470TIP3   OH231604   8.346   4.461  17.669
 2470TIP3    H131605   8.416   4.522  17.692
 2470TIP3    H231606   8.352   4.452  17.574
 2471TIP3   OH231607   8.382   5.074  18.480
 2471TIP3    H131608   8.344   5.005  18.535
 2471TIP3    H231609   8.310   5.100  18.422
 2472TIP3   OH231610   8.416   5.421  18.804
 2472TIP3    H131611   8.338   5.437  18.858
 2472TIP3    H231612   8.382   5.412  18.715
 2473TIP3   OH231613   8.204   6.207  17.630
 2473TIP3    H131614   8.124   6.178  17.587
 2473TIP3    H231615   8.227   6.134  17.688
 2474TIP3   OH231616   8.305   5.988  17.776
 2474TIP3    H131617   8.281   5.911  17.724
 2474TIP3    H231618   8.398   6.000  17.758
 2475TIP3   OH231619   8.332   5.095  18.126
 2475TIP3    H131620   8.313   5.004  18.102
 2475TIP3    H231621   8.422   5.109  18.096
 2476TIP3   OH231622   8.318   4.629  18.566
 2476TIP3    H131623   8.407   4.596  18.570
 2476TIP3    H231624   8.267   4.568  18.619
 2477TIP3   OH231625   8.293   4.824  18.071
 2477TIP3    H131626   8.355   4.815  17.998
 2477TIP3    H231627   8.318   4.755  18.132
 2478TIP3   OH231628   8.308   4.430  17.385
 2478TIP3    H131629   8.220   4.448  17.418
 2478TIP3    H231630   8.295   4.362  17.319
 2479TIP3   OH231631   8.290   4.239  18.272
 2479TIP3    H131632   8.233   4.202  18.340
 2479TIP3    H231633   8.237   4.307  18.231
 2480TIP3   OH231634   1.450   7.450  17.570
 2480TIP3    H131635   1.454   7.527  17.513
 2480TIP3    H231636   1.364   7.412  17.553
 2481TIP3   OH231637   1.059   7.148  18.124
 2481TIP3    H131638   1.139   7.119  18.166
 2481TIP3    H231639   1.043   7.085  18.054
 2482TIP3   OH231640   0.382   7.129  18.160
 2482TIP3    H131641   0.390   7.059  18.224
 2482TIP3    H231642   0.471   7.145  18.131
 2483TIP3   OH231643   0.388   7.645  18.016
 2483TIP3    H131644   0.403   7.571  17.957
 2483TIP3    H231645   0.413   7.612  18.103
 2484TIP3   OH231646   0.087   6.891  17.500
 2484TIP3    H131647   8.440   6.894  17.507
 2484TIP3    H231648   0.115   6.838  17.575
 2485TIP3   OH231649   0.313   7.195  17.796
 2485TIP3    H131650   0.304   7.100  17.809
 2485TIP3    H231651   0.336   7.205  17.704
 2486TIP3   OH231652   1.012   7.427  18.081
 2486TIP3    H131653   1.030   7.333  18.085
 2486TIP3    H231654   1.090   7.468  18.118
 2487TIP3   OH231655   2.123   6.509  18.215
 2487TIP3    H131656   2.082   6.586  18.254
 2487TIP3    H231657   2.168   6.542  18.137
 2488TIP3   OH231658   1.384   6.812  18.069
 2488TIP3    H131659   1.368   6.718  18.074
 2488TIP3    H231660   1.366   6.834  17.978
 2489TIP3   OH231661   1.559   6.766  17.734
 2489TIP3    H131662   1.621   6.724  17.793
 2489TIP3    H231663   1.613   6.803  17.664
 2490TIP3   OH231664   0.277   6.918  17.840
 2490TIP3    H131665   0.336   6.877  17.903
 2490TIP3    H231666   0.256   6.849  17.778
 2491TIP3   OH231667   0.721   7.119  17.780
 2491TIP3    H131668   0.814   7.103  17.763
 2491TIP3    H231669   0.676   7.045  17.740
 2492TIP3   OH231670   2.010   6.726  18.366
 2492TIP3    H131671   1.970   6.810  18.343
 2492TIP3    H231672   2.073   6.746  18.435
 2493TIP3   OH231673   0.495   6.588  18.211
 2493TIP3    H131674   0.479   6.659  18.148
 2493TIP3    H231675   0.419   6.591  18.269
 2494TIP3   OH231676   0.754   7.397  18.185
 2494TIP3    H131677   0.710   7.477  18.214
 2494TIP3    H231678   0.835   7.427  18.144
 2495TIP3   OH231679   1.774   6.676  17.885
 2495TIP3    H131680   1.860   6.638  17.866
 2495TIP3    H231681   1.791   6.740  17.953
 2496TIP3   OH231682   0.450   6.816  18.050
 2496TIP3    H131683   0.402   6.853  18.124
 2496TIP3    H231684   0.539   6.850  18.061
 2497TIP3   OH231685   0.639   7.641  18.270
 2497TIP3    H131686   0.656   7.705  18.202
 2497TIP3    H231687   0.551   7.662  18.301
 2498TIP3   OH231688   0.291   7.607  17.232
 2498TIP3    H131689   0.300   7.670  17.161
 2498TIP3    H231690   0.262   7.659  17.307
 2499TIP3   OH231691   1.609   7.932  18.113
 2499TIP3    H131692   1.520   7.965  18.124
 2499TIP3    H231693   1.660   8.008  18.084
 2500TIP3   OH231694   1.532   6.398  18.145
 2500TIP3    H131695   1.451   6.448  18.133
 2500TIP3    H231696   1.581   6.413  18.064
 2501TIP3   OH231697   0.926   6.263  17.796
 2501TIP3    H131698   0.916   6.283  17.703
 2501TIP3    H231699   0.929   6.167  17.800
 2502TIP3   OH231700   1.840   7.612  18.410
 2502TIP3    H131701   1.846   7.548  18.339
 2502TIP3    H231702   1.835   7.697  18.365
 2503TIP3   OH231703   1.212   7.319  17.499
 2503TIP3    H131704   1.125   7.355  17.483
 2503TIP3    H231705   1.234   7.273  17.418
 2504TIP3   OH231706   2.013   7.200  18.248
 2504TIP3    H131707   1.953   7.275  18.243
 2504TIP3    H231708   2.067   7.208  18.170
 2505TIP3   OH231709   1.585   7.218  17.500
 2505TIP3    H131710   1.554   7.303  17.531
 2505TIP3    H231711   1.657   7.195  17.559
 2506TIP3   OH231712   1.640   7.064  18.429
 2506TIP3    H131713   1.637   7.144  18.482
 2506TIP3    H231714   1.565   7.071  18.371
 2507TIP3   OH231715   0.619   7.348  17.662
 2507TIP3    H131716   0.551   7.311  17.607
 2507TIP3    H231717   0.661   7.273  17.703
 2508TIP3   OH231718   0.886   7.632  17.936
 2508TIP3    H131719   0.873   7.604  17.845
 2508TIP3    H231720   0.933   7.559  17.976
 2509TIP3   OH231721   0.642   7.175  18.053
 2509TIP3    H131722   0.663   7.179  17.959
 2509TIP3    H231723   0.674   7.257  18.089
 2510TIP3   OH231724   0.776   7.692  18.510
 2510TIP3    H131725   0.704   7.739  18.552
 2510TIP3    H231726   0.740   7.665  18.425
 2511TIP3   OH231727   1.392   7.062  17.389
 2511TIP3    H131728   1.440   6.983  17.366
 2511TIP3    H231729   1.457   7.120  17.427
 2512TIP3   OH231730   0.459   7.168  18.473
 2512TIP3    H131731   0.464   7.218  18.555
 2512TIP3    H231732   0.371   7.186  18.439
 2513TIP3   OH231733   0.566   7.841  18.610
 2513TIP3    H131734   0.567   7.887  18.526
 2513TIP3    H231735   0.475   7.813  18.621
 2514TIP3   OH231736   1.841   6.252  17.437
 2514TIP3    H131737   1.753   6.288  17.438
 2514TIP3    H231738   1.894   6.320  17.395
 2515TIP3   OH231739   0.400   7.217  17.530
 2515TIP3    H131740   0.406   7.283  17.461
 2515TIP3    H231741   0.358   7.143  17.489
 2516TIP3   OH231742   0.191   7.494  18.424
 2516TIP3    H131743   0.102   7.497  18.390
 2516TIP3    H231744   0.203   7.403  18.451
 2517TIP3   OH231745   0.160   7.803  18.042
 2517TIP3    H131746   0.225   7.735  18.023
 2517TIP3    H231747   0.197   7.852  18.115
 2518TIP3   OH231748   2.068   7.919  18.640
 2518TIP3    H131749   2.071   7.827  18.616
 2518TIP3    H231750   1.981   7.931  18.680
 2519TIP3   OH231751   1.002   7.853  18.476
 2519TIP3    H131752   1.013   7.921  18.542
 2519TIP3    H231753   0.923   7.806  18.503
 2520TIP3   OH231754   1.122   8.270  17.489
 2520TIP3    H131755   1.154   8.188  17.452
 2520TIP3    H231756   1.185   8.336  17.460
 2521TIP3   OH231757   0.466   8.068  17.626
 2521TIP3    H131758   0.462   7.989  17.681
 2521TIP3    H231759   0.432   8.039  17.541
 2522TIP3   OH231760   1.771   6.894  18.605
 2522TIP3    H131761   1.731   6.962  18.551
 2522TIP3    H231762   1.725   6.814  18.582
 2523TIP3   OH231763   0.380   7.688  18.369
 2523TIP3    H131764   0.377   7.715  18.460
 2523TIP3    H231765   0.319   7.615  18.363
 2524TIP3   OH231766   1.096   6.320  18.412
 2524TIP3    H131767   1.126   6.281  18.494
 2524TIP3    H231768   1.001   6.326  18.421
 2525TIP3   OH231769   1.591   6.704  18.503
 2525TIP3    H131770   1.519   6.687  18.565
 2525TIP3    H231771   1.548   6.736  18.424
 2526TIP3   OH231772   0.689   6.924  18.145
 2526TIP3    H131773   0.678   6.941  18.238
 2526TIP3    H231774   0.683   7.010  18.103
 2527TIP3   OH231775   1.220   7.058  17.608
 2527TIP3    H131776   1.214   7.153  17.606
 2527TIP3    H231777   1.272   7.036  17.530
 2528TIP3   OH231778   1.095   6.908  18.606
 2528TIP3    H131779   1.040   6.852  18.661
 2528TIP3    H231780   1.175   6.922  18.657
 2529TIP3   OH231781   1.318   6.888  17.812
 2529TIP3    H131782   1.286   6.945  17.742
 2529TIP3    H231783   1.391   6.840  17.773
 2530TIP3   OH231784   0.374   6.883  18.314
 2530TIP3    H131785   0.402   6.905  18.403
 2530TIP3    H231786   0.319   6.806  18.324
 2531TIP3   OH231787   0.201   6.701  17.677
 2531TIP3    H131788   0.216   6.644  17.752
 2531TIP3    H231789   0.166   6.644  17.609
 2532TIP3   OH231790   0.199   6.747  17.294
 2532TIP3    H131791   0.165   6.807  17.360
 2532TIP3    H231792   0.175   6.660  17.326
 2533TIP3   OH231793   1.268   7.001  18.231
 2533TIP3    H131794   1.320   6.945  18.174
 2533TIP3    H231795   1.206   6.941  18.273
 2534TIP3   OH231796   0.722   6.884  17.611
 2534TIP3    H131797   0.811   6.917  17.623
 2534TIP3    H231798   0.701   6.904  17.519
 2535TIP3   OH231799   1.297   6.546  18.106
 2535TIP3    H131800   1.254   6.558  18.191
 2535TIP3    H231801   1.232   6.502  18.052
 2536TIP3   OH231802   0.655   6.945  17.347
 2536TIP3    H131803   0.562   6.964  17.331
 2536TIP3    H231804   0.697   6.964  17.263
 2537TIP3   OH231805   1.752   8.251  18.734
 2537TIP3    H131806   1.765   8.282  18.644
 2537TIP3    H231807   1.821   8.293  18.785
 2538TIP3   OH231808   0.435   7.291  18.723
 2538TIP3    H131809   0.512   7.333  18.762
 2538TIP3    H231810   0.361   7.343  18.754
 2539TIP3   OH231811   1.069   6.917  17.948
 2539TIP3    H131812   1.156   6.899  17.913
 2539TIP3    H231813   1.046   6.839  17.998
 2540TIP3   OH231814   0.902   6.748  18.148
 2540TIP3    H131815   0.836   6.818  18.142
 2540TIP3    H231816   0.964   6.781  18.213
 2541TIP3   OH231817   0.956   7.409  17.445
 2541TIP3    H131818   0.882   7.396  17.385
 2541TIP3    H231819   0.919   7.459  17.518
 2542TIP3   OH231820   1.868   7.432  18.199
 2542TIP3    H131821   1.945   7.467  18.154
 2542TIP3    H231822   1.814   7.396  18.130
 2543TIP3   OH231823   1.206   7.673  18.442
 2543TIP3    H131824   1.174   7.608  18.505
 2543TIP3    H231825   1.139   7.741  18.441
 2544TIP3   OH231826   1.575   6.864  17.333
 2544TIP3    H131827   1.636   6.851  17.405
 2544TIP3    H231828   1.622   6.833  17.256
 2545TIP3   OH231829   0.448   7.428  17.866
 2545TIP3    H131830   0.515   7.422  17.798
 2545TIP3    H231831   0.396   7.348  17.855
 2546TIP3   OH231832   0.173   7.217  18.488
 2546TIP3    H131833   0.183   7.161  18.565
 2546TIP3    H231834   0.085   7.198  18.456
 2547TIP3   OH231835   0.959   7.155  18.609
 2547TIP3    H131836   0.928   7.179  18.521
 2547TIP3    H231837   1.008   7.074  18.595
 2548TIP3   OH231838   1.437   7.788  18.548
 2548TIP3    H131839   1.363   7.750  18.500
 2548TIP3    H231840   1.406   7.798  18.637
 2549TIP3   OH231841   1.972   6.962  17.423
 2549TIP3    H131842   1.951   6.978  17.331
 2549TIP3    H231843   1.989   7.049  17.459
 2550TIP3   OH231844   2.070   7.652  18.560
 2550TIP3    H131845   1.982   7.639  18.526
 2550TIP3    H231846   2.127   7.605  18.498
 2551TIP3   OH231847   1.802   7.835  17.307
 2551TIP3    H131848   1.708   7.821  17.324
 2551TIP3    H231849   1.807   7.861  17.215
 2552TIP3   OH231850   1.722   7.302  18.002
 2552TIP3    H131851   1.672   7.344  17.932
 2552TIP3    H231852   1.712   7.208  17.987
 2553TIP3   OH231853   0.714   7.801  17.686
 2553TIP3    H131854   0.744   7.890  17.668
 2553TIP3    H231855   0.647   7.812  17.753
 2554TIP3   OH231856   0.340   7.138  17.195
 2554TIP3    H131857   0.390   7.161  17.117
 2554TIP3    H231858   0.342   7.217  17.249
 2555TIP3   OH231859   0.817   7.547  17.647
 2555TIP3    H131860   0.779   7.635  17.650
 2555TIP3    H231861   0.742   7.488  17.651
 2556TIP3   OH231862   0.879   7.964  18.254
 2556TIP3    H131863   0.910   8.055  18.249
 2556TIP3    H231864   0.936   7.923  18.319
 2557TIP3   OH231865   0.752   8.076  17.653
 2557TIP3    H131866   0.660   8.101  17.644
 2557TIP3    H231867   0.799   8.160  17.658
 2558TIP3   OH231868   1.238   7.534  18.201
 2558TIP3    H131869   1.227   7.592  18.277
 2558TIP3    H231870   1.324   7.495  18.214
 2559TIP3   OH231871   1.623   7.981  18.480
 2559TIP3    H131872   1.554   7.917  18.499
 2559TIP3    H231873   1.582   8.045  18.422
 2560TIP3   OH231874   0.244   6.631  18.348
 2560TIP3    H131875   0.208   6.651  18.434
 2560TIP3    H231876   0.194   6.556  18.317
 2561TIP3   OH231877   0.317   7.931  18.233
 2561TIP3    H131878   0.348   7.853  18.280
 2561TIP3    H231879   0.337   8.004  18.293
 2562TIP3   OH231880   0.855   7.851  17.223
 2562TIP3    H131881   0.815   7.767  17.246
 2562TIP3    H231882   0.941   7.849  17.264
 2563TIP3   OH231883   0.422   7.378  17.310
 2563TIP3    H131884   0.377   7.459  17.287
 2563TIP3    H231885   0.503   7.381  17.259
 2564TIP3   OH231886   1.211   6.567  18.374
 2564TIP3    H131887   1.284   6.557  18.435
 2564TIP3    H231888   1.163   6.485  18.380
 2565TIP3   OH231889   1.404   6.562  17.617
 2565TIP3    H131890   1.461   6.514  17.557
 2565TIP3    H231891   1.460   6.629  17.656
 2566TIP3   OH231892   0.963   6.995  17.705
 2566TIP3    H131893   1.043   7.015  17.657
 2566TIP3    H231894   0.993   6.968  17.791
 2567TIP3   OH231895   1.091   6.817  18.343
 2567TIP3    H131896   1.085   6.851  18.432
 2567TIP3    H231897   1.130   6.730  18.353
 2568TIP3   OH231898   1.148   6.566  17.723
 2568TIP3    H131899   1.096   6.557  17.643
 2568TIP3    H231900   1.239   6.566  17.693
 2569TIP3   OH231901   1.821   6.548  18.464
 2569TIP3    H131902   1.738   6.596  18.469
 2569TIP3    H231903   1.878   6.603  18.411
 2570TIP3   OH231904   1.672   7.036  17.925
 2570TIP3    H131905   1.590   6.989  17.927
 2570TIP3    H231906   1.735   6.978  17.969
 2571TIP3   OH231907   0.237   6.906  17.072
 2571TIP3    H131908   0.256   6.987  17.119
 2571TIP3    H231909   0.224   6.841  17.140
 2572TIP3   OH231910   1.728   8.181  18.085
 2572TIP3    H131911   1.709   8.229  18.005
 2572TIP3    H231912   1.823   8.165  18.082
 2573TIP3   OH231913   0.217   7.782  17.433
 2573TIP3    H131914   0.161   7.802  17.508
 2573TIP3    H231915   0.261   7.865  17.414
 2574TIP3   OH231916   0.067   8.224  18.727
 2574TIP3    H131917   0.141   8.196  18.781
 2574TIP3    H231918   0.102   8.226  18.638
 2575TIP3   OH231919   0.723   7.970  18.794
 2575TIP3    H131920   0.784   7.900  18.817
 2575TIP3    H231921   0.664   7.929  18.731
 2576TIP3   OH231922   1.360   7.817  18.816
 2576TIP3    H131923   1.362   7.736  18.867
 2576TIP3    H231924   1.440   7.862  18.840
 2577TIP3   OH231925   0.206   7.411  18.845
 2577TIP3    H131926   0.195   7.342  18.911
 2577TIP3    H231927   0.118   7.426  18.812
 2578TIP3   OH231928   0.872   7.528  18.706
 2578TIP3    H131929   0.842   7.578  18.631
 2578TIP3    H231930   0.918   7.453  18.667
 2579TIP3   OH231931   1.289   7.707  17.005
 2579TIP3    H131932   1.297   7.729  17.098
 2579TIP3    H231933   1.205   7.661  16.999
 2580TIP3   OH231934   1.603   7.550  18.540
 2580TIP3    H131935   1.687   7.576  18.502
 2580TIP3    H231936   1.553   7.631  18.547
 2581TIP3   OH231937   0.285   7.054  18.705
 2581TIP3    H131938   0.337   6.983  18.665
 2581TIP3    H231939   0.346   7.127  18.711
 2582TIP3   OH231940   0.677   7.016  18.404
 2582TIP3    H131941   0.601   7.068  18.429
 2582TIP3    H231942   0.746   7.081  18.391
 2583TIP3   OH231943   0.795   7.010  17.105
 2583TIP3    H131944   0.786   7.099  17.071
 2583TIP3    H231945   0.880   7.009  17.150
 2584TIP3   OH231946   1.322   7.353  18.882
 2584TIP3    H131947   1.410   7.317  18.866
 2584TIP3    H231948   1.266   7.276  18.887
 2585TIP3   OH231949   0.710   6.782  18.544
 2585TIP3    H131950   0.722   6.714  18.477
 2585TIP3    H231951   0.706   6.864  18.494
 2586TIP3   OH231952   0.744   6.599  18.331
 2586TIP3    H131953   0.800   6.636  18.263
 2586TIP3    H231954   0.658   6.591  18.290
 2587TIP3   OH231955   0.877   7.198  18.338
 2587TIP3    H131956   0.942   7.175  18.272
 2587TIP3    H231957   0.825   7.269  18.298
 2588TIP3   OH231958   1.341   6.934  18.747
 2588TIP3    H131959   1.365   6.843  18.731
 2588TIP3    H231960   1.423   6.982  18.735
 2589TIP3   OH231961   1.647   7.284  18.593
 2589TIP3    H131962   1.623   7.375  18.575
 2589TIP3    H231963   1.742   7.287  18.603
 2590TIP3   OH231964   0.436   6.835  18.607
 2590TIP3    H131965   0.406   6.762  18.662
 2590TIP3    H231966   0.530   6.818  18.594
 2591TIP3   OH231967   0.819   6.342  18.418
 2591TIP3    H131968   0.800   6.434  18.400
 2591TIP3    H231969   0.744   6.296  18.381
 2592TIP3   OH231970   0.912   6.738  18.732
 2592TIP3    H131971   0.866   6.667  18.778
 2592TIP3    H231972   0.850   6.767  18.666
 2593TIP3   OH231973   1.379   6.663  18.688
 2593TIP3    H131974   1.289   6.644  18.715
 2593TIP3    H231975   1.434   6.612  18.747
 2594TIP3   OH231976   1.506   6.510  18.874
 2594TIP3    H131977   1.492   6.416  18.866
 2594TIP3    H231978   1.458   6.536  18.952
 2595TIP3   OH231979   0.356   6.614  18.763
 2595TIP3    H131980   0.353   6.524  18.729
 2595TIP3    H231981   0.370   6.604  18.857
 2596TIP3   OH231982   0.893   6.216  18.652
 2596TIP3    H131983   0.947   6.142  18.623
 2596TIP3    H231984   0.858   6.254  18.572
 2597TIP3   OH231985   0.819   6.287  18.901
 2597TIP3    H131986   0.852   6.257  18.816
 2597TIP3    H231987   0.818   6.382  18.894
 2598TIP3   OH231988   0.103   7.616  16.990
 2598TIP3    H131989   0.165   7.689  16.992
 2598TIP3    H231990   0.147   7.545  17.037
 2599TIP3   OH231991   0.086   8.202  17.599
 2599TIP3    H131992   8.439   8.210  17.590
 2599TIP3    H231993   0.098   8.122  17.650
 2600TIP3   OH231994   0.143   7.980  17.824
 2600TIP3    H131995   0.141   7.905  17.884
 2600TIP3    H231996   0.211   8.038  17.860
 2601TIP3   OH231997   1.997   8.131  18.062
 2601TIP3    H131998   2.062   8.166  18.122
 2601TIP3    H231999   2.047   8.079  18.000
 2602TIP3   OH232000   1.967   8.073  18.418
 2602TIP3    H132001   1.929   8.004  18.364
 2602TIP3    H232002   2.009   8.026  18.490
 2603TIP3   OH232003   1.892   7.569  18.903
 2603TIP3    H132004   1.802   7.595  18.923
 2603TIP3    H232005   1.945   7.642  18.936
 2604TIP3   OH232006   2.188   7.379  17.434
 2604TIP3    H132007   2.250   7.316  17.397
 2604TIP3    H232008   2.125   7.325  17.482
 2605TIP3   OH232009   2.033   7.186  17.581
 2605TIP3    H132010   1.947   7.172  17.621
 2605TIP3    H232011   2.095   7.176  17.653
 2606TIP3   OH232012   2.127   7.496  18.117
 2606TIP3    H132013   2.161   7.421  18.068
 2606TIP3    H232014   2.175   7.571  18.083
 2607TIP3   OH232015   1.802   7.866  18.307
 2607TIP3    H132016   1.744   7.902  18.374
 2607TIP3    H232017   1.752   7.874  18.226
 2608TIP3   OH232018   1.915   6.967  17.155
 2608TIP3    H132019   1.919   7.041  17.094
 2608TIP3    H232020   1.840   6.916  17.127
 2609TIP3   OH232021   1.778   7.095  17.672
 2609TIP3    H132022   1.766   7.009  17.630
 2609TIP3    H232023   1.745   7.082  17.761
 2610TIP3   OH232024   0.175   7.252  18.031
 2610TIP3    H132025   0.219   7.254  17.946
 2610TIP3    H232026   0.242   7.223  18.093
 2611TIP3   OH232027   1.923   7.255  18.629
 2611TIP3    H132028   1.958   7.166  18.624
 2611TIP3    H232029   1.989   7.309  18.585
 2612TIP3   OH232030   2.034   7.001  18.595
 2612TIP3    H132031   1.951   6.954  18.596
 2612TIP3    H232032   2.099   6.937  18.624
 2613TIP3   OH232033   1.757   6.836  17.546
 2613TIP3    H132034   1.767   6.741  17.553
 2613TIP3    H232035   1.837   6.865  17.503
 2614TIP3   OH232036   1.852   6.875  18.055
 2614TIP3    H132037   1.941   6.894  18.027
 2614TIP3    H232038   1.853   6.893  18.149
 2615TIP3   OH232039   1.877   6.966  18.313
 2615TIP3    H132040   1.796   7.000  18.351
 2615TIP3    H232041   1.930   7.044  18.295
 2616TIP3   OH232042   0.120   6.627  18.604
 2616TIP3    H132043   0.186   6.658  18.665
 2616TIP3    H232044   0.114   6.533  18.621
 2617TIP3   OH232045   2.004   6.313  18.782
 2617TIP3    H132046   2.088   6.304  18.827
 2617TIP3    H232047   2.007   6.401  18.745
 2618TIP3   OH232048   1.758   6.559  17.571
 2618TIP3    H132049   1.780   6.498  17.641
 2618TIP3    H232050   1.699   6.510  17.514
 2619TIP3   OH232051   0.256   6.550  17.900
 2619TIP3    H132052   0.213   6.465  17.899
 2619TIP3    H232053   0.243   6.583  17.989
 2620TIP3   OH232054   0.045   7.015  17.970
 2620TIP3    H132055   0.110   6.969  17.917
 2620TIP3    H232056   0.093   7.088  18.009
 2621TIP3   OH232057   1.971   6.574  18.693
 2621TIP3    H132058   1.905   6.600  18.757
 2621TIP3    H232059   1.921   6.561  18.612
 2622TIP3   OH232060   2.000   6.456  17.318
 2622TIP3    H132061   2.024   6.384  17.259
 2622TIP3    H232062   2.001   6.534  17.262
 2623TIP3   OH232063   0.084   6.526  17.493
 2623TIP3    H132064   8.445   6.537  17.455
 2623TIP3    H232065   0.088   6.433  17.515
 2624TIP3   OH232066   1.715   8.066  17.729
 2624TIP3    H132067   1.779   8.066  17.658
 2624TIP3    H232068   1.717   8.156  17.763
 2625TIP3   OH232069   0.100   6.393  18.303
 2625TIP3    H132070   0.007   6.401  18.325
 2625TIP3    H232071   0.103   6.321  18.240
 2626TIP3   OH232072   0.311   7.733  18.639
 2626TIP3    H132073   0.237   7.681  18.608
 2626TIP3    H232074   0.307   7.725  18.734
 2627TIP3   OH232075   0.622   7.956  18.369
 2627TIP3    H132076   0.603   8.046  18.343
 2627TIP3    H232077   0.706   7.936  18.327
 2628TIP3   OH232078   1.069   8.057  18.654
 2628TIP3    H132079   1.087   8.025  18.743
 2628TIP3    H232080   1.148   8.105  18.630
 2629TIP3   OH232081   1.299   8.198  18.580
 2629TIP3    H132082   1.370   8.159  18.529
 2629TIP3    H232083   1.342   8.230  18.659
 2630TIP3   OH232084   1.837   6.274  18.469
 2630TIP3    H132085   1.835   6.369  18.465
 2630TIP3    H232086   1.769   6.246  18.407
 2631TIP3   OH232087   0.368   8.164  18.388
 2631TIP3    H132088   0.283   8.208  18.384
 2631TIP3    H232089   0.396   8.174  18.479
 2632TIP3   OH232090   0.619   8.218  18.273
 2632TIP3    H132091   0.525   8.219  18.290
 2632TIP3    H232092   0.627   8.256  18.186
 2633TIP3   OH232093   1.185   8.271  18.071
 2633TIP3    H132094   1.101   8.289  18.029
 2633TIP3    H232095   1.172   8.298  18.162
 2634TIP3   OH232096   1.369   8.069  18.138
 2634TIP3    H132097   1.303   8.128  18.103
 2634TIP3    H232098   1.414   8.120  18.205
 2635TIP3   OH232099   1.562   8.204  18.302
 2635TIP3    H132100   1.536   8.296  18.298
 2635TIP3    H232101   1.621   8.193  18.228
 2636TIP3   OH232102   0.363   8.056  17.990
 2636TIP3    H132103   0.343   8.018  18.075
 2636TIP3    H232104   0.424   7.995  17.950
 2637TIP3   OH232105   0.525   7.854  17.893
 2637TIP3    H132106   0.471   7.780  17.921
 2637TIP3    H232107   0.599   7.853  17.954
 2638TIP3   OH232108   0.731   7.814  18.072
 2638TIP3    H132109   0.789   7.757  18.022
 2638TIP3    H232110   0.789   7.871  18.121
 2639TIP3   OH232111   1.101   6.420  17.949
 2639TIP3    H132112   1.038   6.359  17.910
 2639TIP3    H232113   1.128   6.476  17.876
 2640TIP3   OH232114   1.722   6.190  17.857
 2640TIP3    H132115   1.771   6.263  17.820
 2640TIP3    H232116   1.630   6.212  17.839
 2641TIP3   OH232117   1.887   6.379  17.744
 2641TIP3    H132118   1.955   6.330  17.698
 2641TIP3    H232119   1.935   6.446  17.794
 2642TIP3   OH232120   1.458   6.212  17.797
 2642TIP3    H132121   1.431   6.238  17.709
 2642TIP3    H232122   1.415   6.128  17.812
 2643TIP3   OH232123   1.583   6.389  17.439
 2643TIP3    H132124   1.567   6.400  17.346
 2643TIP3    H232125   1.519   6.324  17.468
 2644TIP3   OH232126   0.349   8.018  17.372
 2644TIP3    H132127   0.360   8.000  17.278
 2644TIP3    H232128   0.311   8.106  17.374
 2645TIP3   OH232129   1.004   6.515  17.492
 2645TIP3    H132130   0.965   6.428  17.498
 2645TIP3    H232131   1.051   6.515  17.409
 2646TIP3   OH232132   1.893   8.028  17.498
 2646TIP3    H132133   1.864   7.948  17.455
 2646TIP3    H232134   1.904   8.091  17.426
 2647TIP3   OH232135   0.345   6.346  18.691
 2647TIP3    H132136   0.286   6.275  18.717
 2647TIP3    H232137   0.426   6.329  18.739
 2648TIP3   OH232138   0.546   6.277  18.870
 2648TIP3    H132139   0.641   6.270  18.879
 2648TIP3    H232140   0.513   6.190  18.892
 2649TIP3   OH232141   1.491   6.236  18.807
 2649TIP3    H132142   1.469   6.175  18.877
 2649TIP3    H232143   1.581   6.215  18.785
 2650TIP3   OH232144   1.796   7.980  18.702
 2650TIP3    H132145   1.740   7.972  18.624
 2650TIP3    H232146   1.789   8.072  18.726
 2651TIP3   OH232147   3.367   7.272  17.699
 2651TIP3    H132148   3.362   7.368  17.703
 2651TIP3    H232149   3.332   7.250  17.612
 2652TIP3   OH232150   3.466   7.304  18.134
 2652TIP3    H132151   3.462   7.234  18.199
 2652TIP3    H232152   3.413   7.271  18.061
 2653TIP3   OH232153   2.427   7.145  18.132
 2653TIP3    H132154   2.439   7.076  18.197
 2653TIP3    H232155   2.515   7.174  18.110
 2654TIP3   OH232156   3.719   7.582  17.877
 2654TIP3    H132157   3.723   7.498  17.922
 2654TIP3    H232158   3.727   7.647  17.946
 2655TIP3   OH232159   2.547   7.640  17.956
 2655TIP3    H132160   2.534   7.552  17.923
 2655TIP3    H232161   2.639   7.642  17.984
 2656TIP3   OH232162   2.188   6.812  17.499
 2656TIP3    H132163   2.121   6.878  17.483
 2656TIP3    H232164   2.139   6.734  17.528
 2657TIP3   OH232165   2.246   7.161  17.770
 2657TIP3    H132166   2.278   7.073  17.793
 2657TIP3    H232167   2.323   7.206  17.736
 2658TIP3   OH232168   3.438   8.040  17.869
 2658TIP3    H132169   3.474   7.995  17.792
 2658TIP3    H232170   3.436   7.972  17.937
 2659TIP3   OH232171   3.060   7.521  18.050
 2659TIP3    H132172   3.100   7.481  17.973
 2659TIP3    H232173   3.133   7.559  18.099
 2660TIP3   OH232174   4.092   6.477  18.191
 2660TIP3    H132175   4.086   6.564  18.231
 2660TIP3    H232176   4.150   6.489  18.115
 2661TIP3   OH232177   3.475   6.945  18.012
 2661TIP3    H132178   3.466   6.857  18.049
 2661TIP3    H232179   3.408   6.949  17.945
 2662TIP3   OH232180   2.702   6.670  17.775
 2662TIP3    H132181   2.698   6.758  17.736
 2662TIP3    H232182   2.651   6.615  17.716
 2663TIP3   OH232183   2.340   6.911  17.854
 2663TIP3    H132184   2.398   6.868  17.917
 2663TIP3    H232185   2.363   6.873  17.770
 2664TIP3   OH232186   2.820   7.082  17.839
 2664TIP3    H132187   2.899   7.033  17.861
 2664TIP3    H232188   2.769   7.023  17.784
 2665TIP3   OH232189   4.056   6.716  18.339
 2665TIP3    H132190   4.020   6.802  18.318
 2665TIP3    H232191   4.123   6.733  18.405
 2666TIP3   OH232192   2.581   6.604  18.221
 2666TIP3    H132193   2.550   6.652  18.144
 2666TIP3    H232194   2.517   6.624  18.289
 2667TIP3   OH232195   3.379   7.546  17.665
 2667TIP3    H132196   3.467   7.582  17.658
 2667TIP3    H232197   3.323   7.613  17.626
 2668TIP3   OH232198   2.834   7.409  18.192
 2668TIP3    H132199   2.784   7.484  18.224
 2668TIP3    H232200   2.910   7.447  18.148
 2669TIP3   OH232201   2.531   6.741  17.983
 2669TIP3    H132202   2.587   6.809  18.020
 2669TIP3    H232203   2.584   6.701  17.914
 2670TIP3   OH232204   2.695   7.633  18.302
 2670TIP3    H132205   2.701   7.728  18.288
 2670TIP3    H232206   2.606   7.619  18.333
 2671TIP3   OH232207   2.302   7.608  17.320
 2671TIP3    H132208   2.254   7.542  17.369
 2671TIP3    H232209   2.309   7.682  17.379
 2672TIP3   OH232210   3.722   7.882  18.092
 2672TIP3    H132211   3.628   7.867  18.081
 2672TIP3    H232212   3.735   7.973  18.064
 2673TIP3   OH232213   3.857   6.356  18.279
 2673TIP3    H132214   3.836   6.423  18.344
 2673TIP3    H232215   3.935   6.389  18.234
 2674TIP3   OH232216   2.843   6.225  17.942
 2674TIP3    H132217   2.835   6.133  17.969
 2674TIP3    H232218   2.778   6.271  17.995
 2675TIP3   OH232219   3.540   7.932  17.628
 2675TIP3    H132220   3.573   7.842  17.626
 2675TIP3    H232221   3.619   7.986  17.635
 2676TIP3   OH232222   3.629   7.671  17.633
 2676TIP3    H132223   3.686   7.635  17.566
 2676TIP3    H232224   3.666   7.641  17.716
 2677TIP3   OH232225   3.921   7.606  18.419
 2677TIP3    H132226   3.924   7.544  18.346
 2677TIP3    H232227   3.918   7.692  18.376
 2678TIP3   OH232228   3.286   7.232  17.436
 2678TIP3    H132229   3.210   7.290  17.425
 2678TIP3    H232230   3.358   7.279  17.393
 2679TIP3   OH232231   4.060   7.182  18.260
 2679TIP3    H132232   4.010   7.264  18.256
 2679TIP3    H232233   4.133   7.195  18.200
 2680TIP3   OH232234   3.628   7.331  17.569
 2680TIP3    H132235   3.551   7.322  17.626
 2680TIP3    H232236   3.686   7.260  17.597
 2681TIP3   OH232237   3.664   7.016  18.435
 2681TIP3    H132238   3.681   7.099  18.479
 2681TIP3    H232239   3.590   7.034  18.377
 2682TIP3   OH232240   2.724   7.300  17.671
 2682TIP3    H132241   2.686   7.267  17.590
 2682TIP3    H232242   2.768   7.223  17.709
 2683TIP3   OH232243   2.828   7.653  17.967
 2683TIP3    H132244   2.837   7.663  17.872
 2683TIP3    H232245   2.910   7.612  17.994
 2684TIP3   OH232246   2.691   7.208  18.050
 2684TIP3    H132247   2.746   7.182  17.976
 2684TIP3    H232248   2.742   7.276  18.095
 2685TIP3   OH232249   3.444   7.843  18.075
 2685TIP3    H132250   3.414   7.901  18.145
 2685TIP3    H232251   3.396   7.761  18.091
 2686TIP3   OH232252   2.842   7.665  18.538
 2686TIP3    H132253   2.775   7.720  18.580
 2686TIP3    H232254   2.804   7.641  18.454
 2687TIP3   OH232255   3.483   7.400  17.340
 2687TIP3    H132256   3.542   7.385  17.415
 2687TIP3    H232257   3.524   7.472  17.293
 2688TIP3   OH232258   2.444   7.216  18.565
 2688TIP3    H132259   2.455   7.307  18.593
 2688TIP3    H232260   2.362   7.216  18.516
 2689TIP3   OH232261   3.287   7.807  17.570
 2689TIP3    H132262   3.374   7.848  17.574
 2689TIP3    H232263   3.233   7.859  17.629
 2690TIP3   OH232264   2.634   7.844  18.593
 2690TIP3    H132265   2.657   7.879  18.507
 2690TIP3    H232266   2.540   7.860  18.601
 2691TIP3   OH232267   3.970   6.226  17.322
 2691TIP3    H132268   3.877   6.249  17.327
 2691TIP3    H232269   4.015   6.310  17.313
 2692TIP3   OH232270   2.615   7.221  17.431
 2692TIP3    H132271   2.562   7.277  17.375
 2692TIP3    H232272   2.662   7.163  17.371
 2693TIP3   OH232273   2.203   7.483  18.386
 2693TIP3    H132274   2.171   7.484  18.295
 2693TIP3    H232275   2.203   7.390  18.410
 2694TIP3   OH232276   2.290   7.716  18.044
 2694TIP3    H132277   2.375   7.687  18.009
 2694TIP3    H232278   2.312   7.769  18.120
 2695TIP3   OH232279   4.120   7.917  18.637
 2695TIP3    H132280   4.129   7.822  18.623
 2695TIP3    H232281   4.032   7.928  18.673
 2696TIP3   OH232282   3.055   7.842  18.484
 2696TIP3    H132283   3.057   7.916  18.545
 2696TIP3    H232284   2.983   7.787  18.516
 2697TIP3   OH232285   3.268   8.155  17.333
 2697TIP3    H132286   3.290   8.158  17.239
 2697TIP3    H232287   3.173   8.167  17.336
 2698TIP3   OH232288   2.509   8.012  17.626
 2698TIP3    H132289   2.521   7.971  17.712
 2698TIP3    H232290   2.457   7.949  17.576
 2699TIP3   OH232291   3.451   8.193  17.531
 2699TIP3    H132292   3.381   8.178  17.467
 2699TIP3    H232293   3.480   8.105  17.555
 2700TIP3   OH232294   3.840   6.869  18.615
 2700TIP3    H132295   3.780   6.922  18.563
 2700TIP3    H232296   3.811   6.779  18.601
 2701TIP3   OH232297   2.442   7.622  18.419
 2701TIP3    H132298   2.461   7.591  18.508
 2701TIP3    H232299   2.359   7.579  18.397
 2702TIP3   OH232300   2.643   6.366  18.081
 2702TIP3    H132301   2.564   6.357  18.029
 2702TIP3    H232302   2.632   6.449  18.128
 2703TIP3   OH232303   3.163   6.242  18.374
 2703TIP3    H132304   3.204   6.238  18.461
 2703TIP3    H232305   3.080   6.288  18.390
 2704TIP3   OH232306   3.606   6.742  18.429
 2704TIP3    H132307   3.556   6.726  18.510
 2704TIP3    H232308   3.618   6.837  18.428
 2705TIP3   OH232309   2.687   6.931  18.111
 2705TIP3    H132310   2.625   6.932  18.183
 2705TIP3    H232311   2.690   7.022  18.080
 2706TIP3   OH232312   2.674   6.922  17.666
 2706TIP3    H132313   2.582   6.904  17.649
 2706TIP3    H232314   2.717   6.911  17.581
 2707TIP3   OH232315   3.305   6.952  17.529
 2707TIP3    H132316   3.298   7.037  17.484
 2707TIP3    H232317   3.386   6.914  17.496
 2708TIP3   OH232318   3.147   6.968  18.624
 2708TIP3    H132319   3.101   6.899  18.671
 2708TIP3    H232320   3.234   6.972  18.665
 2709TIP3   OH232321   3.294   7.011  17.801
 2709TIP3    H132322   3.317   7.104  17.789
 2709TIP3    H232323   3.296   6.975  17.712
 2710TIP3   OH232324   2.501   6.938  18.309
 2710TIP3    H132325   2.550   6.978  18.380
 2710TIP3    H232326   2.462   6.860  18.347
 2711TIP3   OH232327   2.038   6.589  17.837
 2711TIP3    H132328   2.119   6.593  17.889
 2711TIP3    H232329   2.067   6.604  17.747
 2712TIP3   OH232330   2.052   6.732  17.224
 2712TIP3    H132331   2.070   6.756  17.315
 2712TIP3    H232332   1.994   6.801  17.192
 2713TIP3   OH232333   3.442   7.051  18.269
 2713TIP3    H132334   3.454   7.011  18.183
 2713TIP3    H232335   3.354   7.025  18.296
 2714TIP3   OH232336   2.985   6.678  17.775
 2714TIP3    H132337   2.889   6.674  17.779
 2714TIP3    H232338   3.013   6.588  17.791
 2715TIP3   OH232339   2.431   6.799  17.622
 2715TIP3    H132340   2.352   6.808  17.568
 2715TIP3    H232341   2.458   6.708  17.610
 2716TIP3   OH232342   2.793   6.857  17.428
 2716TIP3    H132343   2.885   6.850  17.454
 2716TIP3    H232344   2.791   6.930  17.366
 2717TIP3   OH232345   2.756   7.063  17.245
 2717TIP3    H132346   2.714   7.021  17.169
 2717TIP3    H232347   2.818   7.125  17.207
 2718TIP3   OH232348   3.840   8.248  18.727
 2718TIP3    H132349   3.845   8.280  18.636
 2718TIP3    H232350   3.922   8.276  18.767
 2719TIP3   OH232351   2.448   7.475  18.668
 2719TIP3    H132352   2.517   7.467  18.734
 2719TIP3    H232353   2.370   7.497  18.719
 2720TIP3   OH232354   3.043   6.917  17.908
 2720TIP3    H132355   3.127   6.950  17.876
 2720TIP3    H232356   3.031   6.834  17.862
 2721TIP3   OH232357   2.532   6.540  17.597
 2721TIP3    H132358   2.488   6.456  17.609
 2721TIP3    H232359   2.573   6.535  17.511
 2722TIP3   OH232360   2.951   6.863  18.174
 2722TIP3    H132361   2.859   6.885  18.155
 2722TIP3    H232362   2.996   6.876  18.091
 2723TIP3   OH232363   3.103   7.439  17.385
 2723TIP3    H132364   3.072   7.446  17.295
 2723TIP3    H232365   3.025   7.455  17.439
 2724TIP3   OH232366   3.933   7.426  18.204
 2724TIP3    H132367   4.009   7.458  18.155
 2724TIP3    H232368   3.867   7.407  18.137
 2725TIP3   OH232369   3.263   7.666  18.435
 2725TIP3    H132370   3.240   7.605  18.504
 2725TIP3    H232371   3.197   7.736  18.441
 2726TIP3   OH232372   3.551   6.832  17.446
 2726TIP3    H132373   3.546   6.740  17.419
 2726TIP3    H232374   3.620   6.869  17.391
 2727TIP3   OH232375   2.549   7.380  17.868
 2727TIP3    H132376   2.604   7.363  17.792
 2727TIP3    H232377   2.579   7.318  17.934
 2728TIP3   OH232378   3.144   7.725  17.342
 2728TIP3    H132379   3.196   7.756  17.416
 2728TIP3    H232380   3.143   7.630  17.352
 2729TIP3   OH232381   2.179   7.208  18.465
 2729TIP3    H132382   2.152   7.136  18.523
 2729TIP3    H232383   2.128   7.195  18.385
 2730TIP3   OH232384   2.994   7.207  18.640
 2730TIP3    H132385   2.947   7.211  18.557
 2730TIP3    H232386   3.054   7.133  18.629
 2731TIP3   OH232387   3.510   7.758  18.532
 2731TIP3    H132388   3.431   7.731  18.483
 2731TIP3    H232389   3.481   7.765  18.622
 2732TIP3   OH232390   4.033   6.931  17.282
 2732TIP3    H132391   3.944   6.897  17.289
 2732TIP3    H232392   4.024   7.015  17.238
 2733TIP3   OH232393   4.146   7.643  18.579
 2733TIP3    H132394   4.057   7.628  18.547
 2733TIP3    H232395   4.203   7.605  18.512
 2734TIP3   OH232396   3.962   7.960  17.263
 2734TIP3    H132397   3.903   7.885  17.264
 2734TIP3    H232398   4.016   7.948  17.185
 2735TIP3   OH232399   3.724   7.343  18.027
 2735TIP3    H132400   3.640   7.342  18.072
 2735TIP3    H232401   3.730   7.256  17.986
 2736TIP3   OH232402   2.800   7.714  17.697
 2736TIP3    H132403   2.819   7.806  17.678
 2736TIP3    H232404   2.705   7.707  17.689
 2737TIP3   OH232405   2.886   7.494  17.545
 2737TIP3    H132406   2.868   7.574  17.594
 2737TIP3    H232407   2.831   7.428  17.587
 2738TIP3   OH232408   2.976   7.953  18.240
 2738TIP3    H132409   3.035   8.026  18.218
 2738TIP3    H232410   3.018   7.911  18.316
 2739TIP3   OH232411   2.794   7.985  17.646
 2739TIP3    H132412   2.704   8.010  17.625
 2739TIP3    H232413   2.833   8.063  17.685
 2740TIP3   OH232414   3.308   7.593  18.169
 2740TIP3    H132415   3.298   7.619  18.261
 2740TIP3    H232416   3.372   7.522  18.172
 2741TIP3   OH232417   3.786   7.729  17.241
 2741TIP3    H132418   3.798   7.676  17.319
 2741TIP3    H232419   3.715   7.686  17.193
 2742TIP3   OH232420   3.685   7.965  18.470
 2742TIP3    H132421   3.619   7.897  18.484
 2742TIP3    H232422   3.641   8.029  18.413
 2743TIP3   OH232423   2.417   6.703  18.436
 2743TIP3    H132424   2.326   6.711  18.464
 2743TIP3    H232425   2.462   6.666  18.512
 2744TIP3   OH232426   3.779   7.527  17.442
 2744TIP3    H132427   3.730   7.457  17.487
 2744TIP3    H232428   3.857   7.483  17.409
 2745TIP3   OH232429   2.388   7.866  18.257
 2745TIP3    H132430   2.413   7.798  18.320
 2745TIP3    H232431   2.394   7.947  18.307
 2746TIP3   OH232432   2.467   7.379  17.250
 2746TIP3    H132433   2.417   7.459  17.265
 2746TIP3    H232434   2.488   7.381  17.156
 2747TIP3   OH232435   3.473   6.716  18.173
 2747TIP3    H132436   3.527   6.722  18.251
 2747TIP3    H232437   3.401   6.657  18.197
 2748TIP3   OH232438   3.044   6.830  17.535
 2748TIP3    H132439   3.132   6.866  17.533
 2748TIP3    H232440   3.042   6.776  17.614
 2749TIP3   OH232441   3.183   6.964  18.338
 2749TIP3    H132442   3.164   6.961  18.432
 2749TIP3    H232443   3.108   6.920  18.298
 2750TIP3   OH232444   2.678   6.613  17.359
 2750TIP3    H132445   2.708   6.698  17.389
 2750TIP3    H232446   2.750   6.580  17.305
 2751TIP3   OH232447   3.838   6.583  18.445
 2751TIP3    H132448   3.757   6.630  18.427
 2751TIP3    H232449   3.905   6.633  18.399
 2752TIP3   OH232450   3.710   7.073  17.928
 2752TIP3    H132451   3.629   7.032  17.959
 2752TIP3    H232452   3.780   7.015  17.960
 2753TIP3   OH232453   2.305   6.982  16.997
 2753TIP3    H132454   2.237   7.018  16.940
 2753TIP3    H232455   2.351   7.059  17.031
 2754TIP3   OH232456   3.773   8.160  18.054
 2754TIP3    H132457   3.751   8.210  17.976
 2754TIP3    H232458   3.868   8.165  18.060
 2755TIP3   OH232459   2.406   6.331  17.942
 2755TIP3    H132460   2.404   6.322  17.846
 2755TIP3    H232461   2.387   6.243  17.974
 2756TIP3   OH232462   2.306   7.865  17.472
 2756TIP3    H132463   2.245   7.888  17.543
 2756TIP3    H232464   2.286   7.927  17.402
 2757TIP3   OH232465   2.159   8.155  18.772
 2757TIP3    H132466   2.250   8.147  18.799
 2757TIP3    H232467   2.144   8.080  18.715
 2758TIP3   OH232468   2.627   7.940  18.860
 2758TIP3    H132469   2.701   7.912  18.913
 2758TIP3    H232470   2.645   7.904  18.773
 2759TIP3   OH232471   3.427   7.781  18.796
 2759TIP3    H132472   3.429   7.702  18.851
 2759TIP3    H232473   3.500   7.833  18.827
 2760TIP3   OH232474   3.835   7.857  16.997
 2760TIP3    H132475   3.815   7.808  17.076
 2760TIP3    H232476   3.930   7.865  16.995
 2761TIP3   OH232477   2.190   7.543  18.785
 2761TIP3    H132478   2.113   7.512  18.833
 2761TIP3    H232479   2.155   7.588  18.709
 2762TIP3   OH232480   2.907   7.471  18.728
 2762TIP3    H132481   2.899   7.529  18.651
 2762TIP3    H232482   2.949   7.392  18.694
 2763TIP3   OH232483   3.592   7.602  17.092
 2763TIP3    H132484   3.533   7.657  17.040
 2763TIP3    H232485   3.630   7.540  17.029
 2764TIP3   OH232486   3.679   7.521  18.528
 2764TIP3    H132487   3.764   7.555  18.499
 2764TIP3    H232488   3.623   7.599  18.533
 2765TIP3   OH232489   2.302   7.074  18.764
 2765TIP3    H132490   2.361   7.120  18.704
 2765TIP3    H232491   2.297   7.132  18.841
 2766TIP3   OH232492   2.665   7.057  18.493
 2766TIP3    H132493   2.599   7.114  18.531
 2766TIP3    H232494   2.734   7.116  18.463
 2767TIP3   OH232495   3.399   7.330  18.835
 2767TIP3    H132496   3.484   7.287  18.827
 2767TIP3    H232497   3.342   7.263  18.873
 2768TIP3   OH232498   2.784   6.813  18.570
 2768TIP3    H132499   2.799   6.759  18.493
 2768TIP3    H232500   2.749   6.895  18.535
 2769TIP3   OH232501   2.828   6.654  18.342
 2769TIP3    H132502   2.881   6.706  18.282
 2769TIP3    H232503   2.749   6.633  18.294
 2770TIP3   OH232504   2.878   7.206  18.383
 2770TIP3    H132505   2.939   7.155  18.330
 2770TIP3    H232506   2.856   7.282  18.329
 2771TIP3   OH232507   3.398   6.961  18.757
 2771TIP3    H132508   3.430   6.873  18.737
 2771TIP3    H232509   3.477   7.015  18.759
 2772TIP3   OH232510   3.720   7.251  18.563
 2772TIP3    H132511   3.694   7.341  18.547
 2772TIP3    H232512   3.815   7.255  18.574
 2773TIP3   OH232513   2.657   6.786  18.814
 2773TIP3    H132514   2.565   6.768  18.798
 2773TIP3    H232515   2.694   6.800  18.727
 2774TIP3   OH232516   2.905   6.357  18.414
 2774TIP3    H132517   2.886   6.450  18.400
 2774TIP3    H232518   2.827   6.312  18.382
 2775TIP3   OH232519   2.994   6.761  18.748
 2775TIP3    H132520   2.951   6.695  18.803
 2775TIP3    H232521   2.930   6.784  18.682
 2776TIP3   OH232522   3.482   6.702  18.681
 2776TIP3    H132523   3.397   6.659  18.685
 2776TIP3    H232524   3.538   6.650  18.738
 2777TIP3   OH232525   3.601   6.522  18.857
 2777TIP3    H132526   3.582   6.430  18.840
 2777TIP3    H232527   3.548   6.545  18.933
 2778TIP3   OH232528   2.385   6.689  18.793
 2778TIP3    H132529   2.399   6.605  18.836
 2778TIP3    H232530   2.353   6.747  18.863
 2779TIP3   OH232531   2.957   6.227  18.655
 2779TIP3    H132532   3.001   6.144  18.635
 2779TIP3    H232533   2.940   6.267  18.570
 2780TIP3   OH232534   2.860   6.315  18.892
 2780TIP3    H132535   2.902   6.288  18.810
 2780TIP3    H232536   2.868   6.411  18.893
 2781TIP3   OH232537   3.034   8.150  17.146
 2781TIP3    H132538   3.120   8.171  17.109
 2781TIP3    H232539   2.988   8.234  17.150
 2782TIP3   OH232540   2.142   8.057  17.627
 2782TIP3    H132541   2.051   8.048  17.599
 2782TIP3    H232542   2.141   8.031  17.720
 2783TIP3   OH232543   2.170   7.972  17.896
 2783TIP3    H132544   2.171   7.881  17.925
 2783TIP3    H232545   2.247   8.011  17.937
 2784TIP3   OH232546   4.046   8.183  18.057
 2784TIP3    H132547   4.108   8.212  18.125
 2784TIP3    H232548   4.101   8.139  17.992
 2785TIP3   OH232549   4.038   8.084  18.418
 2785TIP3    H132550   4.001   8.013  18.365
 2785TIP3    H232551   4.079   8.040  18.492
 2786TIP3   OH232552   3.963   7.577  18.895
 2786TIP3    H132553   3.875   7.604  18.921
 2786TIP3    H232554   4.019   7.651  18.918
 2787TIP3   OH232555   4.006   7.381  17.376
 2787TIP3    H132556   4.090   7.426  17.367
 2787TIP3    H232557   4.019   7.318  17.446
 2788TIP3   OH232558   4.029   7.211  17.596
 2788TIP3    H132559   3.940   7.179  17.614
 2788TIP3    H232560   4.060   7.244  17.680
 2789TIP3   OH232561   4.192   7.481  18.117
 2789TIP3    H132562   4.233   7.399  18.091
 2789TIP3    H232563   4.255   7.548  18.093
 2790TIP3   OH232564   3.888   7.864  18.314
 2790TIP3    H132565   3.821   7.896  18.374
 2790TIP3    H232566   3.845   7.863  18.228
 2791TIP3   OH232567   3.958   7.173  17.175
 2791TIP3    H132568   3.900   7.190  17.101
 2791TIP3    H232569   3.960   7.255  17.224
 2792TIP3   OH232570   3.757   6.883  17.255
 2792TIP3    H132571   3.756   6.948  17.185
 2792TIP3    H232572   3.708   6.808  17.218
 2793TIP3   OH232573   3.777   7.116  17.663
 2793TIP3    H132574   3.747   7.036  17.620
 2793TIP3    H232575   3.754   7.105  17.755
 2794TIP3   OH232576   2.188   7.229  18.033
 2794TIP3    H132577   2.200   7.222  17.938
 2794TIP3    H232578   2.274   7.206  18.069
 2795TIP3   OH232579   3.993   7.232  18.614
 2795TIP3    H132580   4.025   7.142  18.609
 2795TIP3    H232581   4.060   7.284  18.569
 2796TIP3   OH232582   4.094   6.974  18.576
 2796TIP3    H132583   4.009   6.932  18.585
 2796TIP3    H232584   4.157   6.902  18.583
 2797TIP3   OH232585   3.908   6.906  18.020
 2797TIP3    H132586   4.001   6.916  17.998
 2797TIP3    H232587   3.906   6.908  18.116
 2798TIP3   OH232588   3.914   6.951  18.297
 2798TIP3    H132589   3.832   6.981  18.337
 2798TIP3    H232590   3.967   7.030  18.290
 2799TIP3   OH232591   2.180   6.734  18.601
 2799TIP3    H132592   2.251   6.728  18.665
 2799TIP3    H232593   2.112   6.676  18.636
 2800TIP3   OH232594   4.089   6.293  18.796
 2800TIP3    H132595   4.168   6.249  18.766
 2800TIP3    H232596   4.081   6.371  18.741
 2801TIP3   OH232597   2.282   6.577  17.985
 2801TIP3    H132598   2.320   6.490  17.973
 2801TIP3    H232599   2.356   6.637  17.982
 2802TIP3   OH232600   2.105   6.955  17.999
 2802TIP3    H132601   2.180   6.925  17.947
 2802TIP3    H232602   2.126   7.046  18.020
 2803TIP3   OH232603   4.030   6.539  18.653
 2803TIP3    H132604   3.979   6.562  18.731
 2803TIP3    H232605   3.965   6.534  18.583
 2804TIP3   OH232606   4.284   6.439  17.261
 2804TIP3    H132607   4.360   6.431  17.205
 2804TIP3    H232608   4.254   6.529  17.249
 2805TIP3   OH232609   2.031   6.597  17.551
 2805TIP3    H132610   1.936   6.593  17.566
 2805TIP3    H232611   2.047   6.537  17.478
 2806TIP3   OH232612   3.753   8.100  17.656
 2806TIP3    H132613   3.831   8.112  17.600
 2806TIP3    H232614   3.754   8.177  17.714
 2807TIP3   OH232615   2.128   6.247  18.295
 2807TIP3    H132616   2.099   6.197  18.218
 2807TIP3    H232617   2.125   6.338  18.266
 2808TIP3   OH232618   2.369   7.921  18.645
 2808TIP3    H132619   2.274   7.905  18.642
 2808TIP3    H232620   2.384   7.962  18.730
 2809TIP3   OH232621   2.718   7.918  18.335
 2809TIP3    H132622   2.680   8.000  18.303
 2809TIP3    H232623   2.810   7.922  18.309
 2810TIP3   OH232624   3.083   8.060  18.663
 2810TIP3    H132625   3.104   8.001  18.736
 2810TIP3    H232626   3.162   8.111  18.649
 2811TIP3   OH232627   3.330   8.183  18.605
 2811TIP3    H132628   3.379   8.114  18.560
 2811TIP3    H232629   3.394   8.225  18.663
 2812TIP3   OH232630   3.969   6.180  18.466
 2812TIP3    H132631   3.918   6.221  18.395
 2812TIP3    H232632   3.985   6.091  18.436
 2813TIP3   OH232633   2.400   8.130  18.352
 2813TIP3    H132634   2.319   8.167  18.317
 2813TIP3    H232635   2.398   8.151  18.445
 2814TIP3   OH232636   2.656   8.181  18.255
 2814TIP3    H132637   2.564   8.174  18.282
 2814TIP3    H232638   2.656   8.248  18.187
 2815TIP3   OH232639   3.140   8.173  18.183
 2815TIP3    H132640   3.082   8.216  18.120
 2815TIP3    H232641   3.147   8.235  18.256
 2816TIP3   OH232642   3.377   8.037  18.259
 2816TIP3    H132643   3.299   8.083  18.229
 2816TIP3    H232644   3.445   8.104  18.263
 2817TIP3   OH232645   3.627   8.193  18.286
 2817TIP3    H132646   3.597   8.283  18.271
 2817TIP3    H232647   3.678   8.171  18.208
 2818TIP3   OH232648   2.397   8.054  18.027
 2818TIP3    H132649   2.398   8.012  18.112
 2818TIP3    H232650   2.463   8.007  17.976
 2819TIP3   OH232651   2.567   7.902  17.873
 2819TIP3    H132652   2.552   7.811  17.899
 2819TIP3    H232653   2.650   7.925  17.914
 2820TIP3   OH232654   2.796   7.922  18.023
 2820TIP3    H132655   2.815   7.829  18.013
 2820TIP3    H232656   2.857   7.951  18.091
 2821TIP3   OH232657   3.022   6.405  17.820
 2821TIP3    H132658   2.963   6.355  17.876
 2821TIP3    H232659   3.077   6.338  17.778
 2822TIP3   OH232660   3.818   6.131  17.804
 2822TIP3    H132661   3.881   6.126  17.732
 2822TIP3    H232662   3.738   6.093  17.768
 2823TIP3   OH232663   2.387   6.296  17.665
 2823TIP3    H132664   2.294   6.287  17.645
 2823TIP3    H232665   2.421   6.206  17.663
 2824TIP3   OH232666   2.850   6.183  17.669
 2824TIP3    H132667   2.853   6.269  17.629
 2824TIP3    H232668   2.846   6.201  17.763
 2825TIP3   OH232669   2.193   8.089  17.343
 2825TIP3    H132670   2.109   8.119  17.308
 2825TIP3    H232671   2.187   8.103  17.437
 2826TIP3   OH232672   2.472   6.576  17.179
 2826TIP3    H132673   2.454   6.483  17.190
 2826TIP3    H232674   2.542   6.595  17.241
 2827TIP3   OH232675   2.893   6.535  17.198
 2827TIP3    H132676   2.864   6.448  17.172
 2827TIP3    H232677   2.974   6.519  17.247
 2828TIP3   OH232678   3.972   8.137  17.477
 2828TIP3    H132679   3.967   8.071  17.408
 2828TIP3    H232680   3.939   8.217  17.435
 2829TIP3   OH232681   2.376   6.246  18.651
 2829TIP3    H132682   2.346   6.173  18.705
 2829TIP3    H232683   2.458   6.274  18.692
 2830TIP3   OH232684   2.599   6.254  18.822
 2830TIP3    H132685   2.689   6.279  18.846
 2830TIP3    H232686   2.603   6.158  18.814
 2831TIP3   OH232687   3.564   6.245  18.786
 2831TIP3    H132688   3.539   6.183  18.854
 2831TIP3    H232689   3.652   6.219  18.761
 2832TIP3   OH232690   3.849   7.973  18.696
 2832TIP3    H132691   3.795   7.965  18.618
 2832TIP3    H232692   3.847   8.066  18.717
 2833TIP3   OH232693   4.522   7.198  18.241
 2833TIP3    H132694   4.558   7.109  18.236
 2833TIP3    H232695   4.533   7.223  18.333
 2834TIP3   OH232696   5.737   7.553  17.891
 2834TIP3    H132697   5.771   7.470  17.923
 2834TIP3    H232698   5.755   7.616  17.962
 2835TIP3   OH232699   4.663   7.623  17.985
 2835TIP3    H132700   4.651   7.528  17.992
 2835TIP3    H232701   4.757   7.636  17.986
 2836TIP3   OH232702   4.202   7.021  17.489
 2836TIP3    H132703   4.140   7.085  17.526
 2836TIP3    H232704   4.155   6.984  17.414
 2837TIP3   OH232705   4.436   7.183  17.860
 2837TIP3    H132706   4.443   7.088  17.867
 2837TIP3    H232707   4.422   7.199  17.767
 2838TIP3   OH232708   5.400   8.180  17.727
 2838TIP3    H132709   5.460   8.110  17.701
 2838TIP3    H232710   5.356   8.146  17.805
 2839TIP3   OH232711   5.167   7.574  18.077
 2839TIP3    H132712   5.226   7.587  18.003
 2839TIP3    H232713   5.225   7.568  18.153
 2840TIP3   OH232714   6.083   6.490  18.149
 2840TIP3    H132715   6.099   6.566  18.205
 2840TIP3    H232716   6.123   6.513  18.065
 2841TIP3   OH232717   5.481   6.833  18.041
 2841TIP3    H132718   5.535   6.755  18.053
 2841TIP3    H232719   5.506   6.867  17.955
 2842TIP3   OH232720   4.825   6.661  17.736
 2842TIP3    H132721   4.837   6.707  17.653
 2842TIP3    H232722   4.769   6.586  17.715
 2843TIP3   OH232723   5.655   6.686  17.664
 2843TIP3    H132724   5.700   6.678  17.749
 2843TIP3    H232725   5.726   6.701  17.602
 2844TIP3   OH232726   4.436   6.906  17.890
 2844TIP3    H132727   4.518   6.860  17.908
 2844TIP3    H232728   4.409   6.873  17.804
 2845TIP3   OH232729   6.121   6.706  18.316
 2845TIP3    H132730   6.089   6.796  18.308
 2845TIP3    H232731   6.192   6.711  18.380
 2846TIP3   OH232732   4.674   6.613  18.175
 2846TIP3    H132733   4.669   6.673  18.101
 2846TIP3    H232734   4.612   6.648  18.239
 2847TIP3   OH232735   4.949   7.441  18.200
 2847TIP3    H132736   4.888   7.508  18.231
 2847TIP3    H232737   5.021   7.490  18.161
 2848TIP3   OH232738   5.773   6.707  17.907
 2848TIP3    H132739   5.732   6.656  17.977
 2848TIP3    H232740   5.841   6.757  17.951
 2849TIP3   OH232741   4.690   6.783  17.951
 2849TIP3    H132742   4.756   6.843  17.986
 2849TIP3    H232743   4.734   6.740  17.878
 2850TIP3   OH232744   4.782   7.643  18.298
 2850TIP3    H132745   4.781   7.738  18.290
 2850TIP3    H232746   4.693   7.620  18.326
 2851TIP3   OH232747   4.327   7.657  17.399
 2851TIP3    H132748   4.299   7.717  17.330
 2851TIP3    H232749   4.344   7.714  17.474
 2852TIP3   OH232750   5.759   7.769  18.075
 2852TIP3    H132751   5.672   7.762  18.115
 2852TIP3    H232752   5.747   7.830  18.003
 2853TIP3   OH232753   5.821   6.394  18.179
 2853TIP3    H132754   5.764   6.462  18.145
 2853TIP3    H232755   5.910   6.427  18.165
 2854TIP3   OH232756   4.957   6.214  18.011
 2854TIP3    H132757   4.916   6.131  17.985
 2854TIP3    H232758   4.884   6.273  18.028
 2855TIP3   OH232759   5.578   7.982  17.659
 2855TIP3    H132760   5.597   7.890  17.676
 2855TIP3    H232761   5.663   8.025  17.662
 2856TIP3   OH232762   5.609   7.714  17.699
 2856TIP3    H132763   5.545   7.663  17.650
 2856TIP3    H232764   5.650   7.650  17.757
 2857TIP3   OH232765   5.974   7.585  18.415
 2857TIP3    H132766   5.984   7.526  18.339
 2857TIP3    H232767   5.967   7.672  18.377
 2858TIP3   OH232768   6.140   7.184  18.230
 2858TIP3    H132769   6.089   7.265  18.232
 2858TIP3    H232770   6.191   7.189  18.150
 2859TIP3   OH232771   5.775   7.097  17.422
 2859TIP3    H132772   5.795   7.188  17.404
 2859TIP3    H232773   5.834   7.073  17.494
 2860TIP3   OH232774   5.750   7.016  18.438
 2860TIP3    H132775   5.744   7.104  18.474
 2860TIP3    H232776   5.674   7.008  18.381
 2861TIP3   OH232777   4.937   7.693  17.958
 2861TIP3    H132778   4.963   7.708  17.867
 2861TIP3    H232779   5.014   7.654  17.999
 2862TIP3   OH232780   4.867   7.238  18.027
 2862TIP3    H132781   4.778   7.271  18.013
 2862TIP3    H232782   4.906   7.301  18.088
 2863TIP3   OH232783   5.509   7.769  18.181
 2863TIP3    H132784   5.478   7.857  18.204
 2863TIP3    H232785   5.444   7.711  18.221
 2864TIP3   OH232786   4.955   7.677  18.515
 2864TIP3    H132787   4.892   7.728  18.565
 2864TIP3    H232788   4.909   7.652  18.435
 2865TIP3   OH232789   4.578   7.218  18.521
 2865TIP3    H132790   4.584   7.309  18.550
 2865TIP3    H232791   4.516   7.177  18.581
 2866TIP3   OH232792   4.730   7.826  18.599
 2866TIP3    H132793   4.727   7.860  18.509
 2866TIP3    H232794   4.638   7.823  18.626
 2867TIP3   OH232795   4.392   7.206  17.589
 2867TIP3    H132796   4.401   7.272  17.521
 2867TIP3    H232797   4.341   7.136  17.548
 2868TIP3   OH232798   4.280   7.503  18.384
 2868TIP3    H132799   4.241   7.499  18.296
 2868TIP3    H232800   4.273   7.413  18.417
 2869TIP3   OH232801   4.397   7.664  18.079
 2869TIP3    H132802   4.484   7.652  18.043
 2869TIP3    H232803   4.406   7.736  18.141
 2870TIP3   OH232804   6.123   7.822  18.658
 2870TIP3    H132805   6.109   7.733  18.692
 2870TIP3    H232806   6.040   7.867  18.673
 2871TIP3   OH232807   5.225   7.758  18.519
 2871TIP3    H132808   5.221   7.852  18.534
 2871TIP3    H232809   5.133   7.730  18.514
 2872TIP3   OH232810   5.227   8.244  17.510
 2872TIP3    H132811   5.288   8.211  17.576
 2872TIP3    H232812   5.176   8.310  17.555
 2873TIP3   OH232813   4.601   8.001  17.666
 2873TIP3    H132814   4.611   7.959  17.751
 2873TIP3    H232815   4.533   7.950  17.622
 2874TIP3   OH232816   5.524   8.113  17.337
 2874TIP3    H132817   5.596   8.061  17.302
 2874TIP3    H232818   5.475   8.052  17.393
 2875TIP3   OH232819   5.370   7.933  17.471
 2875TIP3    H132820   5.429   7.926  17.546
 2875TIP3    H232821   5.308   7.860  17.483
 2876TIP3   OH232822   5.957   6.912  18.615
 2876TIP3    H132823   5.886   6.956  18.569
 2876TIP3    H232824   5.952   6.821  18.585
 2877TIP3   OH232825   4.526   7.628  18.407
 2877TIP3    H132826   4.551   7.592  18.492
 2877TIP3    H232827   4.441   7.588  18.388
 2878TIP3   OH232828   4.716   6.350  18.080
 2878TIP3    H132829   4.634   6.332  18.035
 2878TIP3    H232830   4.706   6.440  18.111
 2879TIP3   OH232831   5.241   6.251  18.381
 2879TIP3    H132832   5.288   6.230  18.462
 2879TIP3    H232833   5.157   6.287  18.410
 2880TIP3   OH232834   5.656   6.752  18.507
 2880TIP3    H132835   5.577   6.752  18.562
 2880TIP3    H232836   5.673   6.844  18.490
 2881TIP3   OH232837   4.858   6.966  18.096
 2881TIP3    H132838   4.781   6.965  18.152
 2881TIP3    H232839   4.867   7.057  18.070
 2882TIP3   OH232840   5.404   6.961  17.518
 2882TIP3    H132841   5.379   7.031  17.458
 2882TIP3    H232842   5.482   6.922  17.478
 2883TIP3   OH232843   5.243   6.997  18.672
 2883TIP3    H132844   5.195   6.918  18.698
 2883TIP3    H232845   5.317   7.002  18.733
 2884TIP3   OH232846   5.550   6.917  17.780
 2884TIP3    H132847   5.497   6.955  17.710
 2884TIP3    H232848   5.584   6.835  17.743
 2885TIP3   OH232849   4.642   6.947  18.272
 2885TIP3    H132850   4.697   6.978  18.343
 2885TIP3    H232851   4.593   6.873  18.309
 2886TIP3   OH232852   4.855   6.704  17.011
 2886TIP3    H132853   4.811   6.720  16.928
 2886TIP3    H232854   4.940   6.666  16.986
 2887TIP3   OH232855   4.107   6.562  17.767
 2887TIP3    H132856   4.169   6.541  17.836
 2887TIP3    H232857   4.161   6.579  17.690
 2888TIP3   OH232858   4.215   6.719  17.259
 2888TIP3    H132859   4.273   6.754  17.191
 2888TIP3    H232860   4.145   6.783  17.267
 2889TIP3   OH232861   5.519   6.960  18.292
 2889TIP3    H132862   5.510   6.923  18.204
 2889TIP3    H232863   5.434   6.946  18.333
 2890TIP3   OH232864   5.113   6.659  17.757
 2890TIP3    H132865   5.018   6.653  17.764
 2890TIP3    H232866   5.143   6.683  17.845
 2891TIP3   OH232867   4.338   6.830  17.647
 2891TIP3    H132868   4.295   6.897  17.594
 2891TIP3    H232869   4.314   6.747  17.606
 2892TIP3   OH232870   4.897   6.792  17.502
 2892TIP3    H132871   4.993   6.794  17.494
 2892TIP3    H232872   4.865   6.809  17.413
 2893TIP3   OH232873   5.618   6.579  18.095
 2893TIP3    H132874   5.584   6.577  18.185
 2893TIP3    H232875   5.548   6.538  18.043
 2894TIP3   OH232876   4.828   6.850  17.243
 2894TIP3    H132877   4.849   6.794  17.168
 2894TIP3    H232878   4.757   6.906  17.212
 2895TIP3   OH232879   5.936   8.227  18.675
 2895TIP3    H132880   5.954   8.255  18.585
 2895TIP3    H232881   6.017   8.245  18.723
 2896TIP3   OH232882   4.563   7.471  18.640
 2896TIP3    H132883   4.630   7.471  18.707
 2896TIP3    H232884   4.481   7.490  18.687
 2897TIP3   OH232885   5.222   6.725  18.004
 2897TIP3    H132886   5.303   6.773  18.023
 2897TIP3    H232887   5.165   6.743  18.079
 2898TIP3   OH232888   4.656   6.450  17.650
 2898TIP3    H132889   4.596   6.380  17.678
 2898TIP3    H232890   4.658   6.443  17.555
 2899TIP3   OH232891   5.065   6.805  18.219
 2899TIP3    H132892   5.006   6.873  18.185
 2899TIP3    H232893   5.122   6.851  18.281
 2900TIP3   OH232894   6.020   7.430  18.186
 2900TIP3    H132895   6.100   7.467  18.146
 2900TIP3    H232896   5.964   7.409  18.111
 2901TIP3   OH232897   5.464   6.638  17.305
 2901TIP3    H132898   5.374   6.668  17.298
 2901TIP3    H232899   5.516   6.719  17.306
 2902TIP3   OH232900   5.303   7.481  18.541
 2902TIP3    H132901   5.339   7.439  18.619
 2902TIP3    H232902   5.282   7.570  18.569
 2903TIP3   OH232903   5.630   6.868  17.380
 2903TIP3    H132904   5.698   6.808  17.408
 2903TIP3    H232905   5.671   6.954  17.383
 2904TIP3   OH232906   4.611   7.340  18.012
 2904TIP3    H132907   4.553   7.297  17.949
 2904TIP3    H232908   4.581   7.309  18.098
 2905TIP3   OH232909   4.242   7.249  18.481
 2905TIP3    H132910   4.288   7.204  18.552
 2905TIP3    H232911   4.198   7.179  18.433
 2906TIP3   OH232912   5.078   7.230  18.650
 2906TIP3    H132913   5.052   7.233  18.558
 2906TIP3    H232914   5.146   7.163  18.654
 2907TIP3   OH232915   5.510   7.763  18.519
 2907TIP3    H132916   5.418   7.756  18.494
 2907TIP3    H232917   5.508   7.773  18.614
 2908TIP3   OH232918   6.049   6.881  17.355
 2908TIP3    H132919   6.125   6.833  17.325
 2908TIP3    H232920   6.070   6.973  17.339
 2909TIP3   OH232921   6.192   7.511  18.572
 2909TIP3    H132922   6.117   7.553  18.531
 2909TIP3    H232923   6.260   7.512  18.505
 2910TIP3   OH232924   6.093   7.892  17.360
 2910TIP3    H132925   6.145   7.814  17.381
 2910TIP3    H232926   6.089   7.893  17.265
 2911TIP3   OH232927   5.827   7.311  18.008
 2911TIP3    H132928   5.769   7.288  18.081
 2911TIP3    H232929   5.824   7.235  17.950
 2912TIP3   OH232930   5.017   7.746  17.699
 2912TIP3    H132931   5.086   7.732  17.635
 2912TIP3    H232932   4.973   7.826  17.670
 2913TIP3   OH232933   4.438   7.334  17.120
 2913TIP3    H132934   4.425   7.346  17.214
 2913TIP3    H232935   4.352   7.312  17.086
 2914TIP3   OH232936   5.026   8.009  18.291
 2914TIP3    H132937   5.010   8.095  18.330
 2914TIP3    H232938   5.116   7.988  18.316
 2915TIP3   OH232939   4.880   7.984  17.624
 2915TIP3    H132940   4.784   7.984  17.631
 2915TIP3    H232941   4.907   8.065  17.666
 2916TIP3   OH232942   5.360   7.544  18.278
 2916TIP3    H132943   5.326   7.526  18.366
 2916TIP3    H232944   5.449   7.510  18.279
 2917TIP3   OH232945   5.713   7.942  18.446
 2917TIP3    H132946   5.637   7.885  18.454
 2917TIP3    H232947   5.686   8.009  18.383
 2918TIP3   OH232948   6.235   8.245  17.232
 2918TIP3    H132949   6.284   8.326  17.221
 2918TIP3    H232950   6.149   8.273  17.264
 2919TIP3   OH232951   4.514   6.727  18.394
 2919TIP3    H132952   4.418   6.730  18.399
 2919TIP3    H232953   4.541   6.692  18.479
 2920TIP3   OH232954   5.855   7.358  17.378
 2920TIP3    H132955   5.805   7.432  17.414
 2920TIP3    H232956   5.946   7.384  17.386
 2921TIP3   OH232957   4.453   7.870  18.265
 2921TIP3    H132958   4.489   7.803  18.322
 2921TIP3    H232959   4.448   7.949  18.320
 2922TIP3   OH232960   4.936   7.718  17.050
 2922TIP3    H132961   5.017   7.736  17.003
 2922TIP3    H232962   4.960   7.726  17.143
 2923TIP3   OH232963   5.038   7.766  17.302
 2923TIP3    H132964   5.100   7.741  17.371
 2923TIP3    H232965   5.016   7.857  17.322
 2924TIP3   OH232966   4.428   7.404  17.392
 2924TIP3    H132967   4.381   7.488  17.396
 2924TIP3    H232968   4.520   7.429  17.392
 2925TIP3   OH232969   5.511   6.583  18.345
 2925TIP3    H132970   5.573   6.636  18.395
 2925TIP3    H232971   5.436   6.572  18.404
 2926TIP3   OH232972   5.480   6.508  17.548
 2926TIP3    H132973   5.466   6.557  17.468
 2926TIP3    H232974   5.533   6.565  17.603
 2927TIP3   OH232975   5.176   6.796  17.527
 2927TIP3    H132976   5.257   6.847  17.534
 2927TIP3    H232977   5.167   6.753  17.612
 2928TIP3   OH232978   5.273   6.887  18.416
 2928TIP3    H132979   5.258   6.942  18.493
 2928TIP3    H232980   5.307   6.805  18.453
 2929TIP3   OH232981   5.272   6.425  17.724
 2929TIP3    H132982   5.210   6.498  17.718
 2929TIP3    H232983   5.336   6.442  17.655
 2930TIP3   OH232984   4.976   8.026  17.368
 2930TIP3    H132985   4.918   8.098  17.341
 2930TIP3    H232986   4.953   8.010  17.459
 2931TIP3   OH232987   4.774   6.445  17.097
 2931TIP3    H132988   4.800   6.536  17.080
 2931TIP3    H232989   4.851   6.394  17.070
 2932TIP3   OH232990   5.918   6.658  18.512
 2932TIP3    H132991   5.823   6.668  18.503
 2932TIP3    H232992   5.950   6.652  18.422
 2933TIP3   OH232993   5.785   7.055  17.883
 2933TIP3    H132994   5.702   7.012  17.862
 2933TIP3    H232995   5.832   6.991  17.938
 2934TIP3   OH232996   5.913   8.242  18.130
 2934TIP3    H132997   5.878   8.279  18.049
 2934TIP3    H232998   6.002   8.216  18.109
 2935TIP3   OH232999   4.465   6.288  17.961
 2935TIP3    H133000   4.471   6.272  17.867
 2935TIP3    H233001   4.444   6.203  17.998
 2936TIP3   OH233002   4.375   7.908  17.527
 2936TIP3    H133003   4.312   7.970  17.564
 2936TIP3    H233004   4.365   7.917  17.433
 2937TIP3   OH233005   4.302   8.129  18.640
 2937TIP3    H133006   4.366   8.122  18.710
 2937TIP3    H233007   4.249   8.050  18.647
 2938TIP3   OH233008   4.909   7.971  18.753
 2938TIP3    H133009   4.955   7.904  18.803
 2938TIP3    H233010   4.841   7.923  18.705
 2939TIP3   OH233011   5.485   7.794  18.793
 2939TIP3    H133012   5.490   7.711  18.840
 2939TIP3    H233013   5.558   7.846  18.827
 2940TIP3   OH233014   4.316   7.514  18.767
 2940TIP3    H133015   4.283   7.435  18.811
 2940TIP3    H233016   4.241   7.545  18.716
 2941TIP3   OH233017   5.009   7.499  18.723
 2941TIP3    H133018   5.007   7.546  18.639
 2941TIP3    H233019   5.048   7.414  18.702
 2942TIP3   OH233020   5.692   7.533  18.468
 2942TIP3    H133021   5.781   7.568  18.462
 2942TIP3    H233022   5.638   7.610  18.485
 2943TIP3   OH233023   4.371   7.136  18.703
 2943TIP3    H133024   4.336   7.054  18.738
 2943TIP3    H233025   4.360   7.199  18.775
 2944TIP3   OH233026   4.809   7.057  18.456
 2944TIP3    H133027   4.743   7.114  18.495
 2944TIP3    H233028   4.881   7.116  18.433
 2945TIP3   OH233029   5.418   7.349  18.779
 2945TIP3    H133030   5.504   7.306  18.787
 2945TIP3    H233031   5.361   7.296  18.835
 2946TIP3   OH233032   4.898   6.796  18.539
 2946TIP3    H133033   4.900   6.734  18.466
 2946TIP3    H233034   4.877   6.880  18.499
 2947TIP3   OH233035   4.907   6.601  18.329
 2947TIP3    H133036   4.971   6.654  18.281
 2947TIP3    H233037   4.830   6.598  18.273
 2948TIP3   OH233038   5.014   7.234  18.377
 2948TIP3    H133039   5.106   7.227  18.350
 2948TIP3    H233040   4.979   7.307  18.327
 2949TIP3   OH233041   5.445   6.963  18.875
 2949TIP3    H133042   5.461   6.869  18.887
 2949TIP3    H233043   5.517   7.005  18.922
 2950TIP3   OH233044   5.757   7.272  18.541
 2950TIP3    H133045   5.723   7.357  18.513
 2950TIP3    H233046   5.850   7.288  18.556
 2951TIP3   OH233047   4.749   6.771  18.767
 2951TIP3    H133048   4.662   6.741  18.739
 2951TIP3    H233049   4.796   6.785  18.685
 2952TIP3   OH233050   4.963   6.327  18.420
 2952TIP3    H133051   4.947   6.419  18.397
 2952TIP3    H233052   4.891   6.279  18.380
 2953TIP3   OH233053   5.121   6.745  18.705
 2953TIP3    H133054   5.087   6.695  18.779
 2953TIP3    H233055   5.046   6.759  18.648
 2954TIP3   OH233056   5.376   6.680  18.597
 2954TIP3    H133057   5.292   6.695  18.640
 2954TIP3    H233058   5.421   6.617  18.653
 2955TIP3   OH233059   5.512   6.507  18.767
 2955TIP3    H133060   5.547   6.419  18.762
 2955TIP3    H233061   5.517   6.530  18.860
 2956TIP3   OH233062   4.491   6.629  18.697
 2956TIP3    H133063   4.488   6.539  18.664
 2956TIP3    H233064   4.499   6.619  18.792
 2957TIP3   OH233065   4.949   6.213  18.678
 2957TIP3    H133066   5.007   6.138  18.665
 2957TIP3    H233067   4.950   6.259  18.594
 2958TIP3   OH233068   5.064   6.350  18.894
 2958TIP3    H133069   5.028   6.300  18.821
 2958TIP3    H233070   5.020   6.435  18.888
 2959TIP3   OH233071   4.208   8.116  17.624
 2959TIP3    H133072   4.118   8.122  17.591
 2959TIP3    H233073   4.197   8.093  17.716
 2960TIP3   OH233074   4.214   8.031  17.888
 2960TIP3    H133075   4.185   7.941  17.905
 2960TIP3    H233076   4.296   8.039  17.936
 2961TIP3   OH233077   6.185   8.190  18.094
 2961TIP3    H133078   6.230   8.235  18.165
 2961TIP3    H233079   6.255   8.149  18.044
 2962TIP3   OH233080   6.084   8.010  18.434
 2962TIP3    H133081   6.042   7.949  18.374
 2962TIP3    H233082   6.120   7.955  18.504
 2963TIP3   OH233083   6.020   7.621  18.863
 2963TIP3    H133084   5.932   7.638  18.896
 2963TIP3    H233085   6.076   7.677  18.917
 2964TIP3   OH233086   6.123   7.432  17.413
 2964TIP3    H133087   6.163   7.518  17.398
 2964TIP3    H233088   6.162   7.401  17.495
 2965TIP3   OH233089   6.188   7.090  17.572
 2965TIP3    H133090   6.102   7.068  17.607
 2965TIP3    H233091   6.243   7.102  17.650
 2966TIP3   OH233092   6.280   7.496  18.104
 2966TIP3    H133093   6.314   7.427  18.046
 2966TIP3    H233094   6.329   7.574  18.078
 2967TIP3   OH233095   5.918   7.827  18.299
 2967TIP3    H133096   5.848   7.867  18.350
 2967TIP3    H233097   5.878   7.807  18.214
 2968TIP3   OH233098   6.119   7.154  17.317
 2968TIP3    H133099   6.127   7.249  17.310
 2968TIP3    H233100   6.153   7.133  17.403
 2969TIP3   OH233101   5.929   7.018  17.646
 2969TIP3    H133102   5.922   6.922  17.645
 2969TIP3    H233103   5.884   7.044  17.726
 2970TIP3   OH233104   4.290   7.216  18.092
 2970TIP3    H133105   4.331   7.212  18.005
 2970TIP3    H233106   4.362   7.210  18.154
 2971TIP3   OH233107   6.023   7.295  18.606
 2971TIP3    H133108   6.080   7.218  18.603
 2971TIP3    H233109   6.082   7.369  18.590
 2972TIP3   OH233110   6.186   7.074  18.613
 2972TIP3    H133111   6.118   7.007  18.624
 2972TIP3    H233112   6.257   7.046  18.670
 2973TIP3   OH233113   5.855   6.735  17.481
 2973TIP3    H133114   5.892   6.646  17.482
 2973TIP3    H233115   5.923   6.788  17.438
 2974TIP3   OH233116   5.950   6.880  18.027
 2974TIP3    H133117   6.041   6.887  17.996
 2974TIP3    H233118   5.956   6.896  18.121
 2975TIP3   OH233119   5.991   6.954  18.291
 2975TIP3    H133120   5.915   6.980  18.343
 2975TIP3    H233121   6.043   7.034  18.282
 2976TIP3   OH233122   4.234   6.718  18.570
 2976TIP3    H133123   4.313   6.704  18.621
 2976TIP3    H233124   4.172   6.652  18.601
 2977TIP3   OH233125   6.168   6.299  18.790
 2977TIP3    H133126   6.246   6.255  18.759
 2977TIP3    H233127   6.165   6.381  18.739
 2978TIP3   OH233128   5.943   6.472  17.503
 2978TIP3    H133129   5.992   6.446  17.581
 2978TIP3    H233130   5.864   6.419  17.505
 2979TIP3   OH233131   4.286   6.504  17.985
 2979TIP3    H133132   4.341   6.426  17.980
 2979TIP3    H233133   4.348   6.577  17.982
 2980TIP3   OH233134   4.181   6.963  18.003
 2980TIP3    H133135   4.261   6.930  17.962
 2980TIP3    H233136   4.207   7.046  18.042
 2981TIP3   OH233137   6.103   6.554  18.686
 2981TIP3    H133138   6.055   6.570  18.767
 2981TIP3    H233139   6.042   6.579  18.617
 2982TIP3   OH233140   6.085   6.537  17.074
 2982TIP3    H133141   6.003   6.579  17.048
 2982TIP3    H233142   6.140   6.541  16.996
 2983TIP3   OH233143   4.243   6.601  17.514
 2983TIP3    H133144   4.267   6.513  17.483
 2983TIP3    H233145   4.226   6.650  17.434
 2984TIP3   OH233146   5.804   8.157  17.665
 2984TIP3    H133147   5.889   8.135  17.626
 2984TIP3    H233148   5.827   8.208  17.743
 2985TIP3   OH233149   4.210   6.264  18.336
 2985TIP3    H133150   4.139   6.241  18.397
 2985TIP3    H233151   4.175   6.337  18.285
 2986TIP3   OH233152   4.459   7.826  18.668
 2986TIP3    H133153   4.375   7.816  18.622
 2986TIP3    H233154   4.437   7.808  18.760
 2987TIP3   OH233155   4.771   7.919  18.339
 2987TIP3    H133156   4.728   8.001  18.318
 2987TIP3    H233157   4.865   7.938  18.330
 2988TIP3   OH233158   5.223   8.035  18.571
 2988TIP3    H133159   5.205   8.008  18.662
 2988TIP3    H233160   5.308   8.080  18.576
 2989TIP3   OH233161   5.467   8.179  18.568
 2989TIP3    H133162   5.527   8.116  18.527
 2989TIP3    H233163   5.519   8.221  18.636
 2990TIP3   OH233164   6.000   6.158  18.430
 2990TIP3    H133165   5.919   6.158  18.379
 2990TIP3    H233166   6.039   6.072  18.414
 2991TIP3   OH233167   4.429   8.127  18.383
 2991TIP3    H133168   4.361   8.171  18.333
 2991TIP3    H233169   4.399   8.132  18.474
 2992TIP3   OH233170   4.691   8.186  18.298
 2992TIP3    H133171   4.600   8.177  18.327
 2992TIP3    H233172   4.687   8.247  18.224
 2993TIP3   OH233173   5.244   8.210  18.178
 2993TIP3    H133174   5.162   8.232  18.134
 2993TIP3    H233175   5.242   8.260  18.259
 2994TIP3   OH233176   5.444   8.029  18.240
 2994TIP3    H133177   5.373   8.087  18.213
 2994TIP3    H233178   5.522   8.085  18.241
 2995TIP3   OH233179   5.683   8.170  18.277
 2995TIP3    H133180   5.666   8.259  18.307
 2995TIP3    H233181   5.761   8.177  18.222
 2996TIP3   OH233182   4.448   8.034  18.034
 2996TIP3    H133183   4.440   7.988  18.117
 2996TIP3    H233184   4.521   7.991  17.989
 2997TIP3   OH233185   4.656   7.898  17.918
 2997TIP3    H133186   4.655   7.804  17.936
 2997TIP3    H233187   4.739   7.929  17.954
 2998TIP3   OH233188   4.905   7.964  18.038
 2998TIP3    H133189   4.927   7.874  18.014
 2998TIP3    H233190   4.947   7.977  18.124
 2999TIP3   OH233191   5.394   6.508  17.958
 2999TIP3    H133192   5.326   6.572  17.981
 2999TIP3    H233193   5.361   6.465  17.879
 3000TIP3   OH233194   5.961   6.174  17.824
 3000TIP3    H133195   6.015   6.249  17.800
 3000TIP3    H233196   5.871   6.205  17.814
 3001TIP3   OH233197   6.099   6.396  17.725
 3001TIP3    H133198   6.177   6.349  17.696
 3001TIP3    H233199   6.133   6.460  17.789
 3002TIP3   OH233200   4.470   6.226  17.689
 3002TIP3    H133201   4.376   6.223  17.668
 3002TIP3    H233202   4.502   6.138  17.669
 3003TIP3   OH233203   5.213   6.199  17.881
 3003TIP3    H133204   5.235   6.271  17.822
 3003TIP3    H233205   5.126   6.222  17.916
 3004TIP3   OH233206   5.700   6.194  17.742
 3004TIP3    H133207   5.693   6.264  17.677
 3004TIP3    H233208   5.740   6.121  17.695
 3005TIP3   OH233209   5.694   6.334  17.505
 3005TIP3    H133210   5.618   6.391  17.516
 3005TIP3    H233211   5.659   6.252  17.473
 3006TIP3   OH233212   4.279   7.884  17.243
 3006TIP3    H133213   4.220   7.877  17.168
 3006TIP3    H233214   4.276   7.976  17.268
 3007TIP3   OH233215   4.502   6.411  17.088
 3007TIP3    H133216   4.494   6.464  17.009
 3007TIP3    H233217   4.596   6.412  17.107
 3008TIP3   OH233218   5.192   6.578  17.356
 3008TIP3    H133219   5.105   6.543  17.337
 3008TIP3    H233220   5.176   6.652  17.415
 3009TIP3   OH233221   6.035   8.114  17.515
 3009TIP3    H133222   6.052   8.035  17.463
 3009TIP3    H233223   6.032   8.185  17.450
 3010TIP3   OH233224   4.483   6.359  18.642
 3010TIP3    H133225   4.412   6.301  18.669
 3010TIP3    H233226   4.559   6.328  18.692
 3011TIP3   OH233227   4.685   6.250  18.800
 3011TIP3    H133228   4.774   6.238  18.766
 3011TIP3    H233229   4.662   6.165  18.837
 3012TIP3   OH233230   5.621   6.232  18.752
 3012TIP3    H133231   5.608   6.177  18.829
 3012TIP3    H233232   5.715   6.226  18.733
 3013TIP3   OH233233   5.878   7.955  18.674
 3013TIP3    H133234   5.825   7.946  18.595
 3013TIP3    H233235   5.900   8.048  18.677
 3014TIP3   OH233236   7.536   7.310  17.623
 3014TIP3    H133237   7.527   7.406  17.621
 3014TIP3    H233238   7.471   7.278  17.560
 3015TIP3   OH233239   7.552   7.252  18.115
 3015TIP3    H133240   7.582   7.190  18.181
 3015TIP3    H233241   7.491   7.202  18.061
 3016TIP3   OH233242   6.558   7.156  18.113
 3016TIP3    H133243   6.576   7.092  18.181
 3016TIP3    H233244   6.644   7.184  18.083
 3017TIP3   OH233245   7.876   7.582  17.871
 3017TIP3    H133246   7.845   7.504  17.917
 3017TIP3    H233247   7.884   7.648  17.940
 3018TIP3   OH233248   6.705   7.680  17.954
 3018TIP3    H133249   6.694   7.595  17.913
 3018TIP3    H233250   6.799   7.687  17.971
 3019TIP3   OH233251   6.362   6.875  17.503
 3019TIP3    H133252   6.299   6.946  17.513
 3019TIP3    H233253   6.335   6.830  17.422
 3020TIP3   OH233254   6.392   7.114  17.763
 3020TIP3    H133255   6.423   7.032  17.802
 3020TIP3    H233256   6.461   7.140  17.702
 3021TIP3   OH233257   7.556   8.078  17.852
 3021TIP3    H133258   7.613   8.018  17.803
 3021TIP3    H233259   7.467   8.051  17.829
 3022TIP3   OH233260   7.193   7.536  18.004
 3022TIP3    H133261   7.227   7.506  17.920
 3022TIP3    H233262   7.270   7.542  18.060
 3023TIP3   OH233263   8.083   6.523  18.178
 3023TIP3    H133264   8.095   6.587  18.247
 3023TIP3    H233265   8.070   6.575  18.099
 3024TIP3   OH233266   7.667   6.820  18.047
 3024TIP3    H133267   7.679   6.727  18.067
 3024TIP3    H233268   7.611   6.820  17.969
 3025TIP3   OH233269   6.841   6.659  17.774
 3025TIP3    H133270   6.840   6.746  17.734
 3025TIP3    H233271   6.786   6.606  17.717
 3026TIP3   OH233272   7.699   6.707  17.668
 3026TIP3    H133273   7.761   6.672  17.732
 3026TIP3    H233274   7.754   6.738  17.596
 3027TIP3   OH233275   6.476   6.875  17.880
 3027TIP3    H133276   6.537   6.839  17.944
 3027TIP3    H233277   6.505   6.837  17.796
 3028TIP3   OH233278   6.942   7.108  17.800
 3028TIP3    H133279   7.034   7.082  17.800
 3028TIP3    H233280   6.896   7.036  17.757
 3029TIP3   OH233281   8.114   6.717  18.365
 3029TIP3    H133282   8.090   6.805  18.335
 3029TIP3    H233283   8.189   6.732  18.423
 3030TIP3   OH233284   6.737   6.555  18.218
 3030TIP3    H133285   6.710   6.615  18.149
 3030TIP3    H233286   6.662   6.551  18.278
 3031TIP3   OH233287   7.482   7.569  17.550
 3031TIP3    H133288   7.448   7.577  17.461
 3031TIP3    H233289   7.472   7.656  17.587
 3032TIP3   OH233290   6.967   7.427  18.139
 3032TIP3    H133291   6.925   7.500  18.185
 3032TIP3    H233292   7.042   7.466  18.094
 3033TIP3   OH233293   7.900   6.626  17.834
 3033TIP3    H133294   7.962   6.559  17.805
 3033TIP3    H233295   7.946   6.672  17.905
 3034TIP3   OH233296   6.699   6.734  18.003
 3034TIP3    H133297   6.750   6.806  18.041
 3034TIP3    H233298   6.753   6.703  17.930
 3035TIP3   OH233299   6.846   7.635  18.289
 3035TIP3    H133300   6.819   7.725  18.268
 3035TIP3    H233301   6.770   7.596  18.332
 3036TIP3   OH233302   6.277   7.673  17.405
 3036TIP3    H133303   6.338   7.663  17.332
 3036TIP3    H233304   6.323   7.727  17.469
 3037TIP3   OH233305   7.870   7.777  18.071
 3037TIP3    H133306   7.775   7.779  18.084
 3037TIP3    H233307   7.893   7.867  18.045
 3038TIP3   OH233308   7.858   6.359  18.220
 3038TIP3    H133309   7.787   6.416  18.189
 3038TIP3    H233310   7.938   6.407  18.199
 3039TIP3   OH233311   7.062   6.178  18.049
 3039TIP3    H133312   7.034   6.087  18.043
 3039TIP3    H233313   6.982   6.227  18.072
 3040TIP3   OH233314   7.716   7.944  17.663
 3040TIP3    H133315   7.757   7.858  17.650
 3040TIP3    H233316   7.789   8.005  17.668
 3041TIP3   OH233317   7.839   7.698  17.621
 3041TIP3    H133318   7.833   7.622  17.562
 3041TIP3    H233319   7.855   7.660  17.707
 3042TIP3   OH233320   7.991   7.576  18.438
 3042TIP3    H133321   7.991   7.520  18.360
 3042TIP3    H233322   7.974   7.664  18.404
 3043TIP3   OH233323   7.402   7.231  17.393
 3043TIP3    H133324   7.322   7.279  17.375
 3043TIP3    H233325   7.468   7.271  17.335
 3044TIP3   OH233326   8.159   7.185  18.198
 3044TIP3    H133327   8.098   7.256  18.215
 3044TIP3    H233328   8.217   7.219  18.130
 3045TIP3   OH233329   7.761   7.232  17.493
 3045TIP3    H133330   7.690   7.258  17.552
 3045TIP3    H233331   7.810   7.166  17.543
 3046TIP3   OH233332   7.776   6.993  18.460
 3046TIP3    H133333   7.776   7.079  18.502
 3046TIP3    H233334   7.714   7.002  18.387
 3047TIP3   OH233335   6.838   7.297  17.624
 3047TIP3    H133336   6.828   7.251  17.541
 3047TIP3    H233337   6.879   7.234  17.682
 3048TIP3   OH233338   6.983   7.711  17.942
 3048TIP3    H133339   6.978   7.702  17.847
 3048TIP3    H233340   7.058   7.657  17.967
 3049TIP3   OH233341   6.816   7.220  18.021
 3049TIP3    H133342   6.867   7.190  17.946
 3049TIP3    H233343   6.870   7.288  18.061
 3050TIP3   OH233344   7.605   7.766  18.144
 3050TIP3    H133345   7.548   7.836  18.173
 3050TIP3    H233346   7.548   7.689  18.137
 3051TIP3   OH233347   6.982   7.705  18.524
 3051TIP3    H133348   6.909   7.755  18.561
 3051TIP3    H233349   6.947   7.669  18.442
 3052TIP3   OH233350   7.637   7.267  17.243
 3052TIP3    H133351   7.695   7.268  17.319
 3052TIP3    H233352   7.678   7.329  17.182
 3053TIP3   OH233353   6.604   7.163  18.517
 3053TIP3    H133354   6.622   7.245  18.564
 3053TIP3    H233355   6.518   7.176  18.478
 3054TIP3   OH233356   7.460   7.832  17.633
 3054TIP3    H133357   7.549   7.867  17.638
 3054TIP3    H233358   7.407   7.906  17.602
 3055TIP3   OH233359   6.758   7.859  18.588
 3055TIP3    H133360   6.759   7.892  18.499
 3055TIP3    H233361   6.665   7.847  18.608
 3056TIP3   OH233362   6.837   7.143  17.391
 3056TIP3    H133363   6.757   7.144  17.339
 3056TIP3    H233364   6.863   7.051  17.392
 3057TIP3   OH233365   6.371   7.464  18.367
 3057TIP3    H133366   6.337   7.477  18.279
 3057TIP3    H233367   6.369   7.369  18.380
 3058TIP3   OH233368   6.443   7.722  18.049
 3058TIP3    H133369   6.531   7.704  18.017
 3058TIP3    H233370   6.455   7.783  18.122
 3059TIP3   OH233371   8.110   7.829  18.674
 3059TIP3    H133372   8.103   7.736  18.692
 3059TIP3    H233373   8.020   7.859  18.664
 3060TIP3   OH233374   7.233   7.808  18.470
 3060TIP3    H133375   7.251   7.888  18.518
 3060TIP3    H233376   7.149   7.777  18.506
 3061TIP3   OH233377   7.325   8.064  17.553
 3061TIP3    H133378   7.281   8.058  17.469
 3061TIP3    H233379   7.260   8.102  17.612
 3062TIP3   OH233380   6.637   8.037  17.650
 3062TIP3    H133381   6.655   8.009  17.740
 3062TIP3    H233382   6.581   7.968  17.613
 3063TIP3   OH233383   7.733   8.189  17.245
 3063TIP3    H133384   7.682   8.155  17.172
 3063TIP3    H233385   7.690   8.153  17.323
 3064TIP3   OH233386   7.593   8.124  17.480
 3064TIP3    H133387   7.500   8.113  17.502
 3064TIP3    H233388   7.638   8.058  17.533
 3065TIP3   OH233389   7.960   6.886  18.642
 3065TIP3    H133390   7.895   6.934  18.591
 3065TIP3    H233391   7.948   6.795  18.617
 3066TIP3   OH233392   6.632   7.542  18.428
 3066TIP3    H133393   6.639   7.496  18.512
 3066TIP3    H233394   6.541   7.529  18.401
 3067TIP3   OH233395   6.825   6.309  18.127
 3067TIP3    H133396   6.759   6.300  18.057
 3067TIP3    H233397   6.806   6.395  18.165
 3068TIP3   OH233398   7.342   6.367  18.391
 3068TIP3    H133399   7.374   6.317  18.466
 3068TIP3    H233400   7.248   6.376  18.406
 3069TIP3   OH233401   7.652   6.725  18.489
 3069TIP3    H133402   7.618   6.721  18.578
 3069TIP3    H233403   7.682   6.816  18.479
 3070TIP3   OH233404   7.760   7.425  17.058
 3070TIP3    H133405   7.782   7.408  16.967
 3070TIP3    H233406   7.831   7.481  17.090
 3071TIP3   OH233407   6.833   6.951  18.126
 3071TIP3    H133408   6.773   6.955  18.200
 3071TIP3    H233409   6.835   7.041  18.092
 3072TIP3   OH233410   6.824   6.908  17.652
 3072TIP3    H133411   6.731   6.884  17.645
 3072TIP3    H233412   6.857   6.902  17.563
 3073TIP3   OH233413   7.536   6.992  17.421
 3073TIP3    H133414   7.479   7.069  17.427
 3073TIP3    H233415   7.614   7.016  17.472
 3074TIP3   OH233416   7.327   6.919  18.557
 3074TIP3    H133417   7.277   6.854  18.607
 3074TIP3    H233418   7.397   6.947  18.617
 3075TIP3   OH233419   7.523   6.865  17.812
 3075TIP3    H133420   7.493   6.929  17.747
 3075TIP3    H233421   7.578   6.805  17.763
 3076TIP3   OH233422   6.629   6.972  18.314
 3076TIP3    H133423   6.629   7.031  18.388
 3076TIP3    H233424   6.588   6.892  18.346
 3077TIP3   OH233425   6.213   6.575  17.914
 3077TIP3    H133426   6.306   6.558  17.930
 3077TIP3    H233427   6.207   6.670  17.904
 3078TIP3   OH233428   6.272   6.744  17.276
 3078TIP3    H133429   6.317   6.761  17.193
 3078TIP3    H233430   6.267   6.649  17.281
 3079TIP3   OH233431   7.606   7.001  18.249
 3079TIP3    H133432   7.637   6.944  18.178
 3079TIP3    H233433   7.516   6.971  18.265
 3080TIP3   OH233434   7.111   6.608  17.739
 3080TIP3    H133435   7.016   6.608  17.753
 3080TIP3    H233436   7.146   6.658  17.812
 3081TIP3   OH233437   6.578   6.789  17.641
 3081TIP3    H133438   6.504   6.814  17.585
 3081TIP3    H233439   6.597   6.698  17.616
 3082TIP3   OH233440   6.921   6.870  17.398
 3082TIP3    H133441   6.985   6.801  17.414
 3082TIP3    H233442   6.898   6.860  17.305
 3083TIP3   OH233443   7.650   6.541  18.122
 3083TIP3    H133444   7.586   6.569  18.188
 3083TIP3    H233445   7.598   6.494  18.057
 3084TIP3   OH233446   6.875   6.844  17.130
 3084TIP3    H133447   6.849   6.768  17.079
 3084TIP3    H233448   6.865   6.918  17.070
 3085TIP3   OH233449   8.007   8.205  18.699
 3085TIP3    H133450   8.025   8.238  18.611
 3085TIP3    H233451   8.086   8.224  18.749
 3086TIP3   OH233452   6.621   7.395  18.666
 3086TIP3    H133453   6.691   7.408  18.730
 3086TIP3    H233454   6.542   7.424  18.711
 3087TIP3   OH233455   7.399   7.027  18.020
 3087TIP3    H133456   7.437   6.966  17.957
 3087TIP3    H233457   7.374   6.972  18.095
 3088TIP3   OH233458   6.676   6.534  17.590
 3088TIP3    H133459   6.641   6.448  17.615
 3088TIP3    H233460   6.694   6.525  17.496
 3089TIP3   OH233461   7.071   6.805  18.179
 3089TIP3    H133462   7.001   6.867  18.158
 3089TIP3    H233463   7.146   6.861  18.200
 3090TIP3   OH233464   7.180   7.380  17.329
 3090TIP3    H133465   7.120   7.332  17.272
 3090TIP3    H233466   7.123   7.422  17.393
 3091TIP3   OH233467   8.009   7.421  18.204
 3091TIP3    H133468   8.076   7.471  18.157
 3091TIP3    H233469   7.938   7.410  18.141
 3092TIP3   OH233470   7.353   7.562  18.405
 3092TIP3    H133471   7.427   7.573  18.464
 3092TIP3    H233472   7.300   7.641  18.417
 3093TIP3   OH233473   6.715   7.430  17.841
 3093TIP3    H133474   6.748   7.396  17.758
 3093TIP3    H233475   6.726   7.357  17.903
 3094TIP3   OH233476   7.383   7.568  17.290
 3094TIP3    H133477   7.344   7.621  17.220
 3094TIP3    H233478   7.317   7.500  17.308
 3095TIP3   OH233479   6.342   7.191  18.420
 3095TIP3    H133480   6.297   7.153  18.495
 3095TIP3    H233481   6.283   7.178  18.346
 3096TIP3   OH233482   7.116   7.092  18.650
 3096TIP3    H133483   7.035   7.077  18.603
 3096TIP3    H233484   7.181   7.037  18.605
 3097TIP3   OH233485   7.546   7.700  18.555
 3097TIP3    H133486   7.503   7.773  18.509
 3097TIP3    H233487   7.532   7.719  18.648
 3098TIP3   OH233488   8.056   6.912  17.288
 3098TIP3    H133489   8.032   6.874  17.204
 3098TIP3    H233490   8.063   7.006  17.270
 3099TIP3   OH233491   8.222   7.480  18.560
 3099TIP3    H133492   8.142   7.522  18.529
 3099TIP3    H233493   8.282   7.484  18.486
 3100TIP3   OH233494   7.894   7.852  17.392
 3100TIP3    H133495   7.888   7.803  17.474
 3100TIP3    H233496   7.832   7.808  17.333
 3101TIP3   OH233497   7.805   7.348  18.020
 3101TIP3    H133498   7.716   7.337  18.055
 3101TIP3    H233499   7.820   7.271  17.966
 3102TIP3   OH233500   6.922   7.706  17.671
 3102TIP3    H133501   6.937   7.799  17.652
 3102TIP3    H233502   6.828   7.695  17.666
 3103TIP3   OH233503   6.621   7.145  17.225
 3103TIP3    H133504   6.603   7.217  17.165
 3103TIP3    H233505   6.579   7.069  17.185
 3104TIP3   OH233506   7.001   7.492  17.505
 3104TIP3    H133507   6.992   7.571  17.558
 3104TIP3    H233508   6.942   7.429  17.547
 3105TIP3   OH233509   7.087   7.952  18.275
 3105TIP3    H133510   7.144   8.028  18.275
 3105TIP3    H233511   7.136   7.886  18.324
 3106TIP3   OH233512   6.923   7.977  17.635
 3106TIP3    H133513   6.840   8.023  17.623
 3106TIP3    H233514   6.987   8.047  17.648
 3107TIP3   OH233515   7.435   7.521  18.146
 3107TIP3    H133516   7.408   7.525  18.238
 3107TIP3    H233517   7.479   7.436  18.138
 3108TIP3   OH233518   7.709   7.668  17.277
 3108TIP3    H133519   7.754   7.600  17.328
 3108TIP3    H233520   7.616   7.647  17.286
 3109TIP3   OH233521   7.713   8.037  18.406
 3109TIP3    H133522   7.639   8.019  18.349
 3109TIP3    H233523   7.767   8.100  18.358
 3110TIP3   OH233524   8.096   8.062  17.012
 3110TIP3    H133525   8.104   8.128  16.943
 3110TIP3    H233526   8.073   8.113  17.091
 3111TIP3   OH233527   6.533   6.545  18.401
 3111TIP3    H133528   6.458   6.590  18.439
 3111TIP3    H233529   6.549   6.471  18.460
 3112TIP3   OH233530   7.855   7.486  17.432
 3112TIP3    H133531   7.817   7.401  17.457
 3112TIP3    H233532   7.949   7.468  17.425
 3113TIP3   OH233533   6.530   7.928  18.240
 3113TIP3    H133534   6.621   7.910  18.261
 3113TIP3    H233535   6.502   7.993  18.304
 3114TIP3   OH233536   7.461   6.617  18.313
 3114TIP3    H133537   7.523   6.641  18.382
 3114TIP3    H233538   7.421   6.536  18.345
 3115TIP3   OH233539   7.496   6.528  17.586
 3115TIP3    H133540   7.530   6.510  17.499
 3115TIP3    H233541   7.560   6.588  17.625
 3116TIP3   OH233542   7.112   6.666  17.460
 3116TIP3    H133543   7.205   6.685  17.448
 3116TIP3    H233544   7.104   6.638  17.551
 3117TIP3   OH233545   7.354   6.877  18.277
 3117TIP3    H133546   7.335   6.897  18.369
 3117TIP3    H233547   7.379   6.785  18.277
 3118TIP3   OH233548   7.299   6.400  17.733
 3118TIP3    H133549   7.229   6.465  17.728
 3118TIP3    H233550   7.369   6.436  17.678
 3119TIP3   OH233551   6.738   6.519  17.319
 3119TIP3    H133552   6.706   6.559  17.238
 3119TIP3    H233553   6.828   6.493  17.299
 3120TIP3   OH233554   7.915   6.634  18.537
 3120TIP3    H133555   7.825   6.636  18.506
 3120TIP3    H233556   7.967   6.647  18.457
 3121TIP3   OH233557   7.863   6.964  17.901
 3121TIP3    H133558   7.786   6.932  17.949
 3121TIP3    H233559   7.934   6.907  17.930
 3122TIP3   OH233560   6.399   6.780  17.037
 3122TIP3    H133561   6.399   6.828  16.954
 3122TIP3    H233562   6.453   6.703  17.020
 3123TIP3   OH233563   7.981   8.038  18.052
 3123TIP3    H133564   7.973   8.119  18.001
 3123TIP3    H233565   8.075   8.029  18.067
 3124TIP3   OH233566   6.610   6.295  17.953
 3124TIP3    H133567   6.605   6.296  17.858
 3124TIP3    H233568   6.569   6.213  17.979
 3125TIP3   OH233569   6.417   7.863  17.560
 3125TIP3    H133570   6.376   7.884  17.644
 3125TIP3    H233571   6.398   7.938  17.504
 3126TIP3   OH233572   6.434   8.148  18.677
 3126TIP3    H133573   6.481   8.165  18.758
 3126TIP3    H233574   6.421   8.053  18.677
 3127TIP3   OH233575   6.899   7.997  18.790
 3127TIP3    H133576   6.953   7.930  18.830
 3127TIP3    H233577   6.850   7.951  18.722
 3128TIP3   OH233578   7.510   7.771  18.819
 3128TIP3    H133579   7.521   7.688  18.865
 3128TIP3    H233580   7.586   7.823  18.846
 3129TIP3   OH233581   6.374   7.459  18.781
 3129TIP3    H133582   6.344   7.383  18.831
 3129TIP3    H233583   6.304   7.476  18.719
 3130TIP3   OH233584   7.055   7.541  18.732
 3130TIP3    H133585   7.036   7.590  18.652
 3130TIP3    H233586   7.129   7.484  18.708
 3131TIP3   OH233587   7.738   7.493  18.538
 3131TIP3    H133588   7.820   7.535  18.512
 3131TIP3    H233589   7.675   7.565  18.542
 3132TIP3   OH233590   6.431   7.065  18.743
 3132TIP3    H133591   6.509   7.089  18.692
 3132TIP3    H233592   6.427   7.132  18.812
 3133TIP3   OH233593   6.992   7.247  17.175
 3133TIP3    H133594   6.941   7.216  17.250
 3133TIP3    H233595   6.964   7.192  17.102
 3134TIP3   OH233596   6.881   7.056  18.494
 3134TIP3    H133597   6.796   7.096  18.512
 3134TIP3    H233598   6.921   7.113  18.428
 3135TIP3   OH233599   6.885   7.101  16.961
 3135TIP3    H133600   6.834   7.177  16.933
 3135TIP3    H233601   6.899   7.051  16.880
 3136TIP3   OH233602   7.459   7.336  18.795
 3136TIP3    H133603   7.484   7.294  18.713
 3136TIP3    H233604   7.422   7.265  18.848
 3137TIP3   OH233605   6.921   6.791  18.572
 3137TIP3    H133606   6.932   6.733  18.497
 3137TIP3    H233607   6.905   6.877  18.533
 3138TIP3   OH233608   6.966   6.622  18.352
 3138TIP3    H133609   7.012   6.679  18.290
 3138TIP3    H233610   6.884   6.600  18.308
 3139TIP3   OH233611   7.013   7.225  18.324
 3139TIP3    H133612   7.101   7.249  18.354
 3139TIP3    H233613   6.990   7.292  18.260
 3140TIP3   OH233614   7.535   6.979  18.754
 3140TIP3    H133615   7.552   6.885  18.759
 3140TIP3    H233616   7.619   7.019  18.774
 3141TIP3   OH233617   7.807   7.234  18.582
 3141TIP3    H133618   7.773   7.322  18.565
 3141TIP3    H233619   7.902   7.246  18.587
 3142TIP3   OH233620   6.796   6.755  18.815
 3142TIP3    H133621   6.713   6.711  18.800
 3142TIP3    H233622   6.832   6.768  18.727
 3143TIP3   OH233623   7.062   6.364  18.384
 3143TIP3    H133624   7.036   6.456  18.391
 3143TIP3    H233625   7.002   6.327  18.320
 3144TIP3   OH233626   7.161   6.761  18.707
 3144TIP3    H133627   7.144   6.701  18.780
 3144TIP3    H233628   7.077   6.770  18.663
 3145TIP3   OH233629   7.575   6.705  18.753
 3145TIP3    H133630   7.494   6.670  18.789
 3145TIP3    H233631   7.643   6.644  18.782
 3146TIP3   OH233632   7.720   6.494  18.868
 3146TIP3    H133633   7.687   6.410  18.833
 3146TIP3    H233634   7.663   6.512  18.943
 3147TIP3   OH233635   6.551   6.586  18.750
 3147TIP3    H133636   6.571   6.510  18.695
 3147TIP3    H233637   6.547   6.550  18.839
 3148TIP3   OH233638   7.047   6.226  18.625
 3148TIP3    H133639   7.102   6.147  18.619
 3148TIP3    H233640   7.054   6.266  18.539
 3149TIP3   OH233641   7.193   6.412  18.775
 3149TIP3    H133642   7.142   6.342  18.733
 3149TIP3    H233643   7.127   6.470  18.812
 3150TIP3   OH233644   6.257   8.132  17.682
 3150TIP3    H133645   6.179   8.130  17.627
 3150TIP3    H233646   6.254   8.050  17.732
 3151TIP3   OH233647   6.333   7.902  17.828
 3151TIP3    H133648   6.336   7.820  17.876
 3151TIP3    H233649   6.369   7.967  17.888
 3152TIP3   OH233650   8.244   8.029  18.177
 3152TIP3    H133651   8.215   8.005  18.265
 3152TIP3    H233652   8.289   8.113  18.188
 3153TIP3   OH233653   8.130   7.981  18.431
 3153TIP3    H133654   8.061   7.926  18.396
 3153TIP3    H233655   8.156   7.938  18.513
 3154TIP3   OH233656   8.068   7.609  18.870
 3154TIP3    H133657   7.978   7.614  18.903
 3154TIP3    H233658   8.113   7.682  18.913
 3155TIP3   OH233659   8.116   7.391  17.443
 3155TIP3    H133660   8.195   7.435  17.473
 3155TIP3    H233661   8.122   7.303  17.480
 3156TIP3   OH233662   8.131   7.148  17.588
 3156TIP3    H133663   8.044   7.110  17.596
 3156TIP3    H233664   8.159   7.165  17.678
 3157TIP3   OH233665   8.244   7.529  18.099
 3157TIP3    H133666   8.281   7.473  18.031
 3157TIP3    H233667   8.264   7.619  18.070
 3158TIP3   OH233668   7.921   7.826  18.338
 3158TIP3    H133669   7.837   7.866  18.359
 3158TIP3    H233670   7.913   7.802  18.246
 3159TIP3   OH233671   7.976   6.867  17.025
 3159TIP3    H133672   7.887   6.890  16.999
 3159TIP3    H233673   8.002   6.798  16.965
 3160TIP3   OH233674   7.887   7.027  17.634
 3160TIP3    H133675   7.892   6.941  17.592
 3160TIP3    H233676   7.873   7.008  17.727
 3161TIP3   OH233677   6.310   7.199  18.013
 3161TIP3    H133678   6.327   7.189  17.919
 3161TIP3    H233679   6.395   7.187  18.054
 3162TIP3   OH233680   8.082   7.247  18.613
 3162TIP3    H133681   8.137   7.169  18.601
 3162TIP3    H233682   8.140   7.320  18.590
 3163TIP3   OH233683   8.206   6.996  18.570
 3163TIP3    H133684   8.121   6.968  18.602
 3163TIP3    H233685   8.261   6.917  18.574
 3164TIP3   OH233686   8.053   6.675  16.820
 3164TIP3    H133687   8.042   6.615  16.894
 3164TIP3    H233688   7.981   6.654  16.761
 3165TIP3   OH233689   7.905   6.789  17.490
 3165TIP3    H133690   7.933   6.697  17.487
 3165TIP3    H233691   7.950   6.830  17.416
 3166TIP3   OH233692   8.027   6.776  18.041
 3166TIP3    H133693   8.113   6.817  18.032
 3166TIP3    H233694   7.990   6.813  18.121
 3167TIP3   OH233695   7.998   6.950  18.275
 3167TIP3    H133696   7.925   6.974  18.333
 3167TIP3    H233697   8.039   7.033  18.253
 3168TIP3   OH233698   6.335   6.653  18.565
 3168TIP3    H133699   6.402   6.654  18.634
 3168TIP3    H233700   6.257   6.619  18.609
 3169TIP3   OH233701   8.186   6.302  18.751
 3169TIP3    H133702   8.235   6.268  18.676
 3169TIP3    H233703   8.163   6.391  18.727
 3170TIP3   OH233704   7.985   6.523  17.473
 3170TIP3    H133705   7.996   6.474  17.554
 3170TIP3    H233706   7.970   6.456  17.406
 3171TIP3   OH233707   6.482   6.547  17.965
 3171TIP3    H133708   6.523   6.461  17.969
 3171TIP3    H233709   6.554   6.609  17.977
 3172TIP3   OH233710   6.216   6.923  17.965
 3172TIP3    H133711   6.303   6.894  17.936
 3172TIP3    H233712   6.229   7.013  17.993
 3173TIP3   OH233713   8.114   6.563  18.710
 3173TIP3    H133714   8.070   6.584  18.792
 3173TIP3    H233715   8.048   6.578  18.643
 3174TIP3   OH233716   6.159   6.463  17.321
 3174TIP3    H133717   6.087   6.477  17.382
 3174TIP3    H233718   6.127   6.496  17.237
 3175TIP3   OH233719   7.908   8.145  17.667
 3175TIP3    H133720   7.947   8.129  17.581
 3175TIP3    H233721   7.979   8.179  17.720
 3176TIP3   OH233722   6.208   6.271  18.276
 3176TIP3    H133723   6.142   6.250  18.342
 3176TIP3    H233724   6.174   6.348  18.231
 3177TIP3   OH233725   6.399   7.876  18.692
 3177TIP3    H133726   6.309   7.857  18.669
 3177TIP3    H233727   6.418   7.818  18.766
 3178TIP3   OH233728   6.808   7.934  18.321
 3178TIP3    H133729   6.788   8.027  18.308
 3178TIP3    H233730   6.903   7.929  18.311
 3179TIP3   OH233731   7.297   8.041  18.611
 3179TIP3    H133732   7.290   8.007  18.700
 3179TIP3    H233733   7.382   8.086  18.610
 3180TIP3   OH233734   7.546   8.177  18.591
 3180TIP3    H133735   7.605   8.128  18.533
 3180TIP3    H233736   7.603   8.212  18.659
 3181TIP3   OH233737   8.044   6.233  18.419
 3181TIP3    H133738   7.979   6.255  18.352
 3181TIP3    H233739   8.068   6.142  18.400
 3182TIP3   OH233740   6.495   8.159  18.400
 3182TIP3    H133741   6.424   8.214  18.366
 3182TIP3    H233742   6.481   8.157  18.494
 3183TIP3   OH233743   6.751   8.203  18.288
 3183TIP3    H133744   6.663   8.202  18.326
 3183TIP3    H233745   6.743   8.259  18.211
 3184TIP3   OH233746   7.258   8.178  18.281
 3184TIP3    H133747   7.172   8.221  18.278
 3184TIP3    H233748   7.313   8.238  18.331
 3185TIP3   OH233749   7.500   8.026  18.216
 3185TIP3    H133750   7.415   8.065  18.239
 3185TIP3    H233751   7.519   8.058  18.128
 3186TIP3   OH233752   7.870   8.199  18.244
 3186TIP3    H133753   7.853   8.270  18.181
 3186TIP3    H233754   7.904   8.127  18.190
 3187TIP3   OH233755   6.462   8.068  18.010
 3187TIP3    H133756   6.466   8.027  18.097
 3187TIP3    H233757   6.544   8.041  17.968
 3188TIP3   OH233758   6.694   7.955  17.911
 3188TIP3    H133759   6.689   7.860  17.922
 3188TIP3    H233760   6.779   7.978  17.948
 3189TIP3   OH233761   6.952   7.970  18.030
 3189TIP3    H133762   6.969   7.884  17.993
 3189TIP3    H233763   6.997   7.969  18.115
 3190TIP3   OH233764   7.448   6.417  17.974
 3190TIP3    H133765   7.378   6.394  18.035
 3190TIP3    H233766   7.407   6.410  17.888
 3191TIP3   OH233767   7.950   6.193  17.815
 3191TIP3    H133768   7.983   6.283  17.808
 3191TIP3    H233769   7.949   6.160  17.725
 3192TIP3   OH233770   8.090   6.440  17.730
 3192TIP3    H133771   8.140   6.365  17.698
 3192TIP3    H233772   8.149   6.515  17.719
 3193TIP3   OH233773   6.578   6.284  17.677
 3193TIP3    H133774   6.486   6.265  17.660
 3193TIP3    H233775   6.623   6.200  17.664
 3194TIP3   OH233776   6.242   6.218  17.232
 3194TIP3    H133777   6.323   6.232  17.183
 3194TIP3    H233778   6.224   6.303  17.273
 3195TIP3   OH233779   7.152   6.160  17.783
 3195TIP3    H133780   7.199   6.241  17.760
 3195TIP3    H233781   7.124   6.174  17.873
 3196TIP3   OH233782   6.396   8.072  17.383
 3196TIP3    H133783   6.326   8.115  17.333
 3196TIP3    H233784   6.474   8.126  17.365
 3197TIP3   OH233785   7.010   6.489  17.257
 3197TIP3    H133786   7.000   6.543  17.178
 3197TIP3    H233787   7.045   6.548  17.323
 3198TIP3   OH233788   8.045   8.080  17.438
 3198TIP3    H133789   8.001   7.999  17.412
 3198TIP3    H233790   8.044   8.135  17.360
 3199TIP3   OH233791   6.558   6.338  18.586
 3199TIP3    H133792   6.499   6.283  18.637
 3199TIP3    H233793   6.645   6.318  18.622
 3200TIP3   OH233794   6.791   6.287  18.717
 3200TIP3    H133795   6.878   6.262  18.684
 3200TIP3    H233796   6.805   6.304  18.810
 3201TIP3   OH233797   7.666   6.234  18.766
 3201TIP3    H133798   7.658   6.174  18.840
 3201TIP3    H233799   7.754   6.219  18.731
 3202TIP3   OH233800   7.869   7.965  18.649
 3202TIP3    H133801   7.814   7.982  18.572
 3202TIP3    H233802   7.915   8.048  18.664
 3203TIP3   OH233803   8.251   6.901  17.509
 3203TIP3    H133804   8.222   6.989  17.532
 3203TIP3    H233805   8.200   6.879  17.430
 3204TIP3   OH233806   8.378   7.453  18.336
 3204TIP3    H133807   8.333   7.476  18.254
 3204TIP3    H233808   8.373   7.357  18.339
 3205TIP3   OH233809   8.329   7.794  18.033
 3205TIP3    H133810   8.424   7.794  18.041
 3205TIP3    H233811   8.300   7.871  18.083
 3206TIP3   OH233812   8.252   6.656  17.662
 3206TIP3    H133813   8.249   6.747  17.633
 3206TIP3    H233814   8.278   6.607  17.584
 3207TIP3   OH233815   8.347   7.173  18.404
 3207TIP3    H133816   8.314   7.113  18.470
 3207TIP3    H233817   8.285   7.166  18.332
 3208TIP3   OH233818   8.387   7.455  18.785
 3208TIP3    H133819   8.319   7.470  18.852
 3208TIP3    H233820   8.340   7.463  18.702
 3209TIP3   OH233821   8.258   8.153  17.608
 3209TIP3    H133822   8.192   8.127  17.545
 3209TIP3    H233823   8.264   8.079  17.668
 3210TIP3   OH233824   8.316   7.951  17.788
 3210TIP3    H133825   8.296   7.886  17.856
 3210TIP3    H233826   8.410   7.965  17.796
 3211TIP3   OH233827   8.348   7.265  18.012
 3211TIP3    H133828   8.354   7.186  17.958
 3211TIP3    H233829   8.439   7.287  18.032
 3212TIP3   OH233830   8.305   6.734  18.571
 3212TIP3    H133831   8.396   6.706  18.579
 3212TIP3    H233832   8.257   6.674  18.629
 3213TIP3   OH233833   8.245   6.937  18.059
 3213TIP3    H133834   8.334   6.951  18.028
 3213TIP3    H233835   8.228   7.011  18.117
 3214TIP3   OH233836   8.262   6.519  17.424
 3214TIP3    H133837   8.169   6.542  17.433
 3214TIP3    H233838   8.264   6.459  17.349
 3215TIP3   OH233839   8.272   6.376  18.327
 3215TIP3    H133840   8.206   6.323  18.372
 3215TIP3    H233841   8.222   6.427  18.263
 3216TIP3   OH233842   0.938   8.337  17.945
 3216TIP3    H133843   0.929   8.315  17.853
 3216TIP3    H233844   0.849   8.330  17.980
 3217TIP3   OH233845   1.940   8.176  17.268
 3217TIP3    H133846   1.939   8.148  17.176
 3217TIP3    H233847   1.886   8.256  17.269
 3218TIP3   OH233848   0.673   8.360  18.039
 3218TIP3    H133849   0.593   8.342  17.990
 3218TIP3    H233850   0.665   0.003  18.065
 3219TIP3   OH233851   1.147   8.314  18.353
 3219TIP3    H133852   1.190   8.283  18.433
 3219TIP3    H233853   1.054   8.294  18.367
 3220TIP3   OH233854   0.417   8.319  17.942
 3220TIP3    H133855   0.389   8.323  17.851
 3220TIP3    H233856   0.394   8.230  17.970
 3221TIP3   OH233857   0.867   8.294  18.365
 3221TIP3    H133858   0.855   8.388  18.355
 3221TIP3    H233859   0.784   8.256  18.336
 3222TIP3   OH233860   0.877   8.256  18.640
 3222TIP3    H133861   0.936   8.183  18.658
 3222TIP3    H233862   0.867   8.255  18.545
 3223TIP3   OH233863   1.980   8.352  18.846
 3223TIP3    H133864   2.051   8.294  18.817
 3223TIP3    H233865   2.019   8.440  18.845
 3224TIP3   OH233866   0.131   8.301  18.402
 3224TIP3    H133867   0.047   8.280  18.363
 3224TIP3    H233868   0.144   8.394  18.382
 3225TIP3   OH233869   1.792   8.287  18.460
 3225TIP3    H133870   1.716   8.250  18.415
 3225TIP3    H233871   1.862   8.224  18.447
 3226TIP3   OH233872   1.661   8.317  17.853
 3226TIP3    H133873   1.673   8.411  17.842
 3226TIP3    H233874   1.566   8.305  17.853
 3227TIP3   OH233875   0.332   8.308  17.683
 3227TIP3    H133876   0.244   8.289  17.650
 3227TIP3    H233877   0.385   8.235  17.653
 3228TIP3   OH233878   0.247   8.270  17.370
 3228TIP3    H133879   0.247   8.360  17.337
 3228TIP3    H233880   0.176   8.267  17.434
 3229TIP3   OH233881   0.908   8.322  17.665
 3229TIP3    H133882   0.979   8.297  17.606
 3229TIP3    H233883   0.894   8.415  17.648
 3230TIP3   OH233884   1.384   8.294  17.863
 3230TIP3    H133885   1.372   8.376  17.815
 3230TIP3    H233886   1.315   8.293  17.929
 3231TIP3   OH233887   1.424   8.347  17.305
 3231TIP3    H133888   1.373   8.304  17.237
 3231TIP3    H233889   1.499   8.289  17.319
 3232TIP3   OH233890   0.505   8.237  18.765
 3232TIP3    H133891   0.573   8.171  18.775
 3232TIP3    H233892   0.429   8.202  18.811
 3233TIP3   OH233893   1.483   8.234  18.793
 3233TIP3    H133894   1.476   8.191  18.878
 3233TIP3    H233895   1.576   8.234  18.773
 3234TIP3   OH233896   2.938   8.290  18.019
 3234TIP3    H133897   2.930   8.248  17.934
 3234TIP3    H233898   2.848   8.308  18.046
 3235TIP3   OH233899   3.874   8.362  17.352
 3235TIP3    H133900   3.779   8.361  17.354
 3235TIP3    H233901   3.897   0.004  17.331
 3236TIP3   OH233902   2.678   8.390  18.062
 3236TIP3    H133903   2.600   8.367  18.011
 3236TIP3    H233904   2.687   0.036  18.052
 3237TIP3   OH233905   3.162   8.315  18.421
 3237TIP3    H133906   3.215   8.276  18.491
 3237TIP3    H233907   3.073   8.283  18.439
 3238TIP3   OH233908   2.450   8.310  17.923
 3238TIP3    H133909   2.421   8.294  17.833
 3238TIP3    H233910   2.424   8.232  17.971
 3239TIP3   OH233911   2.886   8.260  18.392
 3239TIP3    H133912   2.878   8.353  18.372
 3239TIP3    H233913   2.816   8.218  18.342
 3240TIP3   OH233914   2.842   8.210  18.656
 3240TIP3    H133915   2.915   8.155  18.685
 3240TIP3    H233916   2.851   8.213  18.561
 3241TIP3   OH233917   4.123   8.293  18.792
 3241TIP3    H133918   4.183   8.252  18.730
 3241TIP3    H233919   4.147   8.386  18.792
 3242TIP3   OH233920   2.153   8.228  18.278
 3242TIP3    H133921   2.085   8.186  18.331
 3242TIP3    H233922   2.139   8.322  18.291
 3243TIP3   OH233923   3.859   8.293  18.453
 3243TIP3    H133924   3.782   8.260  18.407
 3243TIP3    H233925   3.926   8.226  18.439
 3244TIP3   OH233926   3.716   8.324  17.832
 3244TIP3    H133927   3.732   8.419  17.834
 3244TIP3    H233928   3.622   8.316  17.817
 3245TIP3   OH233929   2.363   8.247  17.663
 3245TIP3    H133930   2.278   8.204  17.653
 3245TIP3    H233931   2.427   8.178  17.641
 3246TIP3   OH233932   2.858   8.241  17.747
 3246TIP3    H133933   2.922   8.304  17.713
 3246TIP3    H233934   2.774   8.287  17.743
 3247TIP3   OH233935   3.445   8.307  17.789
 3247TIP3    H133936   3.437   8.287  17.695
 3247TIP3    H233937   3.428   8.224  17.833
 3248TIP3   OH233938   3.591   8.358  17.355
 3248TIP3    H133939   3.542   8.335  17.275
 3248TIP3    H233940   3.551   8.305  17.424
 3249TIP3   OH233941   2.578   8.288  18.724
 3249TIP3    H133942   2.663   8.247  18.710
 3249TIP3    H233943   2.527   8.222  18.772
 3250TIP3   OH233944   3.554   8.266  18.765
 3250TIP3    H133945   3.534   8.214  18.842
 3250TIP3    H233946   3.649   8.260  18.756
 3251TIP3   OH233947   4.990   8.260  18.048
 3251TIP3    H133948   4.978   8.172  18.014
 3251TIP3    H233949   4.902   8.290  18.072
 3252TIP3   OH233950   5.991   8.338  17.344
 3252TIP3    H133951   5.900   8.350  17.372
 3252TIP3    H233952   6.017   8.424  17.309
 3253TIP3   OH233953   4.737   8.372  18.081
 3253TIP3    H133954   4.657   8.351  18.033
 3253TIP3    H233955   4.751   0.017  18.064
 3254TIP3   OH233956   5.252   8.307  18.441
 3254TIP3    H133957   5.333   8.274  18.482
 3254TIP3    H233958   5.183   8.252  18.479
 3255TIP3   OH233959   4.504   8.298  17.953
 3255TIP3    H133960   4.488   8.283  17.859
 3255TIP3    H233961   4.476   8.217  17.996
 3256TIP3   OH233962   4.939   8.252  18.402
 3256TIP3    H133963   4.946   8.346  18.388
 3256TIP3    H233964   4.851   8.230  18.371
 3257TIP3   OH233965   4.916   8.236  18.680
 3257TIP3    H133966   4.925   8.148  18.716
 3257TIP3    H233967   4.930   8.226  18.586
 3258TIP3   OH233968   6.198   8.274  18.777
 3258TIP3    H133969   6.274   8.238  18.731
 3258TIP3    H233970   6.221   8.365  18.796
 3259TIP3   OH233971   4.210   8.258  18.274
 3259TIP3    H133972   4.147   8.218  18.334
 3259TIP3    H233973   4.207   8.352  18.295
 3260TIP3   OH233974   6.018   8.274  18.397
 3260TIP3    H133975   5.975   8.272  18.311
 3260TIP3    H233976   6.044   8.184  18.413
 3261TIP3   OH233977   5.808   8.358  17.885
 3261TIP3    H133978   5.847   8.445  17.891
 3261TIP3    H233979   5.721   8.374  17.849
 3262TIP3   OH233980   4.457   8.241  17.683
 3262TIP3    H133981   4.373   8.204  17.657
 3262TIP3    H233982   4.520   8.171  17.668
 3263TIP3   OH233983   4.257   8.137  17.344
 3263TIP3    H133984   4.186   8.185  17.301
 3263TIP3    H233985   4.240   8.148  17.437
 3264TIP3   OH233986   4.922   8.234  17.723
 3264TIP3    H133987   4.987   8.297  17.689
 3264TIP3    H233988   4.862   8.288  17.775
 3265TIP3   OH233989   5.565   8.406  17.738
 3265TIP3    H133990   5.601   8.397  17.650
 3265TIP3    H233991   5.500   8.336  17.746
 3266TIP3   OH233992   5.665   8.317  17.486
 3266TIP3    H133993   5.609   8.260  17.433
 3266TIP3    H233994   5.713   8.257  17.543
 3267TIP3   OH233995   4.661   8.308  18.782
 3267TIP3    H133996   4.741   8.266  18.751
 3267TIP3    H233997   4.602   8.236  18.803
 3268TIP3   OH233998   5.657   8.268  18.755
 3268TIP3    H133999   5.638   8.219  18.835
 3268TIP3    H234000   5.750   8.255  18.740
 3269TIP3   OH234001   6.975   8.233  17.944
 3269TIP3    H134002   6.974   8.142  17.973
 3269TIP3    H234003   6.898   8.272  17.987
 3270TIP3   OH234004   8.008   8.244  17.216
 3270TIP3    H134005   7.912   8.237  17.220
 3270TIP3    H234006   8.025   8.338  17.223
 3271TIP3   OH234007   6.761   8.368  18.064
 3271TIP3    H134008   6.681   8.356  18.014
 3271TIP3    H234009   6.781   0.013  18.055
 3272TIP3   OH234010   7.373   8.359  18.465
 3272TIP3    H134011   7.442   8.309  18.508
 3272TIP3    H234012   7.296   8.345  18.521
 3273TIP3   OH234013   6.528   8.326  17.926
 3273TIP3    H134014   6.517   8.315  17.831
 3273TIP3    H234015   6.490   8.247  17.963
 3274TIP3   OH234016   7.008   8.297  18.349
 3274TIP3    H134017   6.994   8.391  18.358
 3274TIP3    H234018   6.922   8.261  18.331
 3275TIP3   OH234019   7.141   8.278  18.592
 3275TIP3    H134020   7.172   8.190  18.613
 3275TIP3    H234021   7.087   8.267  18.514
 3276TIP3   OH234022   8.259   8.287  18.804
 3276TIP3    H134023   8.344   8.256  18.772
 3276TIP3    H234024   8.270   8.382  18.813
 3277TIP3   OH234025   6.289   8.324  18.317
 3277TIP3    H134026   6.203   8.313  18.359
 3277TIP3    H234027   6.305   8.419  18.319
 3278TIP3   OH234028   8.071   8.253  18.426
 3278TIP3    H134029   7.997   8.247  18.365
 3278TIP3    H234030   8.102   8.162  18.435
 3279TIP3   OH234031   7.899   8.310  17.976
 3279TIP3    H134032   7.932   8.399  17.962
 3279TIP3    H234033   7.823   8.303  17.918
 3280TIP3   OH234034   6.487   8.276  17.656
 3280TIP3    H134035   6.402   8.232  17.657
 3280TIP3    H234036   6.550   8.206  17.639
 3281TIP3   OH234037   7.111   8.180  17.700
 3281TIP3    H134038   7.137   8.268  17.672
 3281TIP3    H234039   7.070   8.193  17.785
 3282TIP3   OH234040   7.703   8.308  17.779
 3282TIP3    H134041   7.760   8.262  17.717
 3282TIP3    H234042   7.638   8.243  17.805
 3283TIP3   OH234043   7.704   8.386  17.440
 3283TIP3    H134044   7.727   8.343  17.358
 3283TIP3    H234045   7.648   8.323  17.485
 3284TIP3   OH234046   6.793   8.246  18.859
 3284TIP3    H134047   6.836   8.165  18.832
 3284TIP3    H234048   6.707   8.218  18.889
 3285TIP3   OH234049   7.739   8.252  18.781
 3285TIP3    H134050   7.711   8.199  18.856
 3285TIP3    H234051   7.831   8.228  18.768
 3286TIP3   OH234052   8.319   8.293  18.288
 3286TIP3    H134053   8.238   8.286  18.339
 3286TIP3    H234054   8.323   8.385  18.263
 3287TIP3   OH234055   1.377   1.100  19.420
 3287TIP3    H134056   1.353   1.191  19.434
 3287TIP3    H234057   1.399   1.067  19.507
 3288TIP3   OH234058   0.996   1.086  19.872
 3288TIP3    H134059   1.023   1.073  19.963
 3288TIP3    H234060   1.052   1.027  19.822
 3289TIP3   OH234061   1.603   1.236  19.755
 3289TIP3    H134062   1.548   1.167  19.719
 3289TIP3    H234063   1.660   1.191  19.818
 3290TIP3   OH234064   0.455   1.456  19.808
 3290TIP3    H134065   0.454   1.374  19.757
 3290TIP3    H234066   0.521   1.441  19.875
 3291TIP3   OH234067   0.127   0.715  19.309
 3291TIP3    H134068   0.145   0.730  19.216
 3291TIP3    H234069   0.033   0.733  19.318
 3292TIP3   OH234070   0.132   0.928  19.652
 3292TIP3    H134071   0.178   0.860  19.701
 3292TIP3    H234072   0.132   0.897  19.562
 3293TIP3   OH234073   1.257   1.957  19.631
 3293TIP3    H134074   1.305   1.877  19.611
 3293TIP3    H234075   1.170   1.927  19.658
 3294TIP3   OH234076   1.031   1.352  19.789
 3294TIP3    H134077   1.007   1.264  19.818
 3294TIP3    H234078   1.115   1.341  19.745
 3295TIP3   OH234079   1.334   0.638  19.928
 3295TIP3    H134080   1.378   0.677  20.003
 3295TIP3    H234081   1.284   0.709  19.889
 3296TIP3   OH234082   0.602   0.448  19.645
 3296TIP3    H134083   0.636   0.527  19.602
 3296TIP3    H234084   0.538   0.413  19.583
 3297TIP3   OH234085   1.442   0.380  19.534
 3297TIP3    H134086   1.524   0.371  19.582
 3297TIP3    H234087   1.409   0.466  19.557
 3298TIP3   OH234088   0.267   0.708  19.746
 3298TIP3    H134089   0.331   0.666  19.804
 3298TIP3    H234090   0.293   0.681  19.658
 3299TIP3   OH234091   0.760   0.882  19.606
 3299TIP3    H134092   0.842   0.835  19.622
 3299TIP3    H234093   0.701   0.817  19.569
 3300TIP3   OH234094   1.300   1.365  19.437
 3300TIP3    H134095   1.286   1.366  19.342
 3300TIP3    H234096   1.245   1.437  19.470
 3301TIP3   OH234097   1.627   0.351  19.741
 3301TIP3    H134098   1.549   0.362  19.794
 3301TIP3    H234099   1.680   0.428  19.758
 3302TIP3   OH234100   0.476   0.559  19.864
 3302TIP3    H134101   0.541   0.589  19.926
 3302TIP3    H234102   0.526   0.520  19.793
 3303TIP3   OH234103   0.269   1.467  19.251
 3303TIP3    H134104   0.262   1.489  19.158
 3303TIP3    H234105   0.268   1.552  19.296
 3304TIP3   OH234106   1.798   1.428  19.824
 3304TIP3    H134107   1.758   1.515  19.828
 3304TIP3    H234108   1.731   1.372  19.785
 3305TIP3   OH234109   0.911   0.044  19.694
 3305TIP3    H134110   0.895   8.406  19.733
 3305TIP3    H234111   0.830   0.093  19.710
 3306TIP3   OH234112   1.403   1.728  19.569
 3306TIP3    H134113   1.431   1.642  19.601
 3306TIP3    H234114   1.484   1.773  19.546
 3307TIP3   OH234115   1.479   1.464  19.629
 3307TIP3    H134116   1.430   1.422  19.558
 3307TIP3    H234117   1.521   1.392  19.675
 3308TIP3   OH234118   1.184   1.011  19.236
 3308TIP3    H134119   1.121   1.082  19.239
 3308TIP3    H234120   1.253   1.038  19.297
 3309TIP3   OH234121   1.133   0.941  18.970
 3309TIP3    H134122   1.156   0.957  19.061
 3309TIP3    H234123   1.191   0.870  18.942
 3310TIP3   OH234124   1.592   1.028  19.259
 3310TIP3    H134125   1.518   1.055  19.314
 3310TIP3    H234126   1.646   0.974  19.317
 3311TIP3   OH234127   0.658   1.122  19.478
 3311TIP3    H134128   0.626   1.082  19.397
 3311TIP3    H234129   0.705   1.051  19.522
 3312TIP3   OH234130   0.918   1.599  19.742
 3312TIP3    H134131   0.878   1.581  19.657
 3312TIP3    H234132   0.962   1.518  19.766
 3313TIP3   OH234133   0.721   1.072  19.807
 3313TIP3    H134134   0.729   1.002  19.743
 3313TIP3    H234135   0.811   1.088  19.836
 3314TIP3   OH234136   1.490   0.885  19.043
 3314TIP3    H134137   1.521   0.935  19.119
 3314TIP3    H234138   1.522   0.933  18.967
 3315TIP3   OH234139   1.169   1.604  19.476
 3315TIP3    H134140   1.243   1.659  19.500
 3315TIP3    H234141   1.145   1.634  19.388
 3316TIP3   OH234142   1.759   0.071  19.029
 3316TIP3    H134143   1.710   0.094  19.108
 3316TIP3    H234144   1.831   0.134  19.026
 3317TIP3   OH234145   0.557   1.016  19.239
 3317TIP3    H134146   0.486   1.076  19.219
 3317TIP3    H234147   0.528   0.931  19.207
 3318TIP3   OH234148   2.024   1.629  19.001
 3318TIP3    H134149   2.034   1.723  18.990
 3318TIP3    H234150   2.113   1.597  19.014
 3319TIP3   OH234151   0.208   1.584  19.864
 3319TIP3    H134152   0.277   1.533  19.822
 3319TIP3    H234153   0.234   1.590  19.956
 3320TIP3   OH234154   1.222   1.991  19.282
 3320TIP3    H134155   1.186   1.955  19.200
 3320TIP3    H234156   1.155   2.052  19.313
 3321TIP3   OH234157   0.482   1.857  19.488
 3321TIP3    H134158   0.481   1.809  19.571
 3321TIP3    H234159   0.414   1.815  19.435
 3322TIP3   OH234160   1.451   1.891  18.986
 3322TIP3    H134161   1.503   1.817  18.955
 3322TIP3    H234162   1.474   1.900  19.078
 3323TIP3   OH234163   1.484   1.920  19.259
 3323TIP3    H134164   1.392   1.935  19.281
 3323TIP3    H234165   1.524   1.887  19.339
 3324TIP3   OH234166   0.669   0.185  19.745
 3324TIP3    H134167   0.574   0.176  19.742
 3324TIP3    H234168   0.685   0.276  19.720
 3325TIP3   OH234169   1.569   1.038  18.835
 3325TIP3    H134170   1.576   1.028  18.740
 3325TIP3    H234171   1.655   1.069  18.862
 3326TIP3   OH234172   1.119   0.398  18.935
 3326TIP3    H134173   1.067   0.386  19.014
 3326TIP3    H234174   1.079   0.338  18.872
 3327TIP3   OH234175   0.606   0.683  19.493
 3327TIP3    H134176   0.510   0.684  19.489
 3327TIP3    H234177   0.634   0.660  19.404
 3328TIP3   OH234178   1.182   0.731  19.255
 3328TIP3    H134179   1.183   0.827  19.255
 3328TIP3    H234180   1.274   0.706  19.245
 3329TIP3   OH234181   1.370   0.627  19.647
 3329TIP3    H134182   1.309   0.699  19.634
 3329TIP3    H234183   1.365   0.607  19.741
 3330TIP3   OH234184   0.759   0.452  18.854
 3330TIP3    H134185   0.736   0.419  18.941
 3330TIP3    H234186   0.685   0.508  18.829
 3331TIP3   OH234187   0.096   0.424  19.624
 3331TIP3    H134188   0.146   0.407  19.704
 3331TIP3    H234189   0.160   0.409  19.553
 3332TIP3   OH234190   0.203   0.470  19.209
 3332TIP3    H134191   0.226   0.506  19.124
 3332TIP3    H234192   0.164   0.543  19.257
 3333TIP3   OH234193   1.034   0.455  19.552
 3333TIP3    H134194   1.012   0.535  19.600
 3333TIP3    H234195   1.063   0.393  19.619
 3334TIP3   OH234196   0.331   0.639  19.485
 3334TIP3    H134197   0.261   0.665  19.425
 3334TIP3    H234198   0.347   0.547  19.464
 3335TIP3   OH234199   0.696   0.611  19.240
 3335TIP3    H134200   0.789   0.611  19.263
 3335TIP3    H234201   0.690   0.666  19.162
 3336TIP3   OH234202   1.373   0.374  19.856
 3336TIP3    H134203   1.355   0.460  19.895
 3336TIP3    H234204   1.288   0.342  19.828
 3337TIP3   OH234205   0.671   0.753  19.005
 3337TIP3    H134206   0.622   0.712  18.932
 3337TIP3    H234207   0.741   0.802  18.962
 3338TIP3   OH234208   0.964   0.691  19.692
 3338TIP3    H134209   1.040   0.749  19.696
 3338TIP3    H234210   0.940   0.677  19.783
 3339TIP3   OH234211   0.412   0.373  19.446
 3339TIP3    H134212   0.379   0.284  19.461
 3339TIP3    H234213   0.439   0.373  19.354
 3340TIP3   OH234214   0.987   1.221  19.219
 3340TIP3    H134215   0.925   1.176  19.160
 3340TIP3    H234216   0.931   1.266  19.282
 3341TIP3   OH234217   1.349   0.414  19.109
 3341TIP3    H134218   1.271   0.428  19.056
 3341TIP3    H234219   1.375   0.501  19.137
 3342TIP3   OH234220   1.447   0.659  19.191
 3342TIP3    H134221   1.533   0.639  19.229
 3342TIP3    H234222   1.463   0.735  19.135
 3343TIP3   OH234223   0.500   1.203  19.701
 3343TIP3    H134224   0.534   1.189  19.613
 3343TIP3    H234225   0.563   1.160  19.759
 3344TIP3   OH234226   1.196   1.398  19.182
 3344TIP3    H134227   1.156   1.485  19.190
 3344TIP3    H234228   1.123   1.337  19.186
 3345TIP3   OH234229   1.913   0.690  19.073
 3345TIP3    H134230   1.877   0.678  18.985
 3345TIP3    H234231   1.948   0.779  19.073
 3346TIP3   OH234232   1.838   1.641  19.207
 3346TIP3    H134233   1.789   1.559  19.210
 3346TIP3    H234234   1.900   1.629  19.135
 3347TIP3   OH234235   1.460   1.011  19.671
 3347TIP3    H134236   1.378   0.978  19.708
 3347TIP3    H234237   1.517   0.934  19.668
 3348TIP3   OH234238   0.745   1.578  19.522
 3348TIP3    H134239   0.764   1.664  19.485
 3348TIP3    H234240   0.650   1.579  19.538
 3349TIP3   OH234241   0.226   1.002  19.026
 3349TIP3    H134242   0.280   1.067  19.071
 3349TIP3    H234243   0.139   1.012  19.065
 3350TIP3   OH234244   0.788   1.349  19.365
 3350TIP3    H134245   0.786   1.422  19.428
 3350TIP3    H234246   0.744   1.277  19.411
 3351TIP3   OH234247   0.752   1.837  19.428
 3351TIP3    H134248   0.661   1.864  19.444
 3351TIP3    H234249   0.804   1.916  19.444
 3352TIP3   OH234250   1.649   1.433  18.993
 3352TIP3    H134251   1.679   1.373  19.061
 3352TIP3    H234252   1.556   1.413  18.983
 3353TIP3   OH234253   2.018   1.926  18.996
 3353TIP3    H134254   2.010   1.973  18.913
 3353TIP3    H234255   1.949   1.963  19.051
 3354TIP3   OH234256   1.739   1.254  19.176
 3354TIP3    H134257   1.685   1.179  19.200
 3354TIP3    H234258   1.829   1.225  19.193
 3355TIP3   OH234259   0.872   1.527  18.868
 3355TIP3    H134260   0.884   1.444  18.822
 3355TIP3    H234261   0.839   1.501  18.955
 3356TIP3   OH234262   0.750   1.484  19.118
 3356TIP3    H134263   0.766   1.432  19.197
 3356TIP3    H234264   0.772   1.574  19.143
 3357TIP3   OH234265   0.364   1.207  19.161
 3357TIP3    H134266   0.321   1.273  19.217
 3357TIP3    H234267   0.423   1.258  19.106
 3358TIP3   OH234268   1.357   0.239  19.318
 3358TIP3    H134269   1.357   0.296  19.242
 3358TIP3    H234270   1.393   0.293  19.389
 3359TIP3   OH234271   1.095   1.658  19.209
 3359TIP3    H134272   1.001   1.677  19.204
 3359TIP3    H234273   1.136   1.725  19.155
 3360TIP3   OH234274   0.961   0.582  19.313
 3360TIP3    H134275   1.035   0.640  19.291
 3360TIP3    H234276   0.985   0.545  19.398
 3361TIP3   OH234277   1.085   0.233  19.372
 3361TIP3    H134278   1.075   0.305  19.434
 3361TIP3    H234279   1.180   0.227  19.358
 3362TIP3   OH234280   0.832   1.742  19.184
 3362TIP3    H134281   0.849   1.822  19.135
 3362TIP3    H234282   0.800   1.772  19.269
 3363TIP3   OH234283   0.683   0.365  19.107
 3363TIP3    H134284   0.671   0.444  19.159
 3363TIP3    H234285   0.773   0.337  19.125
 3364TIP3   OH234286   1.607   0.768  19.651
 3364TIP3    H134287   1.529   0.715  19.639
 3364TIP3    H234288   1.666   0.712  19.703
 3365TIP3   OH234289   0.522   1.371  19.001
 3365TIP3    H134290   0.589   1.422  19.047
 3365TIP3    H234291   0.571   1.313  18.943
 3366TIP3   OH234292   0.178   0.715  19.035
 3366TIP3    H134293   0.210   0.802  19.012
 3366TIP3    H234294   0.140   0.682  18.954
 3367TIP3   OH234295   1.760   1.912  19.829
 3367TIP3    H134296   1.726   1.982  19.775
 3367TIP3    H234297   1.846   1.893  19.793
 3368TIP3   OH234298   0.397   0.148  19.734
 3368TIP3    H134299   0.361   0.149  19.645
 3368TIP3    H234300   0.378   0.060  19.766
 3369TIP3   OH234301   0.261   1.764  19.347
 3369TIP3    H134302   0.200   1.819  19.395
 3369TIP3    H234303   0.270   1.806  19.261
 3370TIP3   OH234304   1.089   1.702  18.829
 3370TIP3    H134305   1.021   1.637  18.846
 3370TIP3    H234306   1.168   1.650  18.815
 3371TIP3   OH234307   1.593   1.682  18.879
 3371TIP3    H134308   1.626   1.604  18.923
 3371TIP3    H234309   1.659   1.703  18.813
 3372TIP3   OH234310   0.677   1.203  18.853
 3372TIP3    H134311   0.713   1.162  18.931
 3372TIP3    H234312   0.754   1.234  18.804
 3373TIP3   OH234313   1.377   1.380  18.976
 3373TIP3    H134314   1.322   1.384  19.054
 3373TIP3    H234315   1.354   1.296  18.934
 3374TIP3   OH234316   0.778   1.094  19.085
 3374TIP3    H134317   0.712   1.060  19.146
 3374TIP3    H234318   0.807   1.017  19.036
 3375TIP3   OH234319   0.868   0.918  18.894
 3375TIP3    H134320   0.872   0.954  18.806
 3375TIP3    H234321   0.960   0.915  18.923
 3376TIP3   OH234322   1.838   1.115  18.875
 3376TIP3    H134323   1.859   1.096  18.784
 3376TIP3    H234324   1.865   1.206  18.888
 3377TIP3   OH234325   0.925   1.977  19.068
 3377TIP3    H134326   1.013   1.948  19.047
 3377TIP3    H234327   0.912   2.056  19.017
 3378TIP3   OH234328   0.275   1.489  18.974
 3378TIP3    H134329   0.361   1.449  18.981
 3378TIP3    H234330   0.224   1.431  18.918
 3379TIP3   OH234331   0.138   1.990  19.523
 3379TIP3    H134332   0.100   2.076  19.539
 3379TIP3    H234333   0.120   1.940  19.602
 3380TIP3   OH234334   0.121   1.841  19.765
 3380TIP3    H134335   0.144   1.750  19.781
 3380TIP3    H234336   0.194   1.891  19.802
 3381TIP3   OH234337   1.994   1.157  19.237
 3381TIP3    H134338   2.066   1.219  19.249
 3381TIP3    H234339   1.995   1.103  19.316
 3382TIP3   OH234340   1.983   0.978  19.444
 3382TIP3    H134341   1.896   0.937  19.435
 3382TIP3    H234342   2.008   0.961  19.535
 3383TIP3   OH234343   2.074   1.424  19.794
 3383TIP3    H134344   2.093   1.330  19.797
 3383TIP3    H234345   1.978   1.429  19.800
 3384TIP3   OH234346   2.005   0.962  19.043
 3384TIP3    H134347   1.944   0.997  18.978
 3384TIP3    H234348   2.001   1.023  19.116
 3385TIP3   OH234349   1.817   0.649  18.816
 3385TIP3    H134350   1.792   0.673  18.727
 3385TIP3    H234351   1.803   0.554  18.820
 3386TIP3   OH234352   1.736   0.850  19.421
 3386TIP3    H134353   1.730   0.770  19.369
 3386TIP3    H234354   1.692   0.828  19.503
 3387TIP3   OH234355   0.214   1.181  19.741
 3387TIP3    H134356   0.192   1.092  19.711
 3387TIP3    H234357   0.309   1.187  19.731
 3388TIP3   OH234358   1.778   0.378  18.832
 3388TIP3    H134359   1.828   0.337  18.903
 3388TIP3    H234360   1.687   0.360  18.853
 3389TIP3   OH234361   1.716   0.619  19.267
 3389TIP3    H134362   1.725   0.526  19.288
 3389TIP3    H234363   1.782   0.635  19.199
 3390TIP3   OH234364   1.774   0.591  19.794
 3390TIP3    H134365   1.859   0.612  19.755
 3390TIP3    H234366   1.789   0.600  19.889
 3391TIP3   OH234367   1.742   0.348  19.321
 3391TIP3    H134368   1.804   0.309  19.382
 3391TIP3    H234369   1.689   0.274  19.291
 3392TIP3   OH234370   0.270   0.376  19.825
 3392TIP3    H134371   0.318   0.295  19.811
 3392TIP3    H234372   0.336   0.438  19.857
 3393TIP3   OH234373   8.438   0.645  19.761
 3393TIP3    H134374   0.002   0.566  19.709
 3393TIP3    H234375   0.079   0.674  19.781
 3394TIP3   OH234376   1.957   0.264  19.012
 3394TIP3    H134377   2.023   0.222  18.957
 3394TIP3    H234378   2.006   0.333  19.059
 3395TIP3   OH234379   0.112   0.230  19.301
 3395TIP3    H134380   0.017   0.238  19.302
 3395TIP3    H234381   0.143   0.316  19.270
 3396TIP3   OH234382   1.623   1.878  19.495
 3396TIP3    H134383   1.706   1.866  19.448
 3396TIP3    H234384   1.642   1.948  19.558
 3397TIP3   OH234385   0.372   1.921  19.859
 3397TIP3    H134386   0.414   1.916  19.944
 3397TIP3    H234387   0.413   1.852  19.807
 3398TIP3   OH234388   0.499   1.716  19.726
 3398TIP3    H134389   0.478   1.625  19.745
 3398TIP3    H234390   0.583   1.731  19.768
 3399TIP3   OH234391   0.730   1.758  19.860
 3399TIP3    H134392   0.791   1.692  19.828
 3399TIP3    H234393   0.786   1.832  19.885
 3400TIP3   OH234394   1.115   0.246  19.718
 3400TIP3    H134395   1.046   0.179  19.719
 3400TIP3    H234396   1.195   0.197  19.695
 3401TIP3   OH234397   1.746   0.104  19.665
 3401TIP3    H134398   1.809   0.136  19.599
 3401TIP3    H234399   1.705   0.184  19.699
 3402TIP3   OH234400   1.928   0.209  19.478
 3402TIP3    H134401   1.973   0.141  19.428
 3402TIP3    H234402   1.997   0.270  19.504
 3403TIP3   OH234403   0.299   0.121  19.477
 3403TIP3    H134404   0.225   0.143  19.420
 3403TIP3    H234405   0.305   0.025  19.472
 3404TIP3   OH234406   0.256   0.087  19.105
 3404TIP3    H134407   0.321   0.145  19.066
 3404TIP3    H234408   0.208   0.143  19.167
 3405TIP3   OH234409   0.993   8.426  19.433
 3405TIP3    H134410   1.022   0.060  19.395
 3405TIP3    H234411   0.973   8.448  19.524
 3406TIP3   OH234412   1.362   0.136  19.660
 3406TIP3    H134413   1.386   0.201  19.594
 3406TIP3    H234414   1.425   0.150  19.731
 3407TIP3   OH234415   1.598   0.114  19.250
 3407TIP3    H134416   1.511   0.142  19.275
 3407TIP3    H234417   1.593   0.018  19.248
 3408TIP3   OH234418   0.270   1.918  19.116
 3408TIP3    H134419   0.194   1.915  19.057
 3408TIP3    H234420   0.277   2.010  19.141
 3409TIP3   OH234421   0.460   0.242  18.984
 3409TIP3    H134422   0.494   0.181  18.919
 3409TIP3    H234423   0.538   0.276  19.028
 3410TIP3   OH234424   0.957   0.356  19.160
 3410TIP3    H134425   0.997   0.295  19.221
 3410TIP3    H234426   0.958   0.440  19.206
 3411TIP3   OH234427   1.177   1.866  19.030
 3411TIP3    H134428   1.270   1.881  19.012
 3411TIP3    H234429   1.146   1.813  18.957
 3412TIP3   OH234430   1.850   1.881  19.336
 3412TIP3    H134431   1.849   1.794  19.297
 3412TIP3    H234432   1.846   1.941  19.261
 3413TIP3   OH234433   0.450   1.894  18.891
 3413TIP3    H134434   0.417   1.880  18.980
 3413TIP3    H234435   0.511   1.822  18.876
 3414TIP3   OH234436   3.424   1.103  19.450
 3414TIP3    H134437   3.394   1.193  19.444
 3414TIP3    H234438   3.362   1.054  19.395
 3415TIP3   OH234439   3.221   1.069  19.782
 3415TIP3    H134440   3.316   1.062  19.770
 3415TIP3    H234441   3.186   0.987  19.748
 3416TIP3   OH234442   3.657   1.308  19.632
 3416TIP3    H134443   3.606   1.235  19.667
 3416TIP3    H234444   3.716   1.333  19.703
 3417TIP3   OH234445   2.576   1.472  19.734
 3417TIP3    H134446   2.543   1.383  19.718
 3417TIP3    H234447   2.662   1.459  19.773
 3418TIP3   OH234448   2.173   0.612  19.371
 3418TIP3    H134449   2.119   0.691  19.375
 3418TIP3    H234450   2.151   0.571  19.287
 3419TIP3   OH234451   2.176   0.925  19.656
 3419TIP3    H134452   2.231   0.851  19.679
 3419TIP3    H234453   2.217   0.963  19.579
 3420TIP3   OH234454   3.373   1.854  19.589
 3420TIP3    H134455   3.456   1.815  19.562
 3420TIP3    H234456   3.307   1.788  19.566
 3421TIP3   OH234457   3.087   1.308  19.805
 3421TIP3    H134458   3.120   1.218  19.806
 3421TIP3    H234459   3.159   1.360  19.769
 3422TIP3   OH234460   3.275   0.635  19.788
 3422TIP3    H134461   3.312   0.566  19.843
 3422TIP3    H234462   3.337   0.644  19.715
 3423TIP3   OH234463   2.695   0.436  19.637
 3423TIP3    H134464   2.719   0.523  19.605
 3423TIP3    H234465   2.648   0.396  19.564
 3424TIP3   OH234466   3.563   0.419  19.495
 3424TIP3    H134467   3.594   0.398  19.583
 3424TIP3    H234468   3.641   0.414  19.440
 3425TIP3   OH234469   2.319   0.693  19.694
 3425TIP3    H134470   2.375   0.652  19.761
 3425TIP3    H234471   2.356   0.665  19.611
 3426TIP3   OH234472   2.834   0.898  19.632
 3426TIP3    H134473   2.925   0.875  19.647
 3426TIP3    H234474   2.794   0.818  19.598
 3427TIP3   OH234475   3.314   1.346  19.397
 3427TIP3    H134476   3.270   1.354  19.312
 3427TIP3    H234477   3.312   1.434  19.433
 3428TIP3   OH234478   3.661   0.401  19.752
 3428TIP3    H134479   3.581   0.409  19.804
 3428TIP3    H234480   3.712   0.479  19.775
 3429TIP3   OH234481   2.514   0.536  19.826
 3429TIP3    H134482   2.565   0.566  19.901
 3429TIP3    H234483   2.579   0.501  19.765
 3430TIP3   OH234484   2.208   1.337  19.251
 3430TIP3    H134485   2.214   1.392  19.173
 3430TIP3    H234486   2.220   1.398  19.324
 3431TIP3   OH234487   3.838   1.463  19.792
 3431TIP3    H134488   3.812   1.520  19.865
 3431TIP3    H234489   3.832   1.519  19.715
 3432TIP3   OH234490   3.001   0.082  19.753
 3432TIP3    H134491   2.996   8.440  19.785
 3432TIP3    H234492   2.912   0.116  19.762
 3433TIP3   OH234493   3.570   1.720  19.426
 3433TIP3    H134494   3.617   1.636  19.417
 3433TIP3    H234495   3.637   1.781  19.456
 3434TIP3   OH234496   3.708   1.474  19.412
 3434TIP3    H134497   3.729   1.410  19.344
 3434TIP3    H234498   3.682   1.421  19.488
 3435TIP3   OH234499   3.273   0.980  19.250
 3435TIP3    H134500   3.205   1.031  19.207
 3435TIP3    H234501   3.346   0.979  19.188
 3436TIP3   OH234502   3.271   0.914  18.925
 3436TIP3    H134503   3.346   0.911  18.985
 3436TIP3    H234504   3.290   0.845  18.861
 3437TIP3   OH234505   3.656   1.060  19.304
 3437TIP3    H134506   3.586   1.083  19.365
 3437TIP3    H234507   3.715   1.005  19.356
 3438TIP3   OH234508   2.688   1.096  19.488
 3438TIP3    H134509   2.666   1.057  19.403
 3438TIP3    H234510   2.742   1.030  19.532
 3439TIP3   OH234511   2.855   1.456  19.789
 3439TIP3    H134512   2.857   1.473  19.695
 3439TIP3    H234513   2.929   1.398  19.805
 3440TIP3   OH234514   2.721   1.052  19.834
 3440TIP3    H134515   2.757   0.995  19.766
 3440TIP3    H234516   2.798   1.085  19.881
 3441TIP3   OH234517   3.505   0.948  19.099
 3441TIP3    H134518   3.556   0.992  19.166
 3441TIP3    H234519   3.558   0.957  19.019
 3442TIP3   OH234520   3.304   1.624  19.430
 3442TIP3    H134521   3.395   1.650  19.413
 3442TIP3    H234522   3.258   1.647  19.350
 3443TIP3   OH234523   3.953   0.086  19.224
 3443TIP3    H134524   3.860   0.111  19.219
 3443TIP3    H234525   3.995   0.136  19.154
 3444TIP3   OH234526   2.610   0.999  19.235
 3444TIP3    H134527   2.537   1.054  19.206
 3444TIP3    H234528   2.588   0.912  19.201
 3445TIP3   OH234529   4.076   1.611  19.044
 3445TIP3    H134530   4.073   1.704  19.024
 3445TIP3    H234531   4.169   1.589  19.045
 3446TIP3   OH234532   2.246   1.626  19.731
 3446TIP3    H134533   2.328   1.576  19.736
 3446TIP3    H234534   2.178   1.563  19.756
 3447TIP3   OH234535   3.211   2.003  19.305
 3447TIP3    H134536   3.147   1.991  19.235
 3447TIP3    H234537   3.217   2.098  19.316
 3448TIP3   OH234538   2.566   1.889  19.508
 3448TIP3    H134539   2.565   1.843  19.592
 3448TIP3    H234540   2.497   1.847  19.456
 3449TIP3   OH234541   3.510   1.911  18.979
 3449TIP3    H134542   3.563   1.835  18.956
 3449TIP3    H234543   3.516   1.917  19.074
 3450TIP3   OH234544   3.481   1.930  19.258
 3450TIP3    H134545   3.390   1.945  19.280
 3450TIP3    H234546   3.508   1.857  19.313
 3451TIP3   OH234547   2.723   0.177  19.742
 3451TIP3    H134548   2.628   0.169  19.741
 3451TIP3    H234549   2.740   0.267  19.714
 3452TIP3   OH234550   3.676   0.975  18.891
 3452TIP3    H134551   3.676   0.980  18.796
 3452TIP3    H234552   3.759   1.014  18.918
 3453TIP3   OH234553   3.198   0.449  18.979
 3453TIP3    H134554   3.129   0.410  19.033
 3453TIP3    H234555   3.155   0.470  18.896
 3454TIP3   OH234556   2.701   0.682  19.511
 3454TIP3    H134557   2.606   0.675  19.499
 3454TIP3    H234558   2.738   0.667  19.424
 3455TIP3   OH234559   3.293   0.724  19.349
 3455TIP3    H134560   3.274   0.814  19.322
 3455TIP3    H234561   3.368   0.699  19.294
 3456TIP3   OH234562   3.441   0.652  19.570
 3456TIP3    H134563   3.387   0.681  19.496
 3456TIP3    H234564   3.479   0.569  19.541
 3457TIP3   OH234565   2.881   0.413  18.905
 3457TIP3    H134566   2.903   0.410  18.998
 3457TIP3    H234567   2.808   0.474  18.899
 3458TIP3   OH234568   2.145   0.374  19.518
 3458TIP3    H134569   2.197   0.371  19.598
 3458TIP3    H234570   2.149   0.466  19.490
 3459TIP3   OH234571   2.097   0.486  19.128
 3459TIP3    H134572   2.171   0.528  19.083
 3459TIP3    H234573   2.023   0.544  19.112
 3460TIP3   OH234574   3.103   0.403  19.570
 3460TIP3    H134575   3.027   0.424  19.625
 3460TIP3    H234576   3.164   0.358  19.630
 3461TIP3   OH234577   2.437   0.596  19.462
 3461TIP3    H134578   2.354   0.602  19.416
 3461TIP3    H234579   2.469   0.508  19.444
 3462TIP3   OH234580   2.810   0.622  19.268
 3462TIP3    H134581   2.902   0.609  19.292
 3462TIP3    H234582   2.813   0.678  19.191
 3463TIP3   OH234583   3.411   0.405  19.885
 3463TIP3    H134584   3.411   0.363  19.971
 3463TIP3    H234585   3.353   0.352  19.831
 3464TIP3   OH234586   2.823   0.765  19.038
 3464TIP3    H134587   2.774   0.718  18.970
 3464TIP3    H234588   2.882   0.822  18.989
 3465TIP3   OH234589   3.109   0.823  19.669
 3465TIP3    H134590   3.147   0.806  19.583
 3465TIP3    H234591   3.151   0.760  19.728
 3466TIP3   OH234592   2.553   0.345  19.416
 3466TIP3    H134593   2.506   0.262  19.417
 3466TIP3    H234594   2.599   0.346  19.332
 3467TIP3   OH234595   2.916   1.342  19.128
 3467TIP3    H134596   2.881   1.263  19.087
 3467TIP3    H234597   2.893   1.334  19.220
 3468TIP3   OH234598   3.443   0.434  19.104
 3468TIP3    H134599   3.358   0.445  19.061
 3468TIP3    H234600   3.469   0.523  19.129
 3469TIP3   OH234601   3.524   0.686  19.200
 3469TIP3    H134602   3.613   0.673  19.232
 3469TIP3    H234603   3.526   0.771  19.156
 3470TIP3   OH234604   2.533   1.201  19.697
 3470TIP3    H134605   2.571   1.174  19.613
 3470TIP3    H234606   2.583   1.152  19.763
 3471TIP3   OH234607   3.191   1.406  19.154
 3471TIP3    H134608   3.184   1.501  19.164
 3471TIP3    H234609   3.101   1.378  19.135
 3472TIP3   OH234610   4.029   0.699  19.147
 3472TIP3    H134611   3.996   0.676  19.061
 3472TIP3    H234612   4.057   0.790  19.140
 3473TIP3   OH234613   3.909   1.649  19.276
 3473TIP3    H134614   3.851   1.580  19.309
 3473TIP3    H234615   3.952   1.610  19.200
 3474TIP3   OH234616   3.507   1.061  19.706
 3474TIP3    H134617   3.478   1.073  19.615
 3474TIP3    H234618   3.559   0.980  19.704
 3475TIP3   OH234619   2.786   1.541  19.534
 3475TIP3    H134620   2.807   1.628  19.500
 3475TIP3    H234621   2.696   1.548  19.565
 3476TIP3   OH234622   2.289   0.932  19.010
 3476TIP3    H134623   2.325   1.012  19.050
 3476TIP3    H234624   2.194   0.943  19.014
 3477TIP3   OH234625   2.829   1.313  19.382
 3477TIP3    H134626   2.820   1.390  19.438
 3477TIP3    H234627   2.782   1.244  19.428
 3478TIP3   OH234628   2.822   1.806  19.449
 3478TIP3    H134629   2.738   1.847  19.466
 3478TIP3    H234630   2.887   1.868  19.482
 3479TIP3   OH234631   3.698   1.438  19.008
 3479TIP3    H134632   3.728   1.391  19.086
 3479TIP3    H234633   3.605   1.416  19.001
 3480TIP3   OH234634   4.067   1.898  18.997
 3480TIP3    H134635   4.076   1.955  18.921
 3480TIP3    H234636   3.994   1.935  19.047
 3481TIP3   OH234637   3.793   1.289  19.222
 3481TIP3    H134638   3.744   1.209  19.241
 3481TIP3    H234639   3.885   1.263  19.223
 3482TIP3   OH234640   2.966   1.532  18.832
 3482TIP3    H134641   2.944   1.445  18.798
 3482TIP3    H234642   2.900   1.548  18.899
 3483TIP3   OH234643   2.776   1.563  19.039
 3483TIP3    H134644   2.821   1.486  19.073
 3483TIP3    H234645   2.810   1.635  19.091
 3484TIP3   OH234646   2.402   1.166  19.139
 3484TIP3    H134647   2.332   1.207  19.190
 3484TIP3    H234648   2.452   1.239  19.103
 3485TIP3   OH234649   3.422   0.260  19.316
 3485TIP3    H134650   3.428   0.317  19.239
 3485TIP3    H234651   3.460   0.311  19.387
 3486TIP3   OH234652   3.169   1.680  19.192
 3486TIP3    H134653   3.074   1.696  19.197
 3486TIP3    H234654   3.201   1.747  19.132
 3487TIP3   OH234655   3.069   0.560  19.346
 3487TIP3    H134656   3.146   0.618  19.340
 3487TIP3    H234657   3.084   0.510  19.426
 3488TIP3   OH234658   3.146   0.223  19.357
 3488TIP3    H134659   3.138   0.286  19.429
 3488TIP3    H234660   3.240   0.219  19.340
 3489TIP3   OH234661   2.901   1.760  19.189
 3489TIP3    H134662   2.923   1.849  19.161
 3489TIP3    H234663   2.869   1.771  19.278
 3490TIP3   OH234664   2.705   0.375  19.183
 3490TIP3    H134665   2.722   0.466  19.206
 3490TIP3    H234666   2.791   0.336  19.175
 3491TIP3   OH234667   3.641   0.812  19.671
 3491TIP3    H134668   3.568   0.758  19.641
 3491TIP3    H234669   3.694   0.753  19.725
 3492TIP3   OH234670   2.527   1.406  19.034
 3492TIP3    H134671   2.593   1.471  19.057
 3492TIP3    H234672   2.567   1.354  18.964
 3493TIP3   OH234673   2.286   0.649  19.022
 3493TIP3    H134674   2.287   0.744  19.029
 3493TIP3    H234675   2.338   0.631  18.943
 3494TIP3   OH234676   3.899   1.929  19.812
 3494TIP3    H134677   3.865   2.005  19.763
 3494TIP3    H234678   3.977   1.903  19.763
 3495TIP3   OH234679   2.455   0.128  19.693
 3495TIP3    H134680   2.438   0.134  19.599
 3495TIP3    H234681   2.428   0.039  19.716
 3496TIP3   OH234682   2.352   1.799  19.368
 3496TIP3    H134683   2.278   1.817  19.426
 3496TIP3    H234684   2.318   1.818  19.280
 3497TIP3   OH234685   3.171   1.705  18.796
 3497TIP3    H134686   3.102   1.641  18.808
 3497TIP3    H234687   3.251   1.654  18.790
 3498TIP3   OH234688   3.652   1.690  18.886
 3498TIP3    H134689   3.687   1.612  18.929
 3498TIP3    H234690   3.710   1.706  18.812
 3499TIP3   OH234691   2.646   1.242  18.852
 3499TIP3    H134692   2.685   1.185  18.919
 3499TIP3    H234693   2.719   1.268  18.797
 3500TIP3   OH234694   3.423   1.378  18.999
 3500TIP3    H134695   3.350   1.385  19.061
 3500TIP3    H234696   3.403   1.301  18.947
 3501TIP3   OH234697   2.793   1.106  19.043
 3501TIP3    H134698   2.751   1.058  19.114
 3501TIP3    H234699   2.857   1.044  19.007
 3502TIP3   OH234700   2.986   0.952  18.909
 3502TIP3    H134701   2.974   0.984  18.820
 3502TIP3    H234702   3.080   0.938  18.917
 3503TIP3   OH234703   3.927   1.100  18.916
 3503TIP3    H134704   3.952   1.083  18.825
 3503TIP3    H234705   3.940   1.194  18.927
 3504TIP3   OH234706   3.015   2.001  19.101
 3504TIP3    H134707   3.087   1.963  19.051
 3504TIP3    H234708   2.975   2.064  19.041
 3505TIP3   OH234709   2.260   1.480  19.019
 3505TIP3    H134710   2.355   1.473  19.026
 3505TIP3    H234711   2.239   1.438  18.936
 3506TIP3   OH234712   2.006   2.038  19.501
 3506TIP3    H134713   1.953   1.979  19.448
 3506TIP3    H234714   2.075   1.983  19.537
 3507TIP3   OH234715   2.199   1.864  19.599
 3507TIP3    H134716   2.198   1.775  19.635
 3507TIP3    H234717   2.260   1.911  19.656
 3508TIP3   OH234718   4.056   1.199  19.253
 3508TIP3    H134719   4.134   1.255  19.262
 3508TIP3    H234720   4.054   1.149  19.334
 3509TIP3   OH234721   4.044   1.025  19.460
 3509TIP3    H134722   3.962   0.975  19.468
 3509TIP3    H234723   4.100   0.990  19.529
 3510TIP3   OH234724   4.111   1.395  19.809
 3510TIP3    H134725   4.126   1.301  19.806
 3510TIP3    H234726   4.016   1.405  19.805
 3511TIP3   OH234727   4.094   0.970  19.094
 3511TIP3    H134728   4.034   0.997  19.025
 3511TIP3    H234729   4.086   1.039  19.160
 3512TIP3   OH234730   3.934   0.632  18.896
 3512TIP3    H134731   3.903   0.666  18.813
 3512TIP3    H234732   3.924   0.537  18.889
 3513TIP3   OH234733   3.805   0.877  19.457
 3513TIP3    H134734   3.797   0.797  19.405
 3513TIP3    H234735   3.752   0.860  19.535
 3514TIP3   OH234736   2.150   1.155  19.817
 3514TIP3    H134737   2.146   1.073  19.767
 3514TIP3    H234738   2.243   1.171  19.829
 3515TIP3   OH234739   3.897   0.360  18.865
 3515TIP3    H134740   3.946   0.305  18.926
 3515TIP3    H234741   3.805   0.345  18.887
 3516TIP3   OH234742   3.789   0.650  19.292
 3516TIP3    H134743   3.789   0.556  19.308
 3516TIP3    H234744   3.867   0.666  19.239
 3517TIP3   OH234745   3.809   0.634  19.810
 3517TIP3    H134746   3.894   0.646  19.768
 3517TIP3    H234747   3.825   0.649  19.903
 3518TIP3   OH234748   3.784   0.376  19.339
 3518TIP3    H134749   3.848   0.332  19.395
 3518TIP3    H234750   3.745   0.305  19.287
 3519TIP3   OH234751   2.314   0.366  19.731
 3519TIP3    H134752   2.360   0.282  19.733
 3519TIP3    H234753   2.374   0.427  19.775
 3520TIP3   OH234754   2.027   0.684  19.727
 3520TIP3    H134755   2.114   0.644  19.725
 3520TIP3    H234756   2.043   0.778  19.717
 3521TIP3   OH234757   4.083   0.225  19.021
 3521TIP3    H134758   4.143   0.178  18.962
 3521TIP3    H234759   4.131   0.302  19.048
 3522TIP3   OH234760   2.208   0.264  19.274
 3522TIP3    H134761   2.187   0.296  19.362
 3522TIP3    H234762   2.175   0.332  19.215
 3523TIP3   OH234763   3.741   1.916  19.506
 3523TIP3    H134764   3.821   1.910  19.455
 3523TIP3    H234765   3.755   1.992  19.564
 3524TIP3   OH234766   2.383   1.935  19.800
 3524TIP3    H134767   2.333   1.899  19.874
 3524TIP3    H234768   2.450   1.869  19.783
 3525TIP3   OH234769   2.575   1.746  19.746
 3525TIP3    H134770   2.558   1.652  19.740
 3525TIP3    H234771   2.655   1.754  19.797
 3526TIP3   OH234772   2.806   1.709  19.887
 3526TIP3    H134773   2.826   1.620  19.860
 3526TIP3    H234774   2.878   1.733  19.945
 3527TIP3   OH234775   3.238   0.239  19.746
 3527TIP3    H134776   3.166   0.177  19.757
 3527TIP3    H234777   3.314   0.185  19.722
 3528TIP3   OH234778   3.752   0.149  19.672
 3528TIP3    H134779   3.821   0.163  19.607
 3528TIP3    H234780   3.735   0.236  19.709
 3529TIP3   OH234781   3.952   0.210  19.483
 3529TIP3    H134782   3.973   0.151  19.411
 3529TIP3    H234783   4.033   0.258  19.500
 3530TIP3   OH234784   2.400   0.110  19.421
 3530TIP3    H134785   2.335   0.148  19.362
 3530TIP3    H234786   2.400   0.016  19.402
 3531TIP3   OH234787   2.339   0.086  19.100
 3531TIP3    H134788   2.398   0.147  19.056
 3531TIP3    H234789   2.281   0.142  19.152
 3532TIP3   OH234790   3.015   0.008  19.480
 3532TIP3    H134791   3.059   0.072  19.425
 3532TIP3    H234792   3.023   0.043  19.569
 3533TIP3   OH234793   3.470   0.107  19.690
 3533TIP3    H134794   3.563   0.129  19.683
 3533TIP3    H234795   3.466   0.015  19.664
 3534TIP3   OH234796   3.673   0.133  19.254
 3534TIP3    H134797   3.582   0.159  19.269
 3534TIP3    H234798   3.671   0.037  19.257
 3535TIP3   OH234799   2.268   1.903  19.118
 3535TIP3    H134800   2.180   1.911  19.082
 3535TIP3    H234801   2.289   1.992  19.148
 3536TIP3   OH234802   2.511   0.278  18.988
 3536TIP3    H134803   2.560   0.226  18.924
 3536TIP3    H234804   2.578   0.313  19.047
 3537TIP3   OH234805   2.993   0.367  19.163
 3537TIP3    H134806   3.032   0.289  19.204
 3537TIP3    H234807   3.017   0.439  19.221
 3538TIP3   OH234808   3.234   1.875  18.999
 3538TIP3    H134809   3.327   1.896  18.988
 3538TIP3    H234810   3.213   1.819  18.924
 3539TIP3   OH234811   3.965   1.905  19.343
 3539TIP3    H134812   3.952   1.812  19.322
 3539TIP3    H234813   3.934   1.952  19.266
 3540TIP3   OH234814   2.429   1.924  18.886
 3540TIP3    H134815   2.384   1.907  18.968
 3540TIP3    H234816   2.490   1.851  18.877
 3541TIP3   OH234817   5.482   1.110  19.445
 3541TIP3    H134818   5.471   1.205  19.448
 3541TIP3    H234819   5.403   1.078  19.402
 3542TIP3   OH234820   5.365   0.960  19.778
 3542TIP3    H134821   5.374   0.871  19.811
 3542TIP3    H234822   5.302   0.953  19.706
 3543TIP3   OH234823   5.741   1.304  19.667
 3543TIP3    H134824   5.702   1.221  19.692
 3543TIP3    H234825   5.786   1.334  19.746
 3544TIP3   OH234826   4.677   1.501  19.726
 3544TIP3    H134827   4.659   1.409  19.706
 3544TIP3    H234828   4.764   1.500  19.767
 3545TIP3   OH234829   4.180   0.637  19.405
 3545TIP3    H134830   4.133   0.694  19.467
 3545TIP3    H234831   4.141   0.656  19.320
 3546TIP3   OH234832   4.269   0.944  19.613
 3546TIP3    H134833   4.294   0.860  19.652
 3546TIP3    H234834   4.332   0.958  19.542
 3547TIP3   OH234835   5.476   1.907  19.575
 3547TIP3    H134836   5.531   1.841  19.534
 3547TIP3    H234837   5.386   1.878  19.558
 3548TIP3   OH234838   5.269   1.210  19.860
 3548TIP3    H134839   5.299   1.121  19.844
 3548TIP3    H234840   5.346   1.265  19.844
 3549TIP3   OH234841   5.368   0.675  19.784
 3549TIP3    H134842   5.387   0.594  19.830
 3549TIP3    H234843   5.429   0.676  19.710
 3550TIP3   OH234844   4.743   0.450  19.650
 3550TIP3    H134845   4.762   0.538  19.618
 3550TIP3    H234846   4.699   0.407  19.577
 3551TIP3   OH234847   5.647   0.446  19.488
 3551TIP3    H134848   5.674   0.425  19.577
 3551TIP3    H234849   5.727   0.437  19.436
 3552TIP3   OH234850   4.352   0.695  19.697
 3552TIP3    H134851   4.407   0.655  19.765
 3552TIP3    H234852   4.386   0.661  19.615
 3553TIP3   OH234853   4.913   0.899  19.589
 3553TIP3    H134854   5.002   0.865  19.593
 3553TIP3    H234855   4.859   0.823  19.568
 3554TIP3   OH234856   5.430   1.377  19.391
 3554TIP3    H134857   5.396   1.371  19.301
 3554TIP3    H234858   5.397   1.461  19.424
 3555TIP3   OH234859   5.722   0.414  19.748
 3555TIP3    H134860   5.640   0.419  19.797
 3555TIP3    H234861   5.776   0.484  19.784
 3556TIP3   OH234862   4.546   0.538  19.830
 3556TIP3    H134863   4.589   0.552  19.914
 3556TIP3    H234864   4.616   0.508  19.772
 3557TIP3   OH234865   4.288   1.359  19.260
 3557TIP3    H134866   4.293   1.409  19.178
 3557TIP3    H234867   4.305   1.424  19.328
 3558TIP3   OH234868   5.897   1.514  19.802
 3558TIP3    H134869   5.895   1.601  19.841
 3558TIP3    H234870   5.865   1.528  19.712
 3559TIP3   OH234871   5.042   0.080  19.733
 3559TIP3    H134872   5.035   8.435  19.748
 3559TIP3    H234873   4.954   0.114  19.750
 3560TIP3   OH234874   5.632   1.737  19.414
 3560TIP3    H134875   5.653   1.644  19.423
 3560TIP3    H234876   5.710   1.783  19.443
 3561TIP3   OH234877   5.684   1.469  19.455
 3561TIP3    H134878   5.603   1.429  19.423
 3561TIP3    H234879   5.714   1.412  19.525
 3562TIP3   OH234880   5.286   1.023  19.265
 3562TIP3    H134881   5.217   1.084  19.241
 3562TIP3    H234882   5.349   1.028  19.193
 3563TIP3   OH234883   5.324   0.915  18.925
 3563TIP3    H134884   5.384   0.919  19.000
 3563TIP3    H234885   5.368   0.859  18.862
 3564TIP3   OH234886   5.707   1.035  19.308
 3564TIP3    H134887   5.642   1.066  19.371
 3564TIP3    H234888   5.773   0.990  19.361
 3565TIP3   OH234889   4.805   1.121  19.446
 3565TIP3    H134890   4.764   1.078  19.371
 3565TIP3    H234891   4.850   1.050  19.492
 3566TIP3   OH234892   4.958   1.536  19.768
 3566TIP3    H134893   4.951   1.541  19.673
 3566TIP3    H234894   5.028   1.473  19.784
 3567TIP3   OH234895   4.822   1.048  19.804
 3567TIP3    H134896   4.851   0.993  19.731
 3567TIP3    H234897   4.897   1.051  19.864
 3568TIP3   OH234898   5.530   0.955  19.112
 3568TIP3    H134899   5.585   0.984  19.185
 3568TIP3    H234900   5.573   0.991  19.034
 3569TIP3   OH234901   5.365   1.645  19.413
 3569TIP3    H134902   5.451   1.684  19.398
 3569TIP3    H234903   5.317   1.660  19.332
 3570TIP3   OH234904   6.035   0.081  19.227
 3570TIP3    H134905   5.943   0.106  19.233
 3570TIP3    H234906   6.070   0.134  19.155
 3571TIP3   OH234907   4.681   1.007  19.222
 3571TIP3    H134908   4.606   1.061  19.199
 3571TIP3    H234909   4.657   0.919  19.192
 3572TIP3   OH234910   6.146   1.625  19.010
 3572TIP3    H134911   6.156   1.720  18.996
 3572TIP3    H234912   6.236   1.592  19.013
 3573TIP3   OH234913   4.294   1.590  19.744
 3573TIP3    H134914   4.374   1.539  19.749
 3573TIP3    H234915   4.225   1.528  19.770
 3574TIP3   OH234916   5.323   2.032  19.287
 3574TIP3    H134917   5.246   2.017  19.232
 3574TIP3    H234918   5.305   2.115  19.330
 3575TIP3   OH234919   4.578   1.884  19.482
 3575TIP3    H134920   4.587   1.846  19.570
 3575TIP3    H234921   4.516   1.827  19.437
 3576TIP3   OH234922   5.593   1.914  18.965
 3576TIP3    H134923   5.646   1.835  18.957
 3576TIP3    H234924   5.596   1.936  19.058
 3577TIP3   OH234925   5.585   1.959  19.241
 3577TIP3    H134926   5.494   1.983  19.257
 3577TIP3    H234927   5.599   1.882  19.296
 3578TIP3   OH234928   4.778   0.190  19.761
 3578TIP3    H134929   4.686   0.174  19.742
 3578TIP3    H234930   4.791   0.282  19.737
 3579TIP3   OH234931   5.662   1.065  18.898
 3579TIP3    H134932   5.701   1.043  18.813
 3579TIP3    H234933   5.733   1.104  18.948
 3580TIP3   OH234934   5.254   0.382  19.003
 3580TIP3    H134935   5.185   0.377  19.069
 3580TIP3    H234936   5.212   0.351  18.923
 3581TIP3   OH234937   4.739   0.690  19.511
 3581TIP3    H134938   4.644   0.681  19.499
 3581TIP3    H234939   4.776   0.673  19.424
 3582TIP3   OH234940   5.335   0.768  19.368
 3582TIP3    H134941   5.313   0.856  19.337
 3582TIP3    H234942   5.402   0.737  19.307
 3583TIP3   OH234943   5.524   0.679  19.562
 3583TIP3    H134944   5.469   0.713  19.492
 3583TIP3    H234945   5.561   0.598  19.525
 3584TIP3   OH234946   4.870   0.418  18.919
 3584TIP3    H134947   4.847   0.407  19.011
 3584TIP3    H234948   4.813   0.488  18.888
 3585TIP3   OH234949   4.174   0.375  19.510
 3585TIP3    H134950   4.232   0.372  19.586
 3585TIP3    H234951   4.171   0.467  19.485
 3586TIP3   OH234952   4.199   0.466  19.108
 3586TIP3    H134953   4.261   0.520  19.060
 3586TIP3    H234954   4.127   0.525  19.130
 3587TIP3   OH234955   5.151   0.435  19.588
 3587TIP3    H134956   5.063   0.438  19.625
 3587TIP3    H234957   5.202   0.382  19.650
 3588TIP3   OH234958   4.469   0.601  19.463
 3588TIP3    H134959   4.385   0.602  19.417
 3588TIP3    H234960   4.505   0.515  19.445
 3589TIP3   OH234961   4.857   0.636  19.270
 3589TIP3    H134962   4.950   0.633  19.292
 3589TIP3    H234963   4.853   0.685  19.188
 3590TIP3   OH234964   5.457   0.417  19.867
 3590TIP3    H134965   5.457   0.380  19.956
 3590TIP3    H234966   5.398   0.359  19.817
 3591TIP3   OH234967   4.838   0.757  19.026
 3591TIP3    H134968   4.791   0.716  18.952
 3591TIP3    H234969   4.910   0.804  18.985
 3592TIP3   OH234970   5.179   0.800  19.610
 3592TIP3    H134971   5.231   0.789  19.530
 3592TIP3    H234972   5.223   0.744  19.674
 3593TIP3   OH234973   4.615   0.360  19.420
 3593TIP3    H134974   4.569   0.276  19.425
 3593TIP3    H234975   4.665   0.355  19.339
 3594TIP3   OH234976   5.094   1.217  19.179
 3594TIP3    H134977   5.029   1.182  19.117
 3594TIP3    H234978   5.042   1.267  19.242
 3595TIP3   OH234979   5.503   0.419  19.117
 3595TIP3    H134980   5.417   0.411  19.075
 3595TIP3    H234981   5.510   0.511  19.140
 3596TIP3   OH234982   5.556   0.690  19.211
 3596TIP3    H134983   5.648   0.676  19.234
 3596TIP3    H234984   5.555   0.773  19.163
 3597TIP3   OH234985   4.673   1.234  19.667
 3597TIP3    H134986   4.707   1.205  19.582
 3597TIP3    H234987   4.711   1.173  19.730
 3598TIP3   OH234988   5.307   1.393  19.143
 3598TIP3    H134989   5.273   1.482  19.146
 3598TIP3    H234990   5.229   1.337  19.146
 3599TIP3   OH234991   6.054   0.703  19.084
 3599TIP3    H134992   6.024   0.681  18.996
 3599TIP3    H234993   6.100   0.786  19.074
 3600TIP3   OH234994   6.003   1.676  19.243
 3600TIP3    H134995   5.939   1.608  19.264
 3600TIP3    H234996   6.046   1.645  19.164
 3601TIP3   OH234997   5.635   1.062  19.756
 3601TIP3    H134998   5.542   1.040  19.760
 3601TIP3    H234999   5.678   0.982  19.728
 3602TIP3   OH235000   4.858   1.562  19.509
 3602TIP3    H135001   4.859   1.650  19.472
 3602TIP3    H235002   4.773   1.555  19.553
 3603TIP3   OH235003   4.364   0.944  19.014
 3603TIP3    H135004   4.404   1.024  19.051
 3603TIP3    H235005   4.272   0.951  19.037
 3604TIP3   OH235006   4.912   1.356  19.333
 3604TIP3    H135007   4.902   1.426  19.397
 3604TIP3    H235008   4.872   1.280  19.375
 3605TIP3   OH235009   4.841   1.820  19.413
 3605TIP3    H135010   4.753   1.855  19.426
 3605TIP3    H235011   4.900   1.890  19.440
 3606TIP3   OH235012   5.758   1.413  19.000
 3606TIP3    H135013   5.783   1.333  19.045
 3606TIP3    H235014   5.666   1.400  18.978
 3607TIP3   OH235015   6.147   1.915  19.000
 3607TIP3    H135016   6.162   1.972  18.925
 3607TIP3    H235017   6.075   1.956  19.048
 3608TIP3   OH235018   5.840   1.166  19.101
 3608TIP3    H135019   5.794   1.126  19.175
 3608TIP3    H235020   5.932   1.166  19.128
 3609TIP3   OH235021   5.053   1.488  18.879
 3609TIP3    H135022   5.037   1.403  18.838
 3609TIP3    H235023   4.992   1.491  18.952
 3610TIP3   OH235024   4.872   1.513  19.099
 3610TIP3    H135025   4.886   1.457  19.175
 3610TIP3    H235026   4.903   1.599  19.127
 3611TIP3   OH235027   4.473   1.178  19.142
 3611TIP3    H135028   4.405   1.220  19.194
 3611TIP3    H235029   4.522   1.250  19.103
 3612TIP3   OH235030   5.517   0.257  19.341
 3612TIP3    H135031   5.508   0.301  19.256
 3612TIP3    H235032   5.554   0.323  19.399
 3613TIP3   OH235033   5.237   1.663  19.165
 3613TIP3    H135034   5.145   1.687  19.176
 3613TIP3    H235035   5.271   1.727  19.104
 3614TIP3   OH235036   5.119   0.590  19.358
 3614TIP3    H135037   5.191   0.653  19.353
 3614TIP3    H235038   5.132   0.544  19.441
 3615TIP3   OH235039   5.236   0.250  19.388
 3615TIP3    H135040   5.227   0.313  19.459
 3615TIP3    H235041   5.331   0.238  19.378
 3616TIP3   OH235042   4.979   1.762  19.181
 3616TIP3    H135043   5.009   1.848  19.151
 3616TIP3    H235044   4.928   1.781  19.260
 3617TIP3   OH235045   4.787   0.382  19.190
 3617TIP3    H135046   4.793   0.473  19.219
 3617TIP3    H235047   4.876   0.347  19.200
 3618TIP3   OH235048   5.736   0.811  19.679
 3618TIP3    H135049   5.660   0.764  19.645
 3618TIP3    H235050   5.780   0.747  19.735
 3619TIP3   OH235051   4.604   1.405  19.029
 3619TIP3    H135052   4.674   1.460  19.067
 3619TIP3    H235053   4.648   1.357  18.959
 3620TIP3   OH235054   4.326   0.665  18.970
 3620TIP3    H135055   4.339   0.760  18.982
 3620TIP3    H235056   4.290   0.657  18.882
 3621TIP3   OH235057   5.950   1.827  19.853
 3621TIP3    H135058   5.927   1.896  19.791
 3621TIP3    H235059   5.936   1.867  19.939
 3622TIP3   OH235060   4.516   0.135  19.701
 3622TIP3    H135061   4.504   0.134  19.606
 3622TIP3    H235062   4.490   0.047  19.730
 3623TIP3   OH235063   4.375   1.752  19.354
 3623TIP3    H135064   4.304   1.776  19.413
 3623TIP3    H235065   4.354   1.798  19.272
 3624TIP3   OH235066   5.220   1.678  18.765
 3624TIP3    H135067   5.163   1.617  18.812
 3624TIP3    H235068   5.308   1.642  18.776
 3625TIP3   OH235069   5.738   1.680  18.919
 3625TIP3    H135070   5.745   1.594  18.960
 3625TIP3    H235071   5.824   1.694  18.879
 3626TIP3   OH235072   4.734   1.249  18.846
 3626TIP3    H135073   4.766   1.192  18.917
 3626TIP3    H235074   4.811   1.265  18.792
 3627TIP3   OH235075   5.489   1.383  18.937
 3627TIP3    H135076   5.430   1.386  19.013
 3627TIP3    H235077   5.457   1.309  18.886
 3628TIP3   OH235078   4.873   1.103  19.043
 3628TIP3    H135079   4.818   1.061  19.109
 3628TIP3    H235080   4.924   1.031  19.005
 3629TIP3   OH235081   5.041   0.917  18.922
 3629TIP3    H135082   5.037   0.944  18.830
 3629TIP3    H235083   5.135   0.910  18.940
 3630TIP3   OH235084   6.137   1.152  18.847
 3630TIP3    H135085   6.085   1.114  18.776
 3630TIP3    H235086   6.089   1.232  18.871
 3631TIP3   OH235087   5.113   1.999  19.094
 3631TIP3    H135088   5.181   1.957  19.041
 3631TIP3    H235089   5.082   2.071  19.040
 3632TIP3   OH235090   4.332   1.488  19.020
 3632TIP3    H135091   4.427   1.478  19.019
 3632TIP3    H235092   4.303   1.448  18.937
 3633TIP3   OH235093   4.181   2.032  19.451
 3633TIP3    H135094   4.109   1.990  19.403
 3633TIP3    H235095   4.207   1.966  19.516
 3634TIP3   OH235096   4.258   1.830  19.617
 3634TIP3    H135097   4.256   1.739  19.648
 3634TIP3    H235098   4.308   1.877  19.683
 3635TIP3   OH235099   6.101   1.149  19.217
 3635TIP3    H135100   6.172   1.214  19.222
 3635TIP3    H235101   6.110   1.099  19.298
 3636TIP3   OH235102   6.137   0.982  19.432
 3636TIP3    H135103   6.051   0.944  19.450
 3636TIP3    H235104   6.183   0.977  19.515
 3637TIP3   OH235105   6.163   1.440  19.843
 3637TIP3    H135106   6.187   1.349  19.827
 3637TIP3    H235107   6.069   1.444  19.831
 3638TIP3   OH235108   6.186   0.957  19.038
 3638TIP3    H135109   6.171   1.013  18.961
 3638TIP3    H235110   6.154   1.010  19.111
 3639TIP3   OH235111   5.981   0.622  18.831
 3639TIP3    H135112   5.964   0.642  18.739
 3639TIP3    H235113   5.967   0.528  18.839
 3640TIP3   OH235114   5.882   0.869  19.451
 3640TIP3    H135115   5.865   0.792  19.397
 3640TIP3    H235116   5.837   0.851  19.533
 3641TIP3   OH235117   4.210   1.131  19.805
 3641TIP3    H135118   4.225   1.074  19.730
 3641TIP3    H235119   4.297   1.161  19.831
 3642TIP3   OH235120   5.941   0.349  18.844
 3642TIP3    H135121   5.986   0.300  18.913
 3642TIP3    H235122   5.848   0.337  18.862
 3643TIP3   OH235123   5.837   0.657  19.267
 3643TIP3    H135124   5.849   0.564  19.285
 3643TIP3    H235125   5.906   0.678  19.204
 3644TIP3   OH235126   5.882   0.628  19.833
 3644TIP3    H135127   5.969   0.644  19.795
 3644TIP3    H235128   5.895   0.639  19.927
 3645TIP3   OH235129   5.863   0.385  19.330
 3645TIP3    H135130   5.931   0.349  19.386
 3645TIP3    H235131   5.828   0.309  19.283
 3646TIP3   OH235132   4.361   0.367  19.709
 3646TIP3    H135133   4.409   0.284  19.717
 3646TIP3    H235134   4.413   0.429  19.759
 3647TIP3   OH235135   4.068   0.706  19.741
 3647TIP3    H135136   4.162   0.688  19.733
 3647TIP3    H235137   4.064   0.785  19.796
 3648TIP3   OH235138   6.135   0.234  19.016
 3648TIP3    H135139   6.193   0.182  18.959
 3648TIP3    H235140   6.188   0.309  19.042
 3649TIP3   OH235141   4.294   0.275  19.285
 3649TIP3    H135142   4.249   0.299  19.366
 3649TIP3    H235143   4.268   0.343  19.223
 3650TIP3   OH235144   5.846   1.873  19.506
 3650TIP3    H135145   5.926   1.886  19.455
 3650TIP3    H235146   5.853   1.934  19.579
 3651TIP3   OH235147   4.418   1.920  19.823
 3651TIP3    H135148   4.388   1.877  19.903
 3651TIP3    H235149   4.493   1.869  19.795
 3652TIP3   OH235150   4.628   1.770  19.734
 3652TIP3    H135151   4.628   1.674  19.730
 3652TIP3    H235152   4.711   1.793  19.774
 3653TIP3   OH235153   4.875   1.786  19.860
 3653TIP3    H135154   4.911   1.704  19.826
 3653TIP3    H235155   4.905   1.789  19.951
 3654TIP3   OH235156   5.275   0.243  19.741
 3654TIP3    H135157   5.202   0.183  19.753
 3654TIP3    H235158   5.340   0.193  19.691
 3655TIP3   OH235159   5.856   0.172  19.678
 3655TIP3    H135160   5.921   0.200  19.614
 3655TIP3    H235161   5.813   0.253  19.706
 3656TIP3   OH235162   6.042   0.242  19.478
 3656TIP3    H135163   6.069   0.171  19.419
 3656TIP3    H235164   6.124   0.284  19.503
 3657TIP3   OH235165   4.476   0.118  19.431
 3657TIP3    H135166   4.408   0.153  19.373
 3657TIP3    H235167   4.470   0.023  19.421
 3658TIP3   OH235168   4.392   0.106  19.091
 3658TIP3    H135169   4.462   0.162  19.058
 3658TIP3    H235170   4.351   0.158  19.160
 3659TIP3   OH235171   5.073   0.037  19.458
 3659TIP3    H135172   5.132   0.103  19.421
 3659TIP3    H235173   5.065   0.061  19.550
 3660TIP3   OH235174   5.456   0.113  19.585
 3660TIP3    H135175   5.491   0.138  19.500
 3660TIP3    H235176   5.490   0.025  19.600
 3661TIP3   OH235177   5.759   0.133  19.255
 3661TIP3    H135178   5.672   0.163  19.281
 3661TIP3    H235179   5.753   0.038  19.252
 3662TIP3   OH235180   4.321   1.905  19.121
 3662TIP3    H135181   4.234   1.894  19.082
 3662TIP3    H235182   4.337   1.999  19.119
 3663TIP3   OH235183   4.593   0.280  19.008
 3663TIP3    H135184   4.642   0.229  18.944
 3663TIP3    H235185   4.658   0.307  19.073
 3664TIP3   OH235186   5.062   0.364  19.210
 3664TIP3    H135187   5.114   0.301  19.261
 3664TIP3    H235188   5.079   0.448  19.251
 3665TIP3   OH235189   5.315   1.852  18.973
 3665TIP3    H135190   5.406   1.879  18.960
 3665TIP3    H235191   5.291   1.808  18.891
 3666TIP3   OH235192   6.065   1.923  19.343
 3666TIP3    H135193   6.054   1.833  19.312
 3666TIP3    H235194   6.032   1.978  19.272
 3667TIP3   OH235195   4.508   1.898  18.891
 3667TIP3    H135196   4.472   1.881  18.978
 3667TIP3    H235197   4.573   1.828  18.878
 3668TIP3   OH235198   7.556   1.093  19.480
 3668TIP3    H135199   7.536   1.185  19.467
 3668TIP3    H235200   7.493   1.047  19.424
 3669TIP3   OH235201   7.316   1.043  19.766
 3669TIP3    H135202   7.408   1.038  19.737
 3669TIP3    H235203   7.277   0.962  19.735
 3670TIP3   OH235204   7.829   1.352  19.648
 3670TIP3    H135205   7.791   1.265  19.659
 3670TIP3    H235206   7.872   1.371  19.731
 3671TIP3   OH235207   6.769   1.484  19.734
 3671TIP3    H135208   6.732   1.396  19.725
 3671TIP3    H235209   6.853   1.469  19.778
 3672TIP3   OH235210   6.305   0.626  19.372
 3672TIP3    H135211   6.253   0.707  19.375
 3672TIP3    H235212   6.284   0.588  19.287
 3673TIP3   OH235213   6.346   0.972  19.631
 3673TIP3    H135214   6.367   0.885  19.665
 3673TIP3    H235215   6.418   0.992  19.571
 3674TIP3   OH235216   7.701   1.753  19.658
 3674TIP3    H135217   7.679   1.728  19.568
 3674TIP3    H235218   7.640   1.705  19.713
 3675TIP3   OH235219   7.227   1.289  19.852
 3675TIP3    H135220   7.243   1.204  19.811
 3675TIP3    H235221   7.299   1.301  19.913
 3676TIP3   OH235222   7.410   0.630  19.807
 3676TIP3    H135223   7.448   0.560  19.860
 3676TIP3    H235224   7.473   0.642  19.736
 3677TIP3   OH235225   6.834   0.451  19.647
 3677TIP3    H135226   6.853   0.538  19.611
 3677TIP3    H235227   6.786   0.407  19.577
 3678TIP3   OH235228   7.729   0.460  19.485
 3678TIP3    H135229   7.764   0.431  19.569
 3678TIP3    H235230   7.805   0.498  19.440
 3679TIP3   OH235231   6.428   0.714  19.698
 3679TIP3    H135232   6.482   0.677  19.767
 3679TIP3    H235233   6.465   0.679  19.617
 3680TIP3   OH235234   6.974   0.887  19.630
 3680TIP3    H135235   7.063   0.855  19.641
 3680TIP3    H235236   6.926   0.813  19.593
 3681TIP3   OH235237   7.481   1.344  19.407
 3681TIP3    H135238   7.434   1.356  19.325
 3681TIP3    H235239   7.480   1.430  19.449
 3682TIP3   OH235240   7.804   0.417  19.748
 3682TIP3    H135241   7.722   0.418  19.798
 3682TIP3    H235242   7.855   0.490  19.783
 3683TIP3   OH235243   6.641   0.563  19.823
 3683TIP3    H135244   6.689   0.599  19.898
 3683TIP3    H235245   6.708   0.524  19.767
 3684TIP3   OH235246   6.324   1.327  19.230
 3684TIP3    H135247   6.334   1.386  19.156
 3684TIP3    H235248   6.328   1.384  19.307
 3685TIP3   OH235249   7.942   1.363  19.903
 3685TIP3    H135250   7.882   1.314  19.959
 3685TIP3    H235251   8.023   1.312  19.904
 3686TIP3   OH235252   7.142   0.087  19.772
 3686TIP3    H135253   7.135   8.447  19.806
 3686TIP3    H235254   7.054   0.123  19.779
 3687TIP3   OH235255   7.718   1.708  19.375
 3687TIP3    H135256   7.762   1.623  19.372
 3687TIP3    H235257   7.787   1.771  19.393
 3688TIP3   OH235258   7.860   1.477  19.400
 3688TIP3    H135259   7.868   1.399  19.345
 3688TIP3    H235260   7.849   1.442  19.489
 3689TIP3   OH235261   7.407   0.985  19.270
 3689TIP3    H135262   7.339   1.041  19.233
 3689TIP3    H235263   7.476   0.985  19.204
 3690TIP3   OH235264   7.388   0.889  18.950
 3690TIP3    H135265   7.456   0.883  19.017
 3690TIP3    H235266   7.419   0.833  18.879
 3691TIP3   OH235267   7.775   1.024  19.319
 3691TIP3    H135268   7.711   1.050  19.385
 3691TIP3    H235269   7.834   0.965  19.365
 3692TIP3   OH235270   6.851   1.098  19.489
 3692TIP3    H135271   6.822   1.062  19.405
 3692TIP3    H235272   6.897   1.026  19.532
 3693TIP3   OH235273   7.047   1.487  19.789
 3693TIP3    H135274   7.051   1.493  19.694
 3693TIP3    H235275   7.107   1.416  19.812
 3694TIP3   OH235276   6.864   1.027  19.843
 3694TIP3    H135277   6.898   0.976  19.769
 3694TIP3    H235278   6.938   1.038  19.902
 3695TIP3   OH235279   7.632   0.927  19.104
 3695TIP3    H135280   7.688   0.966  19.171
 3695TIP3    H235281   7.673   0.951  19.021
 3696TIP3   OH235282   7.467   1.622  19.447
 3696TIP3    H135283   7.550   1.649  19.408
 3696TIP3    H235284   7.401   1.646  19.382
 3697TIP3   OH235285   7.994   0.110  19.033
 3697TIP3    H135286   7.941   0.133  19.110
 3697TIP3    H235287   8.077   0.157  19.046
 3698TIP3   OH235288   6.756   1.009  19.237
 3698TIP3    H135289   6.682   1.065  19.213
 3698TIP3    H235290   6.732   0.922  19.205
 3699TIP3   OH235291   8.166   1.644  18.968
 3699TIP3    H135292   8.145   1.735  18.950
 3699TIP3    H235293   8.262   1.640  18.963
 3700TIP3   OH235294   6.207   1.714  19.819
 3700TIP3    H135295   6.202   1.619  19.831
 3700TIP3    H235296   6.117   1.744  19.832
 3701TIP3   OH235297   7.403   2.037  19.348
 3701TIP3    H135298   7.329   1.981  19.325
 3701TIP3    H235299   7.368   2.126  19.342
 3702TIP3   OH235300   6.668   1.889  19.510
 3702TIP3    H135301   6.683   1.846  19.594
 3702TIP3    H235302   6.602   1.835  19.467
 3703TIP3   OH235303   7.644   1.907  18.970
 3703TIP3    H135304   7.692   1.826  18.953
 3703TIP3    H235305   7.652   1.921  19.065
 3704TIP3   OH235306   7.638   1.941  19.243
 3704TIP3    H135307   7.551   1.968  19.275
 3704TIP3    H235308   7.652   1.855  19.281
 3705TIP3   OH235309   6.875   0.195  19.754
 3705TIP3    H135310   6.780   0.183  19.756
 3705TIP3    H235311   6.888   0.286  19.726
 3706TIP3   OH235312   7.749   1.008  18.866
 3706TIP3    H135313   7.760   0.999  18.771
 3706TIP3    H235314   7.831   1.049  18.895
 3707TIP3   OH235315   7.306   0.381  19.011
 3707TIP3    H135316   7.242   0.362  19.081
 3707TIP3    H235317   7.262   0.353  18.931
 3708TIP3   OH235318   6.827   0.689  19.509
 3708TIP3    H135319   6.732   0.679  19.501
 3708TIP3    H235320   6.860   0.668  19.422
 3709TIP3   OH235321   7.415   0.732  19.377
 3709TIP3    H135322   7.399   0.822  19.348
 3709TIP3    H235323   7.483   0.700  19.318
 3710TIP3   OH235324   7.575   0.660  19.591
 3710TIP3    H135325   7.517   0.690  19.521
 3710TIP3    H235326   7.620   0.585  19.554
 3711TIP3   OH235327   6.929   0.418  18.920
 3711TIP3    H135328   6.904   0.403  19.011
 3711TIP3    H235329   6.872   0.490  18.892
 3712TIP3   OH235330   6.272   0.388  19.524
 3712TIP3    H135331   6.326   0.383  19.603
 3712TIP3    H235332   6.273   0.481  19.500
 3713TIP3   OH235333   6.246   0.499  19.124
 3713TIP3    H135334   6.310   0.544  19.070
 3713TIP3    H235335   6.165   0.549  19.113
 3714TIP3   OH235336   7.239   0.415  19.595
 3714TIP3    H135337   7.155   0.420  19.641
 3714TIP3    H235338   7.298   0.370  19.656
 3715TIP3   OH235339   6.563   0.603  19.474
 3715TIP3    H135340   6.480   0.608  19.426
 3715TIP3    H235341   6.595   0.515  19.457
 3716TIP3   OH235342   6.936   0.619  19.268
 3716TIP3    H135343   7.029   0.614  19.289
 3716TIP3    H235344   6.932   0.671  19.188
 3717TIP3   OH235345   7.560   0.400  19.888
 3717TIP3    H135346   7.568   0.352  19.970
 3717TIP3    H235347   7.498   0.348  19.836
 3718TIP3   OH235348   6.908   0.754  19.031
 3718TIP3    H135349   6.856   0.718  18.958
 3718TIP3    H235350   6.975   0.807  18.989
 3719TIP3   OH235351   7.239   0.792  19.661
 3719TIP3    H135352   7.276   0.764  19.578
 3719TIP3    H235353   7.281   0.736  19.726
 3720TIP3   OH235354   6.696   0.357  19.424
 3720TIP3    H135355   6.645   0.276  19.431
 3720TIP3    H235356   6.744   0.349  19.342
 3721TIP3   OH235357   7.085   1.333  19.144
 3721TIP3    H135358   7.041   1.260  19.101
 3721TIP3    H235359   7.065   1.323  19.237
 3722TIP3   OH235360   7.560   0.423  19.101
 3722TIP3    H135361   7.470   0.414  19.069
 3722TIP3    H235362   7.567   0.514  19.129
 3723TIP3   OH235363   7.631   0.671  19.214
 3723TIP3    H135364   7.720   0.647  19.240
 3723TIP3    H235365   7.640   0.754  19.169
 3724TIP3   OH235366   6.717   1.215  19.704
 3724TIP3    H135367   6.751   1.185  19.620
 3724TIP3    H235368   6.752   1.154  19.768
 3725TIP3   OH235369   7.347   1.419  19.175
 3725TIP3    H135370   7.333   1.512  19.191
 3725TIP3    H235371   7.259   1.385  19.157
 3726TIP3   OH235372   8.081   0.695  19.137
 3726TIP3    H135373   8.069   0.656  19.051
 3726TIP3    H235374   8.071   0.789  19.123
 3727TIP3   OH235375   8.042   1.663  19.230
 3727TIP3    H135376   7.991   1.589  19.263
 3727TIP3    H235377   8.070   1.635  19.142
 3728TIP3   OH235378   7.728   1.094  19.693
 3728TIP3    H135379   7.663   1.091  19.624
 3728TIP3    H235380   7.752   1.002  19.707
 3729TIP3   OH235381   6.950   1.545  19.528
 3729TIP3    H135382   6.947   1.635  19.494
 3729TIP3    H235383   6.869   1.537  19.580
 3730TIP3   OH235384   6.464   0.938  19.014
 3730TIP3    H135385   6.497   1.019  19.054
 3730TIP3    H235386   6.369   0.943  19.023
 3731TIP3   OH235387   7.012   1.308  19.401
 3731TIP3    H135388   6.993   1.389  19.448
 3731TIP3    H235389   6.956   1.242  19.442
 3732TIP3   OH235390   6.925   1.810  19.439
 3732TIP3    H135391   6.836   1.843  19.455
 3732TIP3    H235392   6.981   1.886  19.450
 3733TIP3   OH235393   7.830   1.428  19.037
 3733TIP3    H135394   7.857   1.371  19.109
 3733TIP3    H235395   7.736   1.410  19.026
 3734TIP3   OH235396   8.137   1.916  18.938
 3734TIP3    H135397   8.162   1.987  18.879
 3734TIP3    H235398   8.098   1.960  19.013
 3735TIP3   OH235399   7.905   1.256  19.239
 3735TIP3    H135400   7.853   1.179  19.259
 3735TIP3    H235401   7.996   1.228  19.251
 3736TIP3   OH235402   7.090   1.529  18.832
 3736TIP3    H135403   7.080   1.441  18.796
 3736TIP3    H235404   7.028   1.532  18.905
 3737TIP3   OH235405   6.933   1.550  19.064
 3737TIP3    H135406   6.984   1.478  19.101
 3737TIP3    H235407   6.966   1.628  19.109
 3738TIP3   OH235408   6.549   1.176  19.145
 3738TIP3    H135409   6.469   1.210  19.185
 3738TIP3    H235410   6.594   1.254  19.112
 3739TIP3   OH235411   7.593   0.276  19.331
 3739TIP3    H135412   7.581   0.323  19.249
 3739TIP3    H235413   7.633   0.340  19.390
 3740TIP3   OH235414   7.311   1.692  19.224
 3740TIP3    H135415   7.216   1.705  19.225
 3740TIP3    H235416   7.343   1.752  19.157
 3741TIP3   OH235417   7.194   0.565  19.368
 3741TIP3    H135418   7.269   0.625  19.361
 3741TIP3    H235419   7.209   0.517  19.449
 3742TIP3   OH235420   7.325   0.222  19.402
 3742TIP3    H135421   7.315   0.288  19.470
 3742TIP3    H235422   7.419   0.223  19.381
 3743TIP3   OH235423   7.049   1.771  19.196
 3743TIP3    H135424   7.063   1.863  19.172
 3743TIP3    H235425   6.999   1.776  19.278
 3744TIP3   OH235426   6.863   0.364  19.189
 3744TIP3    H135427   6.872   0.455  19.219
 3744TIP3    H235428   6.950   0.326  19.202
 3745TIP3   OH235429   7.777   0.815  19.697
 3745TIP3    H135430   7.700   0.764  19.673
 3745TIP3    H235431   7.825   0.759  19.758
 3746TIP3   OH235432   6.668   1.419  19.040
 3746TIP3    H135433   6.733   1.482  19.070
 3746TIP3    H235434   6.712   1.371  18.970
 3747TIP3   OH235435   6.402   0.665  18.974
 3747TIP3    H135436   6.431   0.753  18.996
 3747TIP3    H235437   6.397   0.665  18.878
 3748TIP3   OH235438   8.021   1.768  19.831
 3748TIP3    H135439   8.116   1.777  19.820
 3748TIP3    H235440   8.011   1.689  19.884
 3749TIP3   OH235441   6.607   0.153  19.706
 3749TIP3    H135442   6.586   0.154  19.613
 3749TIP3    H235443   6.586   0.064  19.735
 3750TIP3   OH235444   6.454   1.760  19.402
 3750TIP3    H135445   6.397   1.780  19.476
 3750TIP3    H235446   6.412   1.802  19.327
 3751TIP3   OH235447   7.304   1.700  18.828
 3751TIP3    H135448   7.232   1.637  18.831
 3751TIP3    H235449   7.382   1.646  18.817
 3752TIP3   OH235450   7.781   1.677  18.916
 3752TIP3    H135451   7.812   1.599  18.963
 3752TIP3    H235452   7.845   1.690  18.847
 3753TIP3   OH235453   6.809   1.269  18.858
 3753TIP3    H135454   6.839   1.209  18.926
 3753TIP3    H235455   6.885   1.280  18.800
 3754TIP3   OH235456   7.561   1.375  19.008
 3754TIP3    H135457   7.491   1.388  19.072
 3754TIP3    H235458   7.539   1.292  18.966
 3755TIP3   OH235459   6.939   1.115  19.052
 3755TIP3    H135460   6.887   1.073  19.121
 3755TIP3    H235461   6.993   1.045  19.016
 3756TIP3   OH235462   7.105   0.927  18.929
 3756TIP3    H135463   7.100   0.956  18.838
 3756TIP3    H235464   7.197   0.909  18.944
 3757TIP3   OH235465   8.002   1.123  18.889
 3757TIP3    H135466   8.038   1.091  18.806
 3757TIP3    H235467   8.028   1.215  18.892
 3758TIP3   OH235468   7.171   2.039  19.144
 3758TIP3    H135469   7.240   1.988  19.100
 3758TIP3    H235470   7.143   2.103  19.079
 3759TIP3   OH235471   6.393   1.486  19.012
 3759TIP3    H135472   6.488   1.480  19.023
 3759TIP3    H235473   6.375   1.436  18.933
 3760TIP3   OH235474   6.258   2.064  19.483
 3760TIP3    H135475   6.196   2.021  19.425
 3760TIP3    H235476   6.286   1.996  19.544
 3761TIP3   OH235477   6.348   1.862  19.641
 3761TIP3    H135478   6.293   1.805  19.694
 3761TIP3    H235479   6.416   1.893  19.701
 3762TIP3   OH235480   8.159   1.156  19.286
 3762TIP3    H135481   8.236   1.210  19.299
 3762TIP3    H235482   8.165   1.088  19.353
 3763TIP3   OH235483   8.176   0.954  19.468
 3763TIP3    H135484   8.089   0.916  19.479
 3763TIP3    H235485   8.211   0.960  19.557
 3764TIP3   OH235486   8.397   1.251  19.773
 3764TIP3    H135487   0.042   1.231  19.768
 3764TIP3    H235488   8.391   1.343  19.748
 3765TIP3   OH235489   8.063   0.965  19.105
 3765TIP3    H135490   8.040   1.015  19.027
 3765TIP3    H235491   8.098   1.029  19.166
 3766TIP3   OH235492   8.028   0.579  18.885
 3766TIP3    H135493   7.998   0.622  18.805
 3766TIP3    H235494   8.007   0.487  18.872
 3767TIP3   OH235495   7.923   0.837  19.465
 3767TIP3    H135496   7.929   0.746  19.433
 3767TIP3    H235497   7.877   0.830  19.548
 3768TIP3   OH235498   6.272   1.177  19.803
 3768TIP3    H135499   6.293   1.112  19.736
 3768TIP3    H235500   6.357   1.211  19.830
 3769TIP3   OH235501   7.964   0.311  18.828
 3769TIP3    H135502   7.977   0.237  18.888
 3769TIP3    H235503   7.870   0.325  18.827
 3770TIP3   OH235504   7.938   0.577  19.341
 3770TIP3    H135505   7.977   0.490  19.349
 3770TIP3    H235506   7.988   0.619  19.271
 3771TIP3   OH235507   7.939   0.644  19.848
 3771TIP3    H135508   8.023   0.677  19.817
 3771TIP3    H235509   7.948   0.641  19.944
 3772TIP3   OH235510   8.014   0.306  19.365
 3772TIP3    H135511   8.036   0.257  19.445
 3772TIP3    H235512   7.946   0.253  19.323
 3773TIP3   OH235513   6.452   0.382  19.728
 3773TIP3    H135514   6.501   0.300  19.736
 3773TIP3    H235515   6.507   0.447  19.772
 3774TIP3   OH235516   6.138   0.712  19.769
 3774TIP3    H135517   6.231   0.703  19.748
 3774TIP3    H235518   6.131   0.801  19.804
 3775TIP3   OH235519   8.228   0.256  19.015
 3775TIP3    H135520   8.272   0.201  18.950
 3775TIP3    H235521   8.223   0.342  18.972
 3776TIP3   OH235522   6.359   0.295  19.282
 3776TIP3    H135523   6.330   0.318  19.370
 3776TIP3    H235524   6.322   0.363  19.225
 3777TIP3   OH235525   7.879   1.921  19.443
 3777TIP3    H135526   7.966   1.909  19.406
 3777TIP3    H235527   7.847   2.002  19.405
 3778TIP3   OH235528   6.538   1.929  19.834
 3778TIP3    H135529   6.495   1.887  19.909
 3778TIP3    H235530   6.607   1.867  19.809
 3779TIP3   OH235531   6.730   1.755  19.748
 3779TIP3    H135532   6.720   1.660  19.739
 3779TIP3    H235533   6.815   1.767  19.790
 3780TIP3   OH235534   6.972   1.736  19.879
 3780TIP3    H135535   7.003   1.653  19.844
 3780TIP3    H235536   6.994   1.733  19.972
 3781TIP3   OH235537   7.377   0.239  19.756
 3781TIP3    H135538   7.302   0.182  19.772
 3781TIP3    H235539   7.449   0.179  19.736
 3782TIP3   OH235540   7.870   0.142  19.725
 3782TIP3    H135541   7.948   0.140  19.671
 3782TIP3    H235542   7.854   0.236  19.740
 3783TIP3   OH235543   8.099   0.137  19.574
 3783TIP3    H135544   8.142   0.052  19.566
 3783TIP3    H235545   8.171   0.200  19.586
 3784TIP3   OH235546   6.544   0.125  19.437
 3784TIP3    H135547   6.477   0.156  19.376
 3784TIP3    H235548   6.541   0.030  19.429
 3785TIP3   OH235549   6.465   0.104  19.118
 3785TIP3    H135550   6.536   0.149  19.073
 3785TIP3    H235551   6.422   0.172  19.170
 3786TIP3   OH235552   7.180   0.008  19.504
 3786TIP3    H135553   7.233   0.071  19.456
 3786TIP3    H235554   7.177   0.043  19.594
 3787TIP3   OH235555   7.597   0.085  19.716
 3787TIP3    H135556   7.690   0.107  19.719
 3787TIP3    H235557   7.595   8.442  19.689
 3788TIP3   OH235558   7.824   0.141  19.252
 3788TIP3    H135559   7.742   0.180  19.281
 3788TIP3    H235560   7.803   0.048  19.240
 3789TIP3   OH235561   6.352   1.909  19.193
 3789TIP3    H135562   6.273   1.900  19.140
 3789TIP3    H235563   6.379   2.000  19.181
 3790TIP3   OH235564   6.674   0.249  19.006
 3790TIP3    H135565   6.722   0.192  18.945
 3790TIP3    H235566   6.740   0.276  19.070
 3791TIP3   OH235567   7.136   0.332  19.230
 3791TIP3    H135568   7.191   0.270  19.278
 3791TIP3    H235569   7.153   0.417  19.272
 3792TIP3   OH235570   7.369   1.878  19.025
 3792TIP3    H135571   7.458   1.900  18.999
 3792TIP3    H235572   7.335   1.823  18.954
 3793TIP3   OH235573   8.128   1.897  19.339
 3793TIP3    H135574   8.115   1.810  19.302
 3793TIP3    H235575   8.127   1.956  19.264
 3794TIP3   OH235576   6.501   1.922  18.949
 3794TIP3    H135577   6.474   2.004  18.990
 3794TIP3    H235578   6.489   1.855  19.017
 3795TIP3   OH235579   8.309   0.775  19.298
 3795TIP3    H135580   8.264   0.838  19.355
 3795TIP3    H235581   8.239   0.739  19.243
 3796TIP3   OH235582   8.388   1.535  19.823
 3796TIP3    H135583   0.033   1.548  19.831
 3796TIP3    H235584   8.362   1.491  19.904
 3797TIP3   OH235585   8.303   0.313  19.560
 3797TIP3    H135586   8.382   0.354  19.596
 3797TIP3    H235587   8.313   0.320  19.466
 3798TIP3   OH235588   8.119   1.954  19.611
 3798TIP3    H135589   8.142   1.937  19.519
 3798TIP3    H235590   8.185   1.907  19.661
 3799TIP3   OH235591   8.292   1.788  19.758
 3799TIP3    H135592   8.310   1.695  19.764
 3799TIP3    H235593   8.378   1.830  19.762
 3800TIP3   OH235594   8.312   0.991  19.712
 3800TIP3    H135595   8.399   0.952  19.699
 3800TIP3    H235596   8.330   1.084  19.727
 3801TIP3   OH235597   8.186   0.754  19.794
 3801TIP3    H135598   8.265   0.700  19.790
 3801TIP3    H235599   8.215   0.842  19.772
 3802TIP3   OH235600   8.284   0.292  19.283
 3802TIP3    H135601   8.194   0.306  19.311
 3802TIP3    H235602   8.277   0.278  19.188
 3803TIP3   OH235603   1.370   3.171  19.420
 3803TIP3    H135604   1.357   3.265  19.430
 3803TIP3    H235605   1.286   3.139  19.388
 3804TIP3   OH235606   1.141   3.047  19.780
 3804TIP3    H135607   1.174   2.969  19.825
 3804TIP3    H235608   1.093   3.012  19.705
 3805TIP3   OH235609   1.593   3.367  19.712
 3805TIP3    H135610   1.516   3.319  19.742
 3805TIP3    H235611   1.649   3.300  19.672
 3806TIP3   OH235612   0.463   3.529  19.749
 3806TIP3    H135613   0.448   3.442  19.713
 3806TIP3    H235614   0.557   3.531  19.770
 3807TIP3   OH235615   0.124   2.787  19.357
 3807TIP3    H135616   0.145   2.847  19.428
 3807TIP3    H235617   0.032   2.804  19.337
 3808TIP3   OH235618   0.241   2.999  19.723
 3808TIP3    H135619   0.248   2.904  19.732
 3808TIP3    H235620   0.328   3.026  19.693
 3809TIP3   OH235621   1.296   3.947  19.635
 3809TIP3    H135622   1.369   3.907  19.588
 3809TIP3    H235623   1.224   3.885  19.625
 3810TIP3   OH235624   0.991   3.284  19.820
 3810TIP3    H135625   1.036   3.199  19.810
 3810TIP3    H235626   1.062   3.346  19.837
 3811TIP3   OH235627   1.205   2.754  19.776
 3811TIP3    H135628   1.236   2.676  19.823
 3811TIP3    H235629   1.268   2.767  19.706
 3812TIP3   OH235630   0.622   2.484  19.635
 3812TIP3    H135631   0.639   2.571  19.600
 3812TIP3    H235632   0.568   2.442  19.569
 3813TIP3   OH235633   1.483   2.543  19.474
 3813TIP3    H135634   1.534   2.529  19.554
 3813TIP3    H235635   1.547   2.573  19.410
 3814TIP3   OH235636   0.267   2.727  19.728
 3814TIP3    H135637   0.328   2.678  19.784
 3814TIP3    H235638   0.284   2.693  19.640
 3815TIP3   OH235639   0.751   2.957  19.596
 3815TIP3    H135640   0.843   2.929  19.596
 3815TIP3    H235641   0.702   2.879  19.572
 3816TIP3   OH235642   1.319   3.443  19.395
 3816TIP3    H135643   1.289   3.439  19.305
 3816TIP3    H235644   1.279   3.523  19.430
 3817TIP3   OH235645   1.586   2.515  19.731
 3817TIP3    H135646   1.502   2.522  19.776
 3817TIP3    H235647   1.625   2.435  19.766
 3818TIP3   OH235648   0.457   2.563  19.844
 3818TIP3    H135649   0.508   2.567  19.925
 3818TIP3    H235650   0.520   2.534  19.778
 3819TIP3   OH235651   0.285   3.553  19.268
 3819TIP3    H135652   0.269   3.567  19.175
 3819TIP3    H235653   0.281   3.641  19.306
 3820TIP3   OH235654   1.782   3.471  19.888
 3820TIP3    H135655   1.742   3.545  19.935
 3820TIP3    H235656   1.714   3.443  19.827
 3821TIP3   OH235657   0.977   2.131  19.735
 3821TIP3    H135658   0.979   2.041  19.766
 3821TIP3    H235659   0.890   2.162  19.757
 3822TIP3   OH235660   1.487   3.832  19.470
 3822TIP3    H135661   1.518   3.743  19.486
 3822TIP3    H235662   1.560   3.888  19.496
 3823TIP3   OH235663   1.540   3.566  19.518
 3823TIP3    H135664   1.475   3.514  19.470
 3823TIP3    H235665   1.566   3.510  19.591
 3824TIP3   OH235666   1.158   3.077  19.259
 3824TIP3    H135667   1.094   3.145  19.239
 3824TIP3    H235668   1.219   3.078  19.185
 3825TIP3   OH235669   1.196   2.982  18.902
 3825TIP3    H135670   1.253   2.978  18.979
 3825TIP3    H235671   1.234   2.918  18.841
 3826TIP3   OH235672   1.584   3.068  19.291
 3826TIP3    H135673   1.516   3.109  19.344
 3826TIP3    H235674   1.647   3.033  19.354
 3827TIP3   OH235675   0.648   3.186  19.462
 3827TIP3    H135676   0.625   3.148  19.376
 3827TIP3    H235677   0.691   3.114  19.508
 3828TIP3   OH235678   0.746   3.520  19.754
 3828TIP3    H135679   0.745   3.545  19.661
 3828TIP3    H235680   0.808   3.447  19.758
 3829TIP3   OH235681   0.666   3.127  19.799
 3829TIP3    H135682   0.696   3.062  19.736
 3829TIP3    H235683   0.745   3.155  19.845
 3830TIP3   OH235684   1.398   2.985  19.101
 3830TIP3    H135685   1.456   3.008  19.174
 3830TIP3    H235686   1.443   3.020  19.023
 3831TIP3   OH235687   1.234   3.703  19.438
 3831TIP3    H135688   1.316   3.752  19.434
 3831TIP3    H235689   1.192   3.720  19.354
 3832TIP3   OH235690   1.830   2.083  19.139
 3832TIP3    H135691   1.745   2.108  19.175
 3832TIP3    H235692   1.860   2.160  19.091
 3833TIP3   OH235693   0.570   3.095  19.211
 3833TIP3    H135694   0.506   3.165  19.195
 3833TIP3    H235695   0.527   3.016  19.178
 3834TIP3   OH235696   1.969   3.705  19.004
 3834TIP3    H135697   1.978   3.799  18.989
 3834TIP3    H235698   2.059   3.672  19.006
 3835TIP3   OH235699   0.216   3.630  19.847
 3835TIP3    H135700   0.284   3.591  19.792
 3835TIP3    H235701   0.246   3.616  19.937
 3836TIP3   OH235702   1.144   4.081  19.324
 3836TIP3    H135703   1.088   4.070  19.247
 3836TIP3    H235704   1.138   4.174  19.344
 3837TIP3   OH235705   0.476   3.949  19.506
 3837TIP3    H135706   0.473   3.902  19.589
 3837TIP3    H235707   0.416   3.900  19.449
 3838TIP3   OH235708   1.459   3.965  18.984
 3838TIP3    H135709   1.516   3.890  18.968
 3838TIP3    H235710   1.456   3.973  19.079
 3839TIP3   OH235711   1.412   4.006  19.261
 3839TIP3    H135712   1.321   4.027  19.282
 3839TIP3    H235713   1.439   3.944  19.330
 3840TIP3   OH235714   0.725   2.251  19.754
 3840TIP3    H135715   0.640   2.207  19.763
 3840TIP3    H235716   0.703   2.337  19.717
 3841TIP3   OH235717   1.538   3.099  18.898
 3841TIP3    H135718   1.562   3.112  18.806
 3841TIP3    H235719   1.604   3.149  18.947
 3842TIP3   OH235720   1.100   2.382  18.986
 3842TIP3    H135721   1.033   2.403  19.051
 3842TIP3    H235722   1.064   2.308  18.937
 3843TIP3   OH235723   0.608   2.732  19.506
 3843TIP3    H135724   0.514   2.714  19.497
 3843TIP3    H235725   0.644   2.715  19.419
 3844TIP3   OH235726   1.169   2.816  19.354
 3844TIP3    H135727   1.157   2.906  19.322
 3844TIP3    H235728   1.229   2.777  19.290
 3845TIP3   OH235729   1.358   2.776  19.553
 3845TIP3    H135730   1.301   2.799  19.481
 3845TIP3    H235731   1.400   2.694  19.526
 3846TIP3   OH235732   0.795   2.447  18.926
 3846TIP3    H135733   0.789   2.449  19.022
 3846TIP3    H235734   0.730   2.511  18.897
 3847TIP3   OH235735   0.089   2.266  19.564
 3847TIP3    H135736   0.150   2.308  19.624
 3847TIP3    H235737   0.109   2.304  19.478
 3848TIP3   OH235738   0.159   2.595  19.161
 3848TIP3    H135739   0.175   2.635  19.075
 3848TIP3    H235740   0.147   2.670  19.220
 3849TIP3   OH235741   1.020   2.423  19.571
 3849TIP3    H135742   0.939   2.399  19.616
 3849TIP3    H235743   1.089   2.399  19.633
 3850TIP3   OH235744   0.346   2.636  19.476
 3850TIP3    H135745   0.274   2.658  19.416
 3850TIP3    H235746   0.368   2.545  19.456
 3851TIP3   OH235747   0.727   2.669  19.266
 3851TIP3    H135748   0.818   2.659  19.294
 3851TIP3    H235749   0.732   2.721  19.186
 3852TIP3   OH235750   1.331   2.508  19.859
 3852TIP3    H135751   1.328   2.483  19.951
 3852TIP3    H235752   1.284   2.439  19.813
 3853TIP3   OH235753   0.741   2.798  19.025
 3853TIP3    H135754   0.692   2.749  18.958
 3853TIP3    H235755   0.805   2.848  18.975
 3854TIP3   OH235756   1.018   2.867  19.598
 3854TIP3    H135757   1.064   2.852  19.515
 3854TIP3    H235758   1.064   2.812  19.661
 3855TIP3   OH235759   0.466   2.382  19.427
 3855TIP3    H135760   0.432   2.294  19.442
 3855TIP3    H235761   0.515   2.376  19.344
 3856TIP3   OH235762   0.975   3.281  19.192
 3856TIP3    H135763   0.916   3.244  19.126
 3856TIP3    H235764   0.917   3.325  19.254
 3857TIP3   OH235765   1.335   2.440  19.111
 3857TIP3    H135766   1.253   2.427  19.063
 3857TIP3    H235767   1.341   2.535  19.123
 3858TIP3   OH235768   1.374   2.716  19.189
 3858TIP3    H135769   1.462   2.687  19.214
 3858TIP3    H235770   1.388   2.800  19.145
 3859TIP3   OH235771   0.467   3.264  19.668
 3859TIP3    H135772   0.510   3.252  19.584
 3859TIP3    H235773   0.525   3.221  19.731
 3860TIP3   OH235774   1.187   3.456  19.150
 3860TIP3    H135775   1.155   3.545  19.158
 3860TIP3    H235776   1.110   3.401  19.159
 3861TIP3   OH235777   1.998   2.759  19.066
 3861TIP3    H135778   1.926   2.749  19.003
 3861TIP3    H235779   2.021   2.852  19.060
 3862TIP3   OH235780   1.826   3.740  19.241
 3862TIP3    H135781   1.763   3.669  19.253
 3862TIP3    H235782   1.869   3.720  19.158
 3863TIP3   OH235783   1.398   3.180  19.771
 3863TIP3    H135784   1.307   3.151  19.773
 3863TIP3    H235785   1.448   3.102  19.751
 3864TIP3   OH235786   0.693   3.622  19.498
 3864TIP3    H135787   0.727   3.710  19.484
 3864TIP3    H235788   0.602   3.626  19.469
 3865TIP3   OH235789   0.251   3.141  18.985
 3865TIP3    H135790   0.300   3.197  19.045
 3865TIP3    H235791   0.191   3.092  19.041
 3866TIP3   OH235792   0.785   3.407  19.351
 3866TIP3    H135793   0.765   3.481  19.408
 3866TIP3    H235794   0.738   3.333  19.390
 3867TIP3   OH235795   0.743   3.889  19.448
 3867TIP3    H135796   0.659   3.932  19.463
 3867TIP3    H235797   0.808   3.951  19.481
 3868TIP3   OH235798   1.615   3.477  18.990
 3868TIP3    H135799   1.637   3.396  19.036
 3868TIP3    H235800   1.523   3.467  18.967
 3869TIP3   OH235801   1.989   3.992  18.996
 3869TIP3    H135802   2.004   4.060  18.931
 3869TIP3    H235803   1.915   4.023  19.048
 3870TIP3   OH235804   1.702   3.230  19.094
 3870TIP3    H135805   1.660   3.177  19.162
 3870TIP3    H235806   1.794   3.232  19.118
 3871TIP3   OH235807   0.849   3.628  18.858
 3871TIP3    H135808   0.853   3.547  18.807
 3871TIP3    H235809   0.828   3.600  18.947
 3872TIP3   OH235810   0.773   3.576  19.121
 3872TIP3    H135811   0.786   3.519  19.197
 3872TIP3    H235812   0.800   3.662  19.151
 3873TIP3   OH235813   0.388   3.305  19.166
 3873TIP3    H135814   0.343   3.365  19.225
 3873TIP3    H235815   0.444   3.361  19.112
 3874TIP3   OH235816   1.369   2.322  19.353
 3874TIP3    H135817   1.357   2.357  19.265
 3874TIP3    H235818   1.403   2.396  19.404
 3875TIP3   OH235819   1.116   3.723  19.186
 3875TIP3    H135820   1.025   3.752  19.197
 3875TIP3    H235821   1.151   3.781  19.118
 3876TIP3   OH235822   0.982   2.607  19.364
 3876TIP3    H135823   1.047   2.677  19.363
 3876TIP3    H235824   1.000   2.558  19.444
 3877TIP3   OH235825   1.098   2.242  19.372
 3877TIP3    H135826   1.074   2.303  19.443
 3877TIP3    H235827   1.192   2.256  19.360
 3878TIP3   OH235828   0.861   3.827  19.205
 3878TIP3    H135829   0.884   3.910  19.164
 3878TIP3    H235830   0.817   3.852  19.287
 3879TIP3   OH235831   0.646   2.411  19.203
 3879TIP3    H135832   0.654   2.504  19.225
 3879TIP3    H235833   0.734   2.376  19.213
 3880TIP3   OH235834   1.524   2.945  19.695
 3880TIP3    H135835   1.461   2.895  19.644
 3880TIP3    H235836   1.593   2.883  19.716
 3881TIP3   OH235837   0.536   3.478  19.012
 3881TIP3    H135838   0.609   3.526  19.051
 3881TIP3    H235839   0.576   3.424  18.945
 3882TIP3   OH235840   0.220   2.712  18.916
 3882TIP3    H135841   0.281   2.647  18.879
 3882TIP3    H235842   0.237   2.792  18.866
 3883TIP3   OH235843   1.744   4.073  19.818
 3883TIP3    H135844   1.735   4.158  19.776
 3883TIP3    H235845   1.727   4.010  19.748
 3884TIP3   OH235846   0.460   2.161  19.747
 3884TIP3    H135847   0.441   2.149  19.653
 3884TIP3    H235848   0.423   2.083  19.789
 3885TIP3   OH235849   0.278   3.835  19.347
 3885TIP3    H135850   0.210   3.887  19.391
 3885TIP3    H235851   0.288   3.877  19.261
 3886TIP3   OH235852   1.057   3.787  18.768
 3886TIP3    H135853   0.984   3.740  18.808
 3886TIP3    H235854   1.081   3.735  18.692
 3887TIP3   OH235855   1.614   3.746  18.903
 3887TIP3    H135856   1.626   3.659  18.939
 3887TIP3    H235857   1.692   3.762  18.850
 3888TIP3   OH235858   0.656   3.306  18.840
 3888TIP3    H135859   0.702   3.250  18.903
 3888TIP3    H235860   0.724   3.335  18.779
 3889TIP3   OH235861   1.348   3.446  18.926
 3889TIP3    H135862   1.293   3.448  19.004
 3889TIP3    H235863   1.318   3.371  18.876
 3890TIP3   OH235864   0.787   3.153  19.032
 3890TIP3    H135865   0.726   3.113  19.093
 3890TIP3    H235866   0.825   3.080  18.984
 3891TIP3   OH235867   0.915   2.959  18.878
 3891TIP3    H135868   0.905   2.954  18.783
 3891TIP3    H235869   1.009   2.969  18.892
 3892TIP3   OH235870   1.958   3.211  18.836
 3892TIP3    H135871   1.905   3.170  18.768
 3892TIP3    H235872   1.913   3.294  18.854
 3893TIP3   OH235873   0.986   4.059  19.096
 3893TIP3    H135874   1.053   4.010  19.047
 3893TIP3    H235875   0.969   4.136  19.041
 3894TIP3   OH235876   0.274   3.563  18.991
 3894TIP3    H135877   0.368   3.549  18.990
 3894TIP3    H235878   0.239   3.501  18.927
 3895TIP3   OH235879   0.112   4.004  19.504
 3895TIP3    H135880   0.020   4.028  19.491
 3895TIP3    H235881   0.114   3.962  19.590
 3896TIP3   OH235882   0.121   3.882  19.758
 3896TIP3    H135883   0.155   3.795  19.778
 3896TIP3    H235884   0.180   3.942  19.803
 3897TIP3   OH235885   1.965   3.216  19.206
 3897TIP3    H135886   2.039   3.276  19.201
 3897TIP3    H235887   1.966   3.184  19.296
 3898TIP3   OH235888   1.975   3.114  19.460
 3898TIP3    H135889   1.892   3.069  19.481
 3898TIP3    H235890   2.030   3.099  19.536
 3899TIP3   OH235891   2.055   3.497  19.830
 3899TIP3    H135892   2.082   3.405  19.841
 3899TIP3    H235893   1.961   3.496  19.847
 3900TIP3   OH235894   2.052   3.030  19.020
 3900TIP3    H135895   2.022   3.081  18.945
 3900TIP3    H235896   2.021   3.080  19.096
 3901TIP3   OH235897   1.805   2.720  18.877
 3901TIP3    H135898   1.796   2.745  18.785
 3901TIP3    H235899   1.769   2.632  18.883
 3902TIP3   OH235900   1.733   2.983  19.514
 3902TIP3    H135901   1.754   2.894  19.542
 3902TIP3    H235902   1.660   3.009  19.570
 3903TIP3   OH235903   0.202   3.268  19.772
 3903TIP3    H135904   0.206   3.172  19.774
 3903TIP3    H235905   0.286   3.295  19.735
 3904TIP3   OH235906   1.716   2.464  18.893
 3904TIP3    H135907   1.773   2.399  18.936
 3904TIP3    H235908   1.632   2.419  18.883
 3905TIP3   OH235909   1.636   2.633  19.255
 3905TIP3    H135910   1.677   2.548  19.270
 3905TIP3    H235911   1.702   2.685  19.210
 3906TIP3   OH235912   1.728   2.754  19.677
 3906TIP3    H135913   1.817   2.754  19.711
 3906TIP3    H235914   1.694   2.667  19.698
 3907TIP3   OH235915   1.738   2.391  19.330
 3907TIP3    H135916   1.787   2.359  19.406
 3907TIP3    H235917   1.695   2.313  19.295
 3908TIP3   OH235918   0.281   2.373  19.731
 3908TIP3    H135919   0.343   2.303  19.745
 3908TIP3    H235920   0.318   2.449  19.777
 3909TIP3   OH235921   0.008   2.740  19.850
 3909TIP3    H135922   0.093   2.718  19.812
 3909TIP3    H235923   0.005   2.836  19.850
 3910TIP3   OH235924   1.921   2.298  18.996
 3910TIP3    H135925   1.959   2.253  18.921
 3910TIP3    H235926   1.981   2.371  19.013
 3911TIP3   OH235927   0.097   2.370  19.302
 3911TIP3    H135928   0.002   2.367  19.292
 3911TIP3    H235929   0.124   2.448  19.254
 3912TIP3   OH235930   1.678   4.018  19.540
 3912TIP3    H135931   1.753   4.005  19.482
 3912TIP3    H235932   1.680   4.112  19.561
 3913TIP3   OH235933   0.343   3.998  19.882
 3913TIP3    H135934   0.378   3.992  19.971
 3913TIP3    H235935   0.394   3.935  19.831
 3914TIP3   OH235936   0.483   3.807  19.745
 3914TIP3    H135937   0.461   3.715  19.736
 3914TIP3    H235938   0.568   3.808  19.789
 3915TIP3   OH235939   0.715   3.763  19.881
 3915TIP3    H135940   0.734   3.676  19.845
 3915TIP3    H235941   0.794   3.786  19.930
 3916TIP3   OH235942   1.203   2.297  19.737
 3916TIP3    H135943   1.136   2.229  19.746
 3916TIP3    H235944   1.278   2.251  19.699
 3917TIP3   OH235945   1.678   2.107  19.647
 3917TIP3    H135946   1.738   2.173  19.614
 3917TIP3    H235947   1.591   2.145  19.636
 3918TIP3   OH235948   1.880   2.277  19.540
 3918TIP3    H135949   1.926   2.194  19.531
 3918TIP3    H235950   1.949   2.342  19.552
 3919TIP3   OH235951   0.388   2.118  19.485
 3919TIP3    H135952   0.296   2.091  19.480
 3919TIP3    H235953   0.437   2.037  19.470
 3920TIP3   OH235954   0.261   2.187  19.160
 3920TIP3    H135955   0.322   2.242  19.112
 3920TIP3    H235956   0.210   2.247  19.214
 3921TIP3   OH235957   0.904   2.062  19.474
 3921TIP3    H135958   0.962   2.114  19.418
 3921TIP3    H235959   0.931   2.083  19.563
 3922TIP3   OH235960   1.413   2.179  19.594
 3922TIP3    H135961   1.397   2.208  19.504
 3922TIP3    H235962   1.366   2.095  19.601
 3923TIP3   OH235963   1.588   2.172  19.249
 3923TIP3    H135964   1.512   2.222  19.280
 3923TIP3    H235965   1.558   2.081  19.247
 3924TIP3   OH235966   0.286   3.981  19.109
 3924TIP3    H135967   0.210   3.970  19.053
 3924TIP3    H235968   0.287   4.074  19.130
 3925TIP3   OH235969   0.463   2.320  19.014
 3925TIP3    H135970   0.508   2.258  18.956
 3925TIP3    H235971   0.530   2.346  19.077
 3926TIP3   OH235972   0.923   2.390  19.206
 3926TIP3    H135973   0.974   2.321  19.248
 3926TIP3    H235974   0.944   2.469  19.256
 3927TIP3   OH235975   1.185   3.903  18.985
 3927TIP3    H135976   1.276   3.929  18.969
 3927TIP3    H235977   1.156   3.863  18.902
 3928TIP3   OH235978   1.878   3.985  19.351
 3928TIP3    H135979   1.866   3.895  19.322
 3928TIP3    H235980   1.850   4.038  19.276
 3929TIP3   OH235981   0.454   3.992  18.868
 3929TIP3    H135982   0.421   3.970  18.955
 3929TIP3    H235983   0.523   3.927  18.852
 3930TIP3   OH235984   3.445   3.154  19.465
 3930TIP3    H135985   3.411   3.242  19.447
 3930TIP3    H235986   3.382   3.095  19.426
 3931TIP3   OH235987   3.197   3.103  19.755
 3931TIP3    H135988   3.292   3.096  19.764
 3931TIP3    H235989   3.169   3.015  19.728
 3932TIP3   OH235990   3.669   3.454  19.634
 3932TIP3    H135991   3.640   3.373  19.674
 3932TIP3    H235992   3.673   3.517  19.706
 3933TIP3   OH235993   2.602   3.527  19.695
 3933TIP3    H135994   2.559   3.443  19.709
 3933TIP3    H235995   2.690   3.516  19.730
 3934TIP3   OH235996   2.235   2.669  19.430
 3934TIP3    H135997   2.170   2.713  19.376
 3934TIP3    H235998   2.192   2.589  19.460
 3935TIP3   OH235999   2.250   3.058  19.699
 3935TIP3    H136000   2.253   2.963  19.696
 3935TIP3    H236001   2.340   3.085  19.677
 3936TIP3   OH236002   3.485   3.941  19.675
 3936TIP3    H136003   3.497   3.886  19.597
 3936TIP3    H236004   3.536   3.897  19.743
 3937TIP3   OH236005   3.096   3.359  19.771
 3937TIP3    H136006   3.115   3.266  19.769
 3937TIP3    H236007   3.179   3.402  19.754
 3938TIP3   OH236008   3.430   2.770  19.787
 3938TIP3    H136009   3.439   2.686  19.832
 3938TIP3    H236010   3.401   2.746  19.698
 3939TIP3   OH236011   2.649   2.507  19.624
 3939TIP3    H136012   2.698   2.583  19.592
 3939TIP3    H236013   2.623   2.460  19.545
 3940TIP3   OH236014   3.566   2.565  19.457
 3940TIP3    H136015   3.609   2.550  19.540
 3940TIP3    H236016   3.635   2.598  19.399
 3941TIP3   OH236017   2.257   2.778  19.688
 3941TIP3    H136018   2.322   2.724  19.733
 3941TIP3    H236019   2.255   2.744  19.599
 3942TIP3   OH236020   2.875   2.918  19.640
 3942TIP3    H136021   2.964   2.888  19.658
 3942TIP3    H236022   2.832   2.843  19.600
 3943TIP3   OH236023   3.332   3.386  19.385
 3943TIP3    H136024   3.290   3.406  19.300
 3943TIP3    H236025   3.340   3.472  19.427
 3944TIP3   OH236026   3.671   2.546  19.707
 3944TIP3    H136027   3.604   2.530  19.772
 3944TIP3    H236028   3.733   2.606  19.750
 3945TIP3   OH236029   2.458   2.612  19.794
 3945TIP3    H136030   2.500   2.627  19.878
 3945TIP3    H236031   2.527   2.577  19.738
 3946TIP3   OH236032   2.200   3.381  19.194
 3946TIP3    H136033   2.200   3.444  19.122
 3946TIP3    H236034   2.198   3.435  19.273
 3947TIP3   OH236035   3.702   3.660  19.823
 3947TIP3    H136036   3.728   3.650  19.914
 3947TIP3    H236037   3.732   3.748  19.799
 3948TIP3   OH236038   3.011   2.222  19.699
 3948TIP3    H136039   3.015   2.126  19.707
 3948TIP3    H236040   2.921   2.244  19.723
 3949TIP3   OH236041   3.566   3.804  19.438
 3949TIP3    H136042   3.610   3.722  19.420
 3949TIP3    H236043   3.637   3.867  19.453
 3950TIP3   OH236044   3.717   3.575  19.395
 3950TIP3    H136045   3.730   3.502  19.335
 3950TIP3    H236046   3.700   3.534  19.480
 3951TIP3   OH236047   3.294   3.045  19.219
 3951TIP3    H136048   3.265   3.136  19.205
 3951TIP3    H236049   3.385   3.044  19.187
 3952TIP3   OH236050   3.212   2.962  18.940
 3952TIP3    H136051   3.237   2.953  19.032
 3952TIP3    H236052   3.264   2.896  18.895
 3953TIP3   OH236053   3.692   3.134  19.337
 3953TIP3    H136054   3.613   3.147  19.389
 3953TIP3    H236055   3.751   3.086  19.394
 3954TIP3   OH236056   2.731   3.089  19.465
 3954TIP3    H136057   2.789   3.162  19.445
 3954TIP3    H236058   2.782   3.032  19.523
 3955TIP3   OH236059   2.875   3.520  19.748
 3955TIP3    H136060   2.889   3.547  19.658
 3955TIP3    H236061   2.946   3.459  19.767
 3956TIP3   OH236062   2.723   3.056  19.825
 3956TIP3    H136063   2.779   3.006  19.766
 3956TIP3    H236064   2.779   3.077  19.899
 3957TIP3   OH236065   3.551   3.017  19.129
 3957TIP3    H136066   3.611   3.059  19.190
 3957TIP3    H236067   3.583   3.042  19.042
 3958TIP3   OH236068   3.324   3.659  19.431
 3958TIP3    H136069   3.401   3.714  19.438
 3958TIP3    H236070   3.272   3.698  19.361
 3959TIP3   OH236071   3.879   2.057  19.133
 3959TIP3    H136072   3.794   2.088  19.165
 3959TIP3    H236073   3.926   2.137  19.110
 3960TIP3   OH236074   2.585   2.998  19.240
 3960TIP3    H136075   2.518   3.063  19.219
 3960TIP3    H236076   2.628   3.032  19.319
 3961TIP3   OH236077   4.148   3.696  18.888
 3961TIP3    H136078   4.122   3.786  18.910
 3961TIP3    H236079   4.227   3.681  18.940
 3962TIP3   OH236080   2.231   3.691  19.750
 3962TIP3    H136081   2.307   3.634  19.759
 3962TIP3    H236082   2.157   3.636  19.777
 3963TIP3   OH236083   3.215   4.079  19.296
 3963TIP3    H136084   3.196   4.061  19.204
 3963TIP3    H236085   3.208   4.174  19.304
 3964TIP3   OH236086   2.543   3.970  19.495
 3964TIP3    H136087   2.547   3.918  19.576
 3964TIP3    H236088   2.483   3.920  19.439
 3965TIP3   OH236089   3.498   3.994  18.992
 3965TIP3    H136090   3.550   3.916  18.972
 3965TIP3    H236091   3.508   4.006  19.087
 3966TIP3   OH236092   3.486   4.014  19.269
 3966TIP3    H136093   3.395   4.031  19.294
 3966TIP3    H236094   3.512   3.940  19.325
 3967TIP3   OH236095   2.747   2.278  19.746
 3967TIP3    H136096   2.666   2.228  19.751
 3967TIP3    H236097   2.719   2.364  19.715
 3968TIP3   OH236098   3.635   3.094  18.877
 3968TIP3    H136099   3.643   3.078  18.783
 3968TIP3    H236100   3.719   3.133  18.902
 3969TIP3   OH236101   3.192   2.473  18.988
 3969TIP3    H136102   3.112   2.442  19.030
 3969TIP3    H236103   3.219   2.401  18.931
 3970TIP3   OH236104   2.730   2.735  19.491
 3970TIP3    H136105   2.638   2.734  19.465
 3970TIP3    H236106   2.779   2.729  19.409
 3971TIP3   OH236107   3.270   2.781  19.293
 3971TIP3    H136108   3.262   2.875  19.275
 3971TIP3    H236109   3.351   2.755  19.248
 3972TIP3   OH236110   3.333   2.690  19.542
 3972TIP3    H136111   3.306   2.728  19.458
 3972TIP3    H236112   3.409   2.636  19.521
 3973TIP3   OH236113   2.886   2.462  18.900
 3973TIP3    H136114   2.866   2.450  18.993
 3973TIP3    H236115   2.815   2.518  18.868
 3974TIP3   OH236116   2.116   2.432  19.510
 3974TIP3    H136117   2.181   2.410  19.577
 3974TIP3    H236118   2.137   2.374  19.437
 3975TIP3   OH236119   2.098   2.504  19.066
 3975TIP3    H136120   2.187   2.527  19.040
 3975TIP3    H236121   2.053   2.589  19.073
 3976TIP3   OH236122   3.116   2.434  19.546
 3976TIP3    H136123   3.060   2.370  19.590
 3976TIP3    H236124   3.190   2.446  19.605
 3977TIP3   OH236125   2.503   2.659  19.339
 3977TIP3    H136126   2.413   2.668  19.370
 3977TIP3    H236127   2.523   2.566  19.349
 3978TIP3   OH236128   2.824   2.717  19.231
 3978TIP3    H136129   2.905   2.679  19.267
 3978TIP3    H236130   2.850   2.752  19.146
 3979TIP3   OH236131   3.448   2.504  19.873
 3979TIP3    H136132   3.454   2.465  19.960
 3979TIP3    H236133   3.389   2.446  19.825
 3980TIP3   OH236134   2.762   2.826  18.984
 3980TIP3    H136135   2.738   2.767  18.912
 3980TIP3    H236136   2.821   2.889  18.943
 3981TIP3   OH236137   3.140   2.830  19.699
 3981TIP3    H136138   3.191   2.780  19.635
 3981TIP3    H236139   3.178   2.806  19.784
 3982TIP3   OH236140   2.584   2.392  19.373
 3982TIP3    H136141   2.541   2.312  19.405
 3982TIP3    H236142   2.640   2.362  19.301
 3983TIP3   OH236143   2.939   3.381  19.165
 3983TIP3    H136144   2.897   3.316  19.109
 3983TIP3    H236145   2.903   3.366  19.252
 3984TIP3   OH236146   3.454   2.501  19.059
 3984TIP3    H136147   3.361   2.508  19.037
 3984TIP3    H236148   3.478   2.590  19.086
 3985TIP3   OH236149   3.519   2.746  19.172
 3985TIP3    H136150   3.602   2.714  19.206
 3985TIP3    H236151   3.535   2.838  19.152
 3986TIP3   OH236152   2.519   3.123  19.653
 3986TIP3    H136153   2.576   3.111  19.577
 3986TIP3    H236154   2.575   3.102  19.728
 3987TIP3   OH236155   3.204   3.475  19.156
 3987TIP3    H136156   3.194   3.568  19.173
 3987TIP3    H236157   3.114   3.442  19.153
 3988TIP3   OH236158   3.977   2.811  19.127
 3988TIP3    H136159   3.937   2.792  19.041
 3988TIP3    H236160   4.003   2.903  19.121
 3989TIP3   OH236161   3.947   3.698  19.296
 3989TIP3    H136162   3.864   3.666  19.330
 3989TIP3    H236163   4.008   3.626  19.308
 3990TIP3   OH236164   3.577   3.194  19.707
 3990TIP3    H136165   3.530   3.180  19.625
 3990TIP3    H236166   3.614   3.109  19.729
 3991TIP3   OH236167   2.796   3.621  19.495
 3991TIP3    H136168   2.812   3.712  19.468
 3991TIP3    H236169   2.713   3.623  19.542
 3992TIP3   OH236170   2.317   2.972  18.964
 3992TIP3    H136171   2.351   3.039  19.024
 3992TIP3    H236172   2.222   2.979  18.972
 3993TIP3   OH236173   2.803   3.360  19.407
 3993TIP3    H136174   2.825   3.449  19.432
 3993TIP3    H236175   2.714   3.347  19.439
 3994TIP3   OH236176   2.804   3.892  19.432
 3994TIP3    H136177   2.721   3.936  19.451
 3994TIP3    H236178   2.871   3.954  19.463
 3995TIP3   OH236179   3.698   3.509  19.013
 3995TIP3    H136180   3.729   3.464  19.091
 3995TIP3    H236181   3.606   3.484  19.005
 3996TIP3   OH236182   4.084   3.972  18.961
 3996TIP3    H136183   4.098   4.044  18.900
 3996TIP3    H236184   4.007   3.999  19.012
 3997TIP3   OH236185   3.798   3.366  19.229
 3997TIP3    H136186   3.757   3.286  19.262
 3997TIP3    H236187   3.892   3.350  19.238
 3998TIP3   OH236188   2.985   3.591  18.803
 3998TIP3    H136189   2.978   3.504  18.765
 3998TIP3    H236190   2.929   3.588  18.880
 3999TIP3   OH236191   2.846   3.612  19.047
 3999TIP3    H136192   2.882   3.537  19.094
 3999TIP3    H236193   2.875   3.688  19.098
 4000TIP3   OH236194   2.400   3.186  19.132
 4000TIP3    H136195   2.325   3.232  19.169
 4000TIP3    H236196   2.437   3.246  19.068
 4001TIP3   OH236197   3.465   2.362  19.297
 4001TIP3    H136198   3.467   2.406  19.212
 4001TIP3    H236199   3.501   2.426  19.358
 4002TIP3   OH236200   3.177   3.748  19.205
 4002TIP3    H136201   3.084   3.771  19.215
 4002TIP3    H236202   3.214   3.819  19.153
 4003TIP3   OH236203   3.052   2.616  19.344
 4003TIP3    H136204   3.129   2.670  19.327
 4003TIP3    H236205   3.075   2.565  19.422
 4004TIP3   OH236206   3.207   2.277  19.335
 4004TIP3    H136207   3.183   2.327  19.413
 4004TIP3    H236208   3.299   2.298  19.321
 4005TIP3   OH236209   2.916   3.837  19.188
 4005TIP3    H136210   2.915   3.920  19.141
 4005TIP3    H236211   2.874   3.856  19.272
 4006TIP3   OH236212   2.752   2.301  19.131
 4006TIP3    H136213   2.833   2.334  19.171
 4006TIP3    H236214   2.782   2.234  19.070
 4007TIP3   OH236215   3.659   2.923  19.735
 4007TIP3    H136216   3.575   2.881  19.753
 4007TIP3    H236217   3.724   2.865  19.777
 4008TIP3   OH236218   2.585   3.645  18.975
 4008TIP3    H136219   2.547   3.694  19.048
 4008TIP3    H236220   2.675   3.628  19.002
 4009TIP3   OH236221   2.446   2.730  19.005
 4009TIP3    H136222   2.393   2.804  18.978
 4009TIP3    H236223   2.433   2.664  18.937
 4010TIP3   OH236224   3.795   3.921  19.783
 4010TIP3    H136225   3.775   4.006  19.744
 4010TIP3    H236226   3.891   3.915  19.781
 4011TIP3   OH236227   2.485   2.178  19.715
 4011TIP3    H136228   2.481   2.163  19.620
 4011TIP3    H236229   2.450   2.097  19.753
 4012TIP3   OH236230   2.345   3.856  19.344
 4012TIP3    H136231   2.282   3.870  19.415
 4012TIP3    H236232   2.304   3.895  19.267
 4013TIP3   OH236233   3.176   3.786  18.825
 4013TIP3    H136234   3.109   3.718  18.818
 4013TIP3    H236235   3.259   3.739  18.816
 4014TIP3   OH236236   3.646   3.771  18.919
 4014TIP3    H136237   3.680   3.691  18.961
 4014TIP3    H236238   3.708   3.790  18.849
 4015TIP3   OH236239   2.719   3.404  18.821
 4015TIP3    H136240   2.728   3.344  18.895
 4015TIP3    H236241   2.791   3.381  18.763
 4016TIP3   OH236242   3.427   3.444  18.995
 4016TIP3    H136243   3.355   3.457  19.058
 4016TIP3    H236244   3.411   3.358  18.958
 4017TIP3   OH236245   2.791   3.198  19.012
 4017TIP3    H136246   2.730   3.137  19.053
 4017TIP3    H236247   2.849   3.143  18.959
 4018TIP3   OH236248   2.944   3.011  18.874
 4018TIP3    H136249   2.948   3.030  18.780
 4018TIP3    H236250   3.035   2.996  18.899
 4019TIP3   OH236251   3.894   3.196  18.901
 4019TIP3    H136252   3.929   3.157  18.821
 4019TIP3    H236253   3.913   3.290  18.893
 4020TIP3   OH236254   2.944   4.059  19.017
 4020TIP3    H136255   3.036   4.034  19.012
 4020TIP3    H236256   2.942   4.150  18.985
 4021TIP3   OH236257   2.212   3.561  18.980
 4021TIP3    H136258   2.278   3.612  18.934
 4021TIP3    H236259   2.182   3.498  18.915
 4022TIP3   OH236260   2.098   4.114  19.456
 4022TIP3    H136261   2.026   4.068  19.413
 4022TIP3    H236262   2.137   4.049  19.514
 4023TIP3   OH236263   2.230   3.918  19.596
 4023TIP3    H136264   2.211   3.834  19.638
 4023TIP3    H236265   2.283   3.966  19.659
 4024TIP3   OH236266   4.070   3.313  19.270
 4024TIP3    H136267   4.139   3.378  19.277
 4024TIP3    H236268   4.078   3.259  19.348
 4025TIP3   OH236269   4.081   3.136  19.479
 4025TIP3    H136270   4.003   3.087  19.507
 4025TIP3    H236271   4.153   3.095  19.526
 4026TIP3   OH236272   4.178   3.464  19.783
 4026TIP3    H136273   4.222   3.379  19.794
 4026TIP3    H236274   4.093   3.441  19.745
 4027TIP3   OH236275   4.063   3.090  19.093
 4027TIP3    H136276   3.996   3.120  19.032
 4027TIP3    H236277   4.062   3.156  19.163
 4028TIP3   OH236278   3.873   2.725  18.888
 4028TIP3    H136279   3.853   2.732  18.794
 4028TIP3    H236280   3.874   2.631  18.905
 4029TIP3   OH236281   3.836   2.982  19.521
 4029TIP3    H136282   3.862   2.891  19.504
 4029TIP3    H236283   3.777   2.975  19.597
 4030TIP3   OH236284   2.132   3.232  19.874
 4030TIP3    H136285   2.164   3.176  19.804
 4030TIP3    H236286   2.188   3.213  19.948
 4031TIP3   OH236287   3.867   2.450  18.930
 4031TIP3    H136288   3.925   2.395  18.982
 4031TIP3    H236289   3.778   2.425  18.958
 4032TIP3   OH236290   3.762   2.645  19.267
 4032TIP3    H136291   3.791   2.555  19.275
 4032TIP3    H236292   3.838   2.691  19.231
 4033TIP3   OH236293   3.836   2.733  19.838
 4033TIP3    H136294   3.921   2.758  19.801
 4033TIP3    H236295   3.855   2.713  19.930
 4034TIP3   OH236296   3.817   2.376  19.313
 4034TIP3    H136297   3.888   2.341  19.367
 4034TIP3    H236298   3.764   2.300  19.290
 4035TIP3   OH236299   2.314   2.394  19.691
 4035TIP3    H136300   2.371   2.320  19.710
 4035TIP3    H236301   2.353   2.467  19.739
 4036TIP3   OH236302   1.986   2.789  19.769
 4036TIP3    H136303   2.076   2.776  19.741
 4036TIP3    H236304   1.992   2.850  19.842
 4037TIP3   OH236305   4.033   2.272  19.054
 4037TIP3    H136306   4.082   2.224  18.987
 4037TIP3    H236307   4.101   2.308  19.111
 4038TIP3   OH236308   2.119   2.307  19.260
 4038TIP3    H136309   2.037   2.258  19.266
 4038TIP3    H236310   2.101   2.378  19.200
 4039TIP3   OH236311   3.756   3.993  19.468
 4039TIP3    H136312   3.841   3.986  19.425
 4039TIP3    H236313   3.767   4.064  19.532
 4040TIP3   OH236314   2.393   3.993  19.810
 4040TIP3    H136315   2.342   3.951  19.879
 4040TIP3    H236316   2.459   3.928  19.786
 4041TIP3   OH236317   2.575   3.804  19.723
 4041TIP3    H136318   2.562   3.710  19.709
 4041TIP3    H236319   2.656   3.810  19.774
 4042TIP3   OH236320   2.806   3.761  19.865
 4042TIP3    H136321   2.835   3.676  19.832
 4042TIP3    H236322   2.867   3.781  19.936
 4043TIP3   OH236323   3.278   2.325  19.751
 4043TIP3    H136324   3.190   2.287  19.759
 4043TIP3    H236325   3.329   2.258  19.706
 4044TIP3   OH236326   3.822   2.146  19.645
 4044TIP3    H136327   3.888   2.182  19.586
 4044TIP3    H236328   3.782   2.223  19.685
 4045TIP3   OH236329   4.014   2.255  19.476
 4045TIP3    H136330   4.071   2.179  19.464
 4045TIP3    H236331   4.073   2.329  19.486
 4046TIP3   OH236332   2.480   2.142  19.437
 4046TIP3    H136333   2.426   2.131  19.359
 4046TIP3    H236334   2.517   2.055  19.453
 4047TIP3   OH236335   2.341   2.159  19.193
 4047TIP3    H136336   2.388   2.209  19.127
 4047TIP3    H236337   2.267   2.215  19.218
 4048TIP3   OH236338   3.017   1.995  19.508
 4048TIP3    H136339   3.093   1.971  19.456
 4048TIP3    H236340   3.018   2.091  19.509
 4049TIP3   OH236341   3.403   2.126  19.612
 4049TIP3    H136342   3.485   2.129  19.562
 4049TIP3    H236343   3.380   2.033  19.614
 4050TIP3   OH236344   3.645   2.157  19.248
 4050TIP3    H136345   3.577   2.223  19.264
 4050TIP3    H236346   3.599   2.073  19.255
 4051TIP3   OH236347   2.242   3.983  19.117
 4051TIP3    H136348   2.152   3.978  19.087
 4051TIP3    H236349   2.261   4.077  19.121
 4052TIP3   OH236350   2.507   2.292  19.002
 4052TIP3    H136351   2.531   2.232  18.932
 4052TIP3    H236352   2.586   2.300  19.055
 4053TIP3   OH236353   3.002   2.395  19.188
 4053TIP3    H136354   3.066   2.333  19.224
 4053TIP3    H236355   3.016   2.475  19.238
 4054TIP3   OH236356   3.218   3.971  19.024
 4054TIP3    H136357   3.309   3.995  19.009
 4054TIP3    H236358   3.197   3.909  18.954
 4055TIP3   OH236359   3.992   3.967  19.325
 4055TIP3    H136360   3.983   3.873  19.308
 4055TIP3    H236361   3.960   4.009  19.245
 4056TIP3   OH236362   2.409   3.921  18.904
 4056TIP3    H136363   2.365   3.941  18.986
 4056TIP3    H236364   2.501   3.942  18.921
 4057TIP3   OH236365   5.579   3.219  19.476
 4057TIP3    H136366   5.528   3.293  19.443
 4057TIP3    H236367   5.517   3.170  19.530
 4058TIP3   OH236368   5.399   3.045  19.781
 4058TIP3    H136369   5.412   2.953  19.804
 4058TIP3    H236370   5.305   3.053  19.767
 4059TIP3   OH236371   5.752   3.344  19.657
 4059TIP3    H136372   5.726   3.279  19.723
 4059TIP3    H236373   5.717   3.309  19.575
 4060TIP3   OH236374   4.615   3.539  19.762
 4060TIP3    H136375   4.589   3.447  19.768
 4060TIP3    H236376   4.711   3.537  19.764
 4061TIP3   OH236377   4.238   2.713  19.406
 4061TIP3    H136378   4.211   2.804  19.421
 4061TIP3    H236379   4.229   2.701  19.311
 4062TIP3   OH236380   4.308   3.020  19.605
 4062TIP3    H136381   4.317   2.934  19.645
 4062TIP3    H236382   4.396   3.044  19.579
 4063TIP3   OH236383   5.480   4.038  19.638
 4063TIP3    H136384   5.523   3.978  19.578
 4063TIP3    H236385   5.407   3.988  19.674
 4064TIP3   OH236386   5.066   3.336  19.698
 4064TIP3    H136387   5.049   3.241  19.702
 4064TIP3    H236388   5.158   3.345  19.723
 4065TIP3   OH236389   5.453   2.770  19.808
 4065TIP3    H136390   5.483   2.686  19.840
 4065TIP3    H236391   5.472   2.768  19.714
 4066TIP3   OH236392   4.704   2.469  19.675
 4066TIP3    H136393   4.748   2.547  19.639
 4066TIP3    H236394   4.661   2.430  19.599
 4067TIP3   OH236395   5.669   2.567  19.427
 4067TIP3    H136396   5.694   2.551  19.518
 4067TIP3    H236397   5.748   2.601  19.386
 4068TIP3   OH236398   4.358   2.766  19.705
 4068TIP3    H136399   4.405   2.723  19.777
 4068TIP3    H236400   4.396   2.728  19.626
 4069TIP3   OH236401   4.796   2.950  19.640
 4069TIP3    H136402   4.888   2.967  19.657
 4069TIP3    H236403   4.794   2.858  19.611
 4070TIP3   OH236404   5.454   3.448  19.385
 4070TIP3    H136405   5.433   3.434  19.293
 4070TIP3    H236406   5.408   3.528  19.409
 4071TIP3   OH236407   5.731   2.554  19.691
 4071TIP3    H136408   5.664   2.534  19.756
 4071TIP3    H236409   5.795   2.608  19.738
 4072TIP3   OH236410   4.529   2.594  19.849
 4072TIP3    H136411   4.580   2.617  19.926
 4072TIP3    H236412   4.592   2.552  19.790
 4073TIP3   OH236413   4.270   3.525  19.256
 4073TIP3    H136414   4.292   3.552  19.167
 4073TIP3    H236415   4.297   3.598  19.311
 4074TIP3   OH236416   5.950   3.456  19.814
 4074TIP3    H136417   5.891   3.501  19.874
 4074TIP3    H236418   5.893   3.422  19.745
 4075TIP3   OH236419   4.950   2.041  19.758
 4075TIP3    H136420   4.918   1.959  19.795
 4075TIP3    H236421   4.883   2.106  19.779
 4076TIP3   OH236422   5.605   3.848  19.474
 4076TIP3    H136423   5.615   3.756  19.500
 4076TIP3    H236424   5.693   3.884  19.481
 4077TIP3   OH236425   5.646   3.583  19.542
 4077TIP3    H136426   5.586   3.533  19.486
 4077TIP3    H236427   5.691   3.516  19.594
 4078TIP3   OH236428   5.317   3.064  19.205
 4078TIP3    H136429   5.259   3.139  19.192
 4078TIP3    H236430   5.386   3.076  19.139
 4079TIP3   OH236431   5.459   2.902  18.816
 4079TIP3    H136432   5.477   2.943  18.900
 4079TIP3    H236433   5.525   2.833  18.808
 4080TIP3   OH236434   5.725   3.100  19.275
 4080TIP3    H136435   5.673   3.139  19.345
 4080TIP3    H236436   5.783   3.038  19.320
 4081TIP3   OH236437   4.571   3.089  19.563
 4081TIP3    H136438   4.578   3.097  19.468
 4081TIP3    H236439   4.649   3.038  19.587
 4082TIP3   OH236440   4.893   3.548  19.733
 4082TIP3    H136441   4.895   3.577  19.642
 4082TIP3    H236442   4.949   3.469  19.734
 4083TIP3   OH236443   4.797   3.120  19.860
 4083TIP3    H136444   4.779   3.053  19.795
 4083TIP3    H236445   4.892   3.119  19.870
 4084TIP3   OH236446   5.580   3.006  19.055
 4084TIP3    H136447   5.622   3.042  19.133
 4084TIP3    H236448   5.643   3.021  18.985
 4085TIP3   OH236449   5.361   3.703  19.409
 4085TIP3    H136450   5.428   3.771  19.418
 4085TIP3    H236451   5.322   3.719  19.323
 4086TIP3   OH236452   5.975   2.085  19.140
 4086TIP3    H136453   5.893   2.116  19.178
 4086TIP3    H236454   6.016   2.164  19.104
 4087TIP3   OH236455   4.574   3.109  19.290
 4087TIP3    H136456   4.526   3.178  19.246
 4087TIP3    H236457   4.624   3.066  19.221
 4088TIP3   OH236458   6.179   3.640  19.009
 4088TIP3    H136459   6.187   3.735  19.001
 4088TIP3    H236460   6.268   3.607  19.004
 4089TIP3   OH236461   4.361   3.668  19.768
 4089TIP3    H136462   4.443   3.619  19.772
 4089TIP3    H236463   4.293   3.602  19.779
 4090TIP3   OH236464   5.322   4.098  19.276
 4090TIP3    H136465   5.254   4.078  19.211
 4090TIP3    H236466   5.286   4.171  19.326
 4091TIP3   OH236467   4.581   3.937  19.462
 4091TIP3    H136468   4.599   3.894  19.546
 4091TIP3    H236469   4.520   3.877  19.418
 4092TIP3   OH236470   5.591   3.957  18.967
 4092TIP3    H136471   5.637   3.876  18.943
 4092TIP3    H236472   5.595   3.959  19.063
 4093TIP3   OH236473   5.583   4.013  19.243
 4093TIP3    H136474   5.493   4.046  19.252
 4093TIP3    H236475   5.593   3.953  19.317
 4094TIP3   OH236476   4.746   2.222  19.799
 4094TIP3    H136477   4.653   2.201  19.790
 4094TIP3    H236478   4.754   2.311  19.767
 4095TIP3   OH236479   5.766   3.044  18.860
 4095TIP3    H136480   5.758   3.040  18.765
 4095TIP3    H236481   5.855   3.076  18.875
 4096TIP3   OH236482   5.228   2.381  19.023
 4096TIP3    H136483   5.171   2.394  19.099
 4096TIP3    H236484   5.182   2.316  18.969
 4097TIP3   OH236485   4.756   2.699  19.528
 4097TIP3    H136486   4.662   2.692  19.509
 4097TIP3    H236487   4.798   2.694  19.442
 4098TIP3   OH236488   5.343   2.817  19.326
 4098TIP3    H136489   5.322   2.906  19.299
 4098TIP3    H236490   5.402   2.784  19.258
 4099TIP3   OH236491   5.514   2.766  19.542
 4099TIP3    H136492   5.444   2.796  19.484
 4099TIP3    H236493   5.553   2.692  19.496
 4100TIP3   OH236494   4.886   2.452  18.924
 4100TIP3    H136495   4.857   2.450  19.015
 4100TIP3    H236496   4.815   2.497  18.878
 4101TIP3   OH236497   4.205   2.451  19.487
 4101TIP3    H136498   4.254   2.436  19.567
 4101TIP3    H236499   4.206   2.546  19.475
 4102TIP3   OH236500   4.217   2.666  19.138
 4102TIP3    H136501   4.280   2.717  19.087
 4102TIP3    H236502   4.133   2.709  19.121
 4103TIP3   OH236503   5.255   2.489  19.596
 4103TIP3    H136504   5.226   2.566  19.645
 4103TIP3    H236505   5.310   2.441  19.658
 4104TIP3   OH236506   4.490   2.639  19.487
 4104TIP3    H136507   4.407   2.656  19.443
 4104TIP3    H236508   4.506   2.545  19.472
 4105TIP3   OH236509   4.890   2.682  19.286
 4105TIP3    H136510   4.977   2.666  19.324
 4105TIP3    H236511   4.904   2.756  19.226
 4106TIP3   OH236512   5.529   2.510  19.877
 4106TIP3    H136513   5.515   2.490  19.969
 4106TIP3    H236514   5.486   2.439  19.830
 4107TIP3   OH236515   4.650   2.852  18.880
 4107TIP3    H136516   4.653   2.761  18.852
 4107TIP3    H236517   4.742   2.879  18.882
 4108TIP3   OH236518   5.191   2.725  19.722
 4108TIP3    H136519   5.139   2.805  19.717
 4108TIP3    H236520   5.270   2.751  19.769
 4109TIP3   OH236521   4.579   2.378  19.440
 4109TIP3    H136522   4.529   2.297  19.449
 4109TIP3    H236523   4.632   2.364  19.361
 4110TIP3   OH236524   5.131   3.283  19.156
 4110TIP3    H136525   5.069   3.243  19.095
 4110TIP3    H236526   5.076   3.327  19.221
 4111TIP3   OH236527   5.485   2.474  19.046
 4111TIP3    H136528   5.393   2.448  19.033
 4111TIP3    H236529   5.481   2.568  19.062
 4112TIP3   OH236530   5.534   2.742  19.140
 4112TIP3    H136531   5.624   2.718  19.163
 4112TIP3    H236532   5.542   2.828  19.098
 4113TIP3   OH236533   4.578   3.264  19.776
 4113TIP3    H136534   4.576   3.213  19.695
 4113TIP3    H236535   4.651   3.228  19.826
 4114TIP3   OH236536   5.347   3.452  19.126
 4114TIP3    H136537   5.313   3.542  19.129
 4114TIP3    H236538   5.270   3.397  19.133
 4115TIP3   OH236539   6.054   2.748  19.090
 4115TIP3    H136540   6.002   2.740  19.010
 4115TIP3    H236541   6.096   2.833  19.083
 4116TIP3   OH236542   6.036   3.673  19.243
 4116TIP3    H136543   5.962   3.611  19.249
 4116TIP3    H236544   6.077   3.653  19.159
 4117TIP3   OH236545   5.664   3.124  19.792
 4117TIP3    H136546   5.570   3.110  19.802
 4117TIP3    H236547   5.695   3.048  19.744
 4118TIP3   OH236548   4.859   3.646  19.476
 4118TIP3    H136549   4.879   3.739  19.461
 4118TIP3    H236550   4.764   3.639  19.461
 4119TIP3   OH236551   4.322   3.123  18.985
 4119TIP3    H136552   4.362   3.182  19.050
 4119TIP3    H236553   4.235   3.103  19.022
 4120TIP3   OH236554   4.990   3.433  19.353
 4120TIP3    H136555   4.953   3.508  19.399
 4120TIP3    H236556   5.017   3.373  19.423
 4121TIP3   OH236557   4.862   3.919  19.418
 4121TIP3    H136558   4.771   3.946  19.426
 4121TIP3    H236559   4.912   3.996  19.445
 4122TIP3   OH236560   5.774   3.467  18.953
 4122TIP3    H136561   5.802   3.414  19.028
 4122TIP3    H236562   5.688   3.433  18.930
 4123TIP3   OH236563   6.209   3.917  19.003
 4123TIP3    H136564   6.227   3.949  18.915
 4123TIP3    H236565   6.142   3.976  19.037
 4124TIP3   OH236566   5.874   3.306  19.156
 4124TIP3    H136567   5.815   3.239  19.191
 4124TIP3    H236568   5.962   3.272  19.174
 4125TIP3   OH236569   4.985   3.646  18.867
 4125TIP3    H136570   4.984   3.564  18.818
 4125TIP3    H236571   4.956   3.621  18.955
 4126TIP3   OH236572   4.890   3.591  19.131
 4126TIP3    H136573   4.928   3.532  19.196
 4126TIP3    H236574   4.924   3.677  19.154
 4127TIP3   OH236575   4.440   3.313  19.155
 4127TIP3    H136576   4.384   3.369  19.208
 4127TIP3    H236577   4.511   3.370  19.125
 4128TIP3   OH236578   5.537   2.365  19.298
 4128TIP3    H136579   5.518   2.398  19.210
 4128TIP3    H236580   5.575   2.439  19.344
 4129TIP3   OH236581   5.252   3.721  19.152
 4129TIP3    H136582   5.163   3.749  19.171
 4129TIP3    H236583   5.284   3.781  19.085
 4130TIP3   OH236584   5.145   2.631  19.377
 4130TIP3    H136585   5.208   2.701  19.361
 4130TIP3    H236586   5.174   2.592  19.460
 4131TIP3   OH236587   5.288   2.288  19.402
 4131TIP3    H136588   5.273   2.353  19.470
 4131TIP3    H236589   5.374   2.310  19.366
 4132TIP3   OH236590   5.004   3.839  19.195
 4132TIP3    H136591   5.031   3.920  19.152
 4132TIP3    H236592   4.956   3.867  19.273
 4133TIP3   OH236593   4.804   2.433  19.189
 4133TIP3    H136594   4.810   2.521  19.225
 4133TIP3    H236595   4.888   2.392  19.214
 4134TIP3   OH236596   5.737   2.893  19.651
 4134TIP3    H136597   5.656   2.850  19.624
 4134TIP3    H236598   5.775   2.833  19.715
 4135TIP3   OH236599   4.633   3.491  19.054
 4135TIP3    H136600   4.706   3.539  19.092
 4135TIP3    H236601   4.673   3.438  18.984
 4136TIP3   OH236602   4.392   2.841  19.012
 4136TIP3    H136603   4.480   2.833  18.976
 4136TIP3    H236604   4.371   2.934  19.006
 4137TIP3   OH236605   6.054   3.960  19.845
 4137TIP3    H136606   6.015   4.027  19.788
 4137TIP3    H236607   5.985   3.939  19.908
 4138TIP3   OH236608   4.478   2.177  19.741
 4138TIP3    H136609   4.470   2.164  19.646
 4138TIP3    H236610   4.450   2.094  19.779
 4139TIP3   OH236611   4.355   3.786  19.352
 4139TIP3    H136612   4.316   3.823  19.431
 4139TIP3    H236613   4.333   3.850  19.283
 4140TIP3   OH236614   5.208   3.765  18.739
 4140TIP3    H136615   5.137   3.724  18.788
 4140TIP3    H236616   5.286   3.713  18.761
 4141TIP3   OH236617   5.723   3.731  18.872
 4141TIP3    H136618   5.746   3.644  18.904
 4141TIP3    H236619   5.793   3.753  18.810
 4142TIP3   OH236620   4.766   3.338  18.867
 4142TIP3    H136621   4.813   3.271  18.916
 4142TIP3    H236622   4.831   3.375  18.808
 4143TIP3   OH236623   5.503   3.389  18.902
 4143TIP3    H136624   5.452   3.399  18.983
 4143TIP3    H236625   5.463   3.315  18.857
 4144TIP3   OH236626   4.958   3.161  18.970
 4144TIP3    H136627   4.940   3.067  18.978
 4144TIP3    H236628   5.003   3.170  18.886
 4145TIP3   OH236629   4.930   2.896  18.865
 4145TIP3    H136630   4.972   2.958  18.805
 4145TIP3    H236631   4.980   2.815  18.854
 4146TIP3   OH236632   6.029   3.147  18.859
 4146TIP3    H136633   6.044   3.140  18.765
 4146TIP3    H236634   6.030   3.242  18.876
 4147TIP3   OH236635   5.120   4.071  19.082
 4147TIP3    H136636   5.181   4.024  19.025
 4147TIP3    H236637   5.093   4.147  19.030
 4148TIP3   OH236638   4.371   3.577  19.002
 4148TIP3    H136639   4.465   3.573  19.019
 4148TIP3    H236640   4.355   3.507  18.939
 4149TIP3   OH236641   4.193   4.093  19.464
 4149TIP3    H136642   4.131   4.052  19.403
 4149TIP3    H236643   4.221   4.022  19.521
 4150TIP3   OH236644   4.297   3.885  19.611
 4150TIP3    H136645   4.302   3.799  19.653
 4150TIP3    H236646   4.348   3.942  19.669
 4151TIP3   OH236647   6.126   3.196  19.234
 4151TIP3    H136648   6.196   3.260  19.240
 4151TIP3    H236649   6.138   3.140  19.311
 4152TIP3   OH236650   6.141   3.002  19.434
 4152TIP3    H136651   6.050   2.976  19.425
 4152TIP3    H236652   6.153   3.017  19.528
 4153TIP3   OH236653   6.212   3.561  19.828
 4153TIP3    H136654   6.254   3.474  19.832
 4153TIP3    H236655   6.119   3.542  19.815
 4154TIP3   OH236656   6.170   3.002  19.043
 4154TIP3    H136657   6.121   3.037  18.969
 4154TIP3    H236658   6.152   3.063  19.115
 4155TIP3   OH236659   5.925   2.696  18.853
 4155TIP3    H136660   5.947   2.725  18.764
 4155TIP3    H236661   5.926   2.601  18.848
 4156TIP3   OH236662   5.882   2.914  19.419
 4156TIP3    H136663   5.882   2.824  19.387
 4156TIP3    H236664   5.832   2.911  19.500
 4157TIP3   OH236665   4.304   3.220  19.798
 4157TIP3    H136666   4.302   3.156  19.726
 4157TIP3    H236667   4.397   3.240  19.808
 4158TIP3   OH236668   5.908   2.423  18.844
 4158TIP3    H136669   5.936   2.371  18.919
 4158TIP3    H236670   5.814   2.404  18.835
 4159TIP3   OH236671   5.903   2.655  19.308
 4159TIP3    H136672   5.932   2.565  19.322
 4159TIP3    H236673   5.955   2.686  19.234
 4160TIP3   OH236674   5.885   2.736  19.829
 4160TIP3    H136675   5.976   2.738  19.801
 4160TIP3    H236676   5.889   2.751  19.924
 4161TIP3   OH236677   5.959   2.379  19.360
 4161TIP3    H136678   5.981   2.334  19.442
 4161TIP3    H236679   5.893   2.322  19.319
 4162TIP3   OH236680   4.351   2.423  19.716
 4162TIP3    H136681   4.392   2.338  19.734
 4162TIP3    H236682   4.399   2.485  19.770
 4163TIP3   OH236683   4.086   2.820  19.773
 4163TIP3    H136684   4.174   2.791  19.750
 4163TIP3    H236685   4.099   2.901  19.822
 4164TIP3   OH236686   6.098   2.296  19.016
 4164TIP3    H136687   6.141   2.254  18.942
 4164TIP3    H236688   6.148   2.376  19.031
 4165TIP3   OH236689   4.227   2.395  19.211
 4165TIP3    H136690   4.223   2.402  19.307
 4165TIP3    H236691   4.230   2.486  19.181
 4166TIP3   OH236692   5.851   3.957  19.497
 4166TIP3    H136693   5.929   3.944  19.444
 4166TIP3    H236694   5.880   4.011  19.570
 4167TIP3   OH236695   4.464   3.981  19.812
 4167TIP3    H136696   4.423   3.928  19.881
 4167TIP3    H236697   4.533   3.926  19.776
 4168TIP3   OH236698   4.648   3.811  19.701
 4168TIP3    H136699   4.623   3.719  19.715
 4168TIP3    H236700   4.730   3.821  19.749
 4169TIP3   OH236701   4.871   3.789  19.862
 4169TIP3    H136702   4.891   3.705  19.821
 4169TIP3    H236703   4.894   3.776  19.954
 4170TIP3   OH236704   5.414   2.301  19.742
 4170TIP3    H136705   5.347   2.233  19.756
 4170TIP3    H236706   5.487   2.254  19.701
 4171TIP3   OH236707   5.874   2.064  19.702
 4171TIP3    H136708   5.934   2.131  19.671
 4171TIP3    H236709   5.787   2.103  19.693
 4172TIP3   OH236710   6.064   2.245  19.584
 4172TIP3    H136711   6.134   2.187  19.554
 4172TIP3    H236712   6.110   2.320  19.623
 4173TIP3   OH236713   4.449   2.132  19.469
 4173TIP3    H136714   4.359   2.108  19.446
 4173TIP3    H236715   4.498   2.051  19.460
 4174TIP3   OH236716   4.349   2.178  19.088
 4174TIP3    H136717   4.422   2.218  19.040
 4174TIP3    H236718   4.312   2.250  19.140
 4175TIP3   OH236719   5.007   2.021  19.492
 4175TIP3    H136720   5.066   2.093  19.470
 4175TIP3    H236721   4.992   2.031  19.586
 4176TIP3   OH236722   5.608   2.143  19.616
 4176TIP3    H136723   5.620   2.170  19.525
 4176TIP3    H236724   5.563   2.059  19.610
 4177TIP3   OH236725   5.747   2.186  19.264
 4177TIP3    H136726   5.676   2.251  19.272
 4177TIP3    H236727   5.701   2.102  19.257
 4178TIP3   OH236728   4.298   3.976  19.153
 4178TIP3    H136729   4.226   3.966  19.091
 4178TIP3    H236730   4.328   4.066  19.141
 4179TIP3   OH236731   4.565   2.308  18.962
 4179TIP3    H136732   4.610   2.245  18.906
 4179TIP3    H236733   4.632   2.338  19.023
 4180TIP3   OH236734   5.075   2.394  19.255
 4180TIP3    H136735   5.135   2.336  19.301
 4180TIP3    H236736   5.092   2.481  19.292
 4181TIP3   OH236737   5.313   3.917  18.959
 4181TIP3    H136738   5.406   3.936  18.952
 4181TIP3    H236739   5.290   3.878  18.875
 4182TIP3   OH236740   6.073   3.931  19.332
 4182TIP3    H136741   6.065   3.839  19.308
 4182TIP3    H236742   6.059   3.979  19.250
 4183TIP3   OH236743   4.573   4.008  18.858
 4183TIP3    H136744   4.550   3.986  18.948
 4183TIP3    H236745   4.637   3.941  18.832
 4184TIP3   OH236746   7.504   3.181  19.468
 4184TIP3    H136747   7.466   3.269  19.463
 4184TIP3    H236748   7.463   3.133  19.396
 4185TIP3   OH236749   7.330   3.079  19.826
 4185TIP3    H136750   7.333   3.013  19.895
 4185TIP3    H236751   7.288   3.035  19.752
 4186TIP3   OH236752   7.760   3.389  19.663
 4186TIP3    H136753   7.696   3.379  19.734
 4186TIP3    H236754   7.823   3.452  19.696
 4187TIP3   OH236755   6.727   3.547  19.796
 4187TIP3    H136756   6.660   3.478  19.797
 4187TIP3    H236757   6.751   3.559  19.888
 4188TIP3   OH236758   6.308   2.769  19.430
 4188TIP3    H136759   6.251   2.840  19.400
 4188TIP3    H236760   6.262   2.689  19.403
 4189TIP3   OH236761   6.345   2.927  19.661
 4189TIP3    H136762   6.422   2.889  19.703
 4189TIP3    H236763   6.341   2.884  19.575
 4190TIP3   OH236764   7.491   3.931  19.599
 4190TIP3    H136765   7.571   3.895  19.561
 4190TIP3    H236766   7.422   3.870  19.572
 4191TIP3   OH236767   7.203   3.327  19.844
 4191TIP3    H136768   7.243   3.241  19.833
 4191TIP3    H236769   7.246   3.364  19.921
 4192TIP3   OH236770   7.407   2.731  19.758
 4192TIP3    H136771   7.441   2.651  19.799
 4192TIP3    H236772   7.471   2.752  19.690
 4193TIP3   OH236773   6.813   2.503  19.621
 4193TIP3    H136774   6.830   2.592  19.589
 4193TIP3    H236775   6.754   2.466  19.556
 4194TIP3   OH236776   7.735   2.562  19.488
 4194TIP3    H136777   7.768   2.552  19.577
 4194TIP3    H236778   7.811   2.589  19.437
 4195TIP3   OH236779   6.566   2.782  19.741
 4195TIP3    H136780   6.591   2.713  19.802
 4195TIP3    H236781   6.567   2.740  19.655
 4196TIP3   OH236782   6.949   2.987  19.603
 4196TIP3    H136783   7.039   2.960  19.622
 4196TIP3    H236784   6.907   2.908  19.569
 4197TIP3   OH236785   7.415   3.431  19.417
 4197TIP3    H136786   7.421   3.437  19.322
 4197TIP3    H236787   7.413   3.523  19.446
 4198TIP3   OH236788   7.800   2.537  19.757
 4198TIP3    H136789   7.711   2.528  19.789
 4198TIP3    H236790   7.848   2.465  19.799
 4199TIP3   OH236791   6.673   2.551  19.855
 4199TIP3    H136792   6.716   2.510  19.931
 4199TIP3    H236793   6.731   2.531  19.782
 4200TIP3   OH236794   6.328   3.391  19.231
 4200TIP3    H136795   6.349   3.437  19.150
 4200TIP3    H236796   6.296   3.459  19.290
 4201TIP3   OH236797   7.927   3.577  19.771
 4201TIP3    H136798   8.000   3.553  19.829
 4201TIP3    H236799   7.938   3.670  19.755
 4202TIP3   OH236800   7.146   2.155  19.696
 4202TIP3    H136801   7.132   2.063  19.717
 4202TIP3    H236802   7.061   2.197  19.712
 4203TIP3   OH236803   7.670   3.805  19.418
 4203TIP3    H136804   7.705   3.716  19.416
 4203TIP3    H236805   7.745   3.860  19.441
 4204TIP3   OH236806   7.761   3.549  19.428
 4204TIP3    H136807   7.821   3.496  19.375
 4204TIP3    H236808   7.754   3.502  19.511
 4205TIP3   OH236809   7.388   3.079  19.237
 4205TIP3    H136810   7.318   3.141  19.218
 4205TIP3    H236811   7.456   3.098  19.172
 4206TIP3   OH236812   7.414   2.974  18.887
 4206TIP3    H136813   7.452   3.044  18.940
 4206TIP3    H236814   7.477   2.902  18.893
 4207TIP3   OH236815   7.829   3.106  19.384
 4207TIP3    H136816   7.838   3.096  19.289
 4207TIP3    H236817   7.872   3.029  19.420
 4208TIP3   OH236818   6.856   3.224  19.473
 4208TIP3    H136819   6.814   3.182  19.398
 4208TIP3    H236820   6.894   3.152  19.523
 4209TIP3   OH236821   7.035   3.421  19.649
 4209TIP3    H136822   7.102   3.442  19.583
 4209TIP3    H236823   7.084   3.388  19.724
 4210TIP3   OH236824   6.755   3.069  19.784
 4210TIP3    H136825   6.828   3.040  19.729
 4210TIP3    H236826   6.705   2.989  19.802
 4211TIP3   OH236827   7.590   3.126  19.049
 4211TIP3    H136828   7.613   3.219  19.047
 4211TIP3    H236829   7.657   3.083  18.997
 4212TIP3   OH236830   7.409   3.709  19.432
 4212TIP3    H136831   7.499   3.738  19.419
 4212TIP3    H236832   7.368   3.717  19.346
 4213TIP3   OH236833   8.047   2.081  19.143
 4213TIP3    H136834   7.964   2.110  19.181
 4213TIP3    H236835   8.089   2.162  19.113
 4214TIP3   OH236836   6.754   3.088  19.250
 4214TIP3    H136837   6.680   3.136  19.213
 4214TIP3    H236838   6.728   2.996  19.247
 4215TIP3   OH236839   8.186   3.712  18.930
 4215TIP3    H136840   8.158   3.803  18.918
 4215TIP3    H236841   8.281   3.715  18.921
 4216TIP3   OH236842   6.296   3.828  19.822
 4216TIP3    H136843   6.272   3.736  19.831
 4216TIP3    H236844   6.214   3.875  19.835
 4217TIP3   OH236845   7.334   4.077  19.317
 4217TIP3    H136846   7.274   4.063  19.244
 4217TIP3    H236847   7.334   4.172  19.330
 4218TIP3   OH236848   6.697   3.969  19.502
 4218TIP3    H136849   6.697   3.930  19.589
 4218TIP3    H236850   6.645   3.910  19.448
 4219TIP3   OH236851   7.643   3.981  18.973
 4219TIP3    H136852   7.699   3.904  18.962
 4219TIP3    H236853   7.644   3.999  19.067
 4220TIP3   OH236854   7.608   4.020  19.249
 4220TIP3    H136855   7.517   4.039  19.270
 4220TIP3    H236856   7.631   3.944  19.303
 4221TIP3   OH236857   6.898   2.266  19.732
 4221TIP3    H136858   6.814   2.221  19.744
 4221TIP3    H236859   6.874   2.350  19.693
 4222TIP3   OH236860   7.784   3.030  18.871
 4222TIP3    H136861   7.780   3.056  18.779
 4222TIP3    H236862   7.868   3.065  18.902
 4223TIP3   OH236863   7.314   2.407  18.999
 4223TIP3    H136864   7.244   2.435  19.059
 4223TIP3    H236865   7.277   2.333  18.952
 4224TIP3   OH236866   6.823   2.759  19.502
 4224TIP3    H136867   6.729   2.745  19.495
 4224TIP3    H236868   6.858   2.733  19.417
 4225TIP3   OH236869   7.417   2.815  19.322
 4225TIP3    H136870   7.399   2.904  19.291
 4225TIP3    H236871   7.478   2.779  19.258
 4226TIP3   OH236872   7.575   2.779  19.546
 4226TIP3    H136873   7.520   2.797  19.470
 4226TIP3    H236874   7.626   2.703  19.521
 4227TIP3   OH236875   6.988   2.473  18.909
 4227TIP3    H136876   6.945   2.454  18.992
 4227TIP3    H236877   6.933   2.540  18.868
 4228TIP3   OH236878   6.224   2.482  19.633
 4228TIP3    H136879   6.310   2.453  19.664
 4228TIP3    H236880   6.235   2.494  19.539
 4229TIP3   OH236881   6.233   2.535  19.075
 4229TIP3    H136882   6.312   2.578  19.042
 4229TIP3    H236883   6.167   2.604  19.076
 4230TIP3   OH236884   7.229   2.470  19.574
 4230TIP3    H136885   7.141   2.462  19.611
 4230TIP3    H236886   7.286   2.425  19.638
 4231TIP3   OH236887   6.563   2.667  19.488
 4231TIP3    H136888   6.478   2.698  19.456
 4231TIP3    H236889   6.566   2.575  19.464
 4232TIP3   OH236890   6.937   2.674  19.270
 4232TIP3    H136891   7.028   2.668  19.297
 4232TIP3    H236892   6.939   2.726  19.189
 4233TIP3   OH236893   7.535   2.487  19.844
 4233TIP3    H136894   7.521   2.464  19.936
 4233TIP3    H236895   7.487   2.420  19.795
 4234TIP3   OH236896   6.958   2.813  19.038
 4234TIP3    H136897   6.910   2.772  18.967
 4234TIP3    H236898   7.025   2.866  18.994
 4235TIP3   OH236899   7.220   2.900  19.640
 4235TIP3    H136900   7.249   2.891  19.549
 4235TIP3    H236901   7.267   2.831  19.687
 4236TIP3   OH236902   6.646   2.396  19.425
 4236TIP3    H136903   6.600   2.316  19.451
 4236TIP3    H236904   6.680   2.378  19.338
 4237TIP3   OH236905   7.185   3.278  19.185
 4237TIP3    H136906   7.117   3.238  19.131
 4237TIP3    H236907   7.137   3.333  19.247
 4238TIP3   OH236908   7.558   2.439  19.111
 4238TIP3    H136909   7.472   2.428  19.072
 4238TIP3    H236910   7.570   2.533  19.118
 4239TIP3   OH236911   7.617   2.710  19.155
 4239TIP3    H136912   7.709   2.716  19.181
 4239TIP3    H236913   7.614   2.745  19.066
 4240TIP3   OH236914   6.631   3.301  19.717
 4240TIP3    H136915   6.538   3.280  19.714
 4240TIP3    H236916   6.673   3.221  19.748
 4241TIP3   OH236917   7.394   3.454  19.136
 4241TIP3    H136918   7.359   3.543  19.139
 4241TIP3    H236919   7.317   3.397  19.137
 4242TIP3   OH236920   8.072   2.810  19.165
 4242TIP3    H136921   8.047   2.777  19.078
 4242TIP3    H236922   8.048   2.903  19.163
 4243TIP3   OH236923   8.036   3.722  19.167
 4243TIP3    H136924   7.969   3.656  19.153
 4243TIP3    H236925   8.094   3.715  19.091
 4244TIP3   OH236926   7.587   3.187  19.783
 4244TIP3    H136927   7.494   3.171  19.794
 4244TIP3    H236928   7.628   3.102  19.800
 4245TIP3   OH236929   6.814   3.604  19.461
 4245TIP3    H136930   6.867   3.683  19.471
 4245TIP3    H236931   6.734   3.634  19.418
 4246TIP3   OH236932   6.448   2.984  19.003
 4246TIP3    H136933   6.480   3.065  19.044
 4246TIP3    H236934   6.353   2.990  19.011
 4247TIP3   OH236935   6.994   3.425  19.332
 4247TIP3    H136936   6.943   3.497  19.370
 4247TIP3    H236937   6.956   3.346  19.370
 4248TIP3   OH236938   6.946   3.858  19.453
 4248TIP3    H136939   6.867   3.911  19.464
 4248TIP3    H236940   7.017   3.915  19.484
 4249TIP3   OH236941   7.865   3.510  19.062
 4249TIP3    H136942   7.880   3.460  19.143
 4249TIP3    H236943   7.780   3.479  19.031
 4250TIP3   OH236944   8.131   3.981  18.926
 4250TIP3    H136945   8.152   4.055  18.868
 4250TIP3    H236946   8.092   4.022  19.004
 4251TIP3   OH236947   7.916   3.362  19.293
 4251TIP3    H136948   7.879   3.281  19.327
 4251TIP3    H236949   8.010   3.347  19.292
 4252TIP3   OH236950   7.128   3.542  18.869
 4252TIP3    H136951   7.096   3.471  18.813
 4252TIP3    H236952   7.063   3.548  18.939
 4253TIP3   OH236953   6.951   3.568  19.090
 4253TIP3    H136954   6.974   3.511  19.163
 4253TIP3    H236955   6.976   3.655  19.120
 4254TIP3   OH236956   6.543   3.229  19.140
 4254TIP3    H136957   6.466   3.268  19.182
 4254TIP3    H236958   6.590   3.303  19.103
 4255TIP3   OH236959   7.618   2.348  19.360
 4255TIP3    H136960   7.601   2.378  19.270
 4255TIP3    H236961   7.655   2.425  19.404
 4256TIP3   OH236962   7.302   3.715  19.176
 4256TIP3    H136963   7.209   3.735  19.184
 4256TIP3    H236964   7.337   3.782  19.117
 4257TIP3   OH236965   7.200   2.642  19.358
 4257TIP3    H136966   7.274   2.702  19.345
 4257TIP3    H236967   7.219   2.598  19.441
 4258TIP3   OH236968   7.334   2.305  19.374
 4258TIP3    H136969   7.297   2.359  19.445
 4258TIP3    H236970   7.425   2.332  19.369
 4259TIP3   OH236971   7.043   3.810  19.196
 4259TIP3    H136972   7.064   3.897  19.161
 4259TIP3    H236973   7.005   3.827  19.282
 4260TIP3   OH236974   6.862   2.421  19.154
 4260TIP3    H136975   6.853   2.508  19.192
 4260TIP3    H236976   6.950   2.392  19.179
 4261TIP3   OH236977   7.728   2.969  19.675
 4261TIP3    H136978   7.670   2.905  19.633
 4261TIP3    H236979   7.802   2.918  19.706
 4262TIP3   OH236980   6.692   3.449  19.034
 4262TIP3    H136981   6.764   3.508  19.058
 4262TIP3    H236982   6.729   3.393  18.966
 4263TIP3   OH236983   6.437   2.699  18.987
 4263TIP3    H136984   6.434   2.791  19.013
 4263TIP3    H236985   6.492   2.698  18.909
 4264TIP3   OH236986   8.023   3.837  19.761
 4264TIP3    H136987   7.992   3.927  19.748
 4264TIP3    H236988   8.117   3.842  19.746
 4265TIP3   OH236989   6.632   2.174  19.737
 4265TIP3    H136990   6.606   2.160  19.646
 4265TIP3    H236991   6.601   2.095  19.783
 4266TIP3   OH236992   6.538   3.804  19.356
 4266TIP3    H136993   6.467   3.823  19.418
 4266TIP3    H236994   6.510   3.845  19.275
 4267TIP3   OH236995   7.313   3.735  18.797
 4267TIP3    H136996   7.249   3.667  18.819
 4267TIP3    H236997   7.396   3.688  18.791
 4268TIP3   OH236998   7.792   3.754  18.915
 4268TIP3    H136999   7.839   3.686  18.964
 4268TIP3    H237000   7.848   3.774  18.841
 4269TIP3   OH237001   6.815   3.276  18.864
 4269TIP3    H137002   6.864   3.232  18.934
 4269TIP3    H237003   6.883   3.303  18.802
 4270TIP3   OH237004   7.617   3.406  18.983
 4270TIP3    H137005   7.538   3.423  19.035
 4270TIP3    H237006   7.586   3.356  18.908
 4271TIP3   OH237007   6.964   3.157  19.069
 4271TIP3    H137008   6.902   3.117  19.130
 4271TIP3    H237009   7.008   3.082  19.028
 4272TIP3   OH237010   7.131   2.992  18.916
 4272TIP3    H137011   7.110   3.023  18.828
 4272TIP3    H237012   7.226   2.983  18.916
 4273TIP3   OH237013   8.027   3.174  18.896
 4273TIP3    H137014   8.060   3.141  18.813
 4273TIP3    H237015   8.053   3.266  18.898
 4274TIP3   OH237016   7.161   4.051  19.100
 4274TIP3    H137017   7.231   4.008  19.052
 4274TIP3    H237018   7.136   4.125  19.045
 4275TIP3   OH237019   6.422   3.510  19.000
 4275TIP3    H137020   6.518   3.510  19.008
 4275TIP3    H237021   6.406   3.462  18.919
 4276TIP3   OH237022   6.252   4.109  19.446
 4276TIP3    H137023   6.188   4.058  19.398
 4276TIP3    H237024   6.302   4.045  19.496
 4277TIP3   OH237025   6.392   3.909  19.572
 4277TIP3    H137026   6.335   3.857  19.630
 4277TIP3    H237027   6.448   3.958  19.631
 4278TIP3   OH237028   8.170   3.255  19.294
 4278TIP3    H137029   8.255   3.299  19.289
 4278TIP3    H237030   8.182   3.187  19.361
 4279TIP3   OH237031   8.172   3.046  19.470
 4279TIP3    H137032   8.097   2.986  19.470
 4279TIP3    H237033   8.173   3.083  19.558
 4280TIP3   OH237034   8.379   3.303  19.793
 4280TIP3    H137035   0.026   3.298  19.784
 4280TIP3    H237036   8.361   3.396  19.802
 4281TIP3   OH237037   8.005   3.080  19.153
 4281TIP3    H137038   8.012   3.108  19.061
 4281TIP3    H237039   8.066   3.138  19.200
 4282TIP3   OH237040   7.969   2.709  18.931
 4282TIP3    H137041   7.961   2.737  18.840
 4282TIP3    H237042   7.958   2.614  18.928
 4283TIP3   OH237043   7.954   2.877  19.469
 4283TIP3    H137044   7.956   2.797  19.417
 4283TIP3    H237045   7.948   2.847  19.560
 4284TIP3   OH237046   6.376   3.200  19.731
 4284TIP3    H137047   6.366   3.109  19.704
 4284TIP3    H237048   6.293   3.222  19.774
 4285TIP3   OH237049   7.943   2.435  18.910
 4285TIP3    H137050   7.978   2.372  18.973
 4285TIP3    H237051   7.854   2.405  18.893
 4286TIP3   OH237052   7.951   2.630  19.334
 4286TIP3    H137053   7.985   2.540  19.331
 4286TIP3    H237054   8.003   2.678  19.270
 4287TIP3   OH237055   7.932   2.791  19.727
 4287TIP3    H137056   8.022   2.799  19.759
 4287TIP3    H237057   7.906   2.703  19.752
 4288TIP3   OH237058   7.997   2.349  19.353
 4288TIP3    H137059   8.012   2.320  19.443
 4288TIP3    H237060   7.933   2.287  19.318
 4289TIP3   OH237061   6.473   2.407  19.724
 4289TIP3    H137062   6.517   2.323  19.731
 4289TIP3    H237063   6.525   2.466  19.778
 4290TIP3   OH237064   6.147   2.739  19.757
 4290TIP3    H137065   6.177   2.656  19.720
 4290TIP3    H237066   6.215   2.802  19.733
 4291TIP3   OH237067   8.178   2.290  19.010
 4291TIP3    H137068   8.192   2.232  18.935
 4291TIP3    H237069   8.214   2.374  18.982
 4292TIP3   OH237070   6.204   2.518  19.353
 4292TIP3    H137071   6.123   2.467  19.357
 4292TIP3    H237072   6.229   2.517  19.260
 4293TIP3   OH237073   7.867   3.977  19.479
 4293TIP3    H137074   7.949   3.966  19.430
 4293TIP3    H237075   7.893   4.020  19.560
 4294TIP3   OH237076   6.522   4.006  19.796
 4294TIP3    H137077   6.448   3.958  19.833
 4294TIP3    H237078   6.594   3.943  19.795
 4295TIP3   OH237079   6.725   3.824  19.740
 4295TIP3    H137080   6.715   3.730  19.748
 4295TIP3    H237081   6.815   3.842  19.766
 4296TIP3   OH237082   6.990   3.858  19.805
 4296TIP3    H137083   7.051   3.869  19.733
 4296TIP3    H237084   7.044   3.859  19.884
 4297TIP3   OH237085   7.388   2.290  19.716
 4297TIP3    H137086   7.308   2.237  19.721
 4297TIP3    H237087   7.451   2.234  19.670
 4298TIP3   OH237088   7.803   2.093  19.691
 4298TIP3    H137089   7.864   2.162  19.663
 4298TIP3    H237090   7.719   2.118  19.652
 4299TIP3   OH237091   8.035   2.223  19.600
 4299TIP3    H137092   8.066   2.133  19.609
 4299TIP3    H237093   8.114   2.276  19.605
 4300TIP3   OH237094   6.536   2.140  19.480
 4300TIP3    H137095   6.443   2.121  19.470
 4300TIP3    H237096   6.579   2.055  19.471
 4301TIP3   OH237097   6.437   2.160  19.080
 4301TIP3    H137098   6.513   2.207  19.046
 4301TIP3    H237099   6.376   2.229  19.107
 4302TIP3   OH237100   7.090   2.030  19.427
 4302TIP3    H137101   7.108   2.063  19.339
 4302TIP3    H237102   7.117   2.101  19.485
 4303TIP3   OH237103   7.568   2.153  19.549
 4303TIP3    H137104   7.588   2.221  19.484
 4303TIP3    H237105   7.517   2.088  19.501
 4304TIP3   OH237106   7.805   2.155  19.277
 4304TIP3    H137107   7.741   2.221  19.304
 4304TIP3    H237108   7.752   2.080  19.248
 4305TIP3   OH237109   6.445   3.967  19.144
 4305TIP3    H137110   6.361   3.942  19.106
 4305TIP3    H237111   6.440   4.063  19.152
 4306TIP3   OH237112   6.664   2.284  18.971
 4306TIP3    H137113   6.705   2.210  18.927
 4306TIP3    H237114   6.733   2.322  19.025
 4307TIP3   OH237115   7.133   2.414  19.215
 4307TIP3    H137116   7.195   2.354  19.256
 4307TIP3    H237117   7.149   2.498  19.259
 4308TIP3   OH237118   7.373   3.914  18.994
 4308TIP3    H137119   7.462   3.944  18.978
 4308TIP3    H237120   7.352   3.860  18.917
 4309TIP3   OH237121   8.094   3.943  19.323
 4309TIP3    H137122   8.077   3.861  19.278
 4309TIP3    H237123   8.083   4.010  19.255
 4310TIP3   OH237124   6.555   3.983  18.875
 4310TIP3    H137125   6.531   3.970  18.967
 4310TIP3    H237126   6.622   3.917  18.859
 4311TIP3   OH237127   8.313   2.861  19.313
 4311TIP3    H137128   8.273   2.927  19.370
 4311TIP3    H237129   8.241   2.833  19.256
 4312TIP3   OH237130   8.388   3.583  19.837
 4312TIP3    H137131   0.034   3.592  19.827
 4312TIP3    H237132   8.371   3.612  19.927
 4313TIP3   OH237133   8.271   2.348  19.556
 4313TIP3    H137134   8.358   2.322  19.587
 4313TIP3    H237135   8.284   2.368  19.464
 4314TIP3   OH237136   8.276   4.024  19.515
 4314TIP3    H137137   8.218   3.993  19.445
 4314TIP3    H237138   8.271   3.955  19.582
 4315TIP3   OH237139   8.300   3.828  19.715
 4315TIP3    H137140   8.308   3.734  19.731
 4315TIP3    H237141   8.386   3.864  19.735
 4316TIP3   OH237142   8.420   3.016  19.795
 4316TIP3    H137143   0.061   3.014  19.761
 4316TIP3    H237144   8.400   3.110  19.805
 4317TIP3   OH237145   8.197   2.832  19.794
 4317TIP3    H137146   8.257   2.762  19.820
 4317TIP3    H237147   8.254   2.907  19.777
 4318TIP3   OH237148   8.264   2.357  19.273
 4318TIP3    H137149   8.173   2.364  19.302
 4318TIP3    H237150   8.258   2.322  19.184
 4319TIP3   OH237151   1.393   5.239  19.482
 4319TIP3    H137152   1.364   5.330  19.471
 4319TIP3    H237153   1.326   5.187  19.438
 4320TIP3   OH237154   1.001   5.150  19.814
 4320TIP3    H137155   1.068   5.125  19.878
 4320TIP3    H237156   1.001   5.078  19.751
 4321TIP3   OH237157   1.655   5.504  19.625
 4321TIP3    H137158   1.634   5.415  19.654
 4321TIP3    H237159   1.658   5.555  19.706
 4322TIP3   OH237160   0.433   5.548  19.766
 4322TIP3    H137161   0.418   5.460  19.732
 4322TIP3    H237162   0.526   5.551  19.787
 4323TIP3   OH237163   0.120   4.890  19.372
 4323TIP3    H137164   0.124   4.949  19.447
 4323TIP3    H237165   0.028   4.890  19.346
 4324TIP3   OH237166   0.224   5.137  19.735
 4324TIP3    H137167   0.247   5.044  19.743
 4324TIP3    H237168   0.306   5.179  19.708
 4325TIP3   OH237169   1.412   6.019  19.694
 4325TIP3    H137170   1.408   5.959  19.620
 4325TIP3    H237171   1.481   5.984  19.751
 4326TIP3   OH237172   0.936   5.414  19.778
 4326TIP3    H137173   0.958   5.322  19.790
 4326TIP3    H237174   1.014   5.453  19.741
 4327TIP3   OH237175   1.221   4.776  19.770
 4327TIP3    H137176   1.260   4.706  19.823
 4327TIP3    H237177   1.288   4.797  19.705
 4328TIP3   OH237178   0.565   4.559  19.635
 4328TIP3    H137179   0.592   4.641  19.594
 4328TIP3    H237180   0.501   4.522  19.575
 4329TIP3   OH237181   1.531   4.589  19.485
 4329TIP3    H137182   1.558   4.565  19.574
 4329TIP3    H237183   1.605   4.564  19.430
 4330TIP3   OH237184   0.274   4.863  19.745
 4330TIP3    H137185   0.328   4.809  19.803
 4330TIP3    H237186   0.287   4.824  19.658
 4331TIP3   OH237187   0.753   5.003  19.626
 4331TIP3    H137188   0.842   4.969  19.634
 4331TIP3    H237189   0.701   4.928  19.597
 4332TIP3   OH237190   1.284   5.475  19.407
 4332TIP3    H137191   1.262   5.492  19.315
 4332TIP3    H237192   1.281   5.562  19.448
 4333TIP3   OH237193   1.612   4.535  19.740
 4333TIP3    H137194   1.532   4.543  19.792
 4333TIP3    H237195   1.666   4.609  19.769
 4334TIP3   OH237196   0.449   4.675  19.860
 4334TIP3    H137197   0.515   4.683  19.929
 4334TIP3    H237198   0.497   4.636  19.786
 4335TIP3   OH237199   0.312   5.581  19.213
 4335TIP3    H137200   0.251   5.584  19.139
 4335TIP3    H237201   0.294   5.662  19.261
 4336TIP3   OH237202   1.685   5.671  19.842
 4336TIP3    H137203   1.762   5.670  19.899
 4336TIP3    H237204   1.669   5.764  19.826
 4337TIP3   OH237205   0.936   4.254  19.743
 4337TIP3    H137206   0.933   4.172  19.792
 4337TIP3    H237207   0.847   4.289  19.747
 4338TIP3   OH237208   1.512   5.876  19.458
 4338TIP3    H137209   1.556   5.795  19.433
 4338TIP3    H237210   1.581   5.932  19.493
 4339TIP3   OH237211   1.658   5.645  19.391
 4339TIP3    H137212   1.667   5.573  19.329
 4339TIP3    H237213   1.657   5.602  19.477
 4340TIP3   OH237214   1.222   5.139  19.281
 4340TIP3    H137215   1.170   5.217  19.262
 4340TIP3    H237216   1.291   5.139  19.215
 4341TIP3   OH237217   1.208   5.052  18.949
 4341TIP3    H137218   1.280   5.060  19.012
 4341TIP3    H237219   1.238   4.986  18.887
 4342TIP3   OH237220   1.604   5.192  19.307
 4342TIP3    H137221   1.543   5.215  19.377
 4342TIP3    H237222   1.668   5.135  19.348
 4343TIP3   OH237223   0.624   5.198  19.472
 4343TIP3    H137224   0.612   5.152  19.388
 4343TIP3    H237225   0.673   5.136  19.526
 4344TIP3   OH237226   0.710   5.570  19.777
 4344TIP3    H137227   0.711   5.595  19.684
 4344TIP3    H237228   0.784   5.510  19.786
 4345TIP3   OH237229   0.686   5.195  19.815
 4345TIP3    H137230   0.710   5.122  19.758
 4345TIP3    H237231   0.769   5.228  19.848
 4346TIP3   OH237232   1.442   5.094  19.104
 4346TIP3    H137233   1.501   5.131  19.170
 4346TIP3    H237234   1.486   5.110  19.020
 4347TIP3   OH237235   1.258   5.747  19.442
 4347TIP3    H137236   1.338   5.799  19.444
 4347TIP3    H237237   1.207   5.785  19.371
 4348TIP3   OH237238   1.798   4.142  19.141
 4348TIP3    H137239   1.712   4.172  19.169
 4348TIP3    H237240   1.844   4.221  19.113
 4349TIP3   OH237241   0.593   5.060  19.225
 4349TIP3    H137242   0.503   5.028  19.219
 4349TIP3    H237243   0.644   4.995  19.177
 4350TIP3   OH237244   2.015   5.774  19.036
 4350TIP3    H137245   2.020   5.870  19.033
 4350TIP3    H237246   2.106   5.745  19.044
 4351TIP3   OH237247   0.197   5.699  19.838
 4351TIP3    H137248   0.247   5.628  19.797
 4351TIP3    H237249   0.249   5.723  19.915
 4352TIP3   OH237250   1.183   6.152  19.288
 4352TIP3    H137251   1.149   6.127  19.202
 4352TIP3    H237252   1.149   6.241  19.302
 4353TIP3   OH237253   0.440   5.949  19.491
 4353TIP3    H137254   0.438   5.910  19.578
 4353TIP3    H237255   0.373   5.901  19.442
 4354TIP3   OH237256   1.435   6.051  19.005
 4354TIP3    H137257   1.487   5.975  18.979
 4354TIP3    H237258   1.452   6.060  19.099
 4355TIP3   OH237259   1.445   6.077  19.279
 4355TIP3    H137260   1.354   6.101  19.297
 4355TIP3    H237261   1.464   6.006  19.340
 4356TIP3   OH237262   0.677   4.342  19.761
 4356TIP3    H137263   0.595   4.296  19.778
 4356TIP3    H237264   0.650   4.423  19.717
 4357TIP3   OH237265   1.576   5.138  18.868
 4357TIP3    H137266   1.583   5.130  18.773
 4357TIP3    H237267   1.657   5.181  18.894
 4358TIP3   OH237268   1.112   4.496  18.996
 4358TIP3    H137269   1.055   4.502  19.072
 4358TIP3    H237270   1.093   4.411  18.957
 4359TIP3   OH237271   0.599   4.804  19.513
 4359TIP3    H137272   0.505   4.800  19.500
 4359TIP3    H237273   0.636   4.785  19.427
 4360TIP3   OH237274   1.217   4.875  19.360
 4360TIP3    H137275   1.206   4.968  19.339
 4360TIP3    H237276   1.284   4.844  19.299
 4361TIP3   OH237277   1.399   4.817  19.565
 4361TIP3    H137278   1.338   4.841  19.496
 4361TIP3    H237279   1.445   4.739  19.531
 4362TIP3   OH237280   0.775   4.492  18.863
 4362TIP3    H137281   0.735   4.507  18.949
 4362TIP3    H237282   0.706   4.449  18.812
 4363TIP3   OH237283   0.101   4.544  19.565
 4363TIP3    H137284   0.152   4.525  19.643
 4363TIP3    H237285   0.143   4.493  19.495
 4364TIP3   OH237286   0.221   4.695  19.202
 4364TIP3    H137287   0.283   4.737  19.142
 4364TIP3    H237288   0.181   4.767  19.250
 4365TIP3   OH237289   1.022   4.533  19.583
 4365TIP3    H137290   0.941   4.506  19.624
 4365TIP3    H237291   1.090   4.510  19.646
 4366TIP3   OH237292   0.330   4.746  19.497
 4366TIP3    H137293   0.256   4.777  19.445
 4366TIP3    H237294   0.325   4.651  19.492
 4367TIP3   OH237295   0.735   4.746  19.283
 4367TIP3    H137296   0.824   4.737  19.317
 4367TIP3    H237297   0.744   4.801  19.205
 4368TIP3   OH237298   1.363   4.552  19.875
 4368TIP3    H137299   1.365   4.516  19.964
 4368TIP3    H237300   1.302   4.495  19.828
 4369TIP3   OH237301   0.748   4.902  19.058
 4369TIP3    H137302   0.718   4.854  18.980
 4369TIP3    H237303   0.820   4.956  19.026
 4370TIP3   OH237304   1.022   4.924  19.648
 4370TIP3    H137305   1.063   4.921  19.561
 4370TIP3    H237306   1.077   4.867  19.702
 4371TIP3   OH237307   0.369   4.460  19.453
 4371TIP3    H137308   0.362   4.368  19.479
 4371TIP3    H237309   0.330   4.463  19.366
 4372TIP3   OH237310   0.951   5.406  19.210
 4372TIP3    H137311   0.899   5.338  19.165
 4372TIP3    H237312   0.909   5.415  19.296
 4373TIP3   OH237313   1.363   4.562  19.101
 4373TIP3    H137314   1.277   4.555  19.060
 4373TIP3    H237315   1.375   4.656  19.116
 4374TIP3   OH237316   1.435   4.823  19.196
 4374TIP3    H137317   1.522   4.799  19.226
 4374TIP3    H237318   1.446   4.909  19.155
 4375TIP3   OH237319   0.460   5.278  19.685
 4375TIP3    H137320   0.499   5.262  19.599
 4375TIP3    H237321   0.529   5.254  19.747
 4376TIP3   OH237322   1.180   5.548  19.160
 4376TIP3    H137323   1.157   5.639  19.178
 4376TIP3    H237324   1.099   5.499  19.174
 4377TIP3   OH237325   1.900   4.893  19.114
 4377TIP3    H137326   1.861   4.876  19.028
 4377TIP3    H237327   1.931   4.983  19.109
 4378TIP3   OH237328   1.840   5.820  19.267
 4378TIP3    H137329   1.782   5.755  19.306
 4378TIP3    H237330   1.883   5.773  19.195
 4379TIP3   OH237331   1.582   5.239  19.683
 4379TIP3    H137332   1.509   5.240  19.621
 4379TIP3    H237333   1.603   5.146  19.694
 4380TIP3   OH237334   0.670   5.662  19.518
 4380TIP3    H137335   0.707   5.748  19.497
 4380TIP3    H237336   0.580   5.667  19.486
 4381TIP3   OH237337   0.309   5.120  19.034
 4381TIP3    H137338   0.356   5.203  19.042
 4381TIP3    H237339   0.229   5.132  19.084
 4382TIP3   OH237340   0.778   5.426  19.415
 4382TIP3    H137341   0.744   5.504  19.458
 4382TIP3    H237342   0.722   5.355  19.447
 4383TIP3   OH237343   0.710   5.929  19.442
 4383TIP3    H137344   0.617   5.947  19.450
 4383TIP3    H237345   0.753   6.008  19.476
 4384TIP3   OH237346   1.639   5.582  19.005
 4384TIP3    H137347   1.665   5.534  19.084
 4384TIP3    H237348   1.549   5.554  18.989
 4385TIP3   OH237349   2.045   6.076  19.046
 4385TIP3    H137350   2.092   6.153  19.015
 4385TIP3    H237351   1.958   6.108  19.070
 4386TIP3   OH237352   1.722   5.433  19.221
 4386TIP3    H137353   1.679   5.351  19.246
 4386TIP3    H237354   1.815   5.415  19.233
 4387TIP3   OH237355   0.891   5.702  18.848
 4387TIP3    H137356   0.906   5.626  18.793
 4387TIP3    H237357   0.859   5.666  18.931
 4388TIP3   OH237358   0.786   5.589  19.082
 4388TIP3    H137359   0.849   5.539  19.134
 4388TIP3    H237360   0.783   5.675  19.125
 4389TIP3   OH237361   0.412   5.383  19.050
 4389TIP3    H137362   0.392   5.435  19.127
 4389TIP3    H237363   0.348   5.412  18.985
 4390TIP3   OH237364   1.370   4.425  19.336
 4390TIP3    H137365   1.370   4.472  19.252
 4390TIP3    H237366   1.417   4.484  19.396
 4391TIP3   OH237367   1.101   5.810  19.210
 4391TIP3    H137368   1.006   5.817  19.218
 4391TIP3    H237369   1.126   5.888  19.160
 4392TIP3   OH237370   0.994   4.709  19.373
 4392TIP3    H137371   1.072   4.765  19.367
 4392TIP3    H237372   1.008   4.659  19.454
 4393TIP3   OH237373   1.114   4.347  19.391
 4393TIP3    H137374   1.088   4.403  19.464
 4393TIP3    H237375   1.207   4.367  19.377
 4394TIP3   OH237376   0.819   5.839  19.201
 4394TIP3    H137377   0.827   5.919  19.150
 4394TIP3    H237378   0.782   5.867  19.285
 4395TIP3   OH237379   0.688   4.516  19.125
 4395TIP3    H137380   0.672   4.592  19.182
 4395TIP3    H237381   0.773   4.483  19.154
 4396TIP3   OH237382   1.614   4.958  19.670
 4396TIP3    H137383   1.533   4.915  19.642
 4396TIP3    H237384   1.657   4.894  19.727
 4397TIP3   OH237385   0.533   5.594  18.865
 4397TIP3    H137386   0.569   5.682  18.862
 4397TIP3    H237387   0.451   5.599  18.816
 4398TIP3   OH237388   0.385   4.853  19.036
 4398TIP3    H137389   0.359   4.945  19.034
 4398TIP3    H237390   0.397   4.829  18.944
 4399TIP3   OH237391   1.668   5.946  19.799
 4399TIP3    H137392   1.687   5.976  19.710
 4399TIP3    H237393   1.709   6.011  19.856
 4400TIP3   OH237394   0.414   4.245  19.773
 4400TIP3    H137395   0.387   4.232  19.682
 4400TIP3    H237396   0.382   4.167  19.818
 4401TIP3   OH237397   0.239   5.825  19.338
 4401TIP3    H137398   0.150   5.818  19.373
 4401TIP3    H237399   0.240   5.907  19.289
 4402TIP3   OH237400   1.110   5.868  18.819
 4402TIP3    H137401   1.035   5.809  18.831
 4402TIP3    H237402   1.185   5.810  18.811
 4403TIP3   OH237403   1.579   5.837  18.906
 4403TIP3    H137404   1.615   5.759  18.948
 4403TIP3    H237405   1.638   5.853  18.831
 4404TIP3   OH237406   0.729   5.333  18.788
 4404TIP3    H137407   0.757   5.243  18.771
 4404TIP3    H237408   0.798   5.387  18.749
 4405TIP3   OH237409   1.373   5.512  18.969
 4405TIP3    H137410   1.311   5.522  19.042
 4405TIP3    H237411   1.341   5.435  18.922
 4406TIP3   OH237412   0.749   5.249  19.088
 4406TIP3    H137413   0.697   5.192  19.144
 4406TIP3    H237414   0.809   5.191  19.042
 4407TIP3   OH237415   0.929   5.083  18.957
 4407TIP3    H137416   0.913   5.071  18.863
 4407TIP3    H237417   1.024   5.077  18.966
 4408TIP3   OH237418   1.829   5.268  18.882
 4408TIP3    H137419   1.856   5.242  18.794
 4408TIP3    H237420   1.852   5.361  18.887
 4409TIP3   OH237421   0.880   6.071  19.067
 4409TIP3    H137422   0.974   6.069  19.051
 4409TIP3    H237423   0.848   6.147  19.018
 4410TIP3   OH237424   0.175   5.549  18.970
 4410TIP3    H137425   0.214   5.594  18.896
 4410TIP3    H237426   0.095   5.509  18.935
 4411TIP3   OH237427   0.094   6.107  19.493
 4411TIP3    H137428   0.002   6.133  19.491
 4411TIP3    H237429   0.103   6.053  19.571
 4412TIP3   OH237430   0.119   5.950  19.726
 4412TIP3    H137431   0.144   5.861  19.747
 4412TIP3    H237432   0.180   6.005  19.776
 4413TIP3   OH237433   1.990   5.367  19.264
 4413TIP3    H137434   2.062   5.428  19.280
 4413TIP3    H237435   1.991   5.309  19.341
 4414TIP3   OH237436   1.983   5.177  19.460
 4414TIP3    H137437   1.909   5.117  19.461
 4414TIP3    H237438   2.050   5.135  19.515
 4415TIP3   OH237439   2.047   5.490  19.768
 4415TIP3    H137440   2.111   5.420  19.756
 4415TIP3    H237441   1.971   5.461  19.716
 4416TIP3   OH237442   1.993   5.159  19.078
 4416TIP3    H137443   1.933   5.190  19.010
 4416TIP3    H237444   1.990   5.226  19.145
 4417TIP3   OH237445   1.792   4.811  18.878
 4417TIP3    H137446   1.778   4.821  18.784
 4417TIP3    H237447   1.795   4.716  18.892
 4418TIP3   OH237448   1.760   5.002  19.440
 4418TIP3    H137449   1.742   4.921  19.392
 4418TIP3    H237450   1.716   4.990  19.524
 4419TIP3   OH237451   0.175   5.362  19.893
 4419TIP3    H137452   0.191   5.283  19.840
 4419TIP3    H237453   0.253   5.369  19.949
 4420TIP3   OH237454   1.794   4.537  18.909
 4420TIP3    H137455   1.835   4.479  18.972
 4420TIP3    H237456   1.703   4.509  18.907
 4421TIP3   OH237457   1.705   4.772  19.274
 4421TIP3    H137458   1.725   4.679  19.282
 4421TIP3    H237459   1.773   4.806  19.216
 4422TIP3   OH237460   1.754   4.766  19.822
 4422TIP3    H137461   1.841   4.792  19.791
 4422TIP3    H237462   1.758   4.773  19.917
 4423TIP3   OH237463   1.729   4.475  19.331
 4423TIP3    H137464   1.805   4.437  19.376
 4423TIP3    H237465   1.685   4.401  19.291
 4424TIP3   OH237466   0.265   4.483  19.774
 4424TIP3    H137467   0.317   4.403  19.786
 4424TIP3    H237468   0.314   4.551  19.820
 4425TIP3   OH237469   0.002   4.871  19.837
 4425TIP3    H137470   0.091   4.848  19.811
 4425TIP3    H237471   8.445   4.965  19.821
 4426TIP3   OH237472   1.947   4.354  19.052
 4426TIP3    H137473   1.993   4.312  18.980
 4426TIP3    H237474   2.016   4.387  19.109
 4427TIP3   OH237475   0.124   4.450  19.278
 4427TIP3    H137476   0.029   4.451  19.277
 4427TIP3    H237477   0.149   4.536  19.245
 4428TIP3   OH237478   1.702   6.062  19.552
 4428TIP3    H137479   1.773   6.061  19.489
 4428TIP3    H237480   1.685   6.155  19.568
 4429TIP3   OH237481   0.345   6.041  19.867
 4429TIP3    H137482   0.383   6.038  19.955
 4429TIP3    H237483   0.390   5.971  19.819
 4430TIP3   OH237484   0.462   5.827  19.739
 4430TIP3    H137485   0.442   5.733  19.739
 4430TIP3    H237486   0.546   5.835  19.783
 4431TIP3   OH237487   0.691   5.823  19.884
 4431TIP3    H137488   0.708   5.731  19.862
 4431TIP3    H237489   0.776   5.857  19.910
 4432TIP3   OH237490   1.183   4.386  19.751
 4432TIP3    H137491   1.103   4.334  19.757
 4432TIP3    H237492   1.248   4.326  19.715
 4433TIP3   OH237493   1.699   4.286  19.632
 4433TIP3    H137494   1.779   4.310  19.585
 4433TIP3    H237495   1.670   4.367  19.674
 4434TIP3   OH237496   1.930   4.342  19.480
 4434TIP3    H137497   1.979   4.260  19.472
 4434TIP3    H237498   1.997   4.410  19.490
 4435TIP3   OH237499   0.333   4.188  19.516
 4435TIP3    H137500   0.248   4.146  19.500
 4435TIP3    H237501   0.397   4.119  19.498
 4436TIP3   OH237502   0.266   4.250  19.146
 4436TIP3    H137503   0.329   4.307  19.102
 4436TIP3    H237504   0.211   4.311  19.196
 4437TIP3   OH237505   0.941   4.063  19.524
 4437TIP3    H137506   1.018   4.058  19.468
 4437TIP3    H237507   0.953   4.142  19.576
 4438TIP3   OH237508   1.366   4.213  19.652
 4438TIP3    H137509   1.460   4.212  19.633
 4438TIP3    H237510   1.340   4.121  19.649
 4439TIP3   OH237511   1.564   4.241  19.258
 4439TIP3    H137512   1.495   4.300  19.288
 4439TIP3    H237513   1.522   4.155  19.255
 4440TIP3   OH237514   0.222   6.081  19.244
 4440TIP3    H137515   0.168   6.102  19.320
 4440TIP3    H237516   0.248   6.166  19.208
 4441TIP3   OH237517   0.458   4.405  19.015
 4441TIP3    H137518   0.497   4.345  18.952
 4441TIP3    H237519   0.532   4.441  19.064
 4442TIP3   OH237520   0.948   4.486  19.217
 4442TIP3    H137521   0.993   4.418  19.267
 4442TIP3    H237522   0.960   4.566  19.268
 4443TIP3   OH237523   1.156   6.031  19.033
 4443TIP3    H137524   1.250   6.050  19.024
 4443TIP3    H237525   1.135   5.980  18.954
 4444TIP3   OH237526   1.896   6.067  19.357
 4444TIP3    H137527   1.882   5.977  19.328
 4444TIP3    H237528   1.868   6.120  19.282
 4445TIP3   OH237529   0.455   6.023  18.932
 4445TIP3    H137530   0.444   5.998  19.024
 4445TIP3    H237531   0.518   5.960  18.898
 4446TIP3   OH237532   3.407   5.204  19.398
 4446TIP3    H137533   3.394   5.294  19.427
 4446TIP3    H237534   3.332   5.187  19.341
 4447TIP3   OH237535   3.248   5.149  19.748
 4447TIP3    H137536   3.266   5.066  19.793
 4447TIP3    H237537   3.191   5.124  19.675
 4448TIP3   OH237538   3.659   5.479  19.649
 4448TIP3    H137539   3.611   5.399  19.670
 4448TIP3    H237540   3.714   5.495  19.725
 4449TIP3   OH237541   2.629   5.603  19.729
 4449TIP3    H137542   2.587   5.518  19.721
 4449TIP3    H237543   2.716   5.584  19.765
 4450TIP3   OH237544   2.152   4.783  19.407
 4450TIP3    H137545   2.084   4.847  19.429
 4450TIP3    H237546   2.140   4.767  19.313
 4451TIP3   OH237547   2.215   5.063  19.580
 4451TIP3    H137548   2.226   4.987  19.638
 4451TIP3    H237549   2.276   5.047  19.508
 4452TIP3   OH237550   3.373   5.982  19.606
 4452TIP3    H137551   3.456   5.952  19.569
 4452TIP3    H237552   3.312   5.910  19.588
 4453TIP3   OH237553   3.134   5.412  19.777
 4453TIP3    H137554   3.163   5.321  19.780
 4453TIP3    H237555   3.213   5.461  19.755
 4454TIP3   OH237556   3.279   4.855  19.767
 4454TIP3    H137557   3.299   4.775  19.815
 4454TIP3    H237558   3.343   4.857  19.695
 4455TIP3   OH237559   2.641   4.581  19.648
 4455TIP3    H137560   2.672   4.663  19.608
 4455TIP3    H237561   2.592   4.538  19.579
 4456TIP3   OH237562   3.582   4.648  19.432
 4456TIP3    H137563   3.595   4.623  19.523
 4456TIP3    H237564   3.669   4.672  19.401
 4457TIP3   OH237565   2.279   4.824  19.708
 4457TIP3    H137566   2.329   4.785  19.780
 4457TIP3    H237567   2.321   4.790  19.629
 4458TIP3   OH237568   2.818   5.037  19.585
 4458TIP3    H137569   2.911   5.014  19.585
 4458TIP3    H237570   2.773   4.956  19.560
 4459TIP3   OH237571   3.334   5.469  19.422
 4459TIP3    H137572   3.306   5.483  19.332
 4459TIP3    H237573   3.337   5.557  19.460
 4460TIP3   OH237574   3.607   4.616  19.701
 4460TIP3    H137575   3.534   4.614  19.762
 4460TIP3    H237576   3.674   4.668  19.746
 4461TIP3   OH237577   2.463   4.663  19.846
 4461TIP3    H137578   2.509   4.666  19.930
 4461TIP3    H237579   2.531   4.638  19.783
 4462TIP3   OH237580   2.216   5.544  19.283
 4462TIP3    H137581   2.222   5.588  19.198
 4462TIP3    H237582   2.241   5.611  19.346
 4463TIP3   OH237583   3.854   5.641  19.795
 4463TIP3    H137584   3.837   5.714  19.854
 4463TIP3    H237585   3.832   5.675  19.708
 4464TIP3   OH237586   2.996   4.247  19.725
 4464TIP3    H137587   2.990   4.163  19.770
 4464TIP3    H237588   2.908   4.284  19.731
 4465TIP3   OH237589   3.571   5.873  19.435
 4465TIP3    H137590   3.616   5.789  19.427
 4465TIP3    H237591   3.640   5.935  19.459
 4466TIP3   OH237592   3.694   5.626  19.419
 4466TIP3    H137593   3.714   5.559  19.354
 4466TIP3    H237594   3.674   5.578  19.499
 4467TIP3   OH237595   3.190   5.149  19.225
 4467TIP3    H137596   3.129   5.223  19.222
 4467TIP3    H237597   3.205   5.128  19.132
 4468TIP3   OH237598   3.272   5.050  18.971
 4468TIP3    H137599   3.351   5.047  19.025
 4468TIP3    H237600   3.290   4.990  18.899
 4469TIP3   OH237601   3.658   5.175  19.288
 4469TIP3    H137602   3.579   5.186  19.341
 4469TIP3    H237603   3.717   5.125  19.344
 4470TIP3   OH237604   2.684   5.253  19.461
 4470TIP3    H137605   2.654   5.214  19.379
 4470TIP3    H237606   2.735   5.183  19.503
 4471TIP3   OH237607   2.917   5.592  19.752
 4471TIP3    H137608   2.916   5.595  19.656
 4471TIP3    H237609   2.985   5.529  19.773
 4472TIP3   OH237610   2.711   5.174  19.801
 4472TIP3    H137611   2.746   5.123  19.728
 4472TIP3    H237612   2.781   5.175  19.866
 4473TIP3   OH237613   3.527   5.040  19.081
 4473TIP3    H137614   3.571   5.091  19.150
 4473TIP3    H237615   3.574   5.064  19.001
 4474TIP3   OH237616   3.312   5.751  19.445
 4474TIP3    H137617   3.399   5.786  19.425
 4474TIP3    H237618   3.261   5.771  19.366
 4475TIP3   OH237619   3.885   4.113  19.115
 4475TIP3    H137620   3.805   4.143  19.158
 4475TIP3    H237621   3.929   4.194  19.088
 4476TIP3   OH237622   2.588   5.159  19.215
 4476TIP3    H137623   2.518   5.223  19.201
 4476TIP3    H237624   2.549   5.075  19.189
 4477TIP3   OH237625   4.083   5.746  19.002
 4477TIP3    H137626   4.087   5.841  18.989
 4477TIP3    H237627   4.174   5.717  19.001
 4478TIP3   OH237628   2.193   5.723  19.786
 4478TIP3    H137629   2.274   5.677  19.807
 4478TIP3    H237630   2.127   5.653  19.781
 4479TIP3   OH237631   3.214   6.134  19.303
 4479TIP3    H137632   3.192   6.111  19.213
 4479TIP3    H237633   3.199   6.228  19.308
 4480TIP3   OH237634   2.504   5.998  19.492
 4480TIP3    H137635   2.527   5.959  19.576
 4480TIP3    H237636   2.453   5.931  19.447
 4481TIP3   OH237637   3.495   6.054  18.982
 4481TIP3    H137638   3.551   5.980  18.958
 4481TIP3    H237639   3.506   6.062  19.076
 4482TIP3   OH237640   3.485   6.073  19.260
 4482TIP3    H137641   3.396   6.092  19.289
 4482TIP3    H237642   3.516   6.003  19.317
 4483TIP3   OH237643   2.739   4.342  19.746
 4483TIP3    H137644   2.655   4.297  19.753
 4483TIP3    H237645   2.717   4.431  19.720
 4484TIP3   OH237646   3.635   5.130  18.839
 4484TIP3    H137647   3.643   5.125  18.744
 4484TIP3    H237648   3.717   5.169  18.868
 4485TIP3   OH237649   3.165   4.470  18.977
 4485TIP3    H137650   3.107   4.486  19.051
 4485TIP3    H237651   3.120   4.406  18.923
 4486TIP3   OH237652   2.676   4.812  19.496
 4486TIP3    H137653   2.582   4.802  19.487
 4486TIP3    H237654   2.711   4.790  19.410
 4487TIP3   OH237655   3.237   4.906  19.349
 4487TIP3    H137656   3.216   4.992  19.312
 4487TIP3    H237657   3.299   4.867  19.287
 4488TIP3   OH237658   3.436   4.855  19.544
 4488TIP3    H137659   3.377   4.890  19.477
 4488TIP3    H237660   3.477   4.779  19.503
 4489TIP3   OH237661   2.820   4.555  18.882
 4489TIP3    H137662   2.790   4.537  18.972
 4489TIP3    H237663   2.763   4.626  18.852
 4490TIP3   OH237664   2.143   4.515  19.486
 4490TIP3    H137665   2.198   4.496  19.562
 4490TIP3    H237666   2.142   4.611  19.480
 4491TIP3   OH237667   2.121   4.728  19.141
 4491TIP3    H137668   2.184   4.763  19.078
 4491TIP3    H237669   2.040   4.776  19.123
 4492TIP3   OH237670   3.096   4.510  19.550
 4492TIP3    H137671   3.011   4.476  19.579
 4492TIP3    H237672   3.156   4.488  19.621
 4493TIP3   OH237673   2.412   4.730  19.477
 4493TIP3    H137674   2.326   4.746  19.436
 4493TIP3    H237675   2.430   4.638  19.461
 4494TIP3   OH237676   2.791   4.744  19.256
 4494TIP3    H137677   2.881   4.737  19.286
 4494TIP3    H237678   2.795   4.800  19.178
 4495TIP3   OH237679   3.371   4.602  19.860
 4495TIP3    H137680   3.372   4.577  19.952
 4495TIP3    H237681   3.326   4.529  19.816
 4496TIP3   OH237682   2.810   4.887  19.023
 4496TIP3    H137683   2.762   4.851  18.948
 4496TIP3    H237684   2.875   4.945  18.984
 4497TIP3   OH237685   3.090   4.962  19.589
 4497TIP3    H137686   3.137   4.944  19.508
 4497TIP3    H237687   3.138   4.914  19.656
 4498TIP3   OH237688   2.501   4.467  19.432
 4498TIP3    H137689   2.452   4.388  19.454
 4498TIP3    H237690   2.540   4.448  19.347
 4499TIP3   OH237691   3.007   5.358  19.174
 4499TIP3    H137692   2.944   5.331  19.107
 4499TIP3    H237693   2.954   5.396  19.244
 4500TIP3   OH237694   3.414   4.543  19.067
 4500TIP3    H137695   3.327   4.522  19.034
 4500TIP3    H237696   3.408   4.635  19.093
 4501TIP3   OH237697   3.444   4.800  19.195
 4501TIP3    H137698   3.517   4.766  19.247
 4501TIP3    H237699   3.481   4.877  19.151
 4502TIP3   OH237700   2.527   5.341  19.685
 4502TIP3    H137701   2.563   5.325  19.597
 4502TIP3    H237702   2.578   5.284  19.742
 4503TIP3   OH237703   3.229   5.531  19.172
 4503TIP3    H137704   3.197   5.621  19.180
 4503TIP3    H237705   3.149   5.479  19.163
 4504TIP3   OH237706   3.943   4.870  19.119
 4504TIP3    H137707   3.910   4.849  19.032
 4504TIP3    H237708   3.970   4.962  19.113
 4505TIP3   OH237709   3.937   5.796  19.240
 4505TIP3    H137710   3.873   5.729  19.265
 4505TIP3    H237711   3.976   5.762  19.160
 4506TIP3   OH237712   3.533   5.240  19.722
 4506TIP3    H137713   3.440   5.220  19.722
 4506TIP3    H237714   3.576   5.158  19.700
 4507TIP3   OH237715   2.791   5.678  19.508
 4507TIP3    H137716   2.792   5.770  19.484
 4507TIP3    H237717   2.722   5.671  19.574
 4508TIP3   OH237718   2.271   5.130  19.031
 4508TIP3    H137719   2.307   5.208  19.073
 4508TIP3    H237720   2.176   5.138  19.043
 4509TIP3   OH237721   2.820   5.466  19.342
 4509TIP3    H137722   2.816   5.541  19.402
 4509TIP3    H237723   2.772   5.397  19.386
 4510TIP3   OH237724   2.783   5.949  19.442
 4510TIP3    H137725   2.699   5.993  19.456
 4510TIP3    H237726   2.847   6.003  19.489
 4511TIP3   OH237727   3.696   5.597  19.032
 4511TIP3    H137728   3.722   5.544  19.107
 4511TIP3    H237729   3.605   5.573  19.016
 4512TIP3   OH237730   4.076   6.043  18.988
 4512TIP3    H137731   4.083   6.102  18.914
 4512TIP3    H237732   4.002   6.077  19.039
 4513TIP3   OH237733   3.771   5.428  19.237
 4513TIP3    H137734   3.724   5.345  19.249
 4513TIP3    H237735   3.863   5.405  19.241
 4514TIP3   OH237736   2.971   5.638  18.896
 4514TIP3    H137737   2.947   5.564  18.840
 4514TIP3    H237738   2.909   5.633  18.969
 4515TIP3   OH237739   2.790   5.630  19.117
 4515TIP3    H137740   2.802   5.570  19.190
 4515TIP3    H237741   2.824   5.714  19.148
 4516TIP3   OH237742   2.387   5.349  19.167
 4516TIP3    H137743   2.326   5.396  19.224
 4516TIP3    H237744   2.439   5.418  19.126
 4517TIP3   OH237745   3.473   4.424  19.308
 4517TIP3    H137746   3.458   4.461  19.221
 4517TIP3    H237747   3.512   4.497  19.357
 4518TIP3   OH237748   3.162   5.801  19.211
 4518TIP3    H137749   3.068   5.815  19.217
 4518TIP3    H237750   3.194   5.875  19.159
 4519TIP3   OH237751   3.048   4.700  19.353
 4519TIP3    H137752   3.111   4.772  19.353
 4519TIP3    H237753   3.069   4.649  19.431
 4520TIP3   OH237754   3.209   4.350  19.347
 4520TIP3    H137755   3.179   4.401  19.423
 4520TIP3    H237756   3.302   4.371  19.339
 4521TIP3   OH237757   2.893   5.870  19.203
 4521TIP3    H137758   2.899   5.949  19.150
 4521TIP3    H237759   2.854   5.899  19.285
 4522TIP3   OH237760   2.736   4.495  19.141
 4522TIP3    H137761   2.731   4.581  19.184
 4522TIP3    H237762   2.824   4.463  19.163
 4523TIP3   OH237763   3.647   4.984  19.666
 4523TIP3    H137764   3.570   4.940  19.630
 4523TIP3    H237765   3.689   4.918  19.721
 4524TIP3   OH237766   2.530   5.556  19.041
 4524TIP3    H137767   2.606   5.598  19.082
 4524TIP3    H237768   2.566   5.506  18.968
 4525TIP3   OH237769   2.288   4.862  18.969
 4525TIP3    H137770   2.279   4.954  18.995
 4525TIP3    H237771   2.345   4.864  18.893
 4526TIP3   OH237772   3.880   6.067  19.804
 4526TIP3    H137773   3.848   6.145  19.759
 4526TIP3    H237774   3.971   6.059  19.777
 4527TIP3   OH237775   2.472   4.250  19.736
 4527TIP3    H137776   2.449   4.239  19.643
 4527TIP3    H237777   2.446   4.168  19.777
 4528TIP3   OH237778   2.292   5.795  19.412
 4528TIP3    H137779   2.255   5.833  19.491
 4528TIP3    H237780   2.268   5.855  19.342
 4529TIP3   OH237781   3.159   5.835  18.842
 4529TIP3    H137782   3.096   5.766  18.863
 4529TIP3    H237783   3.241   5.788  18.826
 4530TIP3   OH237784   3.654   5.839  18.897
 4530TIP3    H137785   3.680   5.764  18.951
 4530TIP3    H237786   3.729   5.853  18.839
 4531TIP3   OH237787   2.651   5.402  18.849
 4531TIP3    H137788   2.686   5.343  18.915
 4531TIP3    H237789   2.726   5.425  18.794
 4532TIP3   OH237790   3.433   5.527  18.989
 4532TIP3    H137791   3.368   5.528  19.058
 4532TIP3    H237792   3.422   5.442  18.946
 4533TIP3   OH237793   2.788   5.243  19.031
 4533TIP3    H137794   2.736   5.202  19.099
 4533TIP3    H237795   2.845   5.173  18.998
 4534TIP3   OH237796   2.983   5.076  18.912
 4534TIP3    H137797   2.980   5.102  18.820
 4534TIP3    H237798   3.076   5.071  18.933
 4535TIP3   OH237799   3.890   5.249  18.857
 4535TIP3    H137800   3.921   5.230  18.769
 4535TIP3    H237801   3.906   5.343  18.868
 4536TIP3   OH237802   2.934   6.095  19.051
 4536TIP3    H137803   3.028   6.090  19.032
 4536TIP3    H237804   2.905   6.173  19.004
 4537TIP3   OH237805   2.266   5.649  19.029
 4537TIP3    H137806   2.361   5.635  19.036
 4537TIP3    H237807   2.241   5.601  18.950
 4538TIP3   OH237808   2.130   6.150  19.467
 4538TIP3    H137809   2.046   6.117  19.433
 4538TIP3    H237810   2.155   6.087  19.534
 4539TIP3   OH237811   2.215   5.953  19.640
 4539TIP3    H137812   2.191   5.875  19.689
 4539TIP3    H237813   2.277   5.999  19.697
 4540TIP3   OH237814   4.034   5.343  19.257
 4540TIP3    H137815   4.111   5.399  19.257
 4540TIP3    H237816   4.046   5.286  19.333
 4541TIP3   OH237817   4.058   5.156  19.455
 4541TIP3    H137818   3.979   5.103  19.460
 4541TIP3    H237819   4.112   5.126  19.528
 4542TIP3   OH237820   4.120   5.550  19.807
 4542TIP3    H137821   4.121   5.454  19.810
 4542TIP3    H237822   4.027   5.573  19.807
 4543TIP3   OH237823   4.029   5.137  19.072
 4543TIP3    H137824   3.978   5.169  18.998
 4543TIP3    H237825   4.020   5.206  19.138
 4544TIP3   OH237826   3.864   4.790  18.870
 4544TIP3    H137827   3.858   4.809  18.776
 4544TIP3    H237828   3.863   4.694  18.875
 4545TIP3   OH237829   3.820   5.004  19.449
 4545TIP3    H137830   3.821   4.913  19.419
 4545TIP3    H237831   3.766   5.002  19.529
 4546TIP3   OH237832   2.241   5.291  19.736
 4546TIP3    H137833   2.232   5.219  19.674
 4546TIP3    H237834   2.333   5.317  19.729
 4547TIP3   OH237835   3.858   4.512  18.883
 4547TIP3    H137836   3.899   4.456  18.949
 4547TIP3    H237837   3.767   4.485  18.881
 4548TIP3   OH237838   3.823   4.736  19.332
 4548TIP3    H137839   3.848   4.643  19.325
 4548TIP3    H237840   3.863   4.777  19.256
 4549TIP3   OH237841   3.795   4.794  19.809
 4549TIP3    H137842   3.881   4.797  19.766
 4549TIP3    H237843   3.814   4.813  19.901
 4550TIP3   OH237844   3.842   4.450  19.338
 4550TIP3    H137845   3.902   4.405  19.397
 4550TIP3    H237846   3.791   4.380  19.297
 4551TIP3   OH237847   2.309   4.479  19.702
 4551TIP3    H137848   2.357   4.399  19.723
 4551TIP3    H237849   2.345   4.546  19.761
 4552TIP3   OH237850   2.006   4.868  19.779
 4552TIP3    H137851   2.094   4.839  19.756
 4552TIP3    H237852   2.018   4.956  19.813
 4553TIP3   OH237853   4.019   4.336  19.030
 4553TIP3    H137854   4.075   4.300  18.961
 4553TIP3    H237855   4.081   4.370  19.095
 4554TIP3   OH237856   2.148   4.461  19.210
 4554TIP3    H137857   2.149   4.465  19.306
 4554TIP3    H237858   2.144   4.552  19.182
 4555TIP3   OH237859   3.751   6.070  19.492
 4555TIP3    H137860   3.834   6.060  19.445
 4555TIP3    H237861   3.765   6.145  19.550
 4556TIP3   OH237862   2.404   6.054  19.822
 4556TIP3    H137863   2.387   6.030  19.913
 4556TIP3    H237864   2.473   5.994  19.793
 4557TIP3   OH237865   2.590   5.876  19.729
 4557TIP3    H137866   2.583   5.781  19.734
 4557TIP3    H237867   2.683   5.894  19.743
 4558TIP3   OH237868   2.862   5.881  19.750
 4558TIP3    H137869   2.928   5.926  19.696
 4558TIP3    H237870   2.898   5.793  19.764
 4559TIP3   OH237871   3.241   4.384  19.748
 4559TIP3    H137872   3.160   4.332  19.755
 4559TIP3    H237873   3.306   4.323  19.714
 4560TIP3   OH237874   3.809   4.186  19.658
 4560TIP3    H137875   3.882   4.228  19.612
 4560TIP3    H237876   3.763   4.259  19.700
 4561TIP3   OH237877   4.014   4.302  19.510
 4561TIP3    H137878   4.070   4.226  19.493
 4561TIP3    H237879   4.075   4.376  19.513
 4562TIP3   OH237880   2.387   4.213  19.476
 4562TIP3    H137881   2.297   4.190  19.452
 4562TIP3    H237882   2.436   4.131  19.463
 4563TIP3   OH237883   2.292   4.250  19.099
 4563TIP3    H137884   2.374   4.287  19.066
 4563TIP3    H237885   2.247   4.324  19.140
 4564TIP3   OH237886   3.006   4.067  19.494
 4564TIP3    H137887   3.085   4.062  19.440
 4564TIP3    H237888   3.023   4.140  19.553
 4565TIP3   OH237889   3.411   4.203  19.635
 4565TIP3    H137890   3.467   4.218  19.559
 4565TIP3    H237891   3.427   4.112  19.659
 4566TIP3   OH237892   3.665   4.230  19.251
 4566TIP3    H137893   3.600   4.297  19.270
 4566TIP3    H237894   3.620   4.147  19.266
 4567TIP3   OH237895   2.220   6.000  19.246
 4567TIP3    H137896   2.158   6.017  19.175
 4567TIP3    H237897   2.201   6.067  19.312
 4568TIP3   OH237898   2.533   4.351  19.006
 4568TIP3    H137899   2.575   4.311  18.931
 4568TIP3    H237900   2.603   4.399  19.051
 4569TIP3   OH237901   3.005   4.473  19.204
 4569TIP3    H137902   3.066   4.413  19.247
 4569TIP3    H237903   3.016   4.556  19.250
 4570TIP3   OH237904   3.214   6.026  19.032
 4570TIP3    H137905   3.305   6.050  19.012
 4570TIP3    H237906   3.190   5.964  18.963
 4571TIP3   OH237907   3.980   6.048  19.334
 4571TIP3    H137908   3.972   5.957  19.307
 4571TIP3    H237909   3.948   6.099  19.259
 4572TIP3   OH237910   2.339   6.029  18.827
 4572TIP3    H137911   2.320   6.019  18.921
 4572TIP3    H237912   2.431   6.002  18.819
 4573TIP3   OH237913   5.504   5.247  19.381
 4573TIP3    H137914   5.488   5.340  19.395
 4573TIP3    H237915   5.425   5.216  19.336
 4574TIP3   OH237916   5.396   5.084  19.835
 4574TIP3    H137917   5.384   4.989  19.836
 4574TIP3    H237918   5.326   5.117  19.779
 4575TIP3   OH237919   5.694   5.472  19.735
 4575TIP3    H137920   5.679   5.385  19.771
 4575TIP3    H237921   5.769   5.506  19.784
 4576TIP3   OH237922   4.673   5.638  19.704
 4576TIP3    H137923   4.651   5.548  19.682
 4576TIP3    H237924   4.758   5.632  19.747
 4577TIP3   OH237925   4.215   4.758  19.424
 4577TIP3    H137926   4.145   4.815  19.458
 4577TIP3    H237927   4.194   4.748  19.331
 4578TIP3   OH237928   4.273   5.090  19.636
 4578TIP3    H137929   4.295   5.002  19.668
 4578TIP3    H237930   4.345   5.114  19.579
 4579TIP3   OH237931   5.451   6.067  19.635
 4579TIP3    H137932   5.513   6.014  19.586
 4579TIP3    H237933   5.367   6.023  19.624
 4580TIP3   OH237934   5.199   5.523  19.765
 4580TIP3    H137935   5.258   5.543  19.692
 4580TIP3    H237936   5.255   5.483  19.831
 4581TIP3   OH237937   5.360   4.810  19.769
 4581TIP3    H137938   5.382   4.723  19.800
 4581TIP3    H237939   5.425   4.829  19.700
 4582TIP3   OH237940   4.718   4.573  19.645
 4582TIP3    H137941   4.743   4.656  19.605
 4582TIP3    H237942   4.671   4.527  19.577
 4583TIP3   OH237943   5.628   4.626  19.485
 4583TIP3    H137944   5.669   4.594  19.566
 4583TIP3    H237945   5.701   4.636  19.424
 4584TIP3   OH237946   4.346   4.831  19.705
 4584TIP3    H137947   4.398   4.786  19.773
 4584TIP3    H237948   4.380   4.797  19.623
 4585TIP3   OH237949   4.900   5.026  19.576
 4585TIP3    H137950   4.990   4.994  19.583
 4585TIP3    H237951   4.849   4.948  19.552
 4586TIP3   OH237952   5.448   5.521  19.379
 4586TIP3    H137953   5.416   5.520  19.288
 4586TIP3    H237954   5.414   5.603  19.415
 4587TIP3   OH237955   5.693   4.509  19.730
 4587TIP3    H137956   5.610   4.527  19.773
 4587TIP3    H237957   5.690   4.416  19.708
 4588TIP3   OH237958   4.532   4.661  19.835
 4588TIP3    H137959   4.577   4.664  19.920
 4588TIP3    H237960   4.600   4.636  19.773
 4589TIP3   OH237961   4.263   5.505  19.243
 4589TIP3    H137962   4.274   5.549  19.159
 4589TIP3    H237963   4.270   5.575  19.308
 4590TIP3   OH237964   5.919   5.649  19.766
 4590TIP3    H137965   5.909   5.741  19.791
 4590TIP3    H237966   5.890   5.645  19.675
 4591TIP3   OH237967   5.034   4.209  19.761
 4591TIP3    H137968   5.015   4.127  19.807
 4591TIP3    H237969   4.953   4.260  19.768
 4592TIP3   OH237970   5.621   5.912  19.473
 4592TIP3    H137971   5.643   5.821  19.490
 4592TIP3    H237972   5.698   5.961  19.500
 4593TIP3   OH237973   5.664   5.641  19.520
 4593TIP3    H137974   5.607   5.592  19.461
 4593TIP3    H237975   5.672   5.586  19.598
 4594TIP3   OH237976   5.284   5.153  19.228
 4594TIP3    H137977   5.223   5.225  19.215
 4594TIP3    H237978   5.309   5.127  19.139
 4595TIP3   OH237979   5.395   5.041  18.995
 4595TIP3    H137980   5.478   5.028  19.040
 4595TIP3    H237981   5.399   4.983  18.919
 4596TIP3   OH237982   5.757   5.191  19.293
 4596TIP3    H137983   5.674   5.216  19.334
 4596TIP3    H237984   5.811   5.157  19.365
 4597TIP3   OH237985   4.813   5.262  19.436
 4597TIP3    H137986   4.770   5.223  19.360
 4597TIP3    H237987   4.853   5.188  19.481
 4598TIP3   OH237988   4.953   5.649  19.755
 4598TIP3    H137989   4.949   5.666  19.661
 4598TIP3    H237990   5.034   5.600  19.768
 4599TIP3   OH237991   4.765   5.155  19.780
 4599TIP3    H137992   4.810   5.110  19.709
 4599TIP3    H237993   4.817   5.137  19.858
 4600TIP3   OH237994   5.650   5.025  19.099
 4600TIP3    H137995   5.683   5.081  19.170
 4600TIP3    H237996   5.698   5.055  19.022
 4601TIP3   OH237997   5.368   5.778  19.431
 4601TIP3    H137998   5.444   5.836  19.433
 4601TIP3    H237999   5.320   5.803  19.352
 4602TIP3   OH238000   6.043   4.105  19.119
 4602TIP3    H138001   5.953   4.132  19.136
 4602TIP3    H238002   6.090   4.187  19.104
 4603TIP3   OH238003   4.678   5.157  19.213
 4603TIP3    H138004   4.601   5.212  19.198
 4603TIP3    H238005   4.647   5.067  19.198
 4604TIP3   OH238006   6.156   5.768  18.982
 4604TIP3    H138007   6.164   5.863  18.980
 4604TIP3    H238008   6.246   5.736  18.984
 4605TIP3   OH238009   4.305   5.738  19.729
 4605TIP3    H138010   4.386   5.686  19.735
 4605TIP3    H238011   4.236   5.678  19.758
 4606TIP3   OH238012   5.313   6.165  19.287
 4606TIP3    H138013   5.236   6.152  19.231
 4606TIP3    H238014   5.297   6.248  19.331
 4607TIP3   OH238015   4.603   6.053  19.492
 4607TIP3    H138016   4.610   6.008  19.576
 4607TIP3    H238017   4.542   5.999  19.442
 4608TIP3   OH238018   5.588   6.049  18.963
 4608TIP3    H138019   5.644   5.975  18.942
 4608TIP3    H238020   5.596   6.060  19.058
 4609TIP3   OH238021   5.570   6.075  19.243
 4609TIP3    H138022   5.480   6.104  19.257
 4609TIP3    H238023   5.588   6.016  19.316
 4610TIP3   OH238024   4.794   4.339  19.771
 4610TIP3    H138025   4.709   4.295  19.770
 4610TIP3    H238026   4.776   4.425  19.734
 4611TIP3   OH238027   5.774   5.154  18.889
 4611TIP3    H138028   5.779   5.139  18.794
 4611TIP3    H238029   5.853   5.204  18.910
 4612TIP3   OH238030   5.242   4.470  19.033
 4612TIP3    H138031   5.168   4.488  19.092
 4612TIP3    H238032   5.209   4.400  18.976
 4613TIP3   OH238033   4.744   4.806  19.496
 4613TIP3    H138034   4.650   4.795  19.488
 4613TIP3    H238035   4.778   4.789  19.409
 4614TIP3   OH238036   5.322   4.903  19.353
 4614TIP3    H138037   5.304   4.989  19.315
 4614TIP3    H238038   5.387   4.864  19.295
 4615TIP3   OH238039   5.518   4.867  19.554
 4615TIP3    H138040   5.459   4.894  19.483
 4615TIP3    H238041   5.555   4.784  19.524
 4616TIP3   OH238042   4.910   4.541  18.923
 4616TIP3    H138043   4.881   4.528  19.013
 4616TIP3    H238044   4.841   4.593  18.883
 4617TIP3   OH238045   4.213   4.490  19.489
 4617TIP3    H138046   4.270   4.475  19.565
 4617TIP3    H238047   4.208   4.585  19.480
 4618TIP3   OH238048   4.162   4.709  19.160
 4618TIP3    H138049   4.226   4.746  19.100
 4618TIP3    H238050   4.081   4.756  19.141
 4619TIP3   OH238051   5.128   4.533  19.581
 4619TIP3    H138052   5.047   4.548  19.630
 4619TIP3    H238053   5.185   4.489  19.644
 4620TIP3   OH238054   4.482   4.716  19.477
 4620TIP3    H138055   4.394   4.729  19.441
 4620TIP3    H238056   4.501   4.624  19.462
 4621TIP3   OH238057   4.855   4.750  19.251
 4621TIP3    H138058   4.948   4.746  19.275
 4621TIP3    H238059   4.853   4.800  19.170
 4622TIP3   OH238060   5.434   4.542  19.839
 4622TIP3    H138061   5.426   4.525  19.933
 4622TIP3    H238062   5.379   4.476  19.798
 4623TIP3   OH238063   4.839   4.875  19.007
 4623TIP3    H138064   4.794   4.822  18.942
 4623TIP3    H238065   4.896   4.933  18.956
 4624TIP3   OH238066   5.161   4.921  19.598
 4624TIP3    H138067   5.216   4.924  19.520
 4624TIP3    H238068   5.215   4.879  19.664
 4625TIP3   OH238069   4.582   4.454  19.431
 4625TIP3    H138070   4.535   4.372  19.446
 4625TIP3    H238071   4.625   4.442  19.346
 4626TIP3   OH238072   5.101   5.368  19.173
 4626TIP3    H138073   5.035   5.329  19.116
 4626TIP3    H238074   5.051   5.419  19.237
 4627TIP3   OH238075   5.494   4.531  19.115
 4627TIP3    H138076   5.406   4.513  19.083
 4627TIP3    H238077   5.492   4.625  19.137
 4628TIP3   OH238078   5.549   4.795  19.215
 4628TIP3    H138079   5.626   4.746  19.245
 4628TIP3    H238080   5.585   4.872  19.171
 4629TIP3   OH238081   4.659   5.371  19.644
 4629TIP3    H138082   4.705   5.346  19.564
 4629TIP3    H238083   4.682   5.302  19.707
 4630TIP3   OH238084   5.315   5.549  19.136
 4630TIP3    H138085   5.280   5.637  19.150
 4630TIP3    H238086   5.239   5.492  19.139
 4631TIP3   OH238087   6.176   4.878  19.083
 4631TIP3    H138088   6.115   4.835  19.023
 4631TIP3    H238089   6.177   4.970  19.056
 4632TIP3   OH238090   6.010   5.801  19.221
 4632TIP3    H138091   5.963   5.719  19.238
 4632TIP3    H238092   6.057   5.784  19.139
 4633TIP3   OH238093   5.645   5.213  19.828
 4633TIP3    H138094   5.556   5.185  19.850
 4633TIP3    H238095   5.680   5.143  19.773
 4634TIP3   OH238096   4.862   5.717  19.498
 4634TIP3    H138097   4.872   5.809  19.474
 4634TIP3    H238098   4.777   5.713  19.542
 4635TIP3   OH238099   4.305   5.118  19.027
 4635TIP3    H138100   4.349   5.186  19.079
 4635TIP3    H238101   4.213   5.124  19.052
 4636TIP3   OH238102   4.916   5.504  19.329
 4636TIP3    H138103   4.905   5.576  19.392
 4636TIP3    H238104   4.879   5.428  19.372
 4637TIP3   OH238105   4.870   5.989  19.431
 4637TIP3    H138106   4.783   6.026  19.445
 4637TIP3    H238107   4.931   6.060  19.456
 4638TIP3   OH238108   5.776   5.564  18.953
 4638TIP3    H138109   5.806   5.505  19.022
 4638TIP3    H238110   5.681   5.553  18.951
 4639TIP3   OH238111   6.157   6.050  19.025
 4639TIP3    H138112   6.205   6.128  18.998
 4639TIP3    H238113   6.075   6.083  19.060
 4640TIP3   OH238114   5.882   5.387  19.136
 4640TIP3    H138115   5.834   5.323  19.188
 4640TIP3    H238116   5.973   5.378  19.165
 4641TIP3   OH238117   5.053   5.638  18.879
 4641TIP3    H138118   5.031   5.558  18.831
 4641TIP3    H238119   4.993   5.639  18.954
 4642TIP3   OH238120   4.871   5.664  19.099
 4642TIP3    H138121   4.887   5.606  19.173
 4642TIP3    H238122   4.901   5.750  19.128
 4643TIP3   OH238123   4.460   5.326  19.152
 4643TIP3    H138124   4.392   5.373  19.201
 4643TIP3    H238125   4.513   5.395  19.112
 4644TIP3   OH238126   5.468   4.428  19.376
 4644TIP3    H138127   5.485   4.442  19.283
 4644TIP3    H238128   5.514   4.498  19.420
 4645TIP3   OH238129   5.235   5.814  19.186
 4645TIP3    H138130   5.143   5.837  19.194
 4645TIP3    H238131   5.272   5.880  19.127
 4646TIP3   OH238132   5.116   4.702  19.354
 4646TIP3    H138133   5.183   4.771  19.351
 4646TIP3    H238134   5.127   4.662  19.440
 4647TIP3   OH238135   5.213   4.331  19.407
 4647TIP3    H138136   5.179   4.398  19.467
 4647TIP3    H238137   5.304   4.357  19.392
 4648TIP3   OH238138   4.974   5.912  19.186
 4648TIP3    H138139   5.004   5.995  19.150
 4648TIP3    H238140   4.934   5.935  19.270
 4649TIP3   OH238141   4.767   4.496  19.177
 4649TIP3    H138142   4.774   4.587  19.205
 4649TIP3    H238143   4.852   4.458  19.200
 4650TIP3   OH238144   5.731   4.990  19.687
 4650TIP3    H138145   5.648   4.971  19.643
 4650TIP3    H238146   5.766   4.904  19.709
 4651TIP3   OH238147   4.609   5.540  19.034
 4651TIP3    H138148   4.676   5.596  19.072
 4651TIP3    H238149   4.654   5.493  18.964
 4652TIP3   OH238150   4.328   4.842  18.991
 4652TIP3    H138151   4.324   4.937  19.001
 4652TIP3    H238152   4.381   4.828  18.913
 4653TIP3   OH238153   5.879   5.921  19.785
 4653TIP3    H138154   5.865   5.967  19.703
 4653TIP3    H238155   5.871   5.989  19.852
 4654TIP3   OH238156   4.535   4.239  19.736
 4654TIP3    H138157   4.516   4.226  19.643
 4654TIP3    H238158   4.509   4.157  19.778
 4655TIP3   OH238159   4.402   5.929  19.353
 4655TIP3    H138160   4.330   5.944  19.414
 4655TIP3    H238161   4.373   5.968  19.271
 4656TIP3   OH238162   5.238   5.823  18.792
 4656TIP3    H138163   5.177   5.757  18.825
 4656TIP3    H238164   5.321   5.776  18.780
 4657TIP3   OH238165   5.735   5.831  18.868
 4657TIP3    H138166   5.763   5.749  18.909
 4657TIP3    H238167   5.808   5.854  18.810
 4658TIP3   OH238168   4.754   5.391  18.852
 4658TIP3    H138169   4.792   5.340  18.924
 4658TIP3    H238170   4.829   5.411  18.796
 4659TIP3   OH238171   5.499   5.537  18.930
 4659TIP3    H138172   5.439   5.544  19.003
 4659TIP3    H238173   5.500   5.444  18.908
 4660TIP3   OH238174   4.886   5.243  19.045
 4660TIP3    H138175   4.824   5.203  19.107
 4660TIP3    H238176   4.921   5.169  18.996
 4661TIP3   OH238177   5.005   5.059  18.874
 4661TIP3    H138178   5.003   5.097  18.786
 4661TIP3    H238179   5.095   5.027  18.884
 4662TIP3   OH238180   6.053   5.272  18.837
 4662TIP3    H138181   6.054   5.244  18.745
 4662TIP3    H238182   6.041   5.367  18.832
 4663TIP3   OH238183   5.105   6.144  19.090
 4663TIP3    H138184   5.178   6.101  19.045
 4663TIP3    H238185   5.086   6.220  19.036
 4664TIP3   OH238186   4.336   5.615  18.999
 4664TIP3    H138187   4.431   5.612  19.013
 4664TIP3    H238188   4.322   5.564  18.919
 4665TIP3   OH238189   4.186   6.183  19.456
 4665TIP3    H138190   4.117   6.138  19.407
 4665TIP3    H238191   4.214   6.119  19.521
 4666TIP3   OH238192   4.281   5.989  19.621
 4666TIP3    H138193   4.279   5.898  19.650
 4666TIP3    H238194   4.334   6.034  19.686
 4667TIP3   OH238195   6.145   5.342  19.235
 4667TIP3    H138196   6.209   5.412  19.247
 4667TIP3    H238197   6.153   5.289  19.314
 4668TIP3   OH238198   6.165   5.158  19.442
 4668TIP3    H138199   6.075   5.136  19.466
 4668TIP3    H238200   6.212   5.157  19.525
 4669TIP3   OH238201   6.176   5.551  19.822
 4669TIP3    H138202   6.167   5.456  19.822
 4669TIP3    H238203   6.086   5.584  19.811
 4670TIP3   OH238204   6.195   5.155  19.038
 4670TIP3    H138205   6.143   5.186  18.964
 4670TIP3    H238206   6.174   5.216  19.110
 4671TIP3   OH238207   6.011   4.740  18.908
 4671TIP3    H138208   5.989   4.773  18.821
 4671TIP3    H238209   5.989   4.647  18.905
 4672TIP3   OH238210   5.909   5.054  19.488
 4672TIP3    H138211   5.925   4.963  19.464
 4672TIP3    H238212   5.848   5.050  19.561
 4673TIP3   OH238213   4.189   5.275  19.823
 4673TIP3    H138214   4.215   5.217  19.751
 4673TIP3    H238215   4.271   5.305  19.861
 4674TIP3   OH238216   5.944   4.466  18.872
 4674TIP3    H138217   5.951   4.373  18.854
 4674TIP3    H238218   5.850   4.482  18.885
 4675TIP3   OH238219   5.804   4.658  19.274
 4675TIP3    H138220   5.839   4.569  19.282
 4675TIP3    H238221   5.862   4.701  19.211
 4676TIP3   OH238222   5.839   4.747  19.726
 4676TIP3    H138223   5.933   4.740  19.740
 4676TIP3    H238224   5.806   4.658  19.740
 4677TIP3   OH238225   5.909   4.403  19.310
 4677TIP3    H138226   5.947   4.360  19.386
 4677TIP3    H238227   5.863   4.333  19.264
 4678TIP3   OH238228   4.376   4.468  19.706
 4678TIP3    H138229   4.427   4.390  19.728
 4678TIP3    H238230   4.416   4.538  19.759
 4679TIP3   OH238231   4.058   4.846  19.734
 4679TIP3    H138232   4.153   4.831  19.731
 4679TIP3    H238233   4.048   4.928  19.782
 4680TIP3   OH238234   6.177   4.336  19.034
 4680TIP3    H138235   6.177   4.301  18.945
 4680TIP3    H238236   6.129   4.418  19.028
 4681TIP3   OH238237   4.204   4.440  19.211
 4681TIP3    H138238   4.208   4.439  19.307
 4681TIP3    H238239   4.192   4.532  19.189
 4682TIP3   OH238240   5.836   6.071  19.554
 4682TIP3    H138241   5.908   6.064  19.490
 4682TIP3    H238242   5.827   6.165  19.569
 4683TIP3   OH238243   4.449   6.090  19.818
 4683TIP3    H138244   4.433   6.066  19.909
 4683TIP3    H238245   4.519   6.031  19.790
 4684TIP3   OH238246   4.639   5.912  19.733
 4684TIP3    H138247   4.629   5.817  19.720
 4684TIP3    H238248   4.720   5.921  19.783
 4685TIP3   OH238249   4.870   5.881  19.879
 4685TIP3    H138250   4.904   5.801  19.839
 4685TIP3    H238251   4.924   5.894  19.957
 4686TIP3   OH238252   5.274   4.343  19.729
 4686TIP3    H138253   5.194   4.295  19.750
 4686TIP3    H238254   5.329   4.280  19.682
 4687TIP3   OH238255   5.910   4.146  19.691
 4687TIP3    H138256   5.964   4.204  19.638
 4687TIP3    H238257   5.823   4.184  19.686
 4688TIP3   OH238258   6.064   4.301  19.522
 4688TIP3    H138259   6.136   4.243  19.500
 4688TIP3    H238260   6.104   4.374  19.570
 4689TIP3   OH238261   4.464   4.196  19.472
 4689TIP3    H138262   4.372   4.178  19.456
 4689TIP3    H238263   4.508   4.113  19.454
 4690TIP3   OH238264   4.361   4.243  19.092
 4690TIP3    H138265   4.434   4.293  19.055
 4690TIP3    H238266   4.309   4.308  19.139
 4691TIP3   OH238267   5.012   4.141  19.489
 4691TIP3    H138268   5.078   4.194  19.445
 4691TIP3    H238269   5.019   4.165  19.581
 4692TIP3   OH238270   5.653   4.252  19.628
 4692TIP3    H138271   5.636   4.274  19.537
 4692TIP3    H238272   5.596   4.178  19.646
 4693TIP3   OH238273   5.785   4.194  19.167
 4693TIP3    H138274   5.758   4.203  19.076
 4693TIP3    H238275   5.720   4.135  19.206
 4694TIP3   OH238276   4.328   6.058  19.111
 4694TIP3    H138277   4.238   6.048  19.079
 4694TIP3    H238278   4.344   6.152  19.107
 4695TIP3   OH238279   4.573   4.405  18.989
 4695TIP3    H138280   4.625   4.354  18.927
 4695TIP3    H238281   4.637   4.434  19.055
 4696TIP3   OH238282   5.038   4.468  19.230
 4696TIP3    H138283   5.089   4.401  19.275
 4696TIP3    H238284   5.064   4.551  19.272
 4697TIP3   OH238285   5.314   5.999  18.989
 4697TIP3    H138286   5.405   6.024  18.976
 4697TIP3    H238287   5.293   5.943  18.914
 4698TIP3   OH238288   6.031   6.041  19.354
 4698TIP3    H138289   6.026   5.953  19.317
 4698TIP3    H238290   6.003   6.098  19.282
 4699TIP3   OH238291   4.463   5.994  18.871
 4699TIP3    H138292   4.431   6.004  18.961
 4699TIP3    H238293   4.548   5.950  18.880
 4700TIP3   OH238294   7.566   5.272  19.438
 4700TIP3    H138295   7.572   5.258  19.533
 4700TIP3    H238296   7.488   5.222  19.412
 4701TIP3   OH238297   7.357   5.121  19.788
 4701TIP3    H138298   7.376   5.045  19.843
 4701TIP3    H238299   7.305   5.087  19.715
 4702TIP3   OH238300   7.706   5.510  19.653
 4702TIP3    H138301   7.702   5.426  19.699
 4702TIP3    H238302   7.763   5.564  19.708
 4703TIP3   OH238303   6.780   5.620  19.731
 4703TIP3    H138304   6.751   5.532  19.707
 4703TIP3    H238305   6.858   5.605  19.785
 4704TIP3   OH238306   6.300   4.944  19.325
 4704TIP3    H138307   6.257   5.022  19.358
 4704TIP3    H238308   6.253   4.923  19.244
 4705TIP3   OH238309   6.331   5.115  19.664
 4705TIP3    H138310   6.345   5.020  19.672
 4705TIP3    H238311   6.419   5.152  19.666
 4706TIP3   OH238312   7.562   6.006  19.689
 4706TIP3    H138313   7.629   5.951  19.649
 4706TIP3    H238314   7.481   5.958  19.676
 4707TIP3   OH238315   7.261   5.395  19.805
 4707TIP3    H138316   7.283   5.302  19.807
 4707TIP3    H238317   7.346   5.439  19.808
 4708TIP3   OH238318   7.413   4.824  19.797
 4708TIP3    H138319   7.439   4.750  19.852
 4708TIP3    H238320   7.473   4.821  19.723
 4709TIP3   OH238321   6.740   4.624  19.549
 4709TIP3    H138322   6.751   4.708  19.504
 4709TIP3    H238323   6.695   4.569  19.485
 4710TIP3   OH238324   7.716   4.604  19.480
 4710TIP3    H138325   7.742   4.600  19.572
 4710TIP3    H238326   7.794   4.638  19.435
 4711TIP3   OH238327   6.379   4.839  19.673
 4711TIP3    H138328   6.446   4.796  19.726
 4711TIP3    H238329   6.395   4.808  19.584
 4712TIP3   OH238330   6.981   5.015  19.566
 4712TIP3    H138331   7.073   4.991  19.577
 4712TIP3    H238332   6.940   4.937  19.529
 4713TIP3   OH238333   7.492   5.538  19.482
 4713TIP3    H138334   7.512   5.452  19.446
 4713TIP3    H238335   7.558   5.552  19.549
 4714TIP3   OH238336   7.766   4.647  19.744
 4714TIP3    H138337   7.696   4.631  19.807
 4714TIP3    H238338   7.828   4.703  19.790
 4715TIP3   OH238339   6.599   4.699  19.775
 4715TIP3    H138340   6.660   4.730  19.841
 4715TIP3    H238341   6.654   4.674  19.701
 4716TIP3   OH238342   6.348   5.537  19.243
 4716TIP3    H138343   6.350   5.569  19.153
 4716TIP3    H238344   6.361   5.614  19.297
 4717TIP3   OH238345   7.880   5.676  19.790
 4717TIP3    H138346   7.940   5.651  19.860
 4717TIP3    H238347   7.907   5.764  19.764
 4718TIP3   OH238348   7.107   4.296  19.692
 4718TIP3    H138349   7.094   4.222  19.751
 4718TIP3    H238350   7.020   4.336  19.683
 4719TIP3   OH238351   7.714   5.855  19.509
 4719TIP3    H138352   7.752   5.773  19.479
 4719TIP3    H238353   7.782   5.920  19.493
 4720TIP3   OH238354   7.806   5.614  19.416
 4720TIP3    H138355   7.846   5.545  19.362
 4720TIP3    H238356   7.778   5.569  19.495
 4721TIP3   OH238357   7.379   5.137  19.271
 4721TIP3    H138358   7.304   5.192  19.251
 4721TIP3    H238359   7.440   5.150  19.198
 4722TIP3   OH238360   7.411   5.048  18.898
 4722TIP3    H138361   7.473   5.053  18.971
 4722TIP3    H238362   7.454   4.989  18.835
 4723TIP3   OH238363   7.771   5.173  19.288
 4723TIP3    H138364   7.707   5.211  19.348
 4723TIP3    H238365   7.821   5.111  19.342
 4724TIP3   OH238366   6.877   5.244  19.437
 4724TIP3    H138367   6.820   5.202  19.373
 4724TIP3    H238368   6.922   5.171  19.480
 4725TIP3   OH238369   7.063   5.596  19.787
 4725TIP3    H138370   7.061   5.611  19.692
 4725TIP3    H238371   7.124   5.524  19.799
 4726TIP3   OH238372   6.849   5.131  19.782
 4726TIP3    H138373   6.895   5.089  19.709
 4726TIP3    H238374   6.913   5.132  19.853
 4727TIP3   OH238375   7.624   5.072  19.079
 4727TIP3    H138376   7.676   5.109  19.151
 4727TIP3    H238377   7.671   5.100  19.000
 4728TIP3   OH238378   7.452   5.869  19.441
 4728TIP3    H138379   7.544   5.867  19.466
 4728TIP3    H238380   7.438   5.957  19.405
 4729TIP3   OH238381   8.040   4.143  19.136
 4729TIP3    H138382   7.959   4.176  19.175
 4729TIP3    H238383   8.088   4.221  19.111
 4730TIP3   OH238384   6.692   5.123  19.257
 4730TIP3    H138385   6.656   5.211  19.249
 4730TIP3    H238386   6.651   5.074  19.187
 4731TIP3   OH238387   8.147   5.808  18.878
 4731TIP3    H138388   8.146   5.903  18.890
 4731TIP3    H238389   8.153   5.796  18.783
 4732TIP3   OH238390   6.381   5.723  19.759
 4732TIP3    H138391   6.453   5.661  19.771
 4732TIP3    H238392   6.302   5.674  19.782
 4733TIP3   OH238393   7.439   6.116  19.309
 4733TIP3    H138394   7.404   6.096  19.223
 4733TIP3    H238395   7.401   6.200  19.332
 4734TIP3   OH238396   6.663   6.013  19.524
 4734TIP3    H138397   6.695   5.984  19.609
 4734TIP3    H238398   6.576   5.972  19.516
 4735TIP3   OH238399   7.659   6.057  18.980
 4735TIP3    H138400   7.708   5.978  18.959
 4735TIP3    H238401   7.688   6.080  19.069
 4736TIP3   OH238402   7.709   6.117  19.246
 4736TIP3    H138403   7.619   6.113  19.278
 4736TIP3    H238404   7.762   6.087  19.320
 4737TIP3   OH238405   6.853   4.397  19.678
 4737TIP3    H138406   6.773   4.349  19.700
 4737TIP3    H238407   6.822   4.479  19.639
 4738TIP3   OH238408   7.762   5.168  18.859
 4738TIP3    H138409   7.778   5.166  18.765
 4738TIP3    H238410   7.844   5.201  18.896
 4739TIP3   OH238411   7.306   4.457  18.997
 4739TIP3    H138412   7.234   4.482  19.054
 4739TIP3    H238413   7.274   4.379  18.951
 4740TIP3   OH238414   6.744   4.869  19.397
 4740TIP3    H138415   6.728   4.958  19.365
 4740TIP3    H238416   6.802   4.830  19.333
 4741TIP3   OH238417   7.392   4.877  19.356
 4741TIP3    H138418   7.378   4.968  19.330
 4741TIP3    H238419   7.454   4.842  19.292
 4742TIP3   OH238420   7.559   4.812  19.568
 4742TIP3    H138421   7.507   4.837  19.491
 4742TIP3    H238422   7.608   4.735  19.540
 4743TIP3   OH238423   7.001   4.518  18.920
 4743TIP3    H138424   6.970   4.509  19.010
 4743TIP3    H238425   6.937   4.576  18.879
 4744TIP3   OH238426   6.179   4.534  19.628
 4744TIP3    H138427   6.263   4.513  19.670
 4744TIP3    H238428   6.148   4.612  19.674
 4745TIP3   OH238429   6.391   4.703  19.112
 4745TIP3    H138430   6.456   4.755  19.065
 4745TIP3    H238431   6.309   4.751  19.100
 4746TIP3   OH238432   7.237   4.518  19.558
 4746TIP3    H138433   7.169   4.459  19.590
 4746TIP3    H238434   7.305   4.515  19.625
 4747TIP3   OH238435   6.482   4.766  19.413
 4747TIP3    H138436   6.421   4.832  19.380
 4747TIP3    H238437   6.567   4.810  19.413
 4748TIP3   OH238438   6.926   4.747  19.234
 4748TIP3    H138439   7.014   4.738  19.271
 4748TIP3    H238440   6.938   4.794  19.152
 4749TIP3   OH238441   7.530   4.583  19.893
 4749TIP3    H138442   7.536   4.544  19.981
 4749TIP3    H238443   7.483   4.519  19.841
 4750TIP3   OH238444   6.953   4.874  18.995
 4750TIP3    H138445   6.901   4.825  18.931
 4750TIP3    H238446   7.016   4.922  18.941
 4751TIP3   OH238447   7.245   4.936  19.603
 4751TIP3    H138448   7.294   4.915  19.523
 4751TIP3    H238449   7.286   4.883  19.671
 4752TIP3   OH238450   6.626   4.457  19.350
 4752TIP3    H138451   6.607   4.369  19.381
 4752TIP3    H238452   6.699   4.446  19.289
 4753TIP3   OH238453   7.173   5.308  19.197
 4753TIP3    H138454   7.108   5.271  19.137
 4753TIP3    H238455   7.122   5.367  19.253
 4754TIP3   OH238456   7.550   4.536  19.091
 4754TIP3    H138457   7.463   4.517  19.056
 4754TIP3    H238458   7.552   4.632  19.100
 4755TIP3   OH238459   7.599   4.811  19.179
 4755TIP3    H138460   7.689   4.788  19.202
 4755TIP3    H238461   7.606   4.895  19.135
 4756TIP3   OH238462   6.751   5.358  19.660
 4756TIP3    H138463   6.786   5.333  19.575
 4756TIP3    H238464   6.769   5.283  19.717
 4757TIP3   OH238465   7.371   5.505  19.193
 4757TIP3    H138466   7.405   5.517  19.104
 4757TIP3    H238467   7.306   5.435  19.185
 4758TIP3   OH238468   8.075   4.857  19.173
 4758TIP3    H138469   8.057   4.816  19.088
 4758TIP3    H238470   8.071   4.951  19.157
 4759TIP3   OH238471   8.066   5.812  19.146
 4759TIP3    H138472   8.001   5.741  19.145
 4759TIP3    H238473   8.106   5.809  19.060
 4760TIP3   OH238474   7.605   5.225  19.706
 4760TIP3    H138475   7.524   5.195  19.748
 4760TIP3    H238476   7.663   5.150  19.710
 4761TIP3   OH238477   6.966   5.678  19.528
 4761TIP3    H138478   6.960   5.769  19.499
 4761TIP3    H238479   6.888   5.667  19.584
 4762TIP3   OH238480   6.475   5.153  19.031
 4762TIP3    H138481   6.500   5.233  19.077
 4762TIP3    H238482   6.379   5.152  19.034
 4763TIP3   OH238483   7.010   5.475  19.347
 4763TIP3    H138484   6.997   5.545  19.410
 4763TIP3    H238485   6.958   5.402  19.380
 4764TIP3   OH238486   6.922   5.942  19.447
 4764TIP3    H138487   6.832   5.972  19.461
 4764TIP3    H238488   6.976   6.020  19.456
 4765TIP3   OH238489   7.890   5.603  19.066
 4765TIP3    H138490   7.900   5.537  19.135
 4765TIP3    H238491   7.796   5.606  19.049
 4766TIP3   OH238492   8.131   6.080  18.916
 4766TIP3    H138493   8.160   6.155  18.864
 4766TIP3    H238494   8.100   6.118  18.998
 4767TIP3   OH238495   7.913   5.409  19.256
 4767TIP3    H138496   7.862   5.328  19.254
 4767TIP3    H238497   8.001   5.380  19.280
 4768TIP3   OH238498   7.182   5.611  18.879
 4768TIP3    H138499   7.136   5.546  18.825
 4768TIP3    H238500   7.128   5.618  18.958
 4769TIP3   OH238501   7.024   5.622  19.103
 4769TIP3    H138502   7.009   5.570  19.182
 4769TIP3    H238503   7.004   5.712  19.129
 4770TIP3   OH238504   6.567   5.371  19.178
 4770TIP3    H138505   6.495   5.417  19.221
 4770TIP3    H238506   6.612   5.439  19.129
 4771TIP3   OH238507   7.600   4.408  19.327
 4771TIP3    H138508   7.588   4.453  19.244
 4771TIP3    H238509   7.638   4.475  19.385
 4772TIP3   OH238510   7.274   5.820  19.196
 4772TIP3    H138511   7.180   5.837  19.189
 4772TIP3    H238512   7.315   5.891  19.147
 4773TIP3   OH238513   7.175   4.698  19.355
 4773TIP3    H138514   7.247   4.761  19.350
 4773TIP3    H238515   7.193   4.647  19.434
 4774TIP3   OH238516   7.331   4.350  19.355
 4774TIP3    H138517   7.307   4.406  19.430
 4774TIP3    H238518   7.425   4.363  19.345
 4775TIP3   OH238519   7.006   5.887  19.190
 4775TIP3    H138520   7.015   5.977  19.160
 4775TIP3    H238521   6.966   5.894  19.276
 4776TIP3   OH238522   6.846   4.485  19.173
 4776TIP3    H138523   6.852   4.579  19.190
 4776TIP3    H238524   6.932   4.450  19.196
 4777TIP3   OH238525   7.742   4.981  19.690
 4777TIP3    H138526   7.680   4.914  19.663
 4777TIP3    H238527   7.800   4.937  19.752
 4778TIP3   OH238528   6.670   5.578  19.002
 4778TIP3    H138529   6.699   5.665  18.975
 4778TIP3    H238530   6.736   5.518  18.967
 4779TIP3   OH238531   6.550   4.890  18.994
 4779TIP3    H138532   6.517   4.977  19.017
 4779TIP3    H238533   6.566   4.895  18.900
 4780TIP3   OH238534   8.006   5.925  19.748
 4780TIP3    H138535   7.978   6.016  19.736
 4780TIP3    H238536   8.101   5.927  19.735
 4781TIP3   OH238537   6.604   4.266  19.712
 4781TIP3    H138538   6.585   4.248  19.620
 4781TIP3    H238539   6.578   4.185  19.757
 4782TIP3   OH238540   6.395   5.791  19.345
 4782TIP3    H138541   6.385   5.839  19.427
 4782TIP3    H238542   6.404   5.859  19.279
 4783TIP3   OH238543   7.311   5.860  18.835
 4783TIP3    H138544   7.257   5.782  18.853
 4783TIP3    H238545   7.396   5.825  18.810
 4784TIP3   OH238546   7.798   5.828  18.898
 4784TIP3    H138547   7.867   5.781  18.944
 4784TIP3    H238548   7.838   5.855  18.815
 4785TIP3   OH238549   6.835   5.385  18.891
 4785TIP3    H138550   6.871   5.323  18.955
 4785TIP3    H238551   6.909   5.405  18.833
 4786TIP3   OH238552   7.441   5.537  18.926
 4786TIP3    H138553   7.350   5.560  18.907
 4786TIP3    H238554   7.455   5.455  18.880
 4787TIP3   OH238555   6.971   5.188  19.042
 4787TIP3    H138556   6.917   5.117  19.077
 4787TIP3    H238557   7.027   5.145  18.977
 4788TIP3   OH238558   7.132   5.051  18.867
 4788TIP3    H138559   7.125   5.081  18.776
 4788TIP3    H238560   7.227   5.048  18.884
 4789TIP3   OH238561   8.025   5.267  18.894
 4789TIP3    H138562   8.059   5.232  18.812
 4789TIP3    H238563   8.059   5.356  18.897
 4790TIP3   OH238564   7.062   6.155  19.145
 4790TIP3    H138565   7.134   6.179  19.087
 4790TIP3    H238566   6.988   6.209  19.116
 4791TIP3   OH238567   6.395   5.620  18.982
 4791TIP3    H138568   6.490   5.619  18.992
 4791TIP3    H238569   6.378   5.559  18.911
 4792TIP3   OH238570   6.262   6.149  19.461
 4792TIP3    H138571   6.186   6.110  19.418
 4792TIP3    H238572   6.300   6.076  19.511
 4793TIP3   OH238573   6.398   5.943  19.596
 4793TIP3    H138574   6.378   5.860  19.641
 4793TIP3    H238575   6.429   6.001  19.666
 4794TIP3   OH238576   8.159   5.304  19.326
 4794TIP3    H138577   8.231   5.360  19.353
 4794TIP3    H238578   8.159   5.232  19.389
 4795TIP3   OH238579   8.146   5.085  19.494
 4795TIP3    H138580   8.057   5.057  19.476
 4795TIP3    H238581   8.162   5.057  19.584
 4796TIP3   OH238582   8.357   5.400  19.841
 4796TIP3    H138583   8.448   5.394  19.868
 4796TIP3    H238584   8.342   5.493  19.827
 4797TIP3   OH238585   8.077   5.124  19.126
 4797TIP3    H138586   8.057   5.172  19.045
 4797TIP3    H238587   8.109   5.191  19.186
 4798TIP3   OH238588   8.005   4.738  18.936
 4798TIP3    H138589   7.999   4.776  18.848
 4798TIP3    H238590   7.971   4.649  18.927
 4799TIP3   OH238591   7.892   4.983  19.456
 4799TIP3    H138592   7.903   4.890  19.436
 4799TIP3    H238593   7.843   4.984  19.538
 4800TIP3   OH238594   6.149   5.271  19.806
 4800TIP3    H138595   6.220   5.227  19.759
 4800TIP3    H238596   6.084   5.203  19.822
 4801TIP3   OH238597   7.923   4.476  18.896
 4801TIP3    H138598   7.929   4.423  18.975
 4801TIP3    H238599   7.833   4.463  18.866
 4802TIP3   OH238600   7.937   4.705  19.355
 4802TIP3    H138601   7.980   4.620  19.356
 4802TIP3    H238602   7.988   4.757  19.293
 4803TIP3   OH238603   7.932   4.852  19.849
 4803TIP3    H138604   8.014   4.881  19.809
 4803TIP3    H238605   7.945   4.866  19.943
 4804TIP3   OH238606   8.008   4.414  19.352
 4804TIP3    H138607   8.041   4.371  19.431
 4804TIP3    H238608   7.938   4.357  19.322
 4805TIP3   OH238609   6.427   4.484  19.730
 4805TIP3    H138610   6.484   4.407  19.735
 4805TIP3    H238611   6.483   4.556  19.760
 4806TIP3   OH238612   6.112   4.801  19.753
 4806TIP3    H138613   6.203   4.821  19.732
 4806TIP3    H238614   6.078   4.883  19.789
 4807TIP3   OH238615   8.179   4.351  19.007
 4807TIP3    H138616   8.194   4.295  18.931
 4807TIP3    H238617   8.175   4.440  18.972
 4808TIP3   OH238618   6.229   4.498  19.359
 4808TIP3    H138619   6.205   4.516  19.450
 4808TIP3    H238620   6.156   4.447  19.324
 4809TIP3   OH238621   7.880   6.064  19.455
 4809TIP3    H138622   7.965   6.047  19.413
 4809TIP3    H238623   7.902   6.111  19.535
 4810TIP3   OH238624   6.525   6.055  19.820
 4810TIP3    H138625   6.478   6.018  19.894
 4810TIP3    H238626   6.602   6.000  19.810
 4811TIP3   OH238627   6.739   5.892  19.764
 4811TIP3    H138628   6.730   5.798  19.749
 4811TIP3    H238629   6.824   5.901  19.808
 4812TIP3   OH238630   6.985   5.846  19.883
 4812TIP3    H138631   7.017   5.761  19.854
 4812TIP3    H238632   7.046   5.873  19.952
 4813TIP3   OH238633   7.384   4.391  19.757
 4813TIP3    H138634   7.297   4.350  19.757
 4813TIP3    H238635   7.441   4.328  19.713
 4814TIP3   OH238636   7.958   4.107  19.706
 4814TIP3    H138637   8.019   4.165  19.660
 4814TIP3    H238638   7.911   4.165  19.766
 4815TIP3   OH238639   8.131   4.262  19.560
 4815TIP3    H138640   8.193   4.191  19.542
 4815TIP3    H238641   8.186   4.340  19.569
 4816TIP3   OH238642   6.554   4.208  19.445
 4816TIP3    H138643   6.469   4.183  19.410
 4816TIP3    H238644   6.603   4.126  19.449
 4817TIP3   OH238645   6.426   4.248  19.136
 4817TIP3    H138646   6.491   4.294  19.082
 4817TIP3    H238647   6.342   4.281  19.105
 4818TIP3   OH238648   7.147   4.035  19.530
 4818TIP3    H138649   7.221   4.031  19.469
 4818TIP3    H238650   7.141   4.128  19.555
 4819TIP3   OH238651   7.518   4.204  19.613
 4819TIP3    H138652   7.578   4.215  19.539
 4819TIP3    H238653   7.504   4.110  19.618
 4820TIP3   OH238654   7.804   4.234  19.257
 4820TIP3    H138655   7.734   4.296  19.279
 4820TIP3    H238656   7.761   4.148  19.259
 4821TIP3   OH238657   6.395   5.999  19.155
 4821TIP3    H138658   6.303   5.996  19.128
 4821TIP3    H238659   6.417   6.092  19.154
 4822TIP3   OH238660   6.636   4.381  18.997
 4822TIP3    H138661   6.672   4.318  18.934
 4822TIP3    H238662   6.712   4.410  19.048
 4823TIP3   OH238663   7.119   4.467  19.213
 4823TIP3    H138664   7.184   4.406  19.250
 4823TIP3    H238665   7.137   4.550  19.258
 4824TIP3   OH238666   7.388   6.026  19.046
 4824TIP3    H138667   7.477   6.046  19.019
 4824TIP3    H238668   7.349   5.984  18.969
 4825TIP3   OH238669   8.112   6.025  19.312
 4825TIP3    H138670   8.101   5.944  19.262
 4825TIP3    H238671   8.102   6.095  19.247
 4826TIP3   OH238672   6.490   5.950  18.891
 4826TIP3    H138673   6.461   5.960  18.982
 4826TIP3    H238674   6.576   5.909  18.899
 4827TIP3   OH238675   8.303   4.927  19.324
 4827TIP3    H138676   8.254   4.986  19.381
 4827TIP3    H238677   8.237   4.890  19.266
 4828TIP3   OH238678   8.370   5.680  19.848
 4828TIP3    H138679   0.017   5.683  19.841
 4828TIP3    H238680   8.352   5.705  19.939
 4829TIP3   OH238681   8.286   4.483  19.534
 4829TIP3    H138682   8.369   4.517  19.567
 4829TIP3    H238683   8.295   4.485  19.439
 4830TIP3   OH238684   8.264   6.117  19.520
 4830TIP3    H138685   8.216   6.083  19.445
 4830TIP3    H238686   8.258   6.048  19.586
 4831TIP3   OH238687   8.288   5.913  19.711
 4831TIP3    H138688   8.290   5.822  19.740
 4831TIP3    H238689   8.378   5.944  19.720
 4832TIP3   OH238690   8.394   5.138  19.759
 4832TIP3    H138691   0.038   5.143  19.736
 4832TIP3    H238692   8.369   5.228  19.777
 4833TIP3   OH238693   8.186   4.950  19.773
 4833TIP3    H138694   8.246   4.878  19.791
 4833TIP3    H238695   8.242   5.028  19.771
 4834TIP3   OH238696   8.275   4.440  19.257
 4834TIP3    H138697   8.185   4.443  19.289
 4834TIP3    H238698   8.269   4.402  19.170
 4835TIP3   OH238699   1.362   7.281  19.441
 4835TIP3    H138700   1.350   7.376  19.454
 4835TIP3    H238701   1.289   7.256  19.384
 4836TIP3   OH238702   1.192   7.239  19.754
 4836TIP3    H138703   1.211   7.153  19.790
 4836TIP3    H238704   1.137   7.221  19.677
 4837TIP3   OH238705   1.583   7.563  19.658
 4837TIP3    H138706   1.554   7.486  19.707
 4837TIP3    H238707   1.636   7.613  19.720
 4838TIP3   OH238708   0.372   7.656  19.770
 4838TIP3    H138709   0.436   7.607  19.718
 4838TIP3    H238710   0.313   7.590  19.804
 4839TIP3   OH238711   0.145   7.013  19.313
 4839TIP3    H138712   0.156   7.073  19.239
 4839TIP3    H238713   0.050   7.013  19.330
 4840TIP3   OH238714   0.183   7.186  19.754
 4840TIP3    H138715   0.219   7.101  19.779
 4840TIP3    H238716   0.190   7.187  19.659
 4841TIP3   OH238717   1.285   8.072  19.629
 4841TIP3    H138718   1.358   8.033  19.581
 4841TIP3    H238719   1.269   8.012  19.702
 4842TIP3   OH238720   1.093   7.492  19.840
 4842TIP3    H138721   1.128   7.414  19.797
 4842TIP3    H238722   1.118   7.481  19.932
 4843TIP3   OH238723   1.227   6.952  19.771
 4843TIP3    H138724   1.248   6.877  19.826
 4843TIP3    H238725   1.288   6.947  19.697
 4844TIP3   OH238726   0.576   6.626  19.611
 4844TIP3    H138727   0.594   6.712  19.572
 4844TIP3    H238728   0.520   6.582  19.547
 4845TIP3   OH238729   1.500   6.691  19.457
 4845TIP3    H138730   1.534   6.670  19.544
 4845TIP3    H238731   1.577   6.719  19.407
 4846TIP3   OH238732   0.278   6.924  19.769
 4846TIP3    H138733   0.333   6.856  19.809
 4846TIP3    H238734   0.290   6.911  19.674
 4847TIP3   OH238735   0.749   7.113  19.589
 4847TIP3    H138736   0.841   7.087  19.591
 4847TIP3    H238737   0.702   7.033  19.568
 4848TIP3   OH238738   1.316   7.548  19.404
 4848TIP3    H138739   1.273   7.583  19.326
 4848TIP3    H238740   1.392   7.605  19.416
 4849TIP3   OH238741   1.578   6.677  19.719
 4849TIP3    H138742   1.500   6.689  19.773
 4849TIP3    H238743   1.640   6.742  19.752
 4850TIP3   OH238744   0.451   6.715  19.841
 4850TIP3    H138745   0.517   6.712  19.910
 4850TIP3    H238746   0.498   6.686  19.762
 4851TIP3   OH238747   0.238   7.657  19.202
 4851TIP3    H138748   0.236   7.687  19.111
 4851TIP3    H238749   0.220   7.736  19.253
 4852TIP3   OH238750   1.750   7.735  19.799
 4852TIP3    H138751   1.840   7.706  19.810
 4852TIP3    H238752   1.757   7.829  19.785
 4853TIP3   OH238753   0.961   6.375  19.693
 4853TIP3    H138754   0.969   6.284  19.666
 4853TIP3    H238755   0.868   6.387  19.712
 4854TIP3   OH238756   1.475   7.947  19.474
 4854TIP3    H138757   1.509   7.858  19.462
 4854TIP3    H238758   1.552   8.004  19.468
 4855TIP3   OH238759   1.559   7.687  19.420
 4855TIP3    H138760   1.624   7.645  19.365
 4855TIP3    H238761   1.571   7.647  19.506
 4856TIP3   OH238762   1.175   7.226  19.242
 4856TIP3    H138763   1.106   7.292  19.235
 4856TIP3    H238764   1.233   7.243  19.167
 4857TIP3   OH238765   1.223   7.097  18.937
 4857TIP3    H138766   1.291   7.097  19.004
 4857TIP3    H238767   1.253   7.033  18.873
 4858TIP3   OH238768   1.599   7.284  19.300
 4858TIP3    H138769   1.523   7.289  19.359
 4858TIP3    H238770   1.665   7.238  19.350
 4859TIP3   OH238771   0.676   7.342  19.437
 4859TIP3    H138772   0.640   7.299  19.360
 4859TIP3    H238773   0.706   7.270  19.493
 4860TIP3   OH238774   0.970   7.726  19.755
 4860TIP3    H138775   0.906   7.707  19.687
 4860TIP3    H238776   1.004   7.641  19.781
 4861TIP3   OH238777   0.640   7.290  19.777
 4861TIP3    H138778   0.680   7.230  19.714
 4861TIP3    H238779   0.630   7.237  19.856
 4862TIP3   OH238780   1.456   7.148  19.096
 4862TIP3    H138781   1.502   7.198  19.164
 4862TIP3    H238782   1.500   7.171  19.015
 4863TIP3   OH238783   1.068   7.936  19.522
 4863TIP3    H138784   1.068   7.862  19.582
 4863TIP3    H238785   1.137   7.994  19.556
 4864TIP3   OH238786   1.813   6.217  19.141
 4864TIP3    H138787   1.727   6.237  19.177
 4864TIP3    H238788   1.842   6.299  19.101
 4865TIP3   OH238789   0.568   7.223  19.209
 4865TIP3    H138790   0.499   7.288  19.196
 4865TIP3    H238791   0.525   7.139  19.196
 4866TIP3   OH238792   2.029   7.782  19.006
 4866TIP3    H138793   2.024   7.877  18.994
 4866TIP3    H238794   2.123   7.763  19.014
 4867TIP3   OH238795   0.190   7.877  19.778
 4867TIP3    H138796   0.250   7.803  19.777
 4867TIP3    H238797   0.237   7.946  19.824
 4868TIP3   OH238798   1.098   8.202  19.286
 4868TIP3    H138799   1.120   8.220  19.194
 4868TIP3    H238800   1.082   8.289  19.324
 4869TIP3   OH238801   0.401   8.015  19.498
 4869TIP3    H138802   0.416   7.967  19.579
 4869TIP3    H238803   0.340   7.961  19.448
 4870TIP3   OH238804   1.459   8.097  19.038
 4870TIP3    H138805   1.517   8.028  19.004
 4870TIP3    H238806   1.416   8.057  19.113
 4871TIP3   OH238807   1.320   8.021  19.264
 4871TIP3    H138808   1.270   8.095  19.297
 4871TIP3    H238809   1.372   7.992  19.338
 4872TIP3   OH238810   0.682   6.384  19.692
 4872TIP3    H138811   0.603   6.346  19.729
 4872TIP3    H238812   0.656   6.471  19.664
 4873TIP3   OH238813   1.572   7.228  18.855
 4873TIP3    H138814   1.581   7.239  18.760
 4873TIP3    H238815   1.660   7.246  18.889
 4874TIP3   OH238816   1.113   6.675  18.922
 4874TIP3    H138817   1.060   6.639  18.992
 4874TIP3    H238818   1.050   6.706  18.857
 4875TIP3   OH238819   0.593   6.887  19.504
 4875TIP3    H138820   0.498   6.892  19.493
 4875TIP3    H238821   0.626   6.872  19.415
 4876TIP3   OH238822   1.196   6.969  19.344
 4876TIP3    H138823   1.179   7.057  19.310
 4876TIP3    H238824   1.264   6.934  19.288
 4877TIP3   OH238825   1.382   6.922  19.549
 4877TIP3    H138826   1.324   6.952  19.479
 4877TIP3    H238827   1.416   6.838  19.517
 4878TIP3   OH238828   0.744   6.555  18.852
 4878TIP3    H138829   0.720   6.579  18.941
 4878TIP3    H238830   0.661   6.551  18.805
 4879TIP3   OH238831   0.161   6.653  19.533
 4879TIP3    H138832   0.196   6.599  19.603
 4879TIP3    H238833   0.162   6.596  19.456
 4880TIP3   OH238834   0.190   6.785  19.158
 4880TIP3    H138835   0.209   6.836  19.079
 4880TIP3    H238836   0.170   6.851  19.225
 4881TIP3   OH238837   1.063   6.586  19.538
 4881TIP3    H138838   1.004   6.527  19.584
 4881TIP3    H238839   1.141   6.591  19.593
 4882TIP3   OH238840   0.309   6.882  19.495
 4882TIP3    H138841   0.258   6.933  19.432
 4882TIP3    H238842   0.260   6.800  19.505
 4883TIP3   OH238843   0.729   6.837  19.266
 4883TIP3    H138844   0.818   6.823  19.297
 4883TIP3    H238845   0.739   6.889  19.187
 4884TIP3   OH238846   1.335   6.704  19.868
 4884TIP3    H138847   1.335   6.678  19.960
 4884TIP3    H238848   1.293   6.631  19.823
 4885TIP3   OH238849   0.757   6.964  19.023
 4885TIP3    H138850   0.696   6.941  18.953
 4885TIP3    H238851   0.831   7.005  18.978
 4886TIP3   OH238852   1.026   7.041  19.591
 4886TIP3    H138853   1.074   7.018  19.511
 4886TIP3    H238854   1.077   7.001  19.662
 4887TIP3   OH238855   0.425   6.478  19.433
 4887TIP3    H138856   0.404   6.388  19.458
 4887TIP3    H238857   0.374   6.493  19.354
 4888TIP3   OH238858   0.986   7.427  19.190
 4888TIP3    H138859   0.924   7.384  19.131
 4888TIP3    H238860   0.931   7.474  19.253
 4889TIP3   OH238861   1.352   6.655  19.061
 4889TIP3    H138862   1.271   6.668  19.012
 4889TIP3    H238863   1.373   6.741  19.097
 4890TIP3   OH238864   1.427   6.890  19.196
 4890TIP3    H138865   1.511   6.859  19.228
 4890TIP3    H238866   1.445   6.977  19.161
 4891TIP3   OH238867   0.576   7.518  19.637
 4891TIP3    H138868   0.590   7.472  19.554
 4891TIP3    H238869   0.597   7.453  19.704
 4892TIP3   OH238870   1.178   7.627  19.175
 4892TIP3    H138871   1.131   7.709  19.185
 4892TIP3    H238872   1.109   7.560  19.176
 4893TIP3   OH238873   1.884   6.948  19.133
 4893TIP3    H138874   1.848   6.936  19.045
 4893TIP3    H238875   1.920   7.037  19.133
 4894TIP3   OH238876   1.855   7.816  19.221
 4894TIP3    H138877   1.815   7.733  19.245
 4894TIP3    H238878   1.914   7.795  19.149
 4895TIP3   OH238879   1.480   7.320  19.758
 4895TIP3    H138880   1.386   7.309  19.746
 4895TIP3    H238881   1.519   7.241  19.721
 4896TIP3   OH238882   0.764   7.718  19.573
 4896TIP3    H138883   0.728   7.801  19.542
 4896TIP3    H238884   0.687   7.667  19.600
 4897TIP3   OH238885   0.185   7.248  19.086
 4897TIP3    H138886   0.254   7.306  19.117
 4897TIP3    H238887   0.104   7.286  19.120
 4898TIP3   OH238888   0.809   7.567  19.347
 4898TIP3    H138889   0.812   7.623  19.424
 4898TIP3    H238890   0.761   7.489  19.375
 4899TIP3   OH238891   0.679   7.965  19.472
 4899TIP3    H138892   0.587   7.991  19.478
 4899TIP3    H238893   0.728   8.047  19.481
 4900TIP3   OH238894   1.645   7.645  19.009
 4900TIP3    H138895   1.669   7.611  19.095
 4900TIP3    H238896   1.552   7.625  19.001
 4901TIP3   OH238897   2.019   8.055  18.989
 4901TIP3    H138898   2.062   8.099  18.916
 4901TIP3    H238899   1.949   8.114  19.015
 4902TIP3   OH238900   1.732   7.532  19.250
 4902TIP3    H138901   1.681   7.453  19.265
 4902TIP3    H238902   1.823   7.503  19.253
 4903TIP3   OH238903   0.899   7.758  18.869
 4903TIP3    H138904   0.895   7.675  18.820
 4903TIP3    H238905   0.858   7.737  18.953
 4904TIP3   OH238906   0.774   7.721  19.115
 4904TIP3    H138907   0.788   7.668  19.194
 4904TIP3    H238908   0.782   7.811  19.145
 4905TIP3   OH238909   0.381   7.427  19.166
 4905TIP3    H138910   0.326   7.495  19.203
 4905TIP3    H238911   0.445   7.475  19.113
 4906TIP3   OH238912   1.384   6.506  19.289
 4906TIP3    H138913   1.376   6.557  19.209
 4906TIP3    H238914   1.418   6.567  19.354
 4907TIP3   OH238915   1.092   7.896  19.180
 4907TIP3    H138916   1.087   7.914  19.086
 4907TIP3    H238917   1.178   7.927  19.207
 4908TIP3   OH238918   0.992   6.774  19.344
 4908TIP3    H138919   1.060   6.841  19.346
 4908TIP3    H238920   1.011   6.718  19.419
 4909TIP3   OH238921   1.122   6.424  19.317
 4909TIP3    H138922   1.098   6.473  19.396
 4909TIP3    H238923   1.216   6.441  19.307
 4910TIP3   OH238924   0.789   7.997  19.184
 4910TIP3    H138925   0.805   8.051  19.107
 4910TIP3    H238926   0.701   8.021  19.213
 4911TIP3   OH238927   0.689   6.602  19.116
 4911TIP3    H138928   0.674   6.677  19.173
 4911TIP3    H238929   0.781   6.579  19.130
 4912TIP3   OH238930   1.583   7.072  19.667
 4912TIP3    H138931   1.509   7.025  19.628
 4912TIP3    H238932   1.628   7.006  19.720
 4913TIP3   OH238933   0.545   7.592  19.014
 4913TIP3    H138934   0.618   7.642  19.050
 4913TIP3    H238935   0.585   7.535  18.949
 4914TIP3   OH238936   0.234   6.994  18.975
 4914TIP3    H138937   0.213   7.082  19.007
 4914TIP3    H238938   0.241   7.004  18.880
 4915TIP3   OH238939   1.777   8.021  19.782
 4915TIP3    H138940   1.760   8.101  19.733
 4915TIP3    H238941   1.753   8.043  19.872
 4916TIP3   OH238942   0.431   6.285  19.759
 4916TIP3    H138943   0.406   6.269  19.668
 4916TIP3    H238944   0.396   6.210  19.807
 4917TIP3   OH238945   0.177   7.898  19.337
 4917TIP3    H138946   0.118   7.888  19.412
 4917TIP3    H238947   0.128   7.952  19.275
 4918TIP3   OH238948   1.118   7.929  18.899
 4918TIP3    H138949   1.047   7.866  18.883
 4918TIP3    H238950   1.197   7.884  18.869
 4919TIP3   OH238951   1.609   7.902  18.905
 4919TIP3    H138952   1.636   7.821  18.948
 4919TIP3    H238953   1.682   7.924  18.847
 4920TIP3   OH238954   0.660   7.414  18.843
 4920TIP3    H138955   0.707   7.367  18.912
 4920TIP3    H238956   0.729   7.453  18.790
 4921TIP3   OH238957   1.372   7.600  18.983
 4921TIP3    H138958   1.311   7.610  19.055
 4921TIP3    H238959   1.351   7.515  18.944
 4922TIP3   OH238960   0.794   7.289  19.048
 4922TIP3    H138961   0.728   7.248  19.104
 4922TIP3    H238962   0.838   7.216  19.006
 4923TIP3   OH238963   0.945   7.114  18.888
 4923TIP3    H138964   0.943   7.135  18.795
 4923TIP3    H238965   1.038   7.111  18.910
 4924TIP3   OH238966   1.840   7.301  18.889
 4924TIP3    H138967   1.871   7.280  18.801
 4924TIP3    H238968   1.856   7.395  18.899
 4925TIP3   OH238969   0.827   8.153  18.966
 4925TIP3    H138970   0.867   8.228  18.921
 4925TIP3    H238971   0.791   8.100  18.896
 4926TIP3   OH238972   0.300   7.666  18.912
 4926TIP3    H138973   0.386   7.649  18.949
 4926TIP3    H238974   0.264   7.579  18.893
 4927TIP3   OH238975   0.054   8.194  19.436
 4927TIP3    H138976   8.417   8.222  19.470
 4927TIP3    H238977   0.034   8.155  19.351
 4928TIP3   OH238978   0.029   7.949  19.568
 4928TIP3    H138979   0.088   7.927  19.641
 4928TIP3    H238980   0.052   8.039  19.546
 4929TIP3   OH238981   1.994   7.433  19.263
 4929TIP3    H138982   2.068   7.494  19.266
 4929TIP3    H238983   2.005   7.378  19.340
 4930TIP3   OH238984   2.015   7.251  19.464
 4930TIP3    H138985   1.931   7.208  19.479
 4930TIP3    H238986   2.067   7.228  19.541
 4931TIP3   OH238987   2.013   7.649  19.820
 4931TIP3    H138988   2.030   7.555  19.817
 4931TIP3    H238989   2.100   7.688  19.822
 4932TIP3   OH238990   1.996   7.206  19.096
 4932TIP3    H138991   1.940   7.233  19.024
 4932TIP3    H238992   1.993   7.278  19.158
 4933TIP3   OH238993   1.796   6.884  18.883
 4933TIP3    H138994   1.791   6.906  18.790
 4933TIP3    H238995   1.782   6.790  18.886
 4934TIP3   OH238996   1.761   7.124  19.463
 4934TIP3    H138997   1.766   7.033  19.432
 4934TIP3    H238998   1.704   7.120  19.539
 4935TIP3   OH238999   0.210   7.442  19.863
 4935TIP3    H139000   0.207   7.355  19.821
 4935TIP3    H239001   0.210   7.423  19.957
 4936TIP3   OH239002   1.763   6.611  18.873
 4936TIP3    H139003   1.805   6.557  18.940
 4936TIP3    H239004   1.673   6.579  18.869
 4937TIP3   OH239005   1.690   6.796  19.277
 4937TIP3    H139006   1.725   6.707  19.281
 4937TIP3    H239007   1.757   6.846  19.230
 4938TIP3   OH239008   1.743   6.887  19.803
 4938TIP3    H139009   1.827   6.895  19.758
 4938TIP3    H239010   1.760   6.917  19.892
 4939TIP3   OH239011   1.758   6.529  19.323
 4939TIP3    H139012   1.825   6.486  19.375
 4939TIP3    H239013   1.699   6.458  19.297
 4940TIP3   OH239014   0.275   6.518  19.742
 4940TIP3    H139015   0.327   6.440  19.758
 4940TIP3    H239016   0.317   6.587  19.793
 4941TIP3   OH239017   0.015   6.869  19.869
 4941TIP3    H139018   0.105   6.871  19.836
 4941TIP3    H239019   8.430   6.957  19.853
 4942TIP3   OH239020   1.914   6.443  19.027
 4942TIP3    H139021   1.966   6.401  18.959
 4942TIP3    H239022   1.978   6.471  19.092
 4943TIP3   OH239023   0.128   6.545  19.274
 4943TIP3    H139024   0.033   6.540  19.266
 4943TIP3    H239025   0.151   6.627  19.229
 4944TIP3   OH239026   1.671   8.136  19.438
 4944TIP3    H139027   1.759   8.116  19.405
 4944TIP3    H239028   1.687   8.187  19.518
 4945TIP3   OH239029   0.359   8.074  19.883
 4945TIP3    H139030   0.397   8.086  19.970
 4945TIP3    H239031   0.424   8.024  19.834
 4946TIP3   OH239032   0.514   7.900  19.742
 4946TIP3    H139033   0.486   7.810  19.759
 4946TIP3    H239034   0.607   7.900  19.764
 4947TIP3   OH239035   0.784   7.926  19.838
 4947TIP3    H139036   0.848   7.866  19.799
 4947TIP3    H239037   0.807   7.929  19.931
 4948TIP3   OH239038   1.221   6.486  19.749
 4948TIP3    H139039   1.138   6.439  19.751
 4948TIP3    H239040   1.285   6.420  19.721
 4949TIP3   OH239041   1.687   6.339  19.605
 4949TIP3    H139042   1.772   6.354  19.564
 4949TIP3    H239043   1.668   6.420  19.651
 4950TIP3   OH239044   1.939   6.382  19.485
 4950TIP3    H139045   1.989   6.300  19.480
 4950TIP3    H239046   2.005   6.451  19.490
 4951TIP3   OH239047   0.352   6.216  19.507
 4951TIP3    H139048   0.259   6.199  19.498
 4951TIP3    H239049   0.395   6.134  19.484
 4952TIP3   OH239050   0.279   6.342  19.169
 4952TIP3    H139051   0.331   6.394  19.108
 4952TIP3    H239052   0.216   6.405  19.206
 4953TIP3   OH239053   0.788   6.184  19.524
 4953TIP3    H139054   0.811   6.236  19.447
 4953TIP3    H239055   0.742   6.246  19.582
 4954TIP3   OH239056   1.399   6.294  19.664
 4954TIP3    H139057   1.487   6.305  19.628
 4954TIP3    H239058   1.389   6.200  19.677
 4955TIP3   OH239059   1.581   6.315  19.258
 4955TIP3    H139060   1.510   6.378  19.270
 4955TIP3    H239061   1.540   6.229  19.272
 4956TIP3   OH239062   0.021   8.078  19.185
 4956TIP3    H139063   8.388   8.080  19.135
 4956TIP3    H239064   0.075   8.146  19.145
 4957TIP3   OH239065   0.452   6.497  19.006
 4957TIP3    H139066   0.487   6.417  18.965
 4957TIP3    H239067   0.525   6.531  19.057
 4958TIP3   OH239068   0.968   6.583  19.146
 4958TIP3    H139069   1.014   6.511  19.189
 4958TIP3    H239070   0.975   6.656  19.208
 4959TIP3   OH239071   1.180   8.177  19.022
 4959TIP3    H139072   1.275   8.177  19.012
 4959TIP3    H239073   1.150   8.101  18.972
 4960TIP3   OH239074   1.901   8.079  19.298
 4960TIP3    H139075   1.888   7.987  19.275
 4960TIP3    H239076   1.884   8.127  19.217
 4961TIP3   OH239077   0.279   8.137  18.900
 4961TIP3    H139078   0.262   8.188  18.979
 4961TIP3    H239079   0.274   8.046  18.928
 4962TIP3   OH239080   3.428   7.325  19.363
 4962TIP3    H139081   3.401   7.413  19.388
 4962TIP3    H239082   3.351   7.286  19.321
 4963TIP3   OH239083   3.301   7.155  19.801
 4963TIP3    H139084   3.304   7.060  19.813
 4963TIP3    H239085   3.223   7.170  19.747
 4964TIP3   OH239086   3.563   7.556  19.758
 4964TIP3    H139087   3.566   7.461  19.775
 4964TIP3    H239088   3.646   7.589  19.792
 4965TIP3   OH239089   2.640   7.687  19.731
 4965TIP3    H139090   2.618   7.594  19.718
 4965TIP3    H239091   2.726   7.685  19.774
 4966TIP3   OH239092   2.155   6.823  19.404
 4966TIP3    H139093   2.094   6.889  19.438
 4966TIP3    H239094   2.132   6.815  19.312
 4967TIP3   OH239095   2.227   7.197  19.656
 4967TIP3    H139096   2.247   7.106  19.676
 4967TIP3    H239097   2.306   7.230  19.613
 4968TIP3   OH239098   3.346   8.073  19.668
 4968TIP3    H139099   3.404   8.017  19.617
 4968TIP3    H239100   3.304   8.013  19.731
 4969TIP3   OH239101   3.199   7.623  19.743
 4969TIP3    H139102   3.232   7.619  19.653
 4969TIP3    H239103   3.251   7.559  19.791
 4970TIP3   OH239104   3.299   6.876  19.767
 4970TIP3    H139105   3.322   6.795  19.813
 4970TIP3    H239106   3.363   6.884  19.697
 4971TIP3   OH239107   2.637   6.648  19.661
 4971TIP3    H139108   2.671   6.727  19.620
 4971TIP3    H239109   2.594   6.601  19.589
 4972TIP3   OH239110   3.581   6.670  19.452
 4972TIP3    H139111   3.611   6.641  19.538
 4972TIP3    H239112   3.661   6.690  19.403
 4973TIP3   OH239113   2.284   6.926  19.691
 4973TIP3    H139114   2.324   6.875  19.761
 4973TIP3    H239115   2.324   6.892  19.611
 4974TIP3   OH239116   2.837   7.086  19.597
 4974TIP3    H139117   2.928   7.059  19.600
 4974TIP3    H239118   2.789   7.008  19.569
 4975TIP3   OH239119   3.328   7.593  19.385
 4975TIP3    H139120   3.300   7.572  19.296
 4975TIP3    H239121   3.304   7.685  19.396
 4976TIP3   OH239122   3.647   6.626  19.714
 4976TIP3    H139123   3.567   6.630  19.766
 4976TIP3    H239124   3.703   6.695  19.750
 4977TIP3   OH239125   2.443   6.742  19.835
 4977TIP3    H139126   2.482   6.751  19.922
 4977TIP3    H239127   2.515   6.714  19.779
 4978TIP3   OH239128   2.220   7.601  19.263
 4978TIP3    H139129   2.235   7.638  19.176
 4978TIP3    H239130   2.236   7.674  19.323
 4979TIP3   OH239131   3.806   7.676  19.830
 4979TIP3    H139132   3.897   7.649  19.837
 4979TIP3    H239133   3.809   7.771  19.814
 4980TIP3   OH239134   2.985   6.293  19.758
 4980TIP3    H139135   2.978   6.237  19.836
 4980TIP3    H239136   2.900   6.336  19.752
 4981TIP3   OH239137   3.534   7.967  19.482
 4981TIP3    H139138   3.557   7.876  19.500
 4981TIP3    H239139   3.615   8.016  19.498
 4982TIP3   OH239140   3.546   7.702  19.526
 4982TIP3    H139141   3.490   7.644  19.474
 4982TIP3    H239142   3.559   7.654  19.608
 4983TIP3   OH239143   3.210   7.204  19.226
 4983TIP3    H139144   3.137   7.266  19.225
 4983TIP3    H239145   3.223   7.181  19.135
 4984TIP3   OH239146   3.285   7.107  18.970
 4984TIP3    H139147   3.367   7.110  19.019
 4984TIP3    H239148   3.300   7.042  18.902
 4985TIP3   OH239149   3.680   7.250  19.281
 4985TIP3    H139150   3.599   7.279  19.323
 4985TIP3    H239151   3.730   7.211  19.352
 4986TIP3   OH239152   2.732   7.312  19.461
 4986TIP3    H139153   2.689   7.274  19.385
 4986TIP3    H239154   2.776   7.239  19.504
 4987TIP3   OH239155   2.930   7.731  19.760
 4987TIP3    H139156   2.914   7.738  19.666
 4987TIP3    H239157   3.017   7.692  19.767
 4988TIP3   OH239158   2.699   7.199  19.809
 4988TIP3    H139159   2.746   7.159  19.736
 4988TIP3    H239160   2.751   7.176  19.886
 4989TIP3   OH239161   3.544   7.122  19.072
 4989TIP3    H139162   3.588   7.172  19.141
 4989TIP3    H239163   3.589   7.148  18.992
 4990TIP3   OH239164   3.281   7.871  19.398
 4990TIP3    H139165   3.368   7.891  19.433
 4990TIP3    H239166   3.243   7.957  19.378
 4991TIP3   OH239167   3.885   6.202  19.126
 4991TIP3    H139168   3.800   6.229  19.160
 4991TIP3    H239169   3.927   6.284  19.100
 4992TIP3   OH239170   2.593   7.214  19.239
 4992TIP3    H139171   2.527   7.281  19.218
 4992TIP3    H239172   2.546   7.131  19.230
 4993TIP3   OH239173   4.112   7.805  18.988
 4993TIP3    H139174   4.094   7.898  18.973
 4993TIP3    H239175   4.204   7.794  18.964
 4994TIP3   OH239176   2.273   7.747  19.820
 4994TIP3    H139177   2.355   7.714  19.783
 4994TIP3    H239178   2.284   7.842  19.821
 4995TIP3   OH239179   3.195   8.109  19.284
 4995TIP3    H139180   3.188   8.106  19.188
 4995TIP3    H239181   3.125   8.168  19.312
 4996TIP3   OH239182   2.476   8.023  19.471
 4996TIP3    H139183   2.500   7.996  19.559
 4996TIP3    H239184   2.415   7.956  19.441
 4997TIP3   OH239185   3.501   8.098  18.978
 4997TIP3    H139186   3.559   8.024  18.956
 4997TIP3    H239187   3.503   8.102  19.073
 4998TIP3   OH239188   3.472   8.114  19.254
 4998TIP3    H139189   3.377   8.123  19.266
 4998TIP3    H239190   3.499   8.056  19.325
 4999TIP3   OH239191   2.734   6.406  19.758
 4999TIP3    H139192   2.649   6.363  19.761
 4999TIP3    H239193   2.714   6.497  19.735
 5000TIP3   OH239194   3.648   7.200  18.824
 5000TIP3    H139195   3.658   7.210  18.730
 5000TIP3    H239196   3.729   7.236  18.861
 5001TIP3   OH239197   3.180   6.678  18.953
 5001TIP3    H139198   3.117   6.634  19.011
 5001TIP3    H239199   3.127   6.716  18.883
 5002TIP3   OH239200   2.684   6.872  19.504
 5002TIP3    H139201   2.590   6.863  19.488
 5002TIP3    H239202   2.725   6.856  19.418
 5003TIP3   OH239203   3.282   6.963  19.347
 5003TIP3    H139204   3.258   7.049  19.313
 5003TIP3    H239205   3.351   6.932  19.288
 5004TIP3   OH239206   3.462   6.898  19.551
 5004TIP3    H139207   3.405   6.932  19.482
 5004TIP3    H239208   3.500   6.818  19.514
 5005TIP3   OH239209   2.834   6.597  18.909
 5005TIP3    H139210   2.823   6.588  19.003
 5005TIP3    H239211   2.764   6.656  18.882
 5006TIP3   OH239212   2.151   6.555  19.473
 5006TIP3    H139213   2.206   6.541  19.550
 5006TIP3    H239214   2.148   6.650  19.462
 5007TIP3   OH239215   2.100   6.776  19.138
 5007TIP3    H139216   2.159   6.807  19.069
 5007TIP3    H239217   2.021   6.829  19.128
 5008TIP3   OH239218   3.105   6.580  19.534
 5008TIP3    H139219   3.017   6.571  19.569
 5008TIP3    H239220   3.163   6.547  19.603
 5009TIP3   OH239221   2.419   6.792  19.471
 5009TIP3    H139222   2.331   6.800  19.435
 5009TIP3    H239223   2.441   6.699  19.460
 5010TIP3   OH239224   2.811   6.824  19.265
 5010TIP3    H139225   2.904   6.819  19.286
 5010TIP3    H239226   2.807   6.869  19.181
 5011TIP3   OH239227   3.396   6.626  19.853
 5011TIP3    H139228   3.403   6.592  19.942
 5011TIP3    H239229   3.338   6.564  19.808
 5012TIP3   OH239230   2.801   6.931  19.014
 5012TIP3    H139231   2.750   6.891  18.943
 5012TIP3    H239232   2.867   6.984  18.969
 5013TIP3   OH239233   3.104   7.000  19.605
 5013TIP3    H139234   3.158   6.999  19.525
 5013TIP3    H239235   3.155   6.949  19.668
 5014TIP3   OH239236   2.521   6.527  19.434
 5014TIP3    H139237   2.475   6.444  19.446
 5014TIP3    H239238   2.577   6.514  19.358
 5015TIP3   OH239239   3.005   7.387  19.177
 5015TIP3    H139240   2.935   7.358  19.119
 5015TIP3    H239241   2.962   7.444  19.240
 5016TIP3   OH239242   3.436   6.645  19.051
 5016TIP3    H139243   3.348   6.657  19.015
 5016TIP3    H239244   3.456   6.729  19.093
 5017TIP3   OH239245   3.508   6.876  19.195
 5017TIP3    H139246   3.592   6.845  19.226
 5017TIP3    H239247   3.527   6.959  19.151
 5018TIP3   OH239248   2.600   7.421  19.682
 5018TIP3    H139249   2.638   7.396  19.598
 5018TIP3    H239250   2.622   7.349  19.741
 5019TIP3   OH239251   3.226   7.550  19.130
 5019TIP3    H139252   3.183   7.635  19.136
 5019TIP3    H239253   3.153   7.487  19.133
 5020TIP3   OH239254   4.000   6.926  19.142
 5020TIP3    H139255   3.972   6.900  19.054
 5020TIP3    H239256   4.016   7.020  19.135
 5021TIP3   OH239257   3.951   7.831  19.217
 5021TIP3    H139258   3.894   7.755  19.225
 5021TIP3    H239259   4.001   7.815  19.137
 5022TIP3   OH239260   3.551   7.280  19.793
 5022TIP3    H139261   3.462   7.248  19.806
 5022TIP3    H239262   3.598   7.206  19.754
 5023TIP3   OH239263   2.805   7.753  19.510
 5023TIP3    H139264   2.794   7.840  19.472
 5023TIP3    H239265   2.730   7.743  19.568
 5024TIP3   OH239266   2.272   7.180  19.029
 5024TIP3    H139267   2.313   7.255  19.071
 5024TIP3    H239268   2.180   7.186  19.053
 5025TIP3   OH239269   2.847   7.540  19.342
 5025TIP3    H139270   2.843   7.613  19.403
 5025TIP3    H239271   2.805   7.467  19.390
 5026TIP3   OH239272   2.749   8.004  19.409
 5026TIP3    H139273   2.655   8.021  19.416
 5026TIP3    H239274   2.790   8.084  19.442
 5027TIP3   OH239275   3.712   7.639  19.004
 5027TIP3    H139276   3.746   7.584  19.074
 5027TIP3    H239277   3.621   7.611  18.993
 5028TIP3   OH239278   4.069   8.088  18.983
 5028TIP3    H139279   4.088   8.147  18.911
 5028TIP3    H239280   4.010   8.138  19.040
 5029TIP3   OH239281   3.825   7.473  19.189
 5029TIP3    H139282   3.772   7.400  19.221
 5029TIP3    H239283   3.915   7.449  19.213
 5030TIP3   OH239284   2.980   7.685  18.895
 5030TIP3    H139285   2.958   7.606  18.846
 5030TIP3    H239286   2.921   7.684  18.970
 5031TIP3   OH239287   2.797   7.696  19.112
 5031TIP3    H139288   2.819   7.642  19.189
 5031TIP3    H239289   2.826   7.784  19.136
 5032TIP3   OH239290   2.395   7.399  19.165
 5032TIP3    H139291   2.333   7.450  19.216
 5032TIP3    H239292   2.450   7.464  19.121
 5033TIP3   OH239293   3.455   6.493  19.282
 5033TIP3    H139294   3.452   6.543  19.200
 5033TIP3    H239295   3.493   6.555  19.345
 5034TIP3   OH239296   3.110   7.785  19.193
 5034TIP3    H139297   3.037   7.846  19.184
 5034TIP3    H239298   3.162   7.821  19.265
 5035TIP3   OH239299   3.077   6.773  19.335
 5035TIP3    H139300   3.146   6.839  19.338
 5035TIP3    H239301   3.094   6.717  19.411
 5036TIP3   OH239302   3.194   6.413  19.322
 5036TIP3    H139303   3.169   6.463  19.400
 5036TIP3    H239304   3.287   6.432  19.310
 5037TIP3   OH239305   2.886   7.950  19.177
 5037TIP3    H139306   2.908   8.035  19.139
 5037TIP3    H239307   2.838   7.971  19.257
 5038TIP3   OH239308   2.736   6.567  19.190
 5038TIP3    H139309   2.743   6.658  19.219
 5038TIP3    H239310   2.826   6.534  19.192
 5039TIP3   OH239311   3.658   7.044  19.683
 5039TIP3    H139312   3.585   6.999  19.640
 5039TIP3    H239313   3.702   6.975  19.733
 5040TIP3   OH239314   2.548   7.595  19.036
 5040TIP3    H139315   2.623   7.643  19.073
 5040TIP3    H239316   2.586   7.545  18.964
 5041TIP3   OH239317   2.283   6.889  18.962
 5041TIP3    H139318   2.307   6.956  19.026
 5041TIP3    H239319   2.277   6.936  18.879
 5042TIP3   OH239320   3.824   8.065  19.822
 5042TIP3    H139321   3.805   8.153  19.790
 5042TIP3    H239322   3.821   8.074  19.918
 5043TIP3   OH239323   2.470   6.312  19.736
 5043TIP3    H139324   2.452   6.299  19.643
 5043TIP3    H239325   2.445   6.229  19.777
 5044TIP3   OH239326   2.262   7.855  19.391
 5044TIP3    H139327   2.203   7.887  19.460
 5044TIP3    H239328   2.244   7.910  19.315
 5045TIP3   OH239329   3.169   7.881  18.850
 5045TIP3    H139330   3.108   7.811  18.873
 5045TIP3    H239331   3.252   7.836  18.832
 5046TIP3   OH239332   3.664   7.889  18.893
 5046TIP3    H139333   3.692   7.810  18.938
 5046TIP3    H239334   3.737   7.910  18.834
 5047TIP3   OH239335   2.663   7.433  18.848
 5047TIP3    H139336   2.694   7.373  18.917
 5047TIP3    H239337   2.742   7.455  18.799
 5048TIP3   OH239338   3.445   7.565  18.964
 5048TIP3    H139339   3.375   7.564  19.030
 5048TIP3    H239340   3.430   7.486  18.912
 5049TIP3   OH239341   2.786   7.276  19.041
 5049TIP3    H139342   2.731   7.239  19.111
 5049TIP3    H239343   2.837   7.201  19.010
 5050TIP3   OH239344   2.983   7.115  18.910
 5050TIP3    H139345   2.980   7.157  18.824
 5050TIP3    H239346   3.076   7.118  18.934
 5051TIP3   OH239347   3.903   7.308  18.866
 5051TIP3    H139348   3.937   7.288  18.779
 5051TIP3    H239349   3.921   7.401  18.878
 5052TIP3   OH239350   2.970   8.196  19.080
 5052TIP3    H139351   3.055   8.179  19.038
 5052TIP3    H239352   2.947   8.285  19.053
 5053TIP3   OH239353   2.287   7.682  19.006
 5053TIP3    H139354   2.382   7.674  19.016
 5053TIP3    H239355   2.268   7.635  18.924
 5054TIP3   OH239356   2.120   8.178  19.439
 5054TIP3    H139357   2.047   8.158  19.381
 5054TIP3    H239358   2.118   8.109  19.505
 5055TIP3   OH239359   2.128   7.967  19.615
 5055TIP3    H139360   2.050   7.930  19.657
 5055TIP3    H239361   2.185   7.991  19.688
 5056TIP3   OH239362   4.087   7.386  19.255
 5056TIP3    H139363   4.147   7.459  19.267
 5056TIP3    H239364   4.105   7.328  19.329
 5057TIP3   OH239365   4.110   7.179  19.449
 5057TIP3    H139366   4.019   7.173  19.479
 5057TIP3    H239367   4.161   7.196  19.528
 5058TIP3   OH239368   4.077   7.616  19.843
 5058TIP3    H139369   4.114   7.528  19.841
 5058TIP3    H239370   4.153   7.674  19.847
 5059TIP3   OH239371   4.058   7.190  19.062
 5059TIP3    H139372   3.993   7.225  19.001
 5059TIP3    H239373   4.061   7.254  19.133
 5060TIP3   OH239374   3.957   6.856  18.874
 5060TIP3    H139375   3.913   6.884  18.794
 5060TIP3    H239376   3.935   6.764  18.883
 5061TIP3   OH239377   3.832   7.115  19.480
 5061TIP3    H139378   3.852   7.023  19.464
 5061TIP3    H239379   3.776   7.114  19.558
 5062TIP3   OH239380   2.119   7.384  19.830
 5062TIP3    H139381   2.157   7.325  19.764
 5062TIP3    H239382   2.194   7.415  19.880
 5063TIP3   OH239383   3.873   6.593  18.875
 5063TIP3    H139384   3.912   6.538  18.943
 5063TIP3    H239385   3.781   6.568  18.873
 5064TIP3   OH239386   3.771   6.782  19.262
 5064TIP3    H139387   3.800   6.691  19.270
 5064TIP3    H239388   3.848   6.829  19.230
 5065TIP3   OH239389   3.804   6.840  19.809
 5065TIP3    H139390   3.887   6.861  19.766
 5065TIP3    H239391   3.822   6.847  19.902
 5066TIP3   OH239392   3.821   6.517  19.322
 5066TIP3    H139393   3.892   6.482  19.376
 5066TIP3    H239394   3.771   6.440  19.295
 5067TIP3   OH239395   2.307   6.539  19.697
 5067TIP3    H139396   2.361   6.464  19.723
 5067TIP3    H239397   2.338   6.611  19.752
 5068TIP3   OH239398   1.995   6.951  19.707
 5068TIP3    H139399   2.090   6.940  19.709
 5068TIP3    H239400   1.980   7.037  19.746
 5069TIP3   OH239401   4.022   6.425  19.040
 5069TIP3    H139402   4.073   6.381  18.972
 5069TIP3    H239403   4.087   6.456  19.103
 5070TIP3   OH239404   2.126   6.506  19.195
 5070TIP3    H139405   2.139   6.502  19.290
 5070TIP3    H239406   2.123   6.600  19.175
 5071TIP3   OH239407   3.744   8.154  19.493
 5071TIP3    H139408   3.827   8.119  19.459
 5071TIP3    H239409   3.769   8.198  19.575
 5072TIP3   OH239410   2.319   8.032  19.811
 5072TIP3    H139411   2.330   8.066  19.899
 5072TIP3    H239412   2.408   8.011  19.782
 5073TIP3   OH239413   2.562   7.947  19.725
 5073TIP3    H139414   2.577   7.852  19.727
 5073TIP3    H239415   2.644   7.985  19.756
 5074TIP3   OH239416   2.815   7.990  19.818
 5074TIP3    H139417   2.870   7.911  19.814
 5074TIP3    H239418   2.877   8.061  19.832
 5075TIP3   OH239419   3.226   6.439  19.738
 5075TIP3    H139420   3.146   6.388  19.753
 5075TIP3    H239421   3.289   6.375  19.704
 5076TIP3   OH239422   3.818   6.298  19.644
 5076TIP3    H139423   3.889   6.335  19.593
 5076TIP3    H239424   3.773   6.374  19.681
 5077TIP3   OH239425   4.021   6.407  19.488
 5077TIP3    H139426   4.081   6.334  19.475
 5077TIP3    H239427   4.077   6.484  19.494
 5078TIP3   OH239428   2.401   6.262  19.473
 5078TIP3    H139429   2.307   6.244  19.464
 5078TIP3    H239430   2.442   6.175  19.466
 5079TIP3   OH239431   2.193   6.329  18.990
 5079TIP3    H139432   2.280   6.358  18.962
 5079TIP3    H239433   2.176   6.379  19.070
 5080TIP3   OH239434   2.996   6.079  19.567
 5080TIP3    H139435   3.072   6.085  19.509
 5080TIP3    H239436   3.001   6.158  19.622
 5081TIP3   OH239437   3.396   6.253  19.638
 5081TIP3    H139438   3.484   6.262  19.601
 5081TIP3    H239439   3.378   6.159  19.635
 5082TIP3   OH239440   3.651   6.299  19.245
 5082TIP3    H139441   3.581   6.364  19.255
 5082TIP3    H239442   3.607   6.215  19.257
 5083TIP3   OH239443   2.223   8.021  19.176
 5083TIP3    H139444   2.145   8.028  19.121
 5083TIP3    H239445   2.274   8.099  19.155
 5084TIP3   OH239446   2.447   6.452  18.938
 5084TIP3    H139447   2.497   6.384  18.893
 5084TIP3    H239448   2.502   6.477  19.013
 5085TIP3   OH239449   3.019   6.564  19.165
 5085TIP3    H139450   3.074   6.495  19.202
 5085TIP3    H239451   3.039   6.642  19.217
 5086TIP3   OH239452   3.220   8.102  19.005
 5086TIP3    H139453   3.313   8.116  18.987
 5086TIP3    H239454   3.197   8.023  18.957
 5087TIP3   OH239455   3.965   8.075  19.347
 5087TIP3    H139456   3.962   7.987  19.310
 5087TIP3    H239457   3.957   8.133  19.272
 5088TIP3   OH239458   2.413   8.109  18.877
 5088TIP3    H139459   2.403   8.156  18.960
 5088TIP3    H239460   2.487   8.050  18.890
 5089TIP3   OH239461   5.511   7.338  19.395
 5089TIP3    H139462   5.491   7.431  19.393
 5089TIP3    H239463   5.521   7.318  19.488
 5090TIP3   OH239464   5.325   7.164  19.778
 5090TIP3    H139465   5.342   7.072  19.802
 5090TIP3    H239466   5.230   7.170  19.772
 5091TIP3   OH239467   5.675   7.517  19.678
 5091TIP3    H139468   5.637   7.429  19.681
 5091TIP3    H239469   5.749   7.513  19.739
 5092TIP3   OH239470   4.760   7.679  19.753
 5092TIP3    H139471   4.749   7.585  19.738
 5092TIP3    H239472   4.847   7.686  19.793
 5093TIP3   OH239473   4.163   6.899  19.380
 5093TIP3    H139474   4.160   6.988  19.413
 5093TIP3    H239475   4.104   6.898  19.305
 5094TIP3   OH239476   4.314   7.204  19.647
 5094TIP3    H139477   4.317   7.110  19.664
 5094TIP3    H239478   4.401   7.225  19.613
 5095TIP3   OH239479   5.437   8.073  19.687
 5095TIP3    H139480   5.485   8.024  19.620
 5095TIP3    H239481   5.381   8.008  19.728
 5096TIP3   OH239482   5.128   7.462  19.790
 5096TIP3    H139483   5.072   7.385  19.781
 5096TIP3    H239484   5.216   7.426  19.802
 5097TIP3   OH239485   5.388   6.883  19.795
 5097TIP3    H139486   5.429   6.806  19.835
 5097TIP3    H239487   5.419   6.881  19.704
 5098TIP3   OH239488   4.686   6.650  19.629
 5098TIP3    H139489   4.722   6.728  19.586
 5098TIP3    H239490   4.629   6.611  19.564
 5099TIP3   OH239491   5.649   6.675  19.438
 5099TIP3    H139492   5.688   6.639  19.517
 5099TIP3    H239493   5.723   6.713  19.390
 5100TIP3   OH239494   4.331   6.932  19.671
 5100TIP3    H139495   4.390   6.895  19.737
 5100TIP3    H239496   4.363   6.896  19.588
 5101TIP3   OH239497   4.767   7.114  19.568
 5101TIP3    H139498   4.851   7.120  19.615
 5101TIP3    H239499   4.764   7.024  19.536
 5102TIP3   OH239500   5.440   7.606  19.349
 5102TIP3    H139501   5.404   7.579  19.265
 5102TIP3    H239502   5.397   7.689  19.369
 5103TIP3   OH239503   5.749   6.609  19.687
 5103TIP3    H139504   5.665   6.611  19.734
 5103TIP3    H239505   5.797   6.684  19.721
 5104TIP3   OH239506   4.539   6.807  19.806
 5104TIP3    H139507   4.594   6.880  19.835
 5104TIP3    H239508   4.600   6.749  19.760
 5105TIP3   OH239509   4.268   7.619  19.238
 5105TIP3    H139510   4.221   7.670  19.172
 5105TIP3    H239511   4.308   7.685  19.295
 5106TIP3   OH239512   5.891   7.548  19.851
 5106TIP3    H139513   5.986   7.548  19.838
 5106TIP3    H239514   5.871   7.636  19.884
 5107TIP3   OH239515   5.018   6.299  19.757
 5107TIP3    H139516   5.001   6.235  19.827
 5107TIP3    H239517   4.937   6.351  19.752
 5108TIP3   OH239518   5.599   7.980  19.474
 5108TIP3    H139519   5.629   7.889  19.481
 5108TIP3    H239520   5.678   8.033  19.489
 5109TIP3   OH239521   5.652   7.716  19.491
 5109TIP3    H139522   5.592   7.669  19.433
 5109TIP3    H239523   5.670   7.653  19.561
 5110TIP3   OH239524   5.321   7.205  19.234
 5110TIP3    H139525   5.243   7.261  19.238
 5110TIP3    H239526   5.385   7.250  19.289
 5111TIP3   OH239527   5.285   7.172  18.960
 5111TIP3    H139528   5.301   7.188  19.053
 5111TIP3    H239529   5.336   7.093  18.940
 5112TIP3   OH239530   5.731   7.247  19.250
 5112TIP3    H139531   5.656   7.279  19.300
 5112TIP3    H239532   5.782   7.196  19.313
 5113TIP3   OH239533   4.757   7.344  19.425
 5113TIP3    H139534   4.717   7.321  19.342
 5113TIP3    H239535   4.765   7.261  19.472
 5114TIP3   OH239536   5.051   7.723  19.745
 5114TIP3    H139537   5.023   7.719  19.654
 5114TIP3    H239538   5.077   7.633  19.766
 5115TIP3   OH239539   4.713   7.024  19.831
 5115TIP3    H139540   4.708   7.065  19.745
 5115TIP3    H239541   4.800   7.047  19.864
 5116TIP3   OH239542   5.634   7.100  19.032
 5116TIP3    H139543   5.665   7.152  19.106
 5116TIP3    H239544   5.657   7.152  18.955
 5117TIP3   OH239545   5.352   7.877  19.379
 5117TIP3    H139546   5.435   7.902  19.421
 5117TIP3    H239547   5.306   7.960  19.366
 5118TIP3   OH239548   5.951   6.205  19.149
 5118TIP3    H139549   5.866   6.238  19.180
 5118TIP3    H239550   5.993   6.282  19.111
 5119TIP3   OH239551   4.635   7.248  19.193
 5119TIP3    H139552   4.563   7.306  19.168
 5119TIP3    H239553   4.595   7.161  19.197
 5120TIP3   OH239554   6.183   7.800  19.004
 5120TIP3    H139555   6.171   7.893  18.986
 5120TIP3    H239556   6.271   7.780  18.972
 5121TIP3   OH239557   4.317   7.760  19.839
 5121TIP3    H139558   4.395   7.707  19.823
 5121TIP3    H239559   4.352   7.848  19.853
 5122TIP3   OH239560   5.236   8.119  19.310
 5122TIP3    H139561   5.187   8.134  19.229
 5122TIP3    H239562   5.178   8.151  19.379
 5123TIP3   OH239563   4.571   8.035  19.479
 5123TIP3    H139564   4.597   7.996  19.562
 5123TIP3    H239565   4.516   7.969  19.437
 5124TIP3   OH239566   5.578   8.122  18.979
 5124TIP3    H139567   5.627   8.042  18.962
 5124TIP3    H239568   5.565   8.124  19.074
 5125TIP3   OH239569   5.517   8.135  19.252
 5125TIP3    H139570   5.422   8.143  19.263
 5125TIP3    H239571   5.544   8.075  19.322
 5126TIP3   OH239572   4.772   6.420  19.756
 5126TIP3    H139573   4.682   6.388  19.762
 5126TIP3    H239574   4.764   6.508  19.721
 5127TIP3   OH239575   5.690   7.257  18.812
 5127TIP3    H139576   5.704   7.252  18.718
 5127TIP3    H239577   5.771   7.294  18.847
 5128TIP3   OH239578   5.246   6.542  19.008
 5128TIP3    H139579   5.179   6.552  19.076
 5128TIP3    H239580   5.215   6.469  18.955
 5129TIP3   OH239581   4.710   6.868  19.462
 5129TIP3    H139582   4.617   6.861  19.443
 5129TIP3    H239583   4.754   6.847  19.380
 5130TIP3   OH239584   5.353   6.933  19.297
 5130TIP3    H139585   5.338   7.025  19.278
 5130TIP3    H239586   5.429   6.910  19.244
 5131TIP3   OH239587   5.485   6.871  19.539
 5131TIP3    H139588   5.424   6.899  19.470
 5131TIP3    H239589   5.529   6.795  19.502
 5132TIP3   OH239590   4.934   6.598  18.880
 5132TIP3    H139591   4.902   6.588  18.970
 5132TIP3    H239592   4.870   6.655  18.838
 5133TIP3   OH239593   4.195   6.622  19.480
 5133TIP3    H139594   4.253   6.615  19.556
 5133TIP3    H239595   4.176   6.716  19.473
 5134TIP3   OH239596   4.227   6.765  19.085
 5134TIP3    H139597   4.261   6.816  19.012
 5134TIP3    H239598   4.152   6.815  19.116
 5135TIP3   OH239599   5.172   6.648  19.558
 5135TIP3    H139600   5.147   6.727  19.606
 5135TIP3    H239601   5.195   6.585  19.625
 5136TIP3   OH239602   4.435   6.819  19.432
 5136TIP3    H139603   4.351   6.831  19.389
 5136TIP3    H239604   4.452   6.725  19.427
 5137TIP3   OH239605   4.851   6.809  19.234
 5137TIP3    H139606   4.942   6.811  19.264
 5137TIP3    H239607   4.851   6.857  19.151
 5138TIP3   OH239608   5.492   6.583  19.792
 5138TIP3    H139609   5.518   6.492  19.774
 5138TIP3    H239610   5.397   6.582  19.784
 5139TIP3   OH239611   4.848   6.923  18.986
 5139TIP3    H139612   4.811   6.880  18.909
 5139TIP3    H239613   4.907   6.989  18.951
 5140TIP3   OH239614   5.123   6.878  19.700
 5140TIP3    H139615   5.205   6.889  19.750
 5140TIP3    H239616   5.076   6.960  19.714
 5141TIP3   OH239617   4.534   6.553  19.411
 5141TIP3    H139618   4.495   6.469  19.435
 5141TIP3    H239619   4.587   6.533  19.334
 5142TIP3   OH239620   5.099   7.379  19.189
 5142TIP3    H139621   5.029   7.354  19.129
 5142TIP3    H239622   5.057   7.437  19.253
 5143TIP3   OH239623   5.509   6.612  19.036
 5143TIP3    H139624   5.414   6.601  19.030
 5143TIP3    H239625   5.520   6.698  19.076
 5144TIP3   OH239626   5.589   6.857  19.155
 5144TIP3    H139627   5.669   6.832  19.201
 5144TIP3    H239628   5.610   6.940  19.113
 5145TIP3   OH239629   4.786   7.412  19.701
 5145TIP3    H139630   4.775   7.391  19.608
 5145TIP3    H239631   4.843   7.343  19.734
 5146TIP3   OH239632   5.309   7.543  19.113
 5146TIP3    H139633   5.263   7.627  19.120
 5146TIP3    H239634   5.241   7.477  19.129
 5147TIP3   OH239635   6.035   6.949  19.135
 5147TIP3    H139636   6.006   6.926  19.047
 5147TIP3    H239637   6.062   7.041  19.128
 5148TIP3   OH239638   6.018   7.833  19.231
 5148TIP3    H139639   5.961   7.757  19.241
 5148TIP3    H239640   6.072   7.813  19.154
 5149TIP3   OH239641   5.557   7.263  19.661
 5149TIP3    H139642   5.475   7.237  19.705
 5149TIP3    H239643   5.610   7.184  19.661
 5150TIP3   OH239644   4.899   7.749  19.514
 5150TIP3    H139645   4.885   7.838  19.482
 5150TIP3    H239646   4.826   7.733  19.574
 5151TIP3   OH239647   4.288   7.284  18.930
 5151TIP3    H139648   4.345   7.328  18.992
 5151TIP3    H239649   4.211   7.259  18.981
 5152TIP3   OH239650   4.929   7.541  19.334
 5152TIP3    H139651   4.931   7.612  19.398
 5152TIP3    H239652   4.872   7.475  19.372
 5153TIP3   OH239653   4.851   8.010  19.432
 5153TIP3    H139654   4.762   8.045  19.438
 5153TIP3    H239655   4.907   8.086  19.448
 5154TIP3   OH239656   5.772   7.645  18.984
 5154TIP3    H139657   5.804   7.591  19.056
 5154TIP3    H239658   5.684   7.612  18.967
 5155TIP3   OH239659   6.153   8.084  18.988
 5155TIP3    H139660   6.171   8.140  18.912
 5155TIP3    H239661   6.092   8.135  19.041
 5156TIP3   OH239662   5.876   7.480  19.175
 5156TIP3    H139663   5.824   7.404  19.198
 5156TIP3    H239664   5.964   7.460  19.207
 5157TIP3   OH239665   5.018   7.738  18.872
 5157TIP3    H139666   5.022   7.653  18.828
 5157TIP3    H239667   4.970   7.720  18.953
 5158TIP3   OH239668   4.864   7.690  19.106
 5158TIP3    H139669   4.890   7.630  19.176
 5158TIP3    H239670   4.892   7.776  19.137
 5159TIP3   OH239671   4.437   7.431  19.115
 5159TIP3    H139672   4.379   7.486  19.168
 5159TIP3    H239673   4.501   7.493  19.079
 5160TIP3   OH239674   5.501   6.492  19.294
 5160TIP3    H139675   5.507   6.525  19.205
 5160TIP3    H239676   5.545   6.558  19.347
 5161TIP3   OH239677   5.194   7.779  19.173
 5161TIP3    H139678   5.113   7.829  19.175
 5161TIP3    H239679   5.247   7.815  19.244
 5162TIP3   OH239680   5.118   6.780  19.320
 5162TIP3    H139681   5.192   6.839  19.307
 5162TIP3    H239682   5.131   6.743  19.407
 5163TIP3   OH239683   5.247   6.422  19.391
 5163TIP3    H139684   5.226   6.491  19.454
 5163TIP3    H239685   5.335   6.443  19.361
 5164TIP3   OH239686   4.963   7.929  19.194
 5164TIP3    H139687   4.989   8.012  19.152
 5164TIP3    H239688   4.923   7.956  19.277
 5165TIP3   OH239689   4.794   6.561  19.123
 5165TIP3    H139690   4.791   6.648  19.161
 5165TIP3    H239691   4.873   6.521  19.160
 5166TIP3   OH239692   5.698   7.019  19.636
 5166TIP3    H139693   5.622   6.968  19.609
 5166TIP3    H239694   5.747   6.958  19.692
 5167TIP3   OH239695   4.614   7.617  19.008
 5167TIP3    H139696   4.687   7.656  19.056
 5167TIP3    H239697   4.656   7.567  18.938
 5168TIP3   OH239698   4.216   6.967  18.881
 5168TIP3    H139699   4.198   7.049  18.928
 5168TIP3    H239700   4.129   6.929  18.866
 5169TIP3   OH239701   5.938   8.149  19.861
 5169TIP3    H139702   5.910   8.227  19.813
 5169TIP3    H239703   5.860   8.120  19.907
 5170TIP3   OH239704   4.498   6.352  19.734
 5170TIP3    H139705   4.484   6.338  19.640
 5170TIP3    H239706   4.477   6.268  19.774
 5171TIP3   OH239707   4.357   7.869  19.363
 5171TIP3    H139708   4.309   7.899  19.441
 5171TIP3    H239709   4.332   7.930  19.294
 5172TIP3   OH239710   5.233   7.911  18.819
 5172TIP3    H139711   5.167   7.848  18.848
 5172TIP3    H239712   5.313   7.859  18.812
 5173TIP3   OH239713   5.719   7.901  18.896
 5173TIP3    H139714   5.747   7.820  18.937
 5173TIP3    H239715   5.783   7.916  18.826
 5174TIP3   OH239716   4.761   7.459  18.837
 5174TIP3    H139717   4.790   7.407  18.912
 5174TIP3    H239718   4.842   7.482  18.791
 5175TIP3   OH239719   5.512   7.561  18.932
 5175TIP3    H139720   5.449   7.556  19.004
 5175TIP3    H239721   5.486   7.490  18.873
 5176TIP3   OH239722   4.865   7.309  19.045
 5176TIP3    H139723   4.795   7.276  19.102
 5176TIP3    H239724   4.902   7.230  19.006
 5177TIP3   OH239725   5.015   7.127  18.900
 5177TIP3    H139726   5.017   7.166  18.812
 5177TIP3    H239727   5.104   7.138  18.933
 5178TIP3   OH239728   5.955   7.347  18.867
 5178TIP3    H139729   5.977   7.324  18.776
 5178TIP3    H239730   5.976   7.440  18.874
 5179TIP3   OH239731   5.060   8.165  19.089
 5179TIP3    H139732   5.140   8.162  19.037
 5179TIP3    H239733   5.003   8.226  19.041
 5180TIP3   OH239734   4.376   7.733  18.920
 5180TIP3    H139735   4.457   7.712  18.967
 5180TIP3    H239736   4.354   7.653  18.872
 5181TIP3   OH239737   4.199   8.169  19.466
 5181TIP3    H139738   4.117   8.150  19.421
 5181TIP3    H239739   4.213   8.095  19.524
 5182TIP3   OH239740   4.260   7.949  19.618
 5182TIP3    H139741   4.212   7.877  19.658
 5182TIP3    H239742   4.316   7.983  19.688
 5183TIP3   OH239743   6.133   7.410  19.256
 5183TIP3    H139744   6.204   7.471  19.274
 5183TIP3    H239745   6.133   7.351  19.331
 5184TIP3   OH239746   6.115   7.212  19.446
 5184TIP3    H139747   6.031   7.167  19.444
 5184TIP3    H239748   6.152   7.190  19.532
 5185TIP3   OH239749   6.164   7.565  19.825
 5185TIP3    H139750   6.218   7.486  19.824
 5185TIP3    H239751   6.221   7.635  19.795
 5186TIP3   OH239752   6.114   7.218  19.060
 5186TIP3    H139753   6.049   7.250  18.997
 5186TIP3    H239754   6.113   7.282  19.131
 5187TIP3   OH239755   5.965   6.865  18.889
 5187TIP3    H139756   5.960   6.890  18.797
 5187TIP3    H239757   5.952   6.770  18.889
 5188TIP3   OH239758   5.869   7.071  19.425
 5188TIP3    H139759   5.865   6.985  19.385
 5188TIP3    H239760   5.813   7.064  19.503
 5189TIP3   OH239761   4.210   7.368  19.843
 5189TIP3    H139762   4.246   7.319  19.768
 5189TIP3    H239763   4.277   7.360  19.911
 5190TIP3   OH239764   5.928   6.591  18.902
 5190TIP3    H139765   5.977   6.534  18.961
 5190TIP3    H239766   5.836   6.567  18.915
 5191TIP3   OH239767   5.849   6.799  19.282
 5191TIP3    H139768   5.882   6.709  19.285
 5191TIP3    H239769   5.914   6.846  19.230
 5192TIP3   OH239770   5.865   6.845  19.784
 5192TIP3    H139771   5.955   6.867  19.758
 5192TIP3    H239772   5.863   6.858  19.878
 5193TIP3   OH239773   5.902   6.525  19.317
 5193TIP3    H139774   5.969   6.481  19.368
 5193TIP3    H239775   5.840   6.456  19.294
 5194TIP3   OH239776   4.366   6.602  19.698
 5194TIP3    H139777   4.409   6.520  19.722
 5194TIP3    H239778   4.413   6.669  19.748
 5195TIP3   OH239779   4.045   6.938  19.720
 5195TIP3    H139780   4.139   6.928  19.708
 5195TIP3    H239781   4.035   7.028  19.753
 5196TIP3   OH239782   6.087   6.412  19.033
 5196TIP3    H139783   6.135   6.373  18.960
 5196TIP3    H239784   6.155   6.441  19.094
 5197TIP3   OH239785   4.220   6.523  19.213
 5197TIP3    H139786   4.216   6.544  19.306
 5197TIP3    H239787   4.232   6.608  19.170
 5198TIP3   OH239788   5.803   8.172  19.503
 5198TIP3    H139789   5.884   8.134  19.469
 5198TIP3    H239790   5.831   8.222  19.580
 5199TIP3   OH239791   4.435   8.021  19.828
 5199TIP3    H139792   4.455   8.060  19.913
 5199TIP3    H239793   4.521   7.999  19.792
 5200TIP3   OH239794   4.676   7.938  19.728
 5200TIP3    H139795   4.689   7.843  19.736
 5200TIP3    H239796   4.760   7.976  19.751
 5201TIP3   OH239797   4.944   7.974  19.822
 5201TIP3    H139798   4.985   7.896  19.785
 5201TIP3    H239799   4.978   7.979  19.911
 5202TIP3   OH239800   5.254   6.445  19.722
 5202TIP3    H139801   5.177   6.392  19.741
 5202TIP3    H239802   5.325   6.382  19.711
 5203TIP3   OH239803   5.826   6.350  19.606
 5203TIP3    H139804   5.914   6.359  19.568
 5203TIP3    H239805   5.804   6.437  19.638
 5204TIP3   OH239806   6.081   6.377  19.485
 5204TIP3    H139807   6.133   6.297  19.478
 5204TIP3    H239808   6.145   6.447  19.497
 5205TIP3   OH239809   4.451   6.292  19.468
 5205TIP3    H139810   4.362   6.260  19.449
 5205TIP3    H239811   4.506   6.215  19.463
 5206TIP3   OH239812   4.363   6.330  19.072
 5206TIP3    H139813   4.433   6.381  19.032
 5206TIP3    H239814   4.318   6.392  19.130
 5207TIP3   OH239815   5.039   6.201  19.497
 5207TIP3    H139816   5.099   6.262  19.455
 5207TIP3    H239817   5.030   6.234  19.586
 5208TIP3   OH239818   5.534   6.323  19.698
 5208TIP3    H139819   5.623   6.323  19.662
 5208TIP3    H239820   5.502   6.233  19.683
 5209TIP3   OH239821   5.714   6.313  19.254
 5209TIP3    H139822   5.642   6.372  19.275
 5209TIP3    H239823   5.674   6.226  19.251
 5210TIP3   OH239824   4.286   8.046  19.160
 5210TIP3    H139825   4.206   8.041  19.108
 5210TIP3    H239826   4.318   8.135  19.147
 5211TIP3   OH239827   4.583   6.473  18.951
 5211TIP3    H139828   4.626   6.400  18.905
 5211TIP3    H239829   4.649   6.506  19.011
 5212TIP3   OH239830   5.057   6.533  19.213
 5212TIP3    H139831   5.108   6.477  19.271
 5212TIP3    H239832   5.070   6.621  19.248
 5213TIP3   OH239833   5.296   8.139  18.959
 5213TIP3    H139834   5.392   8.140  18.961
 5213TIP3    H239835   5.275   8.059  18.911
 5214TIP3   OH239836   6.018   8.080  19.353
 5214TIP3    H139837   6.018   7.990  19.321
 5214TIP3    H239838   6.010   8.133  19.273
 5215TIP3   OH239839   4.462   8.123  18.868
 5215TIP3    H139840   4.421   8.187  18.927
 5215TIP3    H239841   4.478   8.047  18.923
 5216TIP3   OH239842   7.538   7.311  19.405
 5216TIP3    H139843   7.522   7.405  19.413
 5216TIP3    H239844   7.465   7.280  19.351
 5217TIP3   OH239845   7.432   7.198  19.781
 5217TIP3    H139846   7.435   7.108  19.813
 5217TIP3    H239847   7.370   7.196  19.708
 5218TIP3   OH239848   7.841   7.534  19.680
 5218TIP3    H139849   7.789   7.466  19.722
 5218TIP3    H239850   7.851   7.602  19.747
 5219TIP3   OH239851   6.775   7.690  19.746
 5219TIP3    H139852   6.761   7.597  19.729
 5219TIP3    H239853   6.860   7.693  19.791
 5220TIP3   OH239854   6.285   6.830  19.421
 5220TIP3    H139855   6.212   6.887  19.446
 5220TIP3    H239856   6.272   6.813  19.328
 5221TIP3   OH239857   6.344   7.151  19.624
 5221TIP3    H139858   6.366   7.067  19.664
 5221TIP3    H239859   6.382   7.147  19.536
 5222TIP3   OH239860   7.501   8.040  19.690
 5222TIP3    H139861   7.552   7.985  19.630
 5222TIP3    H239862   7.459   7.978  19.749
 5223TIP3   OH239863   7.305   7.593  19.776
 5223TIP3    H139864   7.347   7.579  19.691
 5223TIP3    H239865   7.319   7.511  19.823
 5224TIP3   OH239866   7.428   6.912  19.789
 5224TIP3    H139867   7.447   6.832  19.836
 5224TIP3    H239868   7.489   6.912  19.715
 5225TIP3   OH239869   6.775   6.651  19.667
 5225TIP3    H139870   6.811   6.727  19.620
 5225TIP3    H239871   6.725   6.604  19.600
 5226TIP3   OH239872   7.729   6.707  19.462
 5226TIP3    H139873   7.744   6.689  19.555
 5226TIP3    H239874   7.813   6.739  19.430
 5227TIP3   OH239875   6.414   6.901  19.718
 5227TIP3    H139876   6.460   6.857  19.790
 5227TIP3    H239877   6.455   6.868  19.639
 5228TIP3   OH239878   6.968   7.087  19.580
 5228TIP3    H139879   7.060   7.063  19.587
 5228TIP3    H239880   6.924   7.006  19.552
 5229TIP3   OH239881   7.492   7.589  19.381
 5229TIP3    H139882   7.460   7.567  19.293
 5229TIP3    H239883   7.461   7.679  19.395
 5230TIP3   OH239884   7.750   6.696  19.732
 5230TIP3    H139885   7.674   6.683  19.788
 5230TIP3    H239886   7.810   6.749  19.785
 5231TIP3   OH239887   6.592   6.732  19.857
 5231TIP3    H139888   6.636   6.725  19.942
 5231TIP3    H239889   6.659   6.710  19.793
 5232TIP3   OH239890   6.345   7.608  19.243
 5232TIP3    H139891   6.300   7.656  19.174
 5232TIP3    H239892   6.384   7.676  19.299
 5233TIP3   OH239893   7.887   7.755  19.850
 5233TIP3    H139894   7.879   7.762  19.945
 5233TIP3    H239895   7.911   7.843  19.821
 5234TIP3   OH239896   7.124   6.342  19.681
 5234TIP3    H139897   7.109   6.253  19.649
 5234TIP3    H239898   7.040   6.369  19.719
 5235TIP3   OH239899   7.670   7.941  19.484
 5235TIP3    H139900   7.709   7.854  19.480
 5235TIP3    H239901   7.744   7.999  19.506
 5236TIP3   OH239902   7.751   7.683  19.465
 5236TIP3    H139903   7.678   7.631  19.431
 5236TIP3    H239904   7.791   7.628  19.532
 5237TIP3   OH239905   7.338   7.202  19.234
 5237TIP3    H139906   7.266   7.265  19.233
 5237TIP3    H239907   7.354   7.181  19.142
 5238TIP3   OH239908   7.399   7.112  18.961
 5238TIP3    H139909   7.482   7.120  19.010
 5238TIP3    H239910   7.420   7.052  18.889
 5239TIP3   OH239911   7.779   7.247  19.293
 5239TIP3    H139912   7.703   7.271  19.346
 5239TIP3    H239913   7.833   7.194  19.351
 5240TIP3   OH239914   6.854   7.309  19.450
 5240TIP3    H139915   6.810   7.274  19.372
 5240TIP3    H239916   6.897   7.234  19.490
 5241TIP3   OH239917   7.062   7.741  19.777
 5241TIP3    H139918   7.045   7.742  19.683
 5241TIP3    H239919   7.143   7.690  19.787
 5242TIP3   OH239920   6.853   7.199  19.805
 5242TIP3    H139921   6.893   7.162  19.726
 5242TIP3    H239922   6.876   7.138  19.875
 5243TIP3   OH239923   7.646   7.125  19.082
 5243TIP3    H139924   7.690   7.176  19.150
 5243TIP3    H239925   7.697   7.142  19.003
 5244TIP3   OH239926   7.421   7.864  19.391
 5244TIP3    H139927   7.506   7.886  19.428
 5244TIP3    H239928   7.379   7.949  19.377
 5245TIP3   OH239929   8.061   6.234  19.140
 5245TIP3    H139930   7.983   6.278  19.174
 5245TIP3    H239931   8.118   6.305  19.111
 5246TIP3   OH239932   6.721   7.221  19.217
 5246TIP3    H139933   6.651   7.283  19.195
 5246TIP3    H239934   6.682   7.135  19.200
 5247TIP3   OH239935   8.154   7.867  18.952
 5247TIP3    H139936   8.192   7.950  18.981
 5247TIP3    H239937   8.154   7.873  18.856
 5248TIP3   OH239938   6.382   7.734  19.759
 5248TIP3    H139939   6.451   7.692  19.708
 5248TIP3    H239940   6.423   7.750  19.845
 5249TIP3   OH239941   7.333   8.111  19.295
 5249TIP3    H139942   7.324   8.116  19.200
 5249TIP3    H239943   7.258   8.160  19.328
 5250TIP3   OH239944   6.632   8.033  19.475
 5250TIP3    H139945   6.641   8.006  19.566
 5250TIP3    H239946   6.576   7.966  19.436
 5251TIP3   OH239947   7.638   8.107  18.997
 5251TIP3    H139948   7.675   8.024  18.969
 5251TIP3    H239949   7.636   8.102  19.093
 5252TIP3   OH239950   7.610   8.119  19.273
 5252TIP3    H139951   7.515   8.126  19.288
 5252TIP3    H239952   7.640   8.059  19.341
 5253TIP3   OH239953   6.871   6.410  19.761
 5253TIP3    H139954   6.786   6.365  19.766
 5253TIP3    H239955   6.849   6.500  19.737
 5254TIP3   OH239956   7.782   7.171  18.849
 5254TIP3    H139957   7.778   7.193  18.756
 5254TIP3    H239958   7.860   7.217  18.881
 5255TIP3   OH239959   7.383   6.568  18.896
 5255TIP3    H139960   7.337   6.570  18.979
 5255TIP3    H239961   7.330   6.510  18.840
 5256TIP3   OH239962   6.822   6.866  19.494
 5256TIP3    H139963   6.727   6.861  19.487
 5256TIP3    H239964   6.854   6.833  19.411
 5257TIP3   OH239965   7.386   6.962  19.365
 5257TIP3    H139966   7.363   7.047  19.328
 5257TIP3    H239967   7.449   6.925  19.303
 5258TIP3   OH239968   7.579   6.916  19.563
 5258TIP3    H139969   7.519   6.945  19.495
 5258TIP3    H239970   7.623   6.840  19.526
 5259TIP3   OH239971   7.012   6.589  18.884
 5259TIP3    H139972   6.975   6.516  18.934
 5259TIP3    H239973   6.938   6.648  18.870
 5260TIP3   OH239974   6.285   6.560  19.495
 5260TIP3    H139975   6.338   6.546  19.573
 5260TIP3    H239976   6.282   6.656  19.485
 5261TIP3   OH239977   6.249   6.773  19.157
 5261TIP3    H139978   6.314   6.817  19.100
 5261TIP3    H239979   6.168   6.822  19.142
 5262TIP3   OH239980   7.241   6.561  19.540
 5262TIP3    H139981   7.170   6.506  19.573
 5262TIP3    H239982   7.305   6.562  19.612
 5263TIP3   OH239983   6.549   6.800  19.491
 5263TIP3    H139984   6.463   6.812  19.451
 5263TIP3    H239985   6.568   6.707  19.482
 5264TIP3   OH239986   6.925   6.769  19.258
 5264TIP3    H139987   7.019   6.760  19.275
 5264TIP3    H239988   6.921   6.820  19.177
 5265TIP3   OH239989   7.513   6.660  19.882
 5265TIP3    H139990   7.512   6.631  19.973
 5265TIP3    H239991   7.465   6.593  19.835
 5266TIP3   OH239992   6.912   6.910  19.023
 5266TIP3    H139993   6.870   6.864  18.951
 5266TIP3    H239994   6.982   6.960  18.981
 5267TIP3   OH239995   7.238   7.016  19.606
 5267TIP3    H139996   7.288   6.996  19.527
 5267TIP3    H239997   7.287   6.972  19.676
 5268TIP3   OH239998   6.629   6.535  19.462
 5268TIP3    H139999   6.587   6.449  19.468
 5268TIP3    H240000   6.666   6.538  19.373
 5269TIP3   OH240001   7.142   7.390  19.186
 5269TIP3    H140002   7.075   7.355  19.127
 5269TIP3    H240003   7.093   7.446  19.247
 5270TIP3   OH240004   7.591   6.634  19.081
 5270TIP3    H140005   7.507   6.622  19.037
 5270TIP3    H240006   7.588   6.724  19.113
 5271TIP3   OH240007   7.606   6.884  19.208
 5271TIP3    H140008   7.688   6.871  19.255
 5271TIP3    H240009   7.619   6.966  19.159
 5272TIP3   OH240010   6.757   7.426  19.685
 5272TIP3    H140011   6.780   7.397  19.597
 5272TIP3    H240012   6.782   7.354  19.742
 5273TIP3   OH240013   7.369   7.537  19.138
 5273TIP3    H140014   7.331   7.625  19.136
 5273TIP3    H240015   7.294   7.479  19.147
 5274TIP3   OH240016   8.100   6.953  19.165
 5274TIP3    H140017   8.081   6.916  19.078
 5274TIP3    H240018   8.103   7.047  19.150
 5275TIP3   OH240019   8.035   7.880  19.209
 5275TIP3    H140020   7.974   7.807  19.225
 5275TIP3    H240021   8.070   7.863  19.122
 5276TIP3   OH240022   7.693   7.312  19.775
 5276TIP3    H140023   7.601   7.289  19.782
 5276TIP3    H240024   7.736   7.232  19.746
 5277TIP3   OH240025   6.943   7.745  19.525
 5277TIP3    H140026   6.938   7.834  19.491
 5277TIP3    H240027   6.865   7.736  19.580
 5278TIP3   OH240028   6.375   7.228  18.968
 5278TIP3    H140029   6.422   7.285  19.029
 5278TIP3    H240030   6.286   7.222  19.003
 5279TIP3   OH240031   6.974   7.537  19.346
 5279TIP3    H140032   6.973   7.608  19.411
 5279TIP3    H240033   6.930   7.464  19.389
 5280TIP3   OH240034   6.905   8.003  19.437
 5280TIP3    H140035   6.812   8.024  19.439
 5280TIP3    H240036   6.949   8.084  19.465
 5281TIP3   OH240037   7.821   7.632  18.987
 5281TIP3    H140038   7.851   7.581  19.062
 5281TIP3    H240039   7.734   7.597  18.968
 5282TIP3   OH240040   8.236   8.125  19.027
 5282TIP3    H140041   8.253   8.176  18.948
 5282TIP3    H240042   8.161   8.168  19.068
 5283TIP3   OH240043   7.909   7.470  19.185
 5283TIP3    H140044   7.857   7.397  19.217
 5283TIP3    H240045   7.995   7.458  19.226
 5284TIP3   OH240046   7.042   7.771  18.888
 5284TIP3    H140047   7.049   7.689  18.839
 5284TIP3    H240048   6.999   7.747  18.970
 5285TIP3   OH240049   6.910   7.695  19.124
 5285TIP3    H140050   6.931   7.632  19.193
 5285TIP3    H240051   6.944   7.778  19.156
 5286TIP3   OH240052   6.515   7.406  19.137
 5286TIP3    H140053   6.455   7.461  19.187
 5286TIP3    H240054   6.573   7.469  19.092
 5287TIP3   OH240055   7.607   6.504  19.322
 5287TIP3    H140056   7.593   6.546  19.237
 5287TIP3    H240057   7.641   6.574  19.378
 5288TIP3   OH240058   7.266   7.784  19.172
 5288TIP3    H140059   7.183   7.831  19.179
 5288TIP3    H240060   7.317   7.815  19.247
 5289TIP3   OH240061   7.194   6.748  19.338
 5289TIP3    H140062   7.251   6.823  19.354
 5289TIP3    H240063   7.206   6.693  19.416
 5290TIP3   OH240064   7.361   6.381  19.363
 5290TIP3    H140065   7.320   6.439  19.426
 5290TIP3    H240066   7.450   6.416  19.351
 5291TIP3   OH240067   7.031   7.926  19.207
 5291TIP3    H140068   7.043   8.007  19.158
 5291TIP3    H240069   6.989   7.953  19.288
 5292TIP3   OH240070   6.742   6.560  19.214
 5292TIP3    H140071   6.805   6.631  19.223
 5292TIP3    H240072   6.787   6.494  19.162
 5293TIP3   OH240073   7.781   7.053  19.697
 5293TIP3    H140074   7.705   7.007  19.662
 5293TIP3    H240075   7.819   6.992  19.760
 5294TIP3   OH240076   6.672   7.599  19.009
 5294TIP3    H140077   6.740   7.647  19.057
 5294TIP3    H240078   6.720   7.547  18.946
 5295TIP3   OH240079   6.399   6.939  18.998
 5295TIP3    H140080   6.390   7.034  19.007
 5295TIP3    H240081   6.421   6.925  18.906
 5296TIP3   OH240082   7.978   8.017  19.802
 5296TIP3    H140083   7.951   8.109  19.799
 5296TIP3    H240084   8.066   8.016  19.766
 5297TIP3   OH240085   6.605   6.314  19.745
 5297TIP3    H140086   6.585   6.304  19.652
 5297TIP3    H240087   6.577   6.231  19.784
 5298TIP3   OH240088   6.430   7.855  19.365
 5298TIP3    H140089   6.379   7.895  19.436
 5298TIP3    H240090   6.410   7.908  19.288
 5299TIP3   OH240091   7.278   7.919  18.854
 5299TIP3    H140092   7.200   7.869  18.877
 5299TIP3    H240093   7.348   7.854  18.852
 5300TIP3   OH240094   7.753   7.883  18.891
 5300TIP3    H140095   7.790   7.803  18.927
 5300TIP3    H240096   7.802   7.899  18.810
 5301TIP3   OH240097   6.827   7.437  18.848
 5301TIP3    H140098   6.862   7.378  18.915
 5301TIP3    H240099   6.904   7.475  18.806
 5302TIP3   OH240100   7.565   7.537  18.947
 5302TIP3    H140101   7.505   7.532  19.021
 5302TIP3    H240102   7.538   7.466  18.889
 5303TIP3   OH240103   6.938   7.273  19.040
 5303TIP3    H140104   6.874   7.237  19.101
 5303TIP3    H240105   6.985   7.196  19.007
 5304TIP3   OH240106   7.110   7.085  18.925
 5304TIP3    H140107   7.109   7.090  18.829
 5304TIP3    H240108   7.203   7.091  18.948
 5305TIP3   OH240109   8.019   7.330  18.870
 5305TIP3    H140110   8.044   7.300  18.782
 5305TIP3    H240111   8.035   7.424  18.868
 5306TIP3   OH240112   7.081   8.160  19.075
 5306TIP3    H140113   7.169   8.170  19.041
 5306TIP3    H240114   7.025   8.204  19.011
 5307TIP3   OH240115   6.429   7.700  18.908
 5307TIP3    H140116   6.512   7.685  18.952
 5307TIP3    H240117   6.408   7.617  18.865
 5308TIP3   OH240118   6.274   8.168  19.420
 5308TIP3    H140119   6.183   8.152  19.397
 5308TIP3    H240120   6.293   8.103  19.488
 5309TIP3   OH240121   6.338   7.971  19.606
 5309TIP3    H140122   6.320   7.888  19.650
 5309TIP3    H240123   6.373   8.028  19.675
 5310TIP3   OH240124   8.157   7.414  19.298
 5310TIP3    H140125   8.201   7.485  19.345
 5310TIP3    H240126   8.161   7.340  19.359
 5311TIP3   OH240127   8.164   7.208  19.479
 5311TIP3    H140128   8.079   7.165  19.477
 5311TIP3    H240129   8.173   7.240  19.569
 5312TIP3   OH240130   8.386   7.501  19.803
 5312TIP3    H140131   0.031   7.488  19.818
 5312TIP3    H240132   8.373   7.595  19.816
 5313TIP3   OH240133   8.118   7.217  19.103
 5313TIP3    H140134   8.080   7.255  19.024
 5313TIP3    H240135   8.132   7.292  19.161
 5314TIP3   OH240136   8.023   6.857  18.917
 5314TIP3    H140137   8.002   6.889  18.830
 5314TIP3    H240138   8.000   6.764  18.915
 5315TIP3   OH240139   7.922   7.075  19.463
 5315TIP3    H140140   7.934   6.983  19.439
 5315TIP3    H240141   7.876   7.072  19.546
 5316TIP3   OH240142   6.330   7.344  19.817
 5316TIP3    H140143   6.331   7.284  19.742
 5316TIP3    H240144   6.420   7.344  19.850
 5317TIP3   OH240145   7.964   6.584  18.947
 5317TIP3    H140146   7.940   6.602  19.038
 5317TIP3    H240147   7.884   6.549  18.908
 5318TIP3   OH240148   7.962   6.808  19.355
 5318TIP3    H140149   8.007   6.724  19.360
 5318TIP3    H240150   8.012   6.858  19.291
 5319TIP3   OH240151   7.908   6.877  19.874
 5319TIP3    H140152   8.001   6.878  19.853
 5319TIP3    H240153   7.904   6.898  19.967
 5320TIP3   OH240154   8.035   6.527  19.357
 5320TIP3    H140155   8.061   6.481  19.437
 5320TIP3    H240156   7.965   6.473  19.321
 5321TIP3   OH240157   6.437   6.540  19.723
 5321TIP3    H140158   6.492   6.463  19.740
 5321TIP3    H240159   6.475   6.609  19.777
 5322TIP3   OH240160   6.125   6.933  19.753
 5322TIP3    H140161   6.219   6.913  19.747
 5322TIP3    H240162   6.122   7.018  19.796
 5323TIP3   OH240163   8.196   6.438  19.012
 5323TIP3    H140164   8.222   6.396  18.930
 5323TIP3    H240165   8.125   6.497  18.986
 5324TIP3   OH240166   6.276   6.501  19.218
 5324TIP3    H140167   6.284   6.504  19.313
 5324TIP3    H240168   6.273   6.593  19.190
 5325TIP3   OH240169   7.857   8.141  19.512
 5325TIP3    H140170   7.930   8.136  19.451
 5325TIP3    H240171   7.892   8.188  19.588
 5326TIP3   OH240172   6.476   8.093  19.816
 5326TIP3    H140173   6.464   8.082  19.911
 5326TIP3    H240174   6.555   8.042  19.796
 5327TIP3   OH240175   6.694   7.950  19.738
 5327TIP3    H140176   6.708   7.855  19.740
 5327TIP3    H240177   6.778   7.986  19.768
 5328TIP3   OH240178   6.948   7.997  19.829
 5328TIP3    H140179   7.001   7.918  19.824
 5328TIP3    H240180   7.011   8.068  19.841
 5329TIP3   OH240181   7.378   6.455  19.759
 5329TIP3    H140182   7.296   6.406  19.753
 5329TIP3    H240183   7.446   6.393  19.732
 5330TIP3   OH240184   7.950   6.199  19.685
 5330TIP3    H140185   8.014   6.263  19.653
 5330TIP3    H240186   7.890   6.250  19.739
 5331TIP3   OH240187   8.141   6.364  19.566
 5331TIP3    H140188   8.192   6.285  19.548
 5331TIP3    H240189   8.206   6.433  19.577
 5332TIP3   OH240190   6.527   6.270  19.484
 5332TIP3    H140191   6.437   6.245  19.463
 5332TIP3    H240192   6.579   6.191  19.467
 5333TIP3   OH240193   6.373   6.274  19.085
 5333TIP3    H140194   6.444   6.320  19.039
 5333TIP3    H240195   6.338   6.339  19.146
 5334TIP3   OH240196   7.080   6.172  19.423
 5334TIP3    H140197   7.069   6.163  19.328
 5334TIP3    H240198   7.126   6.255  19.433
 5335TIP3   OH240199   7.565   6.279  19.666
 5335TIP3    H140200   7.606   6.284  19.579
 5335TIP3    H240201   7.564   6.185  19.687
 5336TIP3   OH240202   7.834   6.363  19.246
 5336TIP3    H140203   7.761   6.419  19.271
 5336TIP3    H240204   7.797   6.276  19.237
 5337TIP3   OH240205   6.374   8.017  19.147
 5337TIP3    H140206   6.293   8.023  19.096
 5337TIP3    H240207   6.396   8.108  19.167
 5338TIP3   OH240208   6.571   6.456  18.998
 5338TIP3    H140209   6.654   6.409  18.989
 5338TIP3    H240210   6.584   6.512  19.074
 5339TIP3   OH240211   7.300   6.569  19.154
 5339TIP3    H140212   7.299   6.491  19.210
 5339TIP3    H240213   7.251   6.635  19.203
 5340TIP3   OH240214   7.353   8.127  19.016
 5340TIP3    H140215   7.447   8.136  18.998
 5340TIP3    H240216   7.325   8.053  18.962
 5341TIP3   OH240217   8.068   8.121  19.336
 5341TIP3    H140218   8.061   8.034  19.298
 5341TIP3    H240219   8.057   8.180  19.261
 5342TIP3   OH240220   6.534   8.162  18.939
 5342TIP3    H140221   6.493   8.223  19.000
 5342TIP3    H240222   6.523   8.076  18.980
 5343TIP3   OH240223   8.322   7.033  19.329
 5343TIP3    H140224   8.273   7.093  19.384
 5343TIP3    H240225   8.256   6.993  19.272
 5344TIP3   OH240226   8.382   7.774  19.833
 5344TIP3    H140227   0.019   7.814  19.821
 5344TIP3    H240228   8.320   7.845  19.814
 5345TIP3   OH240229   8.336   6.553  19.537
 5345TIP3    H140230   8.410   6.606  19.567
 5345TIP3    H240231   8.340   6.558  19.442
 5346TIP3   OH240232   8.244   8.212  19.526
 5346TIP3    H140233   8.183   8.189  19.456
 5346TIP3    H240234   8.230   8.146  19.594
 5347TIP3   OH240235   8.218   7.960  19.659
 5347TIP3    H140236   8.165   7.891  19.620
 5347TIP3    H240237   8.305   7.949  19.621
 5348TIP3   OH240238   8.358   7.121  19.808
 5348TIP3    H140239   8.444   7.161  19.794
 5348TIP3    H240240   8.296   7.189  19.784
 5349TIP3   OH240241   8.179   6.902  19.852
 5349TIP3    H140242   8.253   6.842  19.863
 5349TIP3    H240243   8.221   6.987  19.834
 5350TIP3   OH240244   8.297   6.532  19.256
 5350TIP3    H140245   8.209   6.543  19.293
 5350TIP3    H240246   8.283   6.501  19.167
 5351TIP3   OH240247   0.816   8.195  19.739
 5351TIP3    H140248   0.807   8.108  19.776
 5351TIP3    H240249   0.750   8.248  19.784
 5352TIP3   OH240250   1.834   8.238  19.077
 5352TIP3    H140251   1.754   8.271  19.119
 5352TIP3    H240252   1.863   8.311  19.021
 5353TIP3   OH240253   0.633   8.368  19.843
 5353TIP3    H140254   0.541   8.356  19.821
 5353TIP3    H240255   0.650   0.013  19.830
 5354TIP3   OH240256   0.369   8.325  19.764
 5354TIP3    H140257   0.345   8.312  19.672
 5354TIP3    H240258   0.347   8.243  19.807
 5355TIP3   OH240259   1.700   8.275  19.677
 5355TIP3    H140260   1.731   8.365  19.677
 5355TIP3    H240261   1.605   8.282  19.689
 5356TIP3   OH240262   0.305   8.281  19.495
 5356TIP3    H140263   0.213   8.257  19.480
 5356TIP3    H240264   0.353   8.199  19.488
 5357TIP3   OH240265   0.216   8.269  19.135
 5357TIP3    H140266   0.224   8.362  19.110
 5357TIP3    H240267   0.245   8.267  19.227
 5358TIP3   OH240268   0.854   8.183  19.470
 5358TIP3    H140269   0.892   8.267  19.443
 5358TIP3    H240270   0.849   8.189  19.565
 5359TIP3   OH240271   1.429   8.308  19.690
 5359TIP3    H140272   1.387   8.391  19.668
 5359TIP3    H240273   1.363   8.242  19.669
 5360TIP3   OH240274   1.591   8.284  19.216
 5360TIP3    H140275   1.540   8.226  19.160
 5360TIP3    H240276   1.607   8.233  19.295
 5361TIP3   OH240277   2.938   8.252  19.783
 5361TIP3    H140278   2.970   8.222  19.697
 5361TIP3    H240279   2.846   8.274  19.767
 5362TIP3   OH240280   3.924   8.264  19.149
 5362TIP3    H140281   3.830   8.272  19.166
 5362TIP3    H240282   3.960   8.349  19.173
 5363TIP3   OH240283   2.693   8.348  19.699
 5363TIP3    H140284   2.599   8.331  19.702
 5363TIP3    H240285   2.700   8.443  19.713
 5364TIP3   OH240286   2.414   8.301  19.685
 5364TIP3    H140287   2.400   8.298  19.590
 5364TIP3    H240288   2.360   8.230  19.719
 5365TIP3   OH240289   3.749   8.317  19.725
 5365TIP3    H140290   3.770   8.410  19.719
 5365TIP3    H240291   3.655   8.312  19.708
 5366TIP3   OH240292   2.373   8.272  19.406
 5366TIP3    H140293   2.280   8.249  19.409
 5366TIP3    H240294   2.418   8.188  19.418
 5367TIP3   OH240295   2.366   8.257  19.117
 5367TIP3    H140296   2.351   8.348  19.091
 5367TIP3    H240297   2.389   8.263  19.210
 5368TIP3   OH240298   2.851   8.239  19.501
 5368TIP3    H140299   2.910   8.310  19.476
 5368TIP3    H240300   2.787   8.279  19.559
 5369TIP3   OH240301   3.495   8.292  19.619
 5369TIP3    H140302   3.529   8.256  19.537
 5369TIP3    H240303   3.431   8.228  19.649
 5370TIP3   OH240304   3.673   8.302  19.269
 5370TIP3    H140305   3.596   8.250  19.245
 5370TIP3    H240306   3.704   8.263  19.350
 5371TIP3   OH240307   4.974   8.246  19.746
 5371TIP3    H140308   4.973   8.154  19.771
 5371TIP3    H240309   4.890   8.280  19.777
 5372TIP3   OH240310   5.992   8.261  19.146
 5372TIP3    H140311   5.898   8.271  19.160
 5372TIP3    H240312   6.030   8.346  19.168
 5373TIP3   OH240313   4.740   8.360  19.825
 5373TIP3    H140314   4.651   8.343  19.796
 5373TIP3    H240315   4.749   0.007  19.820
 5374TIP3   OH240316   4.482   8.308  19.728
 5374TIP3    H140317   4.474   8.306  19.633
 5374TIP3    H240318   4.433   8.231  19.758
 5375TIP3   OH240319   5.816   8.353  19.719
 5375TIP3    H140320   5.842   8.444  19.712
 5375TIP3    H240321   5.721   8.354  19.706
 5376TIP3   OH240322   4.445   8.288  19.456
 5376TIP3    H140323   4.355   8.258  19.447
 5376TIP3    H240324   4.498   8.209  19.444
 5377TIP3   OH240325   4.325   8.296  19.034
 5377TIP3    H140326   4.361   8.381  19.061
 5377TIP3    H240327   4.243   8.317  18.991
 5378TIP3   OH240328   5.031   8.217  19.477
 5378TIP3    H140329   5.040   8.308  19.448
 5378TIP3    H240330   5.024   8.222  19.572
 5379TIP3   OH240331   5.561   8.306  19.613
 5379TIP3    H140332   5.618   8.257  19.554
 5379TIP3    H240333   5.503   8.240  19.651
 5380TIP3   OH240334   5.739   8.304  19.264
 5380TIP3    H140335   5.657   8.259  19.244
 5380TIP3    H240336   5.766   8.267  19.349
 5381TIP3   OH240337   7.085   8.253  19.799
 5381TIP3    H140338   7.120   8.224  19.714
 5381TIP3    H240339   6.995   8.281  19.779
 5382TIP3   OH240340   8.022   8.285  19.116
 5382TIP3    H140341   7.929   8.286  19.138
 5382TIP3    H240342   8.038   8.372  19.078
 5383TIP3   OH240343   6.853   8.367  19.704
 5383TIP3    H140344   6.760   8.348  19.714
 5383TIP3    H240345   6.859   0.013  19.715
 5384TIP3   OH240346   6.578   8.330  19.718
 5384TIP3    H140347   6.553   8.321  19.626
 5384TIP3    H240348   6.534   8.257  19.761
 5385TIP3   OH240349   7.894   8.290  19.748
 5385TIP3    H140350   7.910   8.384  19.762
 5385TIP3    H240351   7.799   8.283  19.738
 5386TIP3   OH240352   6.517   8.292  19.454
 5386TIP3    H140353   6.428   8.260  19.438
 5386TIP3    H240354   6.572   8.215  19.441
 5387TIP3   OH240355   6.399   8.291  19.152
 5387TIP3    H140356   6.424   8.381  19.135
 5387TIP3    H240357   6.340   8.296  19.228
 5388TIP3   OH240358   7.013   8.242  19.515
 5388TIP3    H140359   7.074   8.312  19.492
 5388TIP3    H240360   6.945   8.285  19.568
 5389TIP3   OH240361   7.637   8.271  19.646
 5389TIP3    H140362   7.683   8.234  19.571
 5389TIP3    H240363   7.575   8.202  19.672
 5390TIP3   OH240364   7.756   8.332  19.175
 5390TIP3    H140365   7.697   8.351  19.102
 5390TIP3    H240366   7.711   8.263  19.224
 5391TIP3   OH240367   1.335   1.084  10.711
 5391TIP3    H140368   1.324   1.179  10.705
 5391TIP3    H240369   1.274   1.048  10.646
 5392TIP3   OH240370   1.337   1.090  11.118
 5392TIP3    H140371   1.323   1.012  11.171
 5392TIP3    H240372   1.306   1.067  11.031
 5393TIP3   OH240373   0.373   0.970  11.166
 5393TIP3    H140374   0.371   0.892  11.222
 5393TIP3    H240375   0.464   0.977  11.137
 5394TIP3   OH240376   1.658   1.364  10.903
 5394TIP3    H140377   1.643   1.283  10.952
 5394TIP3    H240378   1.665   1.432  10.970
 5395TIP3   OH240379   0.585   1.477  11.051
 5395TIP3    H140380   0.564   1.396  11.004
 5395TIP3    H240381   0.676   1.495  11.027
 5396TIP3   OH240382   0.174   0.728  10.462
 5396TIP3    H140383   0.205   0.810  10.426
 5396TIP3    H240384   0.079   0.740  10.470
 5397TIP3   OH240385   0.253   0.965  10.847
 5397TIP3    H140386   0.260   0.872  10.870
 5397TIP3    H240387   0.336   0.985  10.804
 5398TIP3   OH240388   1.354   1.929  10.848
 5398TIP3    H140389   1.393   1.857  10.798
 5398TIP3    H240390   1.307   1.886  10.919
 5399TIP3   OH240391   1.014   1.321  11.019
 5399TIP3    H140392   1.052   1.281  10.941
 5399TIP3    H240393   1.090   1.346  11.073
 5400TIP3   OH240394   2.059   0.338  11.179
 5400TIP3    H140395   2.020   0.419  11.211
 5400TIP3    H240396   2.118   0.366  11.109
 5401TIP3   OH240397   1.267   0.709  11.001
 5401TIP3    H140398   1.280   0.616  11.019
 5401TIP3    H240399   1.308   0.723  10.916
 5402TIP3   OH240400   0.598   0.466  10.849
 5402TIP3    H140401   0.631   0.546  10.808
 5402TIP3    H240402   0.556   0.419  10.777
 5403TIP3   OH240403   1.506   0.466  10.692
 5403TIP3    H140404   1.539   0.444  10.779
 5403TIP3    H240405   1.584   0.491  10.642
 5404TIP3   OH240406   0.277   0.685  10.907
 5404TIP3    H140407   0.342   0.650  10.968
 5404TIP3    H240408   0.312   0.666  10.820
 5405TIP3   OH240409   0.765   0.889  10.839
 5405TIP3    H140410   0.849   0.851  10.863
 5405TIP3    H240411   0.718   0.819  10.795
 5406TIP3   OH240412   1.925   0.554  11.284
 5406TIP3    H140413   1.881   0.639  11.281
 5406TIP3    H240414   1.866   0.499  11.336
 5407TIP3   OH240415   0.515   0.432  11.329
 5407TIP3    H140416   0.501   0.474  11.244
 5407TIP3    H240417   0.433   0.446  11.376
 5408TIP3   OH240418   1.301   1.348  10.647
 5408TIP3    H140419   1.277   1.367  10.557
 5408TIP3    H240420   1.384   1.393  10.660
 5409TIP3   OH240421   0.832   1.168  11.181
 5409TIP3    H140422   0.779   1.232  11.229
 5409TIP3    H240423   0.890   1.220  11.126
 5410TIP3   OH240424   1.581   0.430  10.956
 5410TIP3    H140425   1.494   0.438  10.996
 5410TIP3    H240426   1.628   0.508  10.986
 5411TIP3   OH240427   0.471   0.548  11.072
 5411TIP3    H140428   0.527   0.618  11.106
 5411TIP3    H240429   0.520   0.510  11.000
 5412TIP3   OH240430   0.662   1.363  11.299
 5412TIP3    H140431   0.629   1.407  11.221
 5412TIP3    H240432   0.584   1.341  11.349
 5413TIP3   OH240433   0.239   1.424  10.431
 5413TIP3    H140434   0.233   1.441  10.337
 5413TIP3    H240435   0.235   1.511  10.472
 5414TIP3   OH240436   1.662   1.587  11.078
 5414TIP3    H140437   1.568   1.594  11.099
 5414TIP3    H240438   1.685   1.675  11.047
 5415TIP3   OH240439   1.803   0.227  11.217
 5415TIP3    H140440   1.761   0.201  11.134
 5415TIP3    H240441   1.889   0.259  11.191
 5416TIP3   OH240442   0.951   0.060  10.940
 5416TIP3    H140443   0.937   8.420  10.973
 5416TIP3    H240444   0.868   0.106  10.957
 5417TIP3   OH240445   1.460   1.717  10.703
 5417TIP3    H140446   1.482   1.624  10.695
 5417TIP3    H240447   1.542   1.762  10.684
 5418TIP3   OH240448   1.553   1.458  10.668
 5418TIP3    H140449   1.602   1.416  10.597
 5418TIP3    H240450   1.595   1.424  10.748
 5419TIP3   OH240451   1.813   1.353  11.436
 5419TIP3    H140452   1.805   1.289  11.365
 5419TIP3    H240453   1.816   1.438  11.392
 5420TIP3   OH240454   1.187   1.024  10.483
 5420TIP3    H140455   1.125   1.093  10.461
 5420TIP3    H240456   1.253   1.028  10.414
 5421TIP3   OH240457   1.194   0.822  10.216
 5421TIP3    H140458   1.257   0.891  10.238
 5421TIP3    H240459   1.245   0.741  10.222
 5422TIP3   OH240460   1.959   0.982  11.330
 5422TIP3    H140461   1.905   1.056  11.301
 5422TIP3    H240462   2.018   0.965  11.257
 5423TIP3   OH240463   1.549   1.066  10.526
 5423TIP3    H140464   1.487   1.070  10.599
 5423TIP3    H240465   1.616   1.004  10.555
 5424TIP3   OH240466   1.514   0.797  11.425
 5424TIP3    H140467   1.499   0.867  11.489
 5424TIP3    H240468   1.448   0.812  11.358
 5425TIP3   OH240469   0.676   1.103  10.686
 5425TIP3    H140470   0.646   1.064  10.604
 5425TIP3    H240471   0.716   1.031  10.734
 5426TIP3   OH240472   0.838   1.528  10.957
 5426TIP3    H140473   0.812   1.515  10.866
 5426TIP3    H240474   0.901   1.459  10.974
 5427TIP3   OH240475   0.643   0.995  11.063
 5427TIP3    H140476   0.687   0.961  10.985
 5427TIP3    H240477   0.710   1.048  11.107
 5428TIP3   OH240478   1.401   1.606  11.160
 5428TIP3    H140479   1.356   1.668  11.217
 5428TIP3    H240480   1.341   1.531  11.155
 5429TIP3   OH240481   0.795   1.449  11.530
 5429TIP3    H140482   0.731   1.509  11.567
 5429TIP3    H240483   0.756   1.420  11.447
 5430TIP3   OH240484   1.391   1.004  10.302
 5430TIP3    H140485   1.453   1.024  10.372
 5430TIP3    H240486   1.443   1.009  10.222
 5431TIP3   OH240487   0.452   0.934  11.575
 5431TIP3    H140488   0.456   1.022  11.613
 5431TIP3    H240489   0.369   0.931  11.527
 5432TIP3   OH240490   1.262   1.784  10.522
 5432TIP3    H140491   1.316   1.753  10.594
 5432TIP3    H240492   1.207   1.851  10.561
 5433TIP3   OH240493   0.624   1.654  11.615
 5433TIP3    H140494   0.653   1.724  11.556
 5433TIP3    H240495   0.533   1.638  11.590
 5434TIP3   OH240496   1.888   0.070  10.337
 5434TIP3    H140497   1.809   0.110  10.374
 5434TIP3    H240498   1.939   0.145  10.305
 5435TIP3   OH240499   0.586   1.013  10.433
 5435TIP3    H140500   0.520   1.082  10.424
 5435TIP3    H240501   0.552   0.941  10.381
 5436TIP3   OH240502   2.069   1.691  10.231
 5436TIP3    H140503   2.102   1.777  10.207
 5436TIP3    H240504   2.143   1.632  10.219
 5437TIP3   OH240505   0.195   1.224  11.407
 5437TIP3    H140506   0.106   1.236  11.373
 5437TIP3    H240507   0.194   1.136  11.445
 5438TIP3   OH240508   0.178   1.568  11.027
 5438TIP3    H140509   0.218   1.481  11.017
 5438TIP3    H240510   0.223   1.607  11.101
 5439TIP3   OH240511   2.051   1.646  11.625
 5439TIP3    H140512   2.054   1.551  11.613
 5439TIP3    H240513   1.963   1.662  11.659
 5440TIP3   OH240514   1.000   1.637  11.492
 5440TIP3    H140515   0.994   1.711  11.552
 5440TIP3    H240516   0.925   1.581  11.515
 5441TIP3   OH240517   1.077   1.996  10.526
 5441TIP3    H140518   1.083   1.972  10.434
 5441TIP3    H240519   1.094   2.090  10.528
 5442TIP3   OH240520   0.451   1.847  10.725
 5442TIP3    H140521   0.489   1.816  10.807
 5442TIP3    H240522   0.365   1.804  10.722
 5443TIP3   OH240523   1.374   1.935  10.197
 5443TIP3    H140524   1.412   1.852  10.167
 5443TIP3    H240525   1.425   1.958  10.275
 5444TIP3   OH240526   1.487   1.950  10.453
 5444TIP3    H140527   1.413   1.890  10.461
 5444TIP3    H240528   1.551   1.917  10.516
 5445TIP3   OH240529   1.707   0.640  11.585
 5445TIP3    H140530   1.643   0.690  11.534
 5445TIP3    H240531   1.712   0.555  11.541
 5446TIP3   OH240532   0.441   1.323  11.459
 5446TIP3    H140533   0.454   1.274  11.540
 5446TIP3    H240534   0.358   1.291  11.424
 5447TIP3   OH240535   0.697   0.151  11.021
 5447TIP3    H140536   0.620   0.188  10.977
 5447TIP3    H240537   0.714   0.211  11.094
 5448TIP3   OH240538   1.104   0.217  11.364
 5448TIP3    H140539   1.127   0.128  11.392
 5448TIP3    H240540   1.012   0.210  11.336
 5449TIP3   OH240541   1.446   0.519  11.452
 5449TIP3    H140542   1.402   0.513  11.537
 5449TIP3    H240543   1.460   0.613  11.439
 5450TIP3   OH240544   1.570   0.993  10.097
 5450TIP3    H140545   1.620   0.930  10.149
 5450TIP3    H240546   1.633   1.026  10.032
 5451TIP3   OH240547   1.115   0.443  10.185
 5451TIP3    H140548   1.052   0.404  10.246
 5451TIP3    H240549   1.062   0.466  10.109
 5452TIP3   OH240550   0.656   0.729  11.168
 5452TIP3    H140551   0.653   0.742  11.263
 5452TIP3    H240552   0.659   0.818  11.132
 5453TIP3   OH240553   0.625   0.700  10.699
 5453TIP3    H140554   0.532   0.689  10.679
 5453TIP3    H240555   0.670   0.673  10.619
 5454TIP3   OH240556   1.238   0.755  10.532
 5454TIP3    H140557   1.211   0.845  10.515
 5454TIP3    H240558   1.306   0.738  10.467
 5455TIP3   OH240559   1.194   0.753  11.722
 5455TIP3    H140560   1.107   0.734  11.687
 5455TIP3    H240561   1.244   0.672  11.708
 5456TIP3   OH240562   1.393   0.712  10.759
 5456TIP3    H140563   1.335   0.739  10.688
 5456TIP3    H240564   1.426   0.626  10.732
 5457TIP3   OH240565   0.381   0.740  11.320
 5457TIP3    H140566   0.466   0.736  11.366
 5457TIP3    H240567   0.335   0.662  11.350
 5458TIP3   OH240568   0.617   0.457  10.158
 5458TIP3    H140569   0.649   0.418  10.239
 5458TIP3    H240570   0.652   0.546  10.160
 5459TIP3   OH240571   0.106   0.454  10.879
 5459TIP3    H140572   0.153   0.408  10.948
 5459TIP3    H240573   0.149   0.540  10.874
 5460TIP3   OH240574   0.224   0.465  10.393
 5460TIP3    H140575   0.300   0.467  10.335
 5460TIP3    H240576   0.204   0.557  10.408
 5461TIP3   OH240577   1.298   0.834  11.246
 5461TIP3    H140578   1.297   0.793  11.159
 5461TIP3    H240579   1.218   0.803  11.288
 5462TIP3   OH240580   1.054   0.437  10.774
 5462TIP3    H140581   1.000   0.493  10.831
 5462TIP3    H240582   1.098   0.377  10.834
 5463TIP3   OH240583   0.361   0.630  10.651
 5463TIP3    H140584   0.294   0.657  10.588
 5463TIP3    H240585   0.380   0.539  10.629
 5464TIP3   OH240586   0.755   0.611  10.475
 5464TIP3    H140587   0.849   0.612  10.495
 5464TIP3    H240588   0.749   0.650  10.388
 5465TIP3   OH240589   1.315   0.442  11.054
 5465TIP3    H140590   1.277   0.445  11.141
 5465TIP3    H240591   1.269   0.370  11.010
 5466TIP3   OH240592   0.715   0.710  10.221
 5466TIP3    H140593   0.640   0.769  10.226
 5466TIP3    H240594   0.787   0.765  10.191
 5467TIP3   OH240595   1.778   1.990  11.698
 5467TIP3    H140596   1.799   2.031  11.614
 5467TIP3    H240597   1.852   2.012  11.755
 5468TIP3   OH240598   0.439   1.185  11.699
 5468TIP3    H140599   0.505   1.190  11.767
 5468TIP3    H240600   0.358   1.213  11.741
 5469TIP3   OH240601   0.996   0.773  10.942
 5469TIP3    H140602   1.088   0.751  10.952
 5469TIP3    H240603   0.972   0.817  11.023
 5470TIP3   OH240604   0.473   0.372  10.618
 5470TIP3    H140605   0.418   0.295  10.630
 5470TIP3    H240606   0.534   0.348  10.548
 5471TIP3   OH240607   0.865   0.544  11.189
 5471TIP3    H140608   0.796   0.606  11.166
 5471TIP3    H240609   0.937   0.600  11.219
 5472TIP3   OH240610   1.016   1.228  10.401
 5472TIP3    H140611   0.953   1.182  10.344
 5472TIP3    H240612   0.962   1.268  10.469
 5473TIP3   OH240613   1.808   1.183  11.219
 5473TIP3    H140614   1.880   1.217  11.165
 5473TIP3    H240615   1.739   1.162  11.156
 5474TIP3   OH240616   1.341   0.423  10.343
 5474TIP3    H140617   1.269   0.429  10.280
 5474TIP3    H240618   1.380   0.510  10.342
 5475TIP3   OH240619   1.178   1.433  11.440
 5475TIP3    H140620   1.130   1.367  11.490
 5475TIP3    H240621   1.123   1.511  11.445
 5476TIP3   OH240622   1.455   0.681  10.371
 5476TIP3    H140623   1.513   0.654  10.442
 5476TIP3    H240624   1.511   0.729  10.311
 5477TIP3   OH240625   0.576   1.237  10.915
 5477TIP3    H140626   0.605   1.204  10.830
 5477TIP3    H240627   0.572   1.159  10.971
 5478TIP3   OH240628   1.238   1.398  10.380
 5478TIP3    H140629   1.197   1.480  10.352
 5478TIP3    H240630   1.167   1.333  10.374
 5479TIP3   OH240631   0.169   0.969  11.520
 5479TIP3    H140632   0.163   0.938  11.611
 5479TIP3    H240633   0.083   0.952  11.483
 5480TIP3   OH240634   0.969   0.998  11.659
 5480TIP3    H140635   0.929   0.914  11.634
 5480TIP3    H240636   1.063   0.983  11.650
 5481TIP3   OH240637   1.416   1.540  11.540
 5481TIP3    H140638   1.339   1.504  11.495
 5481TIP3    H240639   1.385   1.559  11.629
 5482TIP3   OH240640   2.035   0.704  10.417
 5482TIP3    H140641   1.998   0.675  10.334
 5482TIP3    H240642   2.026   0.799  10.416
 5483TIP3   OH240643   2.051   1.370  11.573
 5483TIP3    H140644   1.961   1.359  11.543
 5483TIP3    H240645   2.104   1.352  11.495
 5484TIP3   OH240646   1.839   1.710  10.378
 5484TIP3    H140647   1.775   1.642  10.358
 5484TIP3    H240648   1.914   1.690  10.322
 5485TIP3   OH240649   1.609   1.114  11.038
 5485TIP3    H140650   1.519   1.116  11.069
 5485TIP3    H240651   1.612   1.038  10.979
 5486TIP3   OH240652   0.704   1.519  10.714
 5486TIP3    H140653   0.707   1.606  10.674
 5486TIP3    H240654   0.611   1.494  10.709
 5487TIP3   OH240655   0.241   0.967  10.333
 5487TIP3    H140656   0.287   1.048  10.355
 5487TIP3    H240657   0.153   0.996  10.310
 5488TIP3   OH240658   0.817   1.314  10.570
 5488TIP3    H140659   0.792   1.389  10.624
 5488TIP3    H240660   0.773   1.239  10.611
 5489TIP3   OH240661   0.931   1.798  11.277
 5489TIP3    H140662   1.006   1.853  11.253
 5489TIP3    H240663   0.966   1.737  11.341
 5490TIP3   OH240664   0.689   1.772  10.608
 5490TIP3    H140665   0.603   1.807  10.630
 5490TIP3    H240666   0.751   1.838  10.642
 5491TIP3   OH240667   1.243   1.363  11.175
 5491TIP3    H140668   1.229   1.375  11.269
 5491TIP3    H240669   1.287   1.278  11.168
 5492TIP3   OH240670   1.502   1.475  10.317
 5492TIP3    H140671   1.563   1.416  10.362
 5492TIP3    H240672   1.415   1.441  10.337
 5493TIP3   OH240673   1.607   1.721  11.453
 5493TIP3    H140674   1.530   1.667  11.473
 5493TIP3    H240675   1.573   1.792  11.399
 5494TIP3   OH240676   2.110   1.989  10.247
 5494TIP3    H140677   2.157   2.070  10.267
 5494TIP3    H240678   2.017   2.014  10.252
 5495TIP3   OH240679   0.260   0.507  11.418
 5495TIP3    H140680   0.217   0.544  11.496
 5495TIP3    H240681   0.198   0.442  11.385
 5496TIP3   OH240682   1.673   1.307  10.463
 5496TIP3    H140683   1.632   1.222  10.476
 5496TIP3    H240684   1.767   1.287  10.455
 5497TIP3   OH240685   0.330   1.674  11.239
 5497TIP3    H140686   0.423   1.655  11.226
 5497TIP3    H240687   0.316   1.661  11.333
 5498TIP3   OH240688   0.721   1.441  10.338
 5498TIP3    H140689   0.757   1.389  10.409
 5498TIP3    H240690   0.765   1.526  10.346
 5499TIP3   OH240691   0.385   1.197  10.376
 5499TIP3    H140692   0.332   1.266  10.417
 5499TIP3    H240693   0.431   1.241  10.305
 5500TIP3   OH240694   1.212   0.463  11.311
 5500TIP3    H140695   1.295   0.465  11.360
 5500TIP3    H240696   1.174   0.378  11.333
 5501TIP3   OH240697   1.397   0.255  10.549
 5501TIP3    H140698   1.377   0.302  10.467
 5501TIP3    H240699   1.431   0.323  10.607
 5502TIP3   OH240700   1.110   1.640  10.341
 5502TIP3    H140701   1.019   1.648  10.371
 5502TIP3    H240702   1.161   1.684  10.409
 5503TIP3   OH240703   1.023   0.578  10.536
 5503TIP3    H140704   1.094   0.641  10.528
 5503TIP3    H240705   1.038   0.535  10.620
 5504TIP3   OH240706   1.068   0.700  11.344
 5504TIP3    H140707   1.018   0.693  11.425
 5504TIP3    H240708   1.113   0.616  11.335
 5505TIP3   OH240709   1.114   0.230  10.585
 5505TIP3    H140710   1.096   0.300  10.648
 5505TIP3    H240711   1.209   0.232  10.573
 5506TIP3   OH240712   0.839   1.688  10.394
 5506TIP3    H140713   0.831   1.763  10.336
 5506TIP3    H240714   0.788   1.711  10.471
 5507TIP3   OH240715   0.674   0.355  10.415
 5507TIP3    H140716   0.687   0.444  10.449
 5507TIP3    H240717   0.762   0.320  10.406
 5508TIP3   OH240718   1.707   0.421  11.403
 5508TIP3    H140719   1.612   0.432  11.408
 5508TIP3    H240720   1.720   0.348  11.343
 5509TIP3   OH240721   1.589   0.860  10.897
 5509TIP3    H140722   1.513   0.821  10.854
 5509TIP3    H240723   1.632   0.787  10.941
 5510TIP3   OH240724   0.520   1.342  10.182
 5510TIP3    H140725   0.580   1.389  10.240
 5510TIP3    H240726   0.577   1.298  10.119
 5511TIP3   OH240727   0.467   0.840  10.238
 5511TIP3    H140728   0.387   0.880  10.272
 5511TIP3    H240729   0.440   0.797  10.157
 5512TIP3   OH240730   1.751   1.857  11.051
 5512TIP3    H140731   1.736   1.921  10.981
 5512TIP3    H240732   1.843   1.867  11.075
 5513TIP3   OH240733   0.424   0.174  10.926
 5513TIP3    H140734   0.396   0.178  10.834
 5513TIP3    H240735   0.395   0.087  10.956
 5514TIP3   OH240736   0.229   1.686  10.531
 5514TIP3    H140737   0.193   1.713  10.615
 5514TIP3    H240738   0.239   1.768  10.481
 5515TIP3   OH240739   0.113   2.023  11.750
 5515TIP3    H140740   0.156   2.000  11.832
 5515TIP3    H240741   0.073   1.941  11.720
 5516TIP3   OH240742   0.687   1.716  11.893
 5516TIP3    H140743   0.705   1.629  11.929
 5516TIP3    H240744   0.668   1.700  11.801
 5517TIP3   OH240745   1.024   1.855  19.789
 5517TIP3    H140746   0.991   1.772  19.755
 5517TIP3    H240747   1.093   1.831  19.850
 5518TIP3   OH240748   1.354   1.575  11.810
 5518TIP3    H140749   1.343   1.495  11.861
 5518TIP3    H240750   1.440   1.609  11.835
 5519TIP3   OH240751   1.497   1.693  10.149
 5519TIP3    H140752   1.494   1.625  10.217
 5519TIP3    H240753   1.531   1.647  10.072
 5520TIP3   OH240754   0.191   1.261  11.826
 5520TIP3    H140755   0.184   1.183  11.882
 5520TIP3    H240756   0.101   1.281  11.802
 5521TIP3   OH240757   0.741   1.233  10.061
 5521TIP3    H140758   0.766   1.181  10.137
 5521TIP3    H240759   0.809   1.300  10.054
 5522TIP3   OH240760   0.879   1.259  11.719
 5522TIP3    H140761   0.852   1.309  11.642
 5522TIP3    H240762   0.907   1.175  11.684
 5523TIP3   OH240763   1.587   1.320  11.591
 5523TIP3    H140764   1.667   1.335  11.542
 5523TIP3    H240765   1.532   1.396  11.571
 5524TIP3   OH240766   0.202   0.865  11.785
 5524TIP3    H140767   0.295   0.847  11.801
 5524TIP3    H240768   0.178   0.926  11.855
 5525TIP3   OH240769   0.813   1.083  10.281
 5525TIP3    H140770   0.743   1.058  10.340
 5525TIP3    H240771   0.850   1.000  10.250
 5526TIP3   OH240772   0.638   0.772  11.440
 5526TIP3    H140773   0.591   0.837  11.493
 5526TIP3    H240774   0.716   0.752  11.491
 5527TIP3   OH240775   0.931   0.867  10.154
 5527TIP3    H140776   0.948   0.898  10.065
 5527TIP3    H240777   1.018   0.845  10.188
 5528TIP3   OH240778   1.288   1.126  11.837
 5528TIP3    H140779   1.358   1.093  11.781
 5528TIP3    H240780   1.251   1.047  11.877
 5529TIP3   OH240781   1.888   1.173  19.935
 5529TIP3    H140782   1.979   1.159  19.908
 5529TIP3    H240783   1.877   1.268  19.931
 5530TIP3   OH240784   0.653   0.515  11.659
 5530TIP3    H140785   0.645   0.472  11.573
 5530TIP3    H240786   0.729   0.574  11.649
 5531TIP3   OH240787   0.746   0.304  11.249
 5531TIP3    H140788   0.801   0.379  11.226
 5531TIP3    H240789   0.666   0.343  11.285
 5532TIP3   OH240790   0.939   0.902  11.175
 5532TIP3    H140791   0.970   0.861  11.255
 5532TIP3    H240792   0.911   0.989  11.202
 5533TIP3   OH240793   1.551   0.713  11.889
 5533TIP3    H140794   1.501   0.641  11.928
 5533TIP3    H240795   1.603   0.671  11.820
 5534TIP3   OH240796   1.591   1.064  11.684
 5534TIP3    H140797   1.580   1.153  11.652
 5534TIP3    H240798   1.677   1.037  11.652
 5535TIP3   OH240799   0.472   0.781  11.807
 5535TIP3    H140800   0.449   0.690  11.786
 5535TIP3    H240801   0.480   0.824  11.721
 5536TIP3   OH240802   0.751   0.077  11.409
 5536TIP3    H140803   0.755   0.147  11.344
 5536TIP3    H240804   0.685   0.106  11.472
 5537TIP3   OH240805   0.986   0.481  11.840
 5537TIP3    H140806   0.903   0.486  11.888
 5537TIP3    H240807   0.976   0.544  11.769
 5538TIP3   OH240808   1.309   0.497  11.692
 5538TIP3    H140809   1.227   0.454  11.716
 5538TIP3    H240810   1.377   0.446  11.737
 5539TIP3   OH240811   1.491   0.341  11.835
 5539TIP3    H140812   1.468   0.249  11.845
 5539TIP3    H240813   1.465   0.382  11.917
 5540TIP3   OH240814   0.395   0.513  11.749
 5540TIP3    H140815   0.486   0.515  11.719
 5540TIP3    H240816   0.366   0.424  11.730
 5541TIP3   OH240817   0.915   0.015  11.626
 5541TIP3    H140818   0.885   8.377  11.653
 5541TIP3    H240819   0.861   0.037  11.551
 5542TIP3   OH240820   0.839   0.236  11.778
 5542TIP3    H140821   0.880   0.158  11.740
 5542TIP3    H240822   0.909   0.302  11.780
 5543TIP3   OH240823   0.830   1.924  10.254
 5543TIP3    H140824   0.925   1.929  10.246
 5543TIP3    H240825   0.799   2.006  10.217
 5544TIP3   OH240826   0.268   1.450  10.157
 5544TIP3    H140827   0.356   1.412  10.161
 5544TIP3    H240828   0.266   1.498  10.074
 5545TIP3   OH240829   0.099   1.986  10.666
 5545TIP3    H140830   0.008   2.012  10.674
 5545TIP3    H240831   0.108   1.910  10.724
 5546TIP3   OH240832   0.192   1.766  10.814
 5546TIP3    H140833   0.164   1.685  10.856
 5546TIP3    H240834   0.223   1.821  10.887
 5547TIP3   OH240835   2.011   1.899  11.158
 5547TIP3    H140836   1.996   1.866  11.246
 5547TIP3    H240837   2.063   1.979  11.170
 5548TIP3   OH240838   1.958   1.804  11.409
 5548TIP3    H140839   1.907   1.732  11.372
 5548TIP3    H240840   2.007   1.765  11.482
 5549TIP3   OH240841   1.811   1.383  11.974
 5549TIP3    H140842   1.740   1.445  11.990
 5549TIP3    H240843   1.890   1.436  11.976
 5550TIP3   OH240844   1.951   1.232  10.465
 5550TIP3    H140845   2.031   1.284  10.468
 5550TIP3    H240846   1.952   1.181  10.546
 5551TIP3   OH240847   1.944   1.056  10.676
 5551TIP3    H140848   1.865   1.004  10.661
 5551TIP3    H240849   1.995   1.005  10.739
 5552TIP3   OH240850   2.059   1.238  11.112
 5552TIP3    H140851   2.091   1.149  11.097
 5552TIP3    H240852   2.074   1.283  11.029
 5553TIP3   OH240853   1.803   1.597  11.312
 5553TIP3    H140854   1.730   1.637  11.359
 5553TIP3    H240855   1.772   1.585  11.223
 5554TIP3   OH240856   1.990   0.972  10.348
 5554TIP3    H140857   1.908   0.932  10.318
 5554TIP3    H240858   1.963   1.060  10.377
 5555TIP3   OH240859   1.977   0.645  10.150
 5555TIP3    H140860   1.897   0.697  10.165
 5555TIP3    H240861   1.946   0.565  10.109
 5556TIP3   OH240862   1.724   0.888  10.655
 5556TIP3    H140863   1.715   0.803  10.614
 5556TIP3    H240864   1.679   0.879  10.739
 5557TIP3   OH240865   0.144   1.094  11.063
 5557TIP3    H140866   0.174   1.063  10.978
 5557TIP3    H240867   0.215   1.072  11.123
 5558TIP3   OH240868   1.859   0.995  11.614
 5558TIP3    H140869   1.889   0.909  11.644
 5558TIP3    H240870   1.892   1.002  11.525
 5559TIP3   OH240871   1.939   0.743  11.688
 5559TIP3    H140872   1.864   0.698  11.647
 5559TIP3    H240873   2.010   0.680  11.683
 5560TIP3   OH240874   1.894   0.396  10.067
 5560TIP3    H140875   1.954   0.340  10.118
 5560TIP3    H240876   1.813   0.345  10.061
 5561TIP3   OH240877   1.690   0.633  10.530
 5561TIP3    H140878   1.732   0.548  10.523
 5561TIP3    H240879   1.716   0.680  10.451
 5562TIP3   OH240880   1.732   0.657  11.028
 5562TIP3    H140881   1.824   0.646  11.002
 5562TIP3    H240882   1.736   0.697  11.114
 5563TIP3   OH240883   1.765   0.779  11.278
 5563TIP3    H140884   1.682   0.794  11.325
 5563TIP3    H240885   1.820   0.853  11.303
 5564TIP3   OH240886   0.151   0.613  11.657
 5564TIP3    H140887   0.146   0.702  11.692
 5564TIP3    H240888   0.229   0.575  11.698
 5565TIP3   OH240889   2.129   0.169  11.811
 5565TIP3    H140890   2.210   0.169  11.760
 5565TIP3    H240891   2.067   0.217  11.757
 5566TIP3   OH240892   1.754   0.364  10.557
 5566TIP3    H140893   1.807   0.325  10.627
 5566TIP3    H240894   1.715   0.289  10.512
 5567TIP3   OH240895   0.272   0.349  11.077
 5567TIP3    H140896   0.325   0.286  11.029
 5567TIP3    H240897   0.331   0.423  11.091
 5568TIP3   OH240898   0.043   0.750  11.051
 5568TIP3    H140899   0.114   0.731  10.990
 5568TIP3    H240900   0.087   0.772  11.133
 5569TIP3   OH240901   1.969   0.317  11.645
 5569TIP3    H140902   1.889   0.348  11.686
 5569TIP3    H240903   1.939   0.257  11.577
 5570TIP3   OH240904   2.066   0.260  10.238
 5570TIP3    H140905   2.137   0.197  10.246
 5570TIP3    H240906   2.102   0.341  10.274
 5571TIP3   OH240907   0.120   0.235  10.492
 5571TIP3    H140908   0.026   0.253  10.501
 5571TIP3    H240909   0.157   0.317  10.460
 5572TIP3   OH240910   1.672   1.883  10.649
 5572TIP3    H140911   1.756   1.884  10.604
 5572TIP3    H240912   1.686   1.935  10.728
 5573TIP3   OH240913   0.133   0.160  11.242
 5573TIP3    H140914   0.040   0.180  11.249
 5573TIP3    H240915   0.168   0.230  11.187
 5574TIP3   OH240916   0.368   1.582  11.513
 5574TIP3    H140917   0.395   1.494  11.490
 5574TIP3    H240918   0.299   1.570  11.578
 5575TIP3   OH240919   0.696   1.837  11.424
 5575TIP3    H140920   0.666   1.926  11.405
 5575TIP3    H240921   0.775   1.826  11.370
 5576TIP3   OH240922   1.025   1.865  11.658
 5576TIP3    H140923   1.047   1.815  11.736
 5576TIP3    H240924   1.109   1.897  11.625
 5577TIP3   OH240925   1.268   1.948  11.560
 5577TIP3    H140926   1.295   1.904  11.479
 5577TIP3    H240927   1.346   1.944  11.616
 5578TIP3   OH240928   1.908   0.122  11.452
 5578TIP3    H140929   1.859   0.153  11.376
 5578TIP3    H240930   1.891   0.028  11.454
 5579TIP3   OH240931   0.358   2.176  11.401
 5579TIP3    H140932   0.278   2.154  11.354
 5579TIP3    H240933   0.333   2.174  11.493
 5580TIP3   OH240934   0.624   2.095  11.348
 5580TIP3    H140935   0.534   2.122  11.368
 5580TIP3    H240936   0.633   2.112  11.254
 5581TIP3   OH240937   1.114   1.987  11.176
 5581TIP3    H140938   1.049   2.019  11.113
 5581TIP3    H240939   1.118   2.055  11.243
 5582TIP3   OH240940   1.325   1.847  11.302
 5582TIP3    H140941   1.260   1.893  11.249
 5582TIP3    H240942   1.409   1.885  11.277
 5583TIP3   OH240943   1.584   1.936  11.258
 5583TIP3    H140944   1.622   2.023  11.266
 5583TIP3    H240945   1.632   1.896  11.185
 5584TIP3   OH240946   0.319   1.882  11.037
 5584TIP3    H140947   0.292   1.842  11.119
 5584TIP3    H240948   0.401   1.838  11.014
 5585TIP3   OH240949   0.544   1.743  10.967
 5585TIP3    H140950   0.546   1.650  10.990
 5585TIP3    H240951   0.633   1.774  10.985
 5586TIP3   OH240952   0.810   1.792  11.032
 5586TIP3    H140953   0.831   1.706  10.997
 5586TIP3    H240954   0.843   1.791  11.122
 5587TIP3   OH240955   1.169   0.240  10.928
 5587TIP3    H140956   1.097   0.179  10.945
 5587TIP3    H240957   1.234   0.187  10.881
 5588TIP3   OH240958   1.716   0.187  10.949
 5588TIP3    H140959   1.782   0.203  10.881
 5588TIP3    H240960   1.660   0.264  10.948
 5589TIP3   OH240961   1.909   0.236  10.752
 5589TIP3    H140962   1.952   0.161  10.711
 5589TIP3    H240963   1.981   0.296  10.772
 5590TIP3   OH240964   0.319   0.148  10.667
 5590TIP3    H140965   0.244   0.172  10.612
 5590TIP3    H240966   0.311   0.053  10.678
 5591TIP3   OH240967   0.239   0.072  10.294
 5591TIP3    H140968   0.313   0.130  10.275
 5591TIP3    H240969   0.192   0.118  10.364
 5592TIP3   OH240970   1.011   8.436  10.676
 5592TIP3    H140971   1.045   0.064  10.630
 5592TIP3    H240972   1.000   0.017  10.767
 5593TIP3   OH240973   1.341   0.088  10.781
 5593TIP3    H140974   1.374   0.119  10.696
 5593TIP3    H240975   1.367   8.444  10.785
 5594TIP3   OH240976   1.637   0.127  10.456
 5594TIP3    H140977   1.550   0.161  10.477
 5594TIP3    H240978   1.624   0.033  10.443
 5595TIP3   OH240979   0.244   1.957  10.434
 5595TIP3    H140980   0.188   1.965  10.511
 5595TIP3    H240981   0.234   2.039  10.386
 5596TIP3   OH240982   0.451   0.254  10.261
 5596TIP3    H140983   0.482   0.309  10.189
 5596TIP3    H240984   0.519   0.261  10.327
 5597TIP3   OH240985   0.953   0.351  10.394
 5597TIP3    H140986   1.004   0.287  10.445
 5597TIP3    H240987   0.974   0.435  10.435
 5598TIP3   OH240988   1.107   1.911  10.258
 5598TIP3    H140989   1.193   1.937  10.226
 5598TIP3    H240990   1.111   1.815  10.262
 5599TIP3   OH240991   1.910   1.934  10.509
 5599TIP3    H140992   1.890   1.853  10.464
 5599TIP3    H240993   1.895   2.003  10.444
 5600TIP3   OH240994   0.353   0.259  11.657
 5600TIP3    H140995   0.302   0.200  11.601
 5600TIP3    H240996   0.443   0.227  11.649
 5601TIP3   OH240997   0.609   0.158  11.637
 5601TIP3    H140998   0.679   0.196  11.691
 5601TIP3    H240999   0.603   0.067  11.665
 5602TIP3   OH241000   0.516   2.015  10.349
 5602TIP3    H141001   0.432   1.978  10.377
 5602TIP3    H241002   0.576   1.940  10.348
 5603TIP3   OH241003   1.422   0.075  11.864
 5603TIP3    H141004   1.356   0.038  11.923
 5603TIP3    H241005   1.454   8.448  11.814
 5604TIP3   OH241006   1.781   1.717  11.669
 5604TIP3    H141007   1.725   1.706  11.592
 5604TIP3    H241008   1.785   1.811  11.683
 5605TIP3   OH241009   3.432   1.129  10.599
 5605TIP3    H141010   3.404   1.219  10.610
 5605TIP3    H241011   3.358   1.086  10.556
 5606TIP3   OH241012   3.106   0.958  11.123
 5606TIP3    H141013   3.191   0.934  11.159
 5606TIP3    H241014   3.091   0.896  11.051
 5607TIP3   OH241015   2.406   0.876  11.108
 5607TIP3    H141016   2.420   0.815  11.180
 5607TIP3    H241017   2.491   0.917  11.093
 5608TIP3   OH241018   3.693   1.397  10.952
 5608TIP3    H141019   3.748   1.339  11.003
 5608TIP3    H241020   3.700   1.482  10.997
 5609TIP3   OH241021   2.660   1.451  11.000
 5609TIP3    H141022   2.635   1.369  10.957
 5609TIP3    H241023   2.756   1.450  10.999
 5610TIP3   OH241024   2.136   0.646  10.663
 5610TIP3    H141025   2.089   0.709  10.717
 5610TIP3    H241026   2.103   0.661  10.574
 5611TIP3   OH241027   2.140   0.915  10.822
 5611TIP3    H141028   2.189   0.839  10.853
 5611TIP3    H241029   2.196   0.955  10.756
 5612TIP3   OH241030   3.417   1.961  10.815
 5612TIP3    H141031   3.463   1.898  10.760
 5612TIP3    H241032   3.366   1.908  10.876
 5613TIP3   OH241033   3.067   1.243  11.101
 5613TIP3    H141034   3.087   1.150  11.098
 5613TIP3    H241035   3.146   1.283  11.139
 5614TIP3   OH241036   4.068   0.298  11.144
 5614TIP3    H141037   4.100   0.364  11.205
 5614TIP3    H241038   4.099   0.327  11.058
 5615TIP3   OH241039   3.488   0.701  11.047
 5615TIP3    H141040   3.505   0.610  11.071
 5615TIP3    H241041   3.434   0.694  10.968
 5616TIP3   OH241042   2.721   0.420  10.813
 5616TIP3    H141043   2.728   0.511  10.786
 5616TIP3    H241044   2.670   0.378  10.743
 5617TIP3   OH241045   3.555   0.502  10.714
 5617TIP3    H141046   3.616   0.470  10.780
 5617TIP3    H241047   3.610   0.551  10.652
 5618TIP3   OH241048   2.279   0.707  10.930
 5618TIP3    H141049   2.335   0.753  10.993
 5618TIP3    H241050   2.340   0.660  10.873
 5619TIP3   OH241051   2.833   0.884  10.828
 5619TIP3    H141052   2.920   0.849  10.849
 5619TIP3    H241053   2.784   0.808  10.795
 5620TIP3   OH241054   4.169   0.512  11.296
 5620TIP3    H141055   4.106   0.583  11.284
 5620TIP3    H241056   4.173   0.499  11.391
 5621TIP3   OH241057   2.599   0.348  11.199
 5621TIP3    H141058   2.580   0.415  11.133
 5621TIP3    H241059   2.521   0.347  11.255
 5622TIP3   OH241060   3.356   1.402  10.582
 5622TIP3    H141061   3.343   1.381  10.489
 5622TIP3    H241062   3.325   1.492  10.590
 5623TIP3   OH241063   2.811   1.169  11.187
 5623TIP3    H141064   2.762   1.244  11.222
 5623TIP3    H241065   2.893   1.207  11.155
 5624TIP3   OH241066   3.730   0.423  10.909
 5624TIP3    H141067   3.684   0.378  10.979
 5624TIP3    H241068   3.789   0.484  10.954
 5625TIP3   OH241069   2.540   0.536  11.008
 5625TIP3    H141070   2.592   0.605  11.049
 5625TIP3    H241071   2.593   0.507  10.933
 5626TIP3   OH241072   2.668   1.394  11.271
 5626TIP3    H141073   2.659   1.427  11.182
 5626TIP3    H241074   2.580   1.402  11.309
 5627TIP3   OH241075   2.210   1.384  10.456
 5627TIP3    H141076   2.210   1.424  10.368
 5627TIP3    H241077   2.237   1.455  10.514
 5628TIP3   OH241078   3.697   1.641  11.094
 5628TIP3    H141079   3.607   1.638  11.127
 5628TIP3    H241080   3.711   1.732  11.070
 5629TIP3   OH241081   3.809   0.217  11.224
 5629TIP3    H141082   3.745   0.214  11.154
 5629TIP3    H241083   3.892   0.239  11.181
 5630TIP3   OH241084   2.971   0.070  10.929
 5630TIP3    H141085   2.957   8.426  10.952
 5630TIP3    H241086   2.892   0.114  10.961
 5631TIP3   OH241087   3.554   1.770  10.666
 5631TIP3    H141088   3.562   1.678  10.690
 5631TIP3    H241089   3.641   1.806  10.682
 5632TIP3   OH241090   3.568   1.509  10.731
 5632TIP3    H141091   3.508   1.447  10.691
 5632TIP3    H241092   3.610   1.460  10.802
 5633TIP3   OH241093   3.865   1.354  11.434
 5633TIP3    H141094   3.885   1.298  11.360
 5633TIP3    H241095   3.853   1.441  11.396
 5634TIP3   OH241096   3.228   1.004  10.453
 5634TIP3    H141097   3.168   1.076  10.435
 5634TIP3    H241098   3.230   0.953  10.371
 5635TIP3   OH241099   3.240   0.821  10.240
 5635TIP3    H141100   3.335   0.832  10.231
 5635TIP3    H241101   3.226   0.726  10.242
 5636TIP3   OH241102   4.061   0.972  11.261
 5636TIP3    H141103   4.000   1.046  11.268
 5636TIP3    H241104   4.113   0.991  11.183
 5637TIP3   OH241105   3.651   1.008  10.491
 5637TIP3    H141106   3.580   1.050  10.539
 5637TIP3    H241107   3.704   0.965  10.559
 5638TIP3   OH241108   3.542   0.784  11.452
 5638TIP3    H141109   3.586   0.847  11.510
 5638TIP3    H241110   3.492   0.838  11.392
 5639TIP3   OH241111   2.747   1.098  10.655
 5639TIP3    H141112   2.707   1.063  10.576
 5639TIP3    H241113   2.784   1.022  10.700
 5640TIP3   OH241114   2.933   1.463  10.983
 5640TIP3    H141115   2.944   1.460  10.888
 5640TIP3    H241116   2.988   1.391  11.015
 5641TIP3   OH241117   2.675   0.978  11.037
 5641TIP3    H141118   2.734   0.958  10.964
 5641TIP3    H241119   2.722   1.043  11.089
 5642TIP3   OH241120   3.455   1.600  11.223
 5642TIP3    H141121   3.445   1.608  11.318
 5642TIP3    H241122   3.397   1.527  11.198
 5643TIP3   OH241123   2.782   1.463  11.513
 5643TIP3    H141124   2.713   1.517  11.551
 5643TIP3    H241125   2.749   1.438  11.427
 5644TIP3   OH241126   3.523   0.904  10.267
 5644TIP3    H141127   3.564   0.943  10.344
 5644TIP3    H241128   3.546   0.964  10.196
 5645TIP3   OH241129   2.505   1.012  11.489
 5645TIP3    H141130   2.517   1.099  11.528
 5645TIP3    H241131   2.416   1.014  11.453
 5646TIP3   OH241132   3.309   1.701  10.544
 5646TIP3    H141133   3.397   1.711  10.582
 5646TIP3    H241134   3.279   1.790  10.527
 5647TIP3   OH241135   2.593   1.654  11.603
 5647TIP3    H141136   2.630   1.712  11.536
 5647TIP3    H241137   2.500   1.675  11.605
 5648TIP3   OH241138   3.932   0.099  10.303
 5648TIP3    H141139   3.853   0.131  10.347
 5648TIP3    H241140   3.983   0.178  10.286
 5649TIP3   OH241141   2.629   1.013  10.415
 5649TIP3    H141142   2.544   1.056  10.402
 5649TIP3    H241143   2.621   0.929  10.370
 5650TIP3   OH241144   4.123   1.661  10.219
 5650TIP3    H141145   4.146   1.751  10.197
 5650TIP3    H241146   4.203   1.611  10.204
 5651TIP3   OH241147   2.192   1.286  11.353
 5651TIP3    H141148   2.145   1.281  11.269
 5651TIP3    H241149   2.207   1.195  11.377
 5652TIP3   OH241150   2.137   1.673  11.054
 5652TIP3    H141151   2.203   1.660  11.122
 5652TIP3    H241152   2.083   1.745  11.085
 5653TIP3   OH241153   4.066   1.680  11.652
 5653TIP3    H141154   4.073   1.585  11.643
 5653TIP3    H241155   3.975   1.694  11.678
 5654TIP3   OH241156   3.010   1.617  11.519
 5654TIP3    H141157   3.014   1.646  11.610
 5654TIP3    H241158   2.929   1.567  11.514
 5655TIP3   OH241159   3.261   1.969  10.472
 5655TIP3    H141160   3.238   1.961  10.380
 5655TIP3    H241161   3.216   2.048  10.502
 5656TIP3   OH241162   2.516   1.797  10.674
 5656TIP3    H141163   2.541   1.763  10.759
 5656TIP3    H241164   2.456   1.731  10.638
 5657TIP3   OH241165   3.490   1.912  10.209
 5657TIP3    H141166   3.525   1.825  10.191
 5657TIP3    H241167   3.531   1.937  10.292
 5658TIP3   OH241168   3.540   1.982  10.479
 5658TIP3    H141169   3.444   1.983  10.480
 5658TIP3    H241170   3.564   1.908  10.535
 5659TIP3   OH241171   3.788   0.643  11.462
 5659TIP3    H141172   3.708   0.696  11.468
 5659TIP3    H241173   3.757   0.556  11.438
 5660TIP3   OH241174   2.426   1.424  11.397
 5660TIP3    H141175   2.455   1.383  11.478
 5660TIP3    H241176   2.342   1.381  11.378
 5661TIP3   OH241177   2.735   0.202  11.002
 5661TIP3    H141178   2.729   0.268  10.934
 5661TIP3    H241179   2.691   0.241  11.077
 5662TIP3   OH241180   3.203   0.140  11.387
 5662TIP3    H141181   3.210   0.045  11.388
 5662TIP3    H241182   3.191   0.164  11.479
 5663TIP3   OH241183   3.401   0.540  11.451
 5663TIP3    H141184   3.411   0.503  11.538
 5663TIP3    H241185   3.460   0.616  11.450
 5664TIP3   OH241186   3.622   1.118  10.121
 5664TIP3    H141187   3.583   1.199  10.089
 5664TIP3    H241188   3.686   1.147  10.186
 5665TIP3   OH241189   3.140   0.552  10.235
 5665TIP3    H141190   3.107   0.494  10.303
 5665TIP3    H241191   3.069   0.557  10.172
 5666TIP3   OH241192   2.709   0.720  11.135
 5666TIP3    H141193   2.691   0.736  11.227
 5666TIP3    H241194   2.702   0.806  11.093
 5667TIP3   OH241195   2.677   0.677  10.724
 5667TIP3    H141196   2.582   0.665  10.722
 5667TIP3    H241197   2.705   0.662  10.633
 5668TIP3   OH241198   3.263   0.756  10.572
 5668TIP3    H141199   3.247   0.846  10.545
 5668TIP3    H241200   3.336   0.727  10.518
 5669TIP3   OH241201   3.130   0.733  11.656
 5669TIP3    H141202   3.061   0.671  11.680
 5669TIP3    H241203   3.199   0.718  11.721
 5670TIP3   OH241204   3.345   0.659  10.814
 5670TIP3    H141205   3.314   0.702  10.734
 5670TIP3    H241206   3.407   0.594  10.784
 5671TIP3   OH241207   2.439   0.682  11.300
 5671TIP3    H141208   2.505   0.696  11.368
 5671TIP3    H241209   2.408   0.593  11.314
 5672TIP3   OH241210   2.887   0.515  10.114
 5672TIP3    H141211   2.841   0.468  10.183
 5672TIP3    H241212   2.853   0.477  10.033
 5673TIP3   OH241213   2.130   0.400  10.786
 5673TIP3    H141214   2.176   0.410  10.870
 5673TIP3    H241215   2.124   0.489  10.751
 5674TIP3   OH241216   2.191   0.479  10.360
 5674TIP3    H141217   2.242   0.522  10.292
 5674TIP3    H241218   2.131   0.547  10.392
 5675TIP3   OH241219   3.338   0.850  11.233
 5675TIP3    H141220   3.393   0.800  11.174
 5675TIP3    H241221   3.286   0.784  11.279
 5676TIP3   OH241222   3.006   0.492  10.842
 5676TIP3    H141223   2.920   0.450  10.848
 5676TIP3    H241224   3.068   0.421  10.858
 5677TIP3   OH241225   2.414   0.585  10.708
 5677TIP3    H141226   2.327   0.602  10.671
 5677TIP3    H241227   2.443   0.505  10.665
 5678TIP3   OH241228   2.777   0.621  10.475
 5678TIP3    H141229   2.869   0.627  10.501
 5678TIP3    H241230   2.769   0.684  10.403
 5679TIP3   OH241231   3.573   0.262  11.066
 5679TIP3    H141232   3.512   0.276  11.139
 5679TIP3    H241233   3.522   0.218  10.999
 5680TIP3   OH241234   2.744   0.785  10.256
 5680TIP3    H141235   2.694   0.743  10.187
 5680TIP3    H241236   2.829   0.804  10.216
 5681TIP3   OH241237   3.838   2.036  11.742
 5681TIP3    H141238   3.868   2.049  11.652
 5681TIP3    H241239   3.915   2.058  11.795
 5682TIP3   OH241240   2.499   1.265  11.629
 5682TIP3    H141241   2.570   1.267  11.694
 5682TIP3    H241242   2.419   1.277  11.680
 5683TIP3   OH241243   3.083   0.752  10.916
 5683TIP3    H141244   3.174   0.742  10.890
 5683TIP3    H241245   3.046   0.664  10.907
 5684TIP3   OH241246   2.542   0.345  10.610
 5684TIP3    H141247   2.497   0.270  10.648
 5684TIP3    H241248   2.554   0.321  10.518
 5685TIP3   OH241249   2.929   0.577  11.278
 5685TIP3    H141250   2.893   0.636  11.212
 5685TIP3    H241251   3.012   0.618  11.303
 5686TIP3   OH241252   3.062   1.212  10.383
 5686TIP3    H141253   2.994   1.175  10.326
 5686TIP3    H241254   3.014   1.262  10.449
 5687TIP3   OH241255   3.929   1.215  11.205
 5687TIP3    H141256   4.007   1.256  11.167
 5687TIP3    H241257   3.882   1.178  11.130
 5688TIP3   OH241258   3.370   0.438  10.367
 5688TIP3    H141259   3.302   0.459  10.304
 5688TIP3    H241260   3.413   0.522  10.385
 5689TIP3   OH241261   3.210   1.429  11.491
 5689TIP3    H141262   3.186   1.369  11.561
 5689TIP3    H241263   3.142   1.495  11.491
 5690TIP3   OH241264   3.486   0.682  10.422
 5690TIP3    H141265   3.571   0.665  10.463
 5690TIP3    H241266   3.503   0.755  10.362
 5691TIP3   OH241267   2.623   1.213  10.876
 5691TIP3    H141268   2.659   1.184  10.792
 5691TIP3    H241269   2.609   1.132  10.926
 5692TIP3   OH241270   3.295   1.352  10.318
 5692TIP3    H141271   3.251   1.436  10.307
 5692TIP3    H241272   3.224   1.288  10.327
 5693TIP3   OH241273   2.219   1.032  11.454
 5693TIP3    H141274   2.227   1.013  11.547
 5693TIP3    H241275   2.138   0.988  11.428
 5694TIP3   OH241276   3.004   0.982  11.611
 5694TIP3    H141277   2.970   0.979  11.521
 5694TIP3    H241278   3.057   0.902  11.619
 5695TIP3   OH241279   3.427   1.601  11.506
 5695TIP3    H141280   3.355   1.538  11.495
 5695TIP3    H241281   3.434   1.612  11.601
 5696TIP3   OH241282   4.102   0.715  10.404
 5696TIP3    H141283   4.014   0.695  10.371
 5696TIP3    H241284   4.120   0.802  10.371
 5697TIP3   OH241285   4.076   1.408  11.602
 5697TIP3    H141286   3.997   1.381  11.555
 5697TIP3    H241287   4.148   1.381  11.546
 5698TIP3   OH241288   3.939   1.720  10.411
 5698TIP3    H141289   3.891   1.641  10.436
 5698TIP3    H241290   3.999   1.691  10.343
 5699TIP3   OH241291   3.780   1.107  10.996
 5699TIP3    H141292   3.720   1.142  10.930
 5699TIP3    H241293   3.772   1.012  10.988
 5700TIP3   OH241294   2.817   1.530  10.726
 5700TIP3    H141295   2.825   1.618  10.691
 5700TIP3    H241296   2.734   1.530  10.773
 5701TIP3   OH241297   2.260   0.936  10.282
 5701TIP3    H141298   2.302   1.018  10.307
 5701TIP3    H241299   2.167   0.950  10.299
 5702TIP3   OH241300   2.873   1.325  10.551
 5702TIP3    H141301   2.861   1.394  10.616
 5702TIP3    H241302   2.830   1.249  10.589
 5703TIP3   OH241303   2.953   1.776  11.293
 5703TIP3    H141304   3.014   1.850  11.286
 5703TIP3    H241305   2.989   1.722  11.363
 5704TIP3   OH241306   2.790   1.788  10.625
 5704TIP3    H141307   2.695   1.799  10.629
 5704TIP3    H241308   2.825   1.875  10.644
 5705TIP3   OH241309   3.293   1.350  11.238
 5705TIP3    H141310   3.262   1.373  11.325
 5705TIP3    H241311   3.364   1.287  11.254
 5706TIP3   OH241312   3.563   1.391  10.236
 5706TIP3    H141313   3.624   1.338  10.288
 5706TIP3    H241314   3.477   1.367  10.268
 5707TIP3   OH241315   3.648   1.766  11.470
 5707TIP3    H141316   3.566   1.716  11.477
 5707TIP3    H241317   3.626   1.840  11.414
 5708TIP3   OH241318   4.142   1.947  10.236
 5708TIP3    H141319   4.196   2.025  10.247
 5708TIP3    H241320   4.052   1.978  10.243
 5709TIP3   OH241321   2.349   0.411  11.307
 5709TIP3    H141322   2.310   0.412  11.219
 5709TIP3    H241323   2.294   0.351  11.357
 5710TIP3   OH241324   3.767   1.208  10.340
 5710TIP3    H141325   3.732   1.142  10.398
 5710TIP3    H241326   3.860   1.215  10.364
 5711TIP3   OH241327   2.352   1.678  11.242
 5711TIP3    H141328   2.378   1.591  11.274
 5711TIP3    H241329   2.372   1.737  11.313
 5712TIP3   OH241330   2.771   1.469  10.334
 5712TIP3    H141331   2.805   1.414  10.405
 5712TIP3    H241332   2.817   1.552  10.343
 5713TIP3   OH241333   2.391   1.175  10.369
 5713TIP3    H141334   2.325   1.225  10.417
 5713TIP3    H241335   2.438   1.240  10.317
 5714TIP3   OH241336   3.408   0.316  11.285
 5714TIP3    H141337   3.390   0.395  11.335
 5714TIP3    H241338   3.337   0.256  11.308
 5715TIP3   OH241339   3.458   0.280  10.573
 5715TIP3    H141340   3.431   0.322  10.492
 5715TIP3    H241341   3.495   0.351  10.625
 5716TIP3   OH241342   3.159   1.589  10.339
 5716TIP3    H141343   3.070   1.617  10.357
 5716TIP3    H241344   3.212   1.628  10.409
 5717TIP3   OH241345   3.030   0.607  10.589
 5717TIP3    H141346   3.109   0.661  10.583
 5717TIP3    H241347   3.028   0.577  10.680
 5718TIP3   OH241348   3.173   0.679  11.384
 5718TIP3    H141349   3.149   0.709  11.471
 5718TIP3    H241350   3.244   0.616  11.399
 5719TIP3   OH241351   3.180   0.226  10.594
 5719TIP3    H141352   3.174   0.249  10.687
 5719TIP3    H241353   3.274   0.229  10.575
 5720TIP3   OH241354   2.911   1.704  10.392
 5720TIP3    H141355   2.924   1.787  10.347
 5720TIP3    H241356   2.872   1.727  10.476
 5721TIP3   OH241357   2.769   0.379  10.332
 5721TIP3    H141358   2.744   0.455  10.384
 5721TIP3    H241359   2.857   0.357  10.361
 5722TIP3   OH241360   3.678   0.410  11.370
 5722TIP3    H141361   3.588   0.380  11.356
 5722TIP3    H241362   3.732   0.343  11.329
 5723TIP3   OH241363   3.730   0.825  10.949
 5723TIP3    H141364   3.646   0.798  10.986
 5723TIP3    H241365   3.791   0.756  10.975
 5724TIP3   OH241366   2.519   1.384  10.231
 5724TIP3    H141367   2.583   1.429  10.286
 5724TIP3    H241368   2.571   1.346  10.160
 5725TIP3   OH241369   2.255   0.676  10.177
 5725TIP3    H141370   2.268   0.766  10.208
 5725TIP3    H241371   2.164   0.673  10.150
 5726TIP3   OH241372   3.771   1.920  11.077
 5726TIP3    H141373   3.769   1.981  11.003
 5726TIP3    H241374   3.860   1.926  11.111
 5727TIP3   OH241375   2.383   0.166  10.961
 5727TIP3    H141376   2.393   0.164  10.866
 5727TIP3    H241377   2.382   0.074  10.987
 5728TIP3   OH241378   2.297   1.638  10.579
 5728TIP3    H141379   2.253   1.673  10.657
 5728TIP3    H241380   2.285   1.706  10.512
 5729TIP3   OH241381   2.302   1.999  11.729
 5729TIP3    H141382   2.364   1.992  11.801
 5729TIP3    H241383   2.303   1.913  11.687
 5730TIP3   OH241384   2.601   1.697  11.882
 5730TIP3    H141385   2.672   1.651  11.927
 5730TIP3    H241386   2.613   1.675  11.790
 5731TIP3   OH241387   3.191   1.693  10.084
 5731TIP3    H141388   3.178   1.647  10.167
 5731TIP3    H241389   3.250   1.636  10.034
 5732TIP3   OH241390   3.431   1.617  11.784
 5732TIP3    H141391   3.427   1.532  11.828
 5732TIP3    H241392   3.501   1.664  11.829
 5733TIP3   OH241393   3.601   1.660  10.177
 5733TIP3    H141394   3.578   1.570  10.198
 5733TIP3    H241395   3.693   1.655  10.151
 5734TIP3   OH241396   2.244   1.277  11.749
 5734TIP3    H141397   2.245   1.182  11.740
 5734TIP3    H241398   2.173   1.306  11.691
 5735TIP3   OH241399   2.753   1.303  10.109
 5735TIP3    H141400   2.792   1.224  10.145
 5735TIP3    H241401   2.776   1.372  10.171
 5736TIP3   OH241402   2.938   1.307  11.682
 5736TIP3    H141403   2.888   1.344  11.610
 5736TIP3    H241404   2.955   1.217  11.656
 5737TIP3   OH241405   3.658   1.228  11.567
 5737TIP3    H141406   3.731   1.271  11.522
 5737TIP3    H241407   3.621   1.296  11.623
 5738TIP3   OH241408   2.291   1.002  11.719
 5738TIP3    H141409   2.379   0.972  11.697
 5738TIP3    H241410   2.276   0.969  11.807
 5739TIP3   OH241411   2.851   1.091  10.258
 5739TIP3    H141412   2.778   1.063  10.314
 5739TIP3    H241413   2.886   1.010  10.221
 5740TIP3   OH241414   2.686   0.814  11.399
 5740TIP3    H141415   2.625   0.879  11.436
 5740TIP3    H241416   2.769   0.860  11.391
 5741TIP3   OH241417   2.983   0.873  10.147
 5741TIP3    H141418   3.001   0.879  10.053
 5741TIP3    H241419   3.069   0.857  10.187
 5742TIP3   OH241420   3.393   1.132  11.857
 5742TIP3    H141421   3.479   1.090  11.854
 5742TIP3    H241422   3.331   1.059  11.871
 5743TIP3   OH241423   4.046   0.929  19.902
 5743TIP3    H141424   4.102   1.002  19.874
 5743TIP3    H241425   3.984   0.970  19.962
 5744TIP3   OH241426   2.731   0.565  11.533
 5744TIP3    H141427   2.757   0.492  11.478
 5744TIP3    H241428   2.731   0.641  11.475
 5745TIP3   OH241429   2.817   0.345  11.364
 5745TIP3    H141430   2.870   0.416  11.330
 5745TIP3    H241431   2.742   0.340  11.304
 5746TIP3   OH241432   2.917   0.964  11.339
 5746TIP3    H141433   2.989   0.945  11.280
 5746TIP3    H241434   2.871   1.037  11.298
 5747TIP3   OH241435   3.325   0.625  11.877
 5747TIP3    H141436   3.352   0.579  11.957
 5747TIP3    H241437   3.357   0.570  11.805
 5748TIP3   OH241438   3.698   0.961  11.599
 5748TIP3    H141439   3.678   1.053  11.584
 5748TIP3    H241440   3.794   0.957  11.602
 5749TIP3   OH241441   2.607   0.612  11.775
 5749TIP3    H141442   2.519   0.575  11.766
 5749TIP3    H241443   2.646   0.603  11.688
 5750TIP3   OH241444   2.917   0.089  11.408
 5750TIP3    H141445   2.871   0.172  11.398
 5750TIP3    H241446   3.005   0.106  11.374
 5751TIP3   OH241447   2.935   0.552  11.722
 5751TIP3    H141448   2.903   0.495  11.791
 5751TIP3    H241449   2.865   0.554  11.657
 5752TIP3   OH241450   3.422   0.428  11.703
 5752TIP3    H141451   3.370   0.349  11.718
 5752TIP3    H241452   3.502   0.415  11.753
 5753TIP3   OH241453   3.601   0.356  11.899
 5753TIP3    H141454   3.595   0.262  11.910
 5753TIP3    H241455   3.553   0.393  11.973
 5754TIP3   OH241456   2.384   0.434  11.744
 5754TIP3    H141457   2.366   0.365  11.681
 5754TIP3    H241458   2.423   0.389  11.819
 5755TIP3   OH241459   2.820   0.029  11.669
 5755TIP3    H141460   2.819   8.382  11.674
 5755TIP3    H241461   2.858   0.048  11.583
 5756TIP3   OH241462   2.927   0.194  11.879
 5756TIP3    H141463   2.895   0.134  11.812
 5756TIP3    H241464   2.863   0.265  11.881
 5757TIP3   OH241465   2.957   1.954  10.284
 5757TIP3    H141466   3.048   1.953  10.254
 5757TIP3    H241467   2.914   2.018  10.228
 5758TIP3   OH241468   2.264   1.490  10.199
 5758TIP3    H141469   2.356   1.465  10.210
 5758TIP3    H241470   2.235   1.440  10.123
 5759TIP3   OH241471   2.137   1.983  10.649
 5759TIP3    H141472   2.056   1.962  10.604
 5759TIP3    H241473   2.149   1.913  10.713
 5760TIP3   OH241474   2.218   1.777  10.813
 5760TIP3    H141475   2.168   1.723  10.874
 5760TIP3    H241476   2.287   1.817  10.866
 5761TIP3   OH241477   4.026   1.956  11.184
 5761TIP3    H141478   4.034   1.887  11.250
 5761TIP3    H241479   4.097   2.017  11.204
 5762TIP3   OH241480   4.023   1.787  11.400
 5762TIP3    H141481   3.966   1.717  11.369
 5762TIP3    H241482   4.061   1.753  11.481
 5763TIP3   OH241483   3.942   1.331  11.847
 5763TIP3    H141484   3.869   1.384  11.880
 5763TIP3    H241485   3.973   1.378  11.769
 5764TIP3   OH241486   4.039   1.186  10.430
 5764TIP3    H141487   4.107   1.253  10.440
 5764TIP3    H241488   4.040   1.138  10.513
 5765TIP3   OH241489   4.040   1.010  10.643
 5765TIP3    H141490   3.958   0.962  10.656
 5765TIP3    H241491   4.099   0.975  10.710
 5766TIP3   OH241492   4.188   1.315  11.139
 5766TIP3    H141493   4.207   1.232  11.095
 5766TIP3    H241494   4.239   1.380  11.091
 5767TIP3   OH241495   3.827   1.606  11.333
 5767TIP3    H141496   3.763   1.657  11.383
 5767TIP3    H241497   3.795   1.608  11.243
 5768TIP3   OH241498   4.129   0.967  10.286
 5768TIP3    H141499   4.087   0.980  10.201
 5768TIP3    H241500   4.096   1.040  10.340
 5769TIP3   OH241501   3.853   0.672  10.284
 5769TIP3    H141502   3.808   0.726  10.219
 5769TIP3    H241503   3.865   0.587  10.242
 5770TIP3   OH241504   3.799   0.862  10.679
 5770TIP3    H141505   3.784   0.776  10.641
 5770TIP3    H241506   3.773   0.852  10.771
 5771TIP3   OH241507   2.137   0.973  11.103
 5771TIP3    H141508   2.117   0.947  11.013
 5771TIP3    H241509   2.228   0.945  11.116
 5772TIP3   OH241510   3.982   0.970  11.624
 5772TIP3    H141511   3.999   0.876  11.628
 5772TIP3    H241512   4.061   1.006  11.583
 5773TIP3   OH241513   4.010   0.696  11.620
 5773TIP3    H141514   3.933   0.668  11.571
 5773TIP3    H241515   4.076   0.629  11.601
 5774TIP3   OH241516   3.890   0.435  10.155
 5774TIP3    H141517   3.972   0.390  10.176
 5774TIP3    H241518   3.838   0.369  10.109
 5775TIP3   OH241519   3.739   0.625  10.531
 5775TIP3    H141520   3.768   0.534  10.541
 5775TIP3    H241521   3.782   0.654  10.450
 5776TIP3   OH241522   3.898   0.614  11.028
 5776TIP3    H141523   3.987   0.596  10.996
 5776TIP3    H241524   3.911   0.643  11.118
 5777TIP3   OH241525   3.978   0.708  11.274
 5777TIP3    H141526   3.912   0.698  11.343
 5777TIP3    H241527   4.003   0.800  11.278
 5778TIP3   OH241528   2.128   0.542  11.713
 5778TIP3    H141529   2.219   0.513  11.718
 5778TIP3    H241530   2.080   0.464  11.684
 5779TIP3   OH241531   4.182   0.099  11.819
 5779TIP3    H141532   4.275   0.096  11.799
 5779TIP3    H241533   4.145   0.155  11.750
 5780TIP3   OH241534   3.808   0.364  10.545
 5780TIP3    H141535   3.882   0.326  10.591
 5780TIP3    H241536   3.763   0.289  10.505
 5781TIP3   OH241537   2.286   0.408  11.029
 5781TIP3    H141538   2.321   0.322  11.008
 5781TIP3    H241539   2.360   0.467  11.016
 5782TIP3   OH241540   2.016   0.641  11.017
 5782TIP3    H141541   2.107   0.659  10.992
 5782TIP3    H241542   2.021   0.624  11.111
 5783TIP3   OH241543   4.041   0.260  11.642
 5783TIP3    H141544   3.973   0.301  11.695
 5783TIP3    H241545   3.993   0.206  11.579
 5784TIP3   OH241546   4.117   0.297  10.232
 5784TIP3    H141547   4.178   0.223  10.227
 5784TIP3    H241548   4.169   0.369  10.266
 5785TIP3   OH241549   2.208   0.279  10.550
 5785TIP3    H141550   2.177   0.319  10.631
 5785TIP3    H241551   2.205   0.350  10.486
 5786TIP3   OH241552   3.787   1.898  10.702
 5786TIP3    H141553   3.863   1.912  10.645
 5786TIP3    H241554   3.794   1.967  10.768
 5787TIP3   OH241555   2.168   0.175  11.374
 5787TIP3    H141556   2.087   0.163  11.424
 5787TIP3    H241557   2.140   0.220  11.294
 5788TIP3   OH241558   2.316   1.724  11.667
 5788TIP3    H141559   2.227   1.698  11.644
 5788TIP3    H241560   2.333   1.681  11.751
 5789TIP3   OH241561   2.698   1.809  11.403
 5789TIP3    H141562   2.682   1.900  11.378
 5789TIP3    H241563   2.781   1.787  11.361
 5790TIP3   OH241564   3.145   1.963  11.601
 5790TIP3    H141565   3.157   1.890  11.661
 5790TIP3    H241566   3.208   1.947  11.530
 5791TIP3   OH241567   3.447   2.154  11.552
 5791TIP3    H141568   3.416   2.077  11.504
 5791TIP3    H241569   3.490   2.119  11.630
 5792TIP3   OH241570   3.908   0.101  11.456
 5792TIP3    H141571   3.860   0.141  11.383
 5792TIP3    H241572   3.872   0.012  11.461
 5793TIP3   OH241573   2.399   2.121  11.355
 5793TIP3    H141574   2.309   2.120  11.321
 5793TIP3    H241575   2.391   2.156  11.444
 5794TIP3   OH241576   2.667   2.072  11.315
 5794TIP3    H141577   2.574   2.085  11.332
 5794TIP3    H241578   2.678   2.095  11.223
 5795TIP3   OH241579   3.087   2.021  11.245
 5795TIP3    H141580   3.051   2.034  11.157
 5795TIP3    H241581   3.037   2.080  11.301
 5796TIP3   OH241582   3.330   1.961  11.388
 5796TIP3    H141583   3.262   1.977  11.323
 5796TIP3    H241584   3.411   1.954  11.336
 5797TIP3   OH241585   3.605   1.978  11.293
 5797TIP3    H141586   3.650   2.058  11.319
 5797TIP3    H241587   3.648   1.950  11.213
 5798TIP3   OH241588   2.405   1.852  11.012
 5798TIP3    H141589   2.376   1.802  11.089
 5798TIP3    H241590   2.483   1.806  10.981
 5799TIP3   OH241591   2.617   1.706  10.916
 5799TIP3    H141592   2.610   1.617  10.951
 5799TIP3    H241593   2.703   1.737  10.946
 5800TIP3   OH241594   2.869   1.737  11.030
 5800TIP3    H141595   2.901   1.649  11.011
 5800TIP3    H241596   2.892   1.752  11.122
 5801TIP3   OH241597   3.164   0.260  10.867
 5801TIP3    H141598   3.107   0.192  10.902
 5801TIP3    H241599   3.253   0.227  10.882
 5802TIP3   OH241600   3.796   0.160  10.816
 5802TIP3    H141601   3.875   0.174  10.765
 5802TIP3    H241602   3.767   0.248  10.841
 5803TIP3   OH241603   4.020   0.235  10.668
 5803TIP3    H141604   4.072   0.181  10.609
 5803TIP3    H241605   4.082   0.296  10.706
 5804TIP3   OH241606   2.395   0.129  10.690
 5804TIP3    H141607   2.325   0.162  10.634
 5804TIP3    H241608   2.397   0.035  10.673
 5805TIP3   OH241609   2.278   0.107  10.349
 5805TIP3    H141610   2.369   0.136  10.337
 5805TIP3    H241611   2.245   0.160  10.422
 5806TIP3   OH241612   3.003   0.016  10.655
 5806TIP3    H141613   3.061   0.080  10.614
 5806TIP3    H241614   2.992   0.047  10.745
 5807TIP3   OH241615   3.424   0.147  10.841
 5807TIP3    H141616   3.452   0.183  10.756
 5807TIP3    H241617   3.431   0.052  10.829
 5808TIP3   OH241618   3.684   0.139  10.439
 5808TIP3    H141619   3.601   0.163  10.478
 5808TIP3    H241620   3.676   0.045  10.421
 5809TIP3   OH241621   2.279   1.879  10.433
 5809TIP3    H141622   2.223   1.897  10.358
 5809TIP3    H241623   2.236   1.924  10.506
 5810TIP3   OH241624   2.550   0.193  10.358
 5810TIP3    H141625   2.565   0.104  10.329
 5810TIP3    H241626   2.626   0.242  10.328
 5811TIP3   OH241627   3.029   0.385  10.427
 5811TIP3    H141628   3.080   0.317  10.472
 5811TIP3    H241629   3.027   0.458  10.488
 5812TIP3   OH241630   3.218   1.938  10.199
 5812TIP3    H141631   3.313   1.949  10.192
 5812TIP3    H241632   3.199   1.860  10.148
 5813TIP3   OH241633   3.998   1.956  10.530
 5813TIP3    H141634   3.980   1.872  10.487
 5813TIP3    H241635   3.974   2.022  10.465
 5814TIP3   OH241636   2.322   0.199  11.613
 5814TIP3    H141637   2.290   0.176  11.526
 5814TIP3    H241638   2.402   0.147  11.624
 5815TIP3   OH241639   2.544   0.056  11.690
 5815TIP3    H141640   2.640   0.061  11.684
 5815TIP3    H241641   2.524   8.412  11.674
 5816TIP3   OH241642   2.517   1.994  10.336
 5816TIP3    H141643   2.438   1.955  10.374
 5816TIP3    H241644   2.570   1.919  10.308
 5817TIP3   OH241645   3.585   0.086  11.927
 5817TIP3    H141646   3.563   0.008  11.876
 5817TIP3    H241647   3.619   0.053  12.010
 5818TIP3   OH241648   3.804   1.763  11.700
 5818TIP3    H141649   3.751   1.758  11.620
 5818TIP3    H241650   3.814   1.857  11.716
 5819TIP3   OH241651   5.517   1.127  10.585
 5819TIP3    H141652   5.494   1.218  10.601
 5819TIP3    H241653   5.438   1.088  10.547
 5820TIP3   OH241654   5.167   0.933  11.117
 5820TIP3    H141655   5.219   0.886  11.182
 5820TIP3    H241656   5.169   0.876  11.040
 5821TIP3   OH241657   4.430   0.983  11.199
 5821TIP3    H141658   4.456   0.896  11.229
 5821TIP3    H241659   4.480   1.043  11.254
 5822TIP3   OH241660   5.793   1.365  10.906
 5822TIP3    H141661   5.802   1.281  10.951
 5822TIP3    H241662   5.805   1.430  10.976
 5823TIP3   OH241663   4.710   1.494  10.930
 5823TIP3    H141664   4.688   1.404  10.906
 5823TIP3    H241665   4.801   1.490  10.959
 5824TIP3   OH241666   4.236   0.665  10.642
 5824TIP3    H141667   4.220   0.745  10.692
 5824TIP3    H241668   4.187   0.678  10.560
 5825TIP3   OH241669   4.259   0.902  10.807
 5825TIP3    H141670   4.303   0.834  10.857
 5825TIP3    H241671   4.329   0.952  10.765
 5826TIP3   OH241672   5.430   1.975  10.858
 5826TIP3    H141673   5.469   1.905  10.805
 5826TIP3    H241674   5.438   1.943  10.948
 5827TIP3   OH241675   5.127   1.289  11.090
 5827TIP3    H141676   5.156   1.199  11.074
 5827TIP3    H241677   5.202   1.331  11.131
 5828TIP3   OH241678   6.142   0.303  11.141
 5828TIP3    H141679   6.134   0.391  11.179
 5828TIP3    H241680   6.173   0.319  11.051
 5829TIP3   OH241681   5.556   0.698  11.018
 5829TIP3    H141682   5.562   0.605  11.042
 5829TIP3    H241683   5.500   0.699  10.941
 5830TIP3   OH241684   4.819   0.469  10.779
 5830TIP3    H141685   4.812   0.559  10.749
 5830TIP3    H241686   4.763   0.419  10.719
 5831TIP3   OH241687   5.627   0.487  10.695
 5831TIP3    H141688   5.682   0.461  10.769
 5831TIP3    H241689   5.686   0.534  10.636
 5832TIP3   OH241690   4.408   0.704  10.925
 5832TIP3    H141691   4.475   0.708  10.993
 5832TIP3    H241692   4.452   0.661  10.851
 5833TIP3   OH241693   4.933   0.908  10.805
 5833TIP3    H141694   5.015   0.865  10.830
 5833TIP3    H241695   4.878   0.838  10.770
 5834TIP3   OH241696   6.103   0.534  11.285
 5834TIP3    H141697   6.058   0.618  11.279
 5834TIP3    H241698   6.056   0.487  11.354
 5835TIP3   OH241699   4.671   0.349  11.221
 5835TIP3    H141700   4.663   0.402  11.142
 5835TIP3    H241701   4.595   0.374  11.274
 5836TIP3   OH241702   5.444   1.401  10.574
 5836TIP3    H141703   5.418   1.381  10.484
 5836TIP3    H241704   5.414   1.490  10.588
 5837TIP3   OH241705   4.882   1.196  11.186
 5837TIP3    H141706   4.836   1.263  11.236
 5837TIP3    H241707   4.963   1.238  11.158
 5838TIP3   OH241708   5.794   0.435  10.910
 5838TIP3    H141709   5.722   0.432  10.973
 5838TIP3    H241710   5.852   0.503  10.943
 5839TIP3   OH241711   4.657   0.506  10.998
 5839TIP3    H141712   4.683   0.593  11.028
 5839TIP3    H241713   4.717   0.486  10.927
 5840TIP3   OH241714   4.754   1.415  11.313
 5840TIP3    H141715   4.741   1.481  11.244
 5840TIP3    H241716   4.666   1.398  11.347
 5841TIP3   OH241717   4.256   1.374  10.429
 5841TIP3    H141718   4.266   1.415  10.343
 5841TIP3    H241719   4.266   1.446  10.491
 5842TIP3   OH241720   5.789   1.585  11.086
 5842TIP3    H141721   5.693   1.593  11.084
 5842TIP3    H241722   5.820   1.671  11.058
 5843TIP3   OH241723   5.917   0.210  11.268
 5843TIP3    H141724   5.846   0.183  11.209
 5843TIP3    H241725   5.989   0.233  11.209
 5844TIP3   OH241726   5.025   0.046  10.928
 5844TIP3    H141727   5.022   8.408  10.968
 5844TIP3    H241728   4.948   0.091  10.964
 5845TIP3   OH241729   5.576   1.774  10.731
 5845TIP3    H141730   5.602   1.683  10.744
 5845TIP3    H241731   5.658   1.819  10.707
 5846TIP3   OH241732   5.650   1.514  10.726
 5846TIP3    H141733   5.595   1.452  10.678
 5846TIP3    H241734   5.704   1.460  10.783
 5847TIP3   OH241735   5.963   1.353  11.460
 5847TIP3    H141736   5.963   1.296  11.383
 5847TIP3    H241737   5.936   1.438  11.426
 5848TIP3   OH241738   5.304   1.013  10.443
 5848TIP3    H141739   5.237   1.080  10.428
 5848TIP3    H241740   5.323   0.978  10.356
 5849TIP3   OH241741   5.382   0.865  10.217
 5849TIP3    H141742   5.474   0.890  10.213
 5849TIP3    H241743   5.383   0.770  10.228
 5850TIP3   OH241744   6.118   0.972  11.259
 5850TIP3    H141745   6.065   1.051  11.261
 5850TIP3    H241746   6.174   0.982  11.181
 5851TIP3   OH241747   5.746   1.014  10.490
 5851TIP3    H141748   5.671   1.052  10.535
 5851TIP3    H241749   5.796   0.969  10.558
 5852TIP3   OH241750   5.739   0.784  11.467
 5852TIP3    H141751   5.741   0.866  11.516
 5852TIP3    H241752   5.667   0.795  11.404
 5853TIP3   OH241753   4.826   1.121  10.652
 5853TIP3    H141754   4.783   1.077  10.578
 5853TIP3    H241755   4.871   1.051  10.698
 5854TIP3   OH241756   4.985   1.502  10.969
 5854TIP3    H141757   5.011   1.497  10.877
 5854TIP3    H241758   5.036   1.434  11.012
 5855TIP3   OH241759   4.770   1.011  11.009
 5855TIP3    H141760   4.839   0.986  10.947
 5855TIP3    H241761   4.812   1.071  11.070
 5856TIP3   OH241762   5.519   1.612  11.106
 5856TIP3    H141763   5.486   1.701  11.104
 5856TIP3    H241764   5.442   1.558  11.129
 5857TIP3   OH241765   4.902   1.474  11.549
 5857TIP3    H141766   4.838   1.535  11.586
 5857TIP3    H241767   4.863   1.446  11.467
 5858TIP3   OH241768   5.664   0.906  10.252
 5858TIP3    H141769   5.691   0.943  10.336
 5858TIP3    H241770   5.682   0.975  10.189
 5859TIP3   OH241771   4.571   1.127  11.399
 5859TIP3    H141772   4.602   1.185  11.468
 5859TIP3    H241773   4.555   1.044  11.443
 5860TIP3   OH241774   5.371   1.686  10.566
 5860TIP3    H141775   5.439   1.700  10.632
 5860TIP3    H241776   5.355   1.772  10.529
 5861TIP3   OH241777   4.711   1.674  11.606
 5861TIP3    H141778   4.712   1.713  11.519
 5861TIP3    H241779   4.619   1.652  11.621
 5862TIP3   OH241780   5.998   0.115  10.268
 5862TIP3    H141781   5.922   0.140  10.320
 5862TIP3    H241782   6.036   0.198  10.239
 5863TIP3   OH241783   4.685   1.023  10.426
 5863TIP3    H141784   4.621   1.094  10.416
 5863TIP3    H241785   4.635   0.944  10.408
 5864TIP3   OH241786   6.209   1.703  10.252
 5864TIP3    H141787   6.238   1.793  10.232
 5864TIP3    H241788   6.287   1.650  10.238
 5865TIP3   OH241789   4.254   1.304  11.414
 5865TIP3    H141790   4.226   1.307  11.323
 5865TIP3    H241791   4.251   1.212  11.438
 5866TIP3   OH241792   4.391   1.524  11.021
 5866TIP3    H141793   4.465   1.482  10.978
 5866TIP3    H241794   4.428   1.565  11.099
 5867TIP3   OH241795   6.293   1.696  11.586
 5867TIP3    H141796   6.282   1.644  11.507
 5867TIP3    H241797   6.205   1.700  11.624
 5868TIP3   OH241798   5.119   1.648  11.499
 5868TIP3    H141799   5.133   1.718  11.563
 5868TIP3    H241800   5.051   1.593  11.537
 5869TIP3   OH241801   5.351   1.941  10.464
 5869TIP3    H141802   5.331   1.938  10.371
 5869TIP3    H241803   5.321   2.028  10.492
 5870TIP3   OH241804   4.549   1.874  10.714
 5870TIP3    H141805   4.602   1.845  10.789
 5870TIP3    H241806   4.470   1.822  10.719
 5871TIP3   OH241807   5.575   1.913  10.195
 5871TIP3    H141808   5.619   1.828  10.186
 5871TIP3    H241809   5.607   1.949  10.278
 5872TIP3   OH241810   5.630   1.987  10.457
 5872TIP3    H141811   5.540   1.960  10.475
 5872TIP3    H241812   5.682   1.947  10.527
 5873TIP3   OH241813   5.956   0.656  11.591
 5873TIP3    H141814   5.882   0.706  11.557
 5873TIP3    H241815   5.948   0.570  11.550
 5874TIP3   OH241816   4.498   1.434  11.447
 5874TIP3    H141817   4.538   1.383  11.517
 5874TIP3    H241818   4.417   1.387  11.426
 5875TIP3   OH241819   4.782   0.148  11.050
 5875TIP3    H141820   4.710   0.156  10.988
 5875TIP3    H241821   4.763   0.212  11.118
 5876TIP3   OH241822   5.344   0.164  11.406
 5876TIP3    H141823   5.316   0.073  11.399
 5876TIP3    H241824   5.275   0.206  11.457
 5877TIP3   OH241825   5.639   0.502  11.525
 5877TIP3    H141826   5.596   0.495  11.610
 5877TIP3    H241827   5.651   0.596  11.511
 5878TIP3   OH241828   5.729   1.141  10.128
 5878TIP3    H141829   5.685   1.220  10.096
 5878TIP3    H241830   5.787   1.172  10.197
 5879TIP3   OH241831   5.194   0.480  10.222
 5879TIP3    H141832   5.154   0.428  10.292
 5879TIP3    H241833   5.122   0.498  10.161
 5880TIP3   OH241834   4.712   0.753  11.096
 5880TIP3    H141835   4.651   0.760  11.170
 5880TIP3    H241836   4.726   0.844  11.069
 5881TIP3   OH241837   4.763   0.722  10.684
 5881TIP3    H141838   4.670   0.702  10.686
 5881TIP3    H241839   4.790   0.702  10.594
 5882TIP3   OH241840   5.336   0.752  10.536
 5882TIP3    H141841   5.320   0.844  10.518
 5882TIP3    H241842   5.413   0.730  10.483
 5883TIP3   OH241843   5.240   0.786  11.620
 5883TIP3    H141844   5.190   0.709  11.646
 5883TIP3    H241845   5.318   0.784  11.675
 5884TIP3   OH241846   5.419   0.662  10.781
 5884TIP3    H141847   5.388   0.698  10.698
 5884TIP3    H241848   5.479   0.592  10.756
 5885TIP3   OH241849   4.522   0.733  11.292
 5885TIP3    H141850   4.523   0.773  11.379
 5885TIP3    H241851   4.502   0.641  11.307
 5886TIP3   OH241852   4.923   0.484  10.118
 5886TIP3    H141853   4.877   0.440  10.189
 5886TIP3    H241854   4.894   0.439  10.039
 5887TIP3   OH241855   4.222   0.405  10.745
 5887TIP3    H141856   4.282   0.400  10.820
 5887TIP3    H241857   4.217   0.498  10.725
 5888TIP3   OH241858   4.269   0.498  10.347
 5888TIP3    H141859   4.343   0.544  10.307
 5888TIP3    H241860   4.207   0.568  10.370
 5889TIP3   OH241861   5.537   0.798  11.281
 5889TIP3    H141862   5.545   0.769  11.190
 5889TIP3    H241863   5.444   0.794  11.299
 5890TIP3   OH241864   5.091   0.495  10.825
 5890TIP3    H141865   4.999   0.471  10.823
 5890TIP3    H241866   5.137   0.413  10.843
 5891TIP3   OH241867   4.511   0.606  10.683
 5891TIP3    H141868   4.422   0.616  10.648
 5891TIP3    H241869   4.540   0.520  10.650
 5892TIP3   OH241870   4.866   0.632  10.445
 5892TIP3    H141871   4.954   0.622  10.483
 5892TIP3    H241872   4.880   0.685  10.367
 5893TIP3   OH241873   5.564   0.422  11.059
 5893TIP3    H141874   5.564   0.396  11.151
 5893TIP3    H241875   5.503   0.362  11.017
 5894TIP3   OH241876   4.923   0.751  10.205
 5894TIP3    H141877   4.922   0.666  10.161
 5894TIP3    H241878   4.998   0.797  10.168
 5895TIP3   OH241879   5.973   1.995  11.745
 5895TIP3    H141880   5.964   2.035  11.658
 5895TIP3    H241881   6.049   2.038  11.784
 5896TIP3   OH241882   4.607   1.271  11.646
 5896TIP3    H141883   4.678   1.279  11.710
 5896TIP3    H241884   4.543   1.212  11.686
 5897TIP3   OH241885   5.167   0.754  10.892
 5897TIP3    H141886   5.258   0.745  10.862
 5897TIP3    H241887   5.131   0.666  10.886
 5898TIP3   OH241888   4.636   0.367  10.594
 5898TIP3    H141889   4.595   0.282  10.610
 5898TIP3    H241890   4.672   0.359  10.505
 5899TIP3   OH241891   4.931   0.664  11.257
 5899TIP3    H141892   4.864   0.675  11.189
 5899TIP3    H241893   4.949   0.753  11.287
 5900TIP3   OH241894   5.119   1.209  10.371
 5900TIP3    H141895   5.050   1.163  10.325
 5900TIP3    H241896   5.073   1.268  10.431
 5901TIP3   OH241897   5.979   1.208  11.223
 5901TIP3    H141898   6.054   1.246  11.178
 5901TIP3    H241899   5.918   1.183  11.153
 5902TIP3   OH241900   5.437   0.434  10.353
 5902TIP3    H141901   5.360   0.447  10.298
 5902TIP3    H241902   5.478   0.521  10.358
 5903TIP3   OH241903   5.337   1.478  11.471
 5903TIP3    H141904   5.370   1.469  11.561
 5903TIP3    H241905   5.264   1.539  11.479
 5904TIP3   OH241906   5.566   0.683  10.390
 5904TIP3    H141907   5.640   0.650  10.441
 5904TIP3    H241908   5.603   0.754  10.338
 5905TIP3   OH241909   4.679   1.233  10.861
 5905TIP3    H141910   4.722   1.203  10.781
 5905TIP3    H241911   4.684   1.158  10.920
 5906TIP3   OH241912   5.352   1.360  10.318
 5906TIP3    H141913   5.305   1.444  10.319
 5906TIP3    H241914   5.283   1.294  10.324
 5907TIP3   OH241915   4.226   1.033  11.482
 5907TIP3    H141916   4.301   0.979  11.506
 5907TIP3    H241917   4.188   0.990  11.406
 5908TIP3   OH241918   5.038   0.988  11.664
 5908TIP3    H141919   4.967   0.944  11.617
 5908TIP3    H241920   5.115   0.934  11.648
 5909TIP3   OH241921   5.675   1.651  11.554
 5909TIP3    H141922   5.594   1.607  11.581
 5909TIP3    H241923   5.735   1.638  11.628
 5910TIP3   OH241924   6.153   0.751  10.372
 5910TIP3    H141925   6.060   0.740  10.351
 5910TIP3    H241926   6.174   0.840  10.342
 5911TIP3   OH241927   6.178   1.257  11.607
 5911TIP3    H141928   6.097   1.296  11.574
 5911TIP3    H241929   6.237   1.257  11.532
 5912TIP3   OH241930   5.959   1.681  10.355
 5912TIP3    H141931   5.962   1.600  10.406
 5912TIP3    H241932   6.042   1.683  10.308
 5913TIP3   OH241933   5.797   1.110  11.035
 5913TIP3    H141934   5.713   1.099  11.079
 5913TIP3    H241935   5.809   1.029  10.985
 5914TIP3   OH241936   4.873   1.566  10.698
 5914TIP3    H141937   4.863   1.655  10.665
 5914TIP3    H241938   4.799   1.553  10.757
 5915TIP3   OH241939   4.405   0.940  10.311
 5915TIP3    H141940   4.430   1.031  10.326
 5915TIP3    H241941   4.310   0.942  10.303
 5916TIP3   OH241942   4.939   1.349  10.535
 5916TIP3    H141943   4.928   1.423  10.596
 5916TIP3    H241944   4.901   1.274  10.581
 5917TIP3   OH241945   5.025   1.790  11.282
 5917TIP3    H141946   5.093   1.856  11.269
 5917TIP3    H241947   5.061   1.731  11.349
 5918TIP3   OH241948   4.811   1.835  10.607
 5918TIP3    H141949   4.716   1.841  10.614
 5918TIP3    H241950   4.842   1.924  10.621
 5919TIP3   OH241951   5.353   1.396  11.211
 5919TIP3    H141952   5.340   1.425  11.302
 5919TIP3    H241953   5.438   1.354  11.211
 5920TIP3   OH241954   5.638   1.401  10.251
 5920TIP3    H141955   5.695   1.350  10.308
 5920TIP3    H241956   5.549   1.378  10.279
 5921TIP3   OH241957   5.604   1.915  11.490
 5921TIP3    H141958   5.630   1.826  11.512
 5921TIP3    H241959   5.639   1.929  11.402
 5922TIP3   OH241960   6.258   1.989  10.253
 5922TIP3    H141961   6.311   2.067  10.268
 5922TIP3    H241962   6.167   2.020  10.258
 5923TIP3   OH241963   4.456   0.468  11.357
 5923TIP3    H141964   4.457   0.464  11.452
 5923TIP3    H241965   4.363   0.467  11.334
 5924TIP3   OH241966   5.861   1.225  10.354
 5924TIP3    H141967   5.826   1.156  10.410
 5924TIP3    H241968   5.952   1.235  10.383
 5925TIP3   OH241969   4.529   1.634  11.243
 5925TIP3    H141970   4.509   1.575  11.315
 5925TIP3    H241971   4.601   1.688  11.275
 5926TIP3   OH241972   4.805   1.518  10.354
 5926TIP3    H141973   4.849   1.452  10.408
 5926TIP3    H241974   4.863   1.594  10.357
 5927TIP3   OH241975   4.475   1.202  10.372
 5927TIP3    H141976   4.400   1.248  10.410
 5927TIP3    H241977   4.520   1.268  10.319
 5928TIP3   OH241978   5.548   0.333  11.315
 5928TIP3    H141979   5.573   0.385  11.392
 5928TIP3    H241980   5.483   0.272  11.348
 5929TIP3   OH241981   5.523   0.268  10.553
 5929TIP3    H141982   5.493   0.313  10.474
 5929TIP3    H241983   5.557   0.338  10.609
 5930TIP3   OH241984   5.209   1.592  10.362
 5930TIP3    H141985   5.122   1.631  10.375
 5930TIP3    H241986   5.260   1.622  10.437
 5931TIP3   OH241987   5.112   0.588  10.565
 5931TIP3    H141988   5.188   0.645  10.552
 5931TIP3    H241989   5.114   0.566  10.658
 5932TIP3   OH241990   5.261   0.776  11.336
 5932TIP3    H141991   5.258   0.795  11.430
 5932TIP3    H241992   5.205   0.699  11.326
 5933TIP3   OH241993   5.240   0.195  10.579
 5933TIP3    H141994   5.232   0.223  10.670
 5933TIP3    H241995   5.334   0.204  10.560
 5934TIP3   OH241996   4.970   1.737  10.398
 5934TIP3    H141997   4.994   1.816  10.350
 5934TIP3    H241998   4.919   1.769  10.473
 5935TIP3   OH241999   4.804   0.375  10.356
 5935TIP3    H142000   4.802   0.466  10.386
 5935TIP3    H242001   4.890   0.343  10.383
 5936TIP3   OH242002   5.897   0.424  11.446
 5936TIP3    H142003   5.807   0.438  11.474
 5936TIP3    H242004   5.893   0.347  11.389
 5937TIP3   OH242005   5.780   0.843  10.930
 5937TIP3    H142006   5.696   0.807  10.959
 5937TIP3    H242007   5.845   0.778  10.958
 5938TIP3   OH242008   4.598   1.400  10.220
 5938TIP3    H142009   4.660   1.452  10.273
 5938TIP3    H242010   4.654   1.350  10.161
 5939TIP3   OH242011   4.453   0.676  10.245
 5939TIP3    H142012   4.437   0.766  10.272
 5939TIP3    H242013   4.520   0.683  10.177
 5940TIP3   OH242014   5.883   1.855  11.053
 5940TIP3    H142015   5.877   1.922  10.985
 5940TIP3    H242016   5.974   1.859  11.082
 5941TIP3   OH242017   4.553   0.134  10.898
 5941TIP3    H142018   4.545   0.138  10.802
 5941TIP3    H242019   4.527   0.044  10.920
 5942TIP3   OH242020   4.295   1.611  10.570
 5942TIP3    H142021   4.289   1.650  10.658
 5942TIP3    H242022   4.302   1.686  10.511
 5943TIP3   OH242023   4.256   1.870  11.708
 5943TIP3    H142024   4.339   1.825  11.692
 5943TIP3    H242025   4.189   1.803  11.690
 5944TIP3   OH242026   5.279   1.668  10.105
 5944TIP3    H142027   5.250   1.634  10.189
 5944TIP3    H242028   5.359   1.619  10.086
 5945TIP3   OH242029   5.515   1.528  11.764
 5945TIP3    H142030   5.480   1.460  11.821
 5945TIP3    H242031   5.606   1.540  11.792
 5946TIP3   OH242032   5.708   1.673  10.217
 5946TIP3    H142033   5.686   1.580  10.223
 5946TIP3    H242034   5.793   1.679  10.261
 5947TIP3   OH242035   4.313   1.365  11.784
 5947TIP3    H142036   4.348   1.276  11.778
 5947TIP3    H242037   4.225   1.359  11.746
 5948TIP3   OH242038   4.800   1.265  10.094
 5948TIP3    H142039   4.836   1.194  10.147
 5948TIP3    H242040   4.877   1.316  10.067
 5949TIP3   OH242041   5.017   1.279  11.725
 5949TIP3    H142042   4.990   1.328  11.647
 5949TIP3    H242043   5.034   1.190  11.692
 5950TIP3   OH242044   5.784   1.294  11.666
 5950TIP3    H142045   5.846   1.312  11.595
 5950TIP3    H242046   5.788   1.372  11.721
 5951TIP3   OH242047   4.422   1.099  11.766
 5951TIP3    H142048   4.448   1.031  11.702
 5951TIP3    H242049   4.396   1.050  11.843
 5952TIP3   OH242050   4.907   1.068  10.259
 5952TIP3    H142051   4.835   1.049  10.319
 5952TIP3    H242052   4.937   0.982  10.229
 5953TIP3   OH242053   4.839   0.851  11.522
 5953TIP3    H142054   4.745   0.869  11.532
 5953TIP3    H242055   4.861   0.889  11.437
 5954TIP3   OH242056   5.127   0.906  10.116
 5954TIP3    H142057   5.139   0.969  10.044
 5954TIP3    H242058   5.215   0.893  10.151
 5955TIP3   OH242059   5.382   1.103  11.825
 5955TIP3    H142060   5.416   1.065  11.744
 5955TIP3    H242061   5.329   1.033  11.864
 5956TIP3   OH242062   6.097   0.967  19.868
 5956TIP3    H142063   6.157   1.041  19.859
 5956TIP3    H242064   6.011   1.007  19.876
 5957TIP3   OH242065   4.838   0.586  11.604
 5957TIP3    H142066   4.848   0.525  11.531
 5957TIP3    H242067   4.844   0.673  11.564
 5958TIP3   OH242068   4.890   0.415  11.376
 5958TIP3    H142069   4.925   0.494  11.335
 5958TIP3    H242070   4.814   0.392  11.322
 5959TIP3   OH242071   4.946   0.945  11.283
 5959TIP3    H142072   5.026   0.942  11.231
 5959TIP3    H242073   4.908   1.031  11.266
 5960TIP3   OH242074   5.465   0.752  11.791
 5960TIP3    H142075   5.482   0.658  11.792
 5960TIP3    H242076   5.551   0.792  11.794
 5961TIP3   OH242077   5.775   1.015  11.616
 5961TIP3    H142078   5.753   1.106  11.633
 5961TIP3    H242079   5.867   1.006  11.640
 5962TIP3   OH242080   4.631   0.669  11.777
 5962TIP3    H142081   4.598   0.741  11.723
 5962TIP3    H242082   4.702   0.631  11.725
 5963TIP3   OH242083   4.889   0.131  11.438
 5963TIP3    H142084   4.920   0.219  11.419
 5963TIP3    H242085   4.793   0.137  11.429
 5964TIP3   OH242086   5.099   0.563  11.698
 5964TIP3    H142087   5.102   0.483  11.751
 5964TIP3    H242088   5.007   0.573  11.676
 5965TIP3   OH242089   5.518   0.476  11.787
 5965TIP3    H142090   5.434   0.450  11.826
 5965TIP3    H242091   5.581   0.414  11.824
 5966TIP3   OH242092   5.666   0.275  11.928
 5966TIP3    H142093   5.640   0.183  11.928
 5966TIP3    H242094   5.628   0.311  12.008
 5967TIP3   OH242095   4.457   0.471  11.639
 5967TIP3    H142096   4.487   0.556  11.671
 5967TIP3    H242097   4.500   0.407  11.695
 5968TIP3   OH242098   4.973   0.083  11.703
 5968TIP3    H142099   4.974   8.436  11.710
 5968TIP3    H242100   4.953   0.101  11.611
 5969TIP3   OH242101   5.050   0.325  11.841
 5969TIP3    H142102   5.030   0.241  11.800
 5969TIP3    H242103   4.971   0.349  11.889
 5970TIP3   OH242104   5.044   1.971  10.273
 5970TIP3    H142105   5.136   1.958  10.248
 5970TIP3    H242106   5.011   2.034  10.210
 5971TIP3   OH242107   4.339   1.485  10.180
 5971TIP3    H142108   4.431   1.467  10.198
 5971TIP3    H242109   4.324   1.447  10.094
 5972TIP3   OH242110   4.206   2.005  10.696
 5972TIP3    H142111   4.131   1.987  10.639
 5972TIP3    H242112   4.216   1.925  10.748
 5973TIP3   OH242113   4.316   1.750  10.831
 5973TIP3    H142114   4.305   1.664  10.872
 5973TIP3    H242115   4.348   1.806  10.902
 5974TIP3   OH242116   6.135   1.882  11.181
 5974TIP3    H142117   6.097   1.852  11.264
 5974TIP3    H242118   6.184   1.961  11.204
 5975TIP3   OH242119   6.014   1.805  11.416
 5975TIP3    H142120   5.961   1.734  11.380
 5975TIP3    H242121   6.029   1.780  11.507
 5976TIP3   OH242122   6.131   1.209  10.446
 5976TIP3    H142123   6.201   1.273  10.463
 5976TIP3    H242124   6.131   1.152  10.523
 5977TIP3   OH242125   6.127   1.011  10.641
 5977TIP3    H142126   6.046   0.960  10.651
 5977TIP3    H242127   6.187   0.974  10.705
 5978TIP3   OH242128   6.231   1.267  11.125
 5978TIP3    H142129   6.262   1.186  11.085
 5978TIP3    H242130   6.266   1.336  11.070
 5979TIP3   OH242131   5.860   1.587  11.353
 5979TIP3    H142132   5.781   1.604  11.404
 5979TIP3    H242133   5.830   1.579  11.263
 5980TIP3   OH242134   6.192   1.006  10.268
 5980TIP3    H142135   6.146   1.031  10.188
 5980TIP3    H242136   6.170   1.075  10.331
 5981TIP3   OH242137   5.889   0.718  10.284
 5981TIP3    H142138   5.828   0.780  10.244
 5981TIP3    H242139   5.890   0.644  10.225
 5982TIP3   OH242140   5.886   0.857  10.672
 5982TIP3    H142141   5.870   0.768  10.641
 5982TIP3    H242142   5.848   0.859  10.760
 5983TIP3   OH242143   4.219   1.056  11.046
 5983TIP3    H142144   4.220   1.006  10.964
 5983TIP3    H242145   4.298   1.029  11.092
 5984TIP3   OH242146   6.044   1.015  11.674
 5984TIP3    H142147   6.108   0.943  11.672
 5984TIP3    H242148   6.097   1.094  11.659
 5985TIP3   OH242149   6.200   0.782  11.630
 5985TIP3    H142150   6.114   0.742  11.611
 5985TIP3    H242151   6.250   0.712  11.671
 5986TIP3   OH242152   5.892   0.491  10.133
 5986TIP3    H142153   5.974   0.442  10.139
 5986TIP3    H242154   5.830   0.429  10.095
 5987TIP3   OH242155   5.813   0.605  10.522
 5987TIP3    H142156   5.858   0.521  10.524
 5987TIP3    H242157   5.849   0.650  10.445
 5988TIP3   OH242158   5.949   0.642  11.016
 5988TIP3    H142159   6.044   0.637  11.003
 5988TIP3    H242160   5.939   0.673  11.106
 5989TIP3   OH242161   5.945   0.757  11.267
 5989TIP3    H142162   5.875   0.770  11.332
 5989TIP3    H242163   5.999   0.835  11.274
 5990TIP3   OH242164   4.187   0.483  11.566
 5990TIP3    H142165   4.274   0.481  11.605
 5990TIP3    H242166   4.144   0.403  11.598
 5991TIP3   OH242167   6.280   0.104  11.795
 5991TIP3    H142168   6.374   0.121  11.786
 5991TIP3    H242169   6.238   0.178  11.750
 5992TIP3   OH242170   5.931   0.355  10.521
 5992TIP3    H142171   5.973   0.321  10.601
 5992TIP3    H242172   5.874   0.283  10.492
 5993TIP3   OH242173   4.421   0.376  10.932
 5993TIP3    H142174   4.456   0.287  10.931
 5993TIP3    H242175   4.495   0.431  10.959
 5994TIP3   OH242176   4.173   0.571  11.016
 5994TIP3    H142177   4.252   0.610  10.979
 5994TIP3    H242178   4.195   0.553  11.107
 5995TIP3   OH242179   6.149   0.321  11.673
 5995TIP3    H142180   6.071   0.339  11.724
 5995TIP3    H242181   6.118   0.268  11.599
 5996TIP3   OH242182   6.126   0.343  10.156
 5996TIP3    H142183   6.184   0.294  10.098
 5996TIP3    H242184   6.183   0.407  10.199
 5997TIP3   OH242185   4.301   0.280  10.517
 5997TIP3    H142186   4.278   0.318  10.602
 5997TIP3    H242187   4.299   0.355  10.456
 5998TIP3   OH242188   5.805   1.906  10.655
 5998TIP3    H142189   5.886   1.900  10.606
 5998TIP3    H242190   5.828   1.954  10.734
 5999TIP3   OH242191   4.118   0.050  11.279
 5999TIP3    H142192   4.058   0.069  11.352
 5999TIP3    H242193   4.112   0.127  11.223
 6000TIP3   OH242194   4.441   1.602  11.664
 6000TIP3    H142195   4.443   1.555  11.581
 6000TIP3    H242196   4.404   1.539  11.726
 6001TIP3   OH242197   4.747   1.781  11.346
 6001TIP3    H142198   4.734   1.876  11.345
 6001TIP3    H242199   4.840   1.769  11.326
 6002TIP3   OH242200   5.199   1.866  11.659
 6002TIP3    H142201   5.238   1.814  11.729
 6002TIP3    H242202   5.266   1.931  11.636
 6003TIP3   OH242203   5.399   2.054  11.610
 6003TIP3    H142204   5.470   2.006  11.566
 6003TIP3    H242205   5.441   2.091  11.688
 6004TIP3   OH242206   6.082   0.123  11.471
 6004TIP3    H142207   6.017   0.155  11.409
 6004TIP3    H242208   6.063   0.030  11.481
 6005TIP3   OH242209   4.469   2.130  11.371
 6005TIP3    H142210   4.376   2.126  11.349
 6005TIP3    H242211   4.472   2.176  11.454
 6006TIP3   OH242212   4.732   2.058  11.320
 6006TIP3    H142213   4.642   2.082  11.342
 6006TIP3    H242214   4.745   2.092  11.231
 6007TIP3   OH242215   5.213   1.992  11.221
 6007TIP3    H142216   5.170   2.044  11.153
 6007TIP3    H242217   5.234   2.055  11.290
 6008TIP3   OH242218   5.453   1.884  11.120
 6008TIP3    H142219   5.378   1.914  11.170
 6008TIP3    H242220   5.529   1.916  11.169
 6009TIP3   OH242221   5.703   1.966  11.233
 6009TIP3    H142222   5.751   2.048  11.242
 6009TIP3    H242223   5.756   1.914  11.172
 6010TIP3   OH242224   4.451   1.876  11.042
 6010TIP3    H142225   4.436   1.836  11.128
 6010TIP3    H242226   4.535   1.839  11.013
 6011TIP3   OH242227   4.678   1.766  10.934
 6011TIP3    H142228   4.673   1.670  10.935
 6011TIP3    H242229   4.766   1.786  10.963
 6012TIP3   OH242230   4.939   1.779  11.022
 6012TIP3    H142231   4.965   1.691  10.995
 6012TIP3    H242232   4.966   1.785  11.113
 6013TIP3   OH242233   5.210   0.242  10.851
 6013TIP3    H142234   5.152   0.178  10.891
 6013TIP3    H242235   5.297   0.201  10.854
 6014TIP3   OH242236   5.873   0.170  10.856
 6014TIP3    H142237   5.955   0.183  10.808
 6014TIP3    H242238   5.842   0.259  10.875
 6015TIP3   OH242239   6.100   0.252  10.714
 6015TIP3    H142240   6.162   0.249  10.641
 6015TIP3    H242241   6.149   0.296  10.784
 6016TIP3   OH242242   4.508   0.121  10.627
 6016TIP3    H142243   4.434   0.156  10.578
 6016TIP3    H242244   4.504   0.027  10.614
 6017TIP3   OH242245   4.320   0.110  10.305
 6017TIP3    H142246   4.408   0.135  10.278
 6017TIP3    H242247   4.304   0.161  10.384
 6018TIP3   OH242248   5.122   8.403  10.675
 6018TIP3    H142249   5.161   0.026  10.625
 6018TIP3    H242250   5.094   8.443  10.757
 6019TIP3   OH242251   5.453   0.124  10.797
 6019TIP3    H142252   5.496   0.158  10.719
 6019TIP3    H242253   5.484   0.033  10.803
 6020TIP3   OH242254   5.770   0.143  10.440
 6020TIP3    H142255   5.683   0.171  10.471
 6020TIP3    H242256   5.765   0.048  10.438
 6021TIP3   OH242257   4.317   1.851  10.431
 6021TIP3    H142258   4.254   1.863  10.360
 6021TIP3    H242259   4.306   1.929  10.486
 6022TIP3   OH242260   4.584   0.188  10.286
 6022TIP3    H142261   4.610   0.096  10.284
 6022TIP3    H242262   4.666   0.236  10.299
 6023TIP3   OH242263   5.068   0.351  10.432
 6023TIP3    H142264   5.122   0.284  10.474
 6023TIP3    H242265   5.083   0.430  10.483
 6024TIP3   OH242266   5.302   1.927  10.190
 6024TIP3    H142267   5.396   1.940  10.179
 6024TIP3    H242268   5.285   1.843  10.147
 6025TIP3   OH242269   6.032   1.914  10.494
 6025TIP3    H142270   6.006   1.838  10.443
 6025TIP3    H242271   6.027   1.987  10.432
 6026TIP3   OH242272   4.449   0.077  11.776
 6026TIP3    H142273   4.514   0.008  11.774
 6026TIP3    H242274   4.499   0.157  11.790
 6027TIP3   OH242275   4.745   0.089  11.854
 6027TIP3    H142276   4.831   0.095  11.813
 6027TIP3    H242277   4.717   8.447  11.839
 6028TIP3   OH242278   4.581   1.864  10.335
 6028TIP3    H142279   4.494   1.843  10.367
 6028TIP3    H242280   4.624   1.778  10.325
 6029TIP3   OH242281   5.562   0.004  11.937
 6029TIP3    H142282   5.467   8.445  11.939
 6029TIP3    H242283   5.589   8.390  11.869
 6030TIP3   OH242284   6.040   1.735  11.680
 6030TIP3    H142285   5.977   1.674  11.717
 6030TIP3    H242286   6.015   1.820  11.717
 6031TIP3   OH242287   7.572   1.131  10.622
 6031TIP3    H142288   7.554   1.225  10.620
 6031TIP3    H242289   7.499   1.091  10.575
 6032TIP3   OH242290   7.277   1.011  11.143
 6032TIP3    H142291   7.357   0.972  11.180
 6032TIP3    H242292   7.248   0.948  11.078
 6033TIP3   OH242293   6.508   0.900  11.199
 6033TIP3    H142294   6.528   0.808  11.220
 6033TIP3    H242295   6.543   0.950  11.272
 6034TIP3   OH242296   7.848   1.401  10.871
 6034TIP3    H142297   7.881   1.324  10.919
 6034TIP3    H242298   7.846   1.470  10.937
 6035TIP3   OH242299   6.816   1.491  10.998
 6035TIP3    H142300   6.798   1.405  10.960
 6035TIP3    H242301   6.912   1.495  11.005
 6036TIP3   OH242302   6.345   0.707  10.576
 6036TIP3    H142303   6.317   0.774  10.639
 6036TIP3    H242304   6.282   0.714  10.504
 6037TIP3   OH242305   6.349   0.901  10.795
 6037TIP3    H142306   6.389   0.826  10.839
 6037TIP3    H242307   6.422   0.950  10.758
 6038TIP3   OH242308   7.578   1.860  10.933
 6038TIP3    H142309   7.600   1.809  10.855
 6038TIP3    H242310   7.568   1.795  11.002
 6039TIP3   OH242311   7.232   1.295  11.109
 6039TIP3    H142312   7.257   1.203  11.111
 6039TIP3    H242313   7.307   1.341  11.146
 6040TIP3   OH242314   8.186   0.372  11.142
 6040TIP3    H142315   8.195   0.443  11.206
 6040TIP3    H242316   8.207   0.412  11.058
 6041TIP3   OH242317   7.463   0.673  11.014
 6041TIP3    H142318   7.481   0.580  11.029
 6041TIP3    H242319   7.513   0.695  10.935
 6042TIP3   OH242320   6.894   0.442  10.770
 6042TIP3    H142321   6.890   0.533  10.740
 6042TIP3    H242322   6.831   0.396  10.714
 6043TIP3   OH242323   7.747   0.485  10.688
 6043TIP3    H142324   7.778   0.451  10.772
 6043TIP3    H242325   7.825   0.518  10.644
 6044TIP3   OH242326   6.481   0.691  10.919
 6044TIP3    H142327   6.549   0.675  10.984
 6044TIP3    H242328   6.514   0.650  10.839
 6045TIP3   OH242329   7.002   0.898  10.821
 6045TIP3    H142330   7.079   0.857  10.861
 6045TIP3    H242331   6.952   0.825  10.785
 6046TIP3   OH242332   8.200   0.582  11.320
 6046TIP3    H142333   8.118   0.628  11.337
 6046TIP3    H242334   8.244   0.579  11.405
 6047TIP3   OH242335   6.754   0.349  11.208
 6047TIP3    H142336   6.740   0.409  11.135
 6047TIP3    H242337   6.673   0.353  11.258
 6048TIP3   OH242338   7.529   1.407  10.564
 6048TIP3    H142339   7.499   1.382  10.477
 6048TIP3    H242340   7.488   1.492  10.580
 6049TIP3   OH242341   6.989   1.191  11.203
 6049TIP3    H142342   6.932   1.262  11.231
 6049TIP3    H242343   7.069   1.234  11.173
 6050TIP3   OH242344   7.803   0.412  10.949
 6050TIP3    H142345   7.713   0.416  10.982
 6050TIP3    H242346   7.847   0.486  10.991
 6051TIP3   OH242347   6.741   0.516  10.989
 6051TIP3    H142348   6.778   0.598  11.022
 6051TIP3    H242349   6.800   0.490  10.919
 6052TIP3   OH242350   6.826   1.403  11.270
 6052TIP3    H142351   6.804   1.447  11.188
 6052TIP3    H242352   6.741   1.384  11.310
 6053TIP3   OH242353   6.356   1.396  10.457
 6053TIP3    H142354   6.359   1.437  10.371
 6053TIP3    H242355   6.381   1.465  10.518
 6054TIP3   OH242356   7.830   1.609  11.059
 6054TIP3    H142357   7.738   1.631  11.076
 6054TIP3    H242358   7.871   1.693  11.038
 6055TIP3   OH242359   7.950   0.278  11.251
 6055TIP3    H142360   7.900   0.231  11.183
 6055TIP3    H242361   8.026   0.312  11.204
 6056TIP3   OH242362   7.120   0.056  10.962
 6056TIP3    H142363   7.116   8.412  10.983
 6056TIP3    H242364   7.039   0.092  10.997
 6057TIP3   OH242365   7.671   1.730  10.703
 6057TIP3    H142366   7.714   1.649  10.679
 6057TIP3    H242367   7.737   1.798  10.690
 6058TIP3   OH242368   7.791   1.497  10.618
 6058TIP3    H142369   7.711   1.449  10.595
 6058TIP3    H242370   7.820   1.458  10.701
 6059TIP3   OH242371   8.004   1.349  11.402
 6059TIP3    H142372   8.004   1.295  11.323
 6059TIP3    H242373   7.998   1.439  11.371
 6060TIP3   OH242374   7.385   0.999  10.455
 6060TIP3    H142375   7.318   1.067  10.443
 6060TIP3    H242376   7.385   0.951  10.372
 6061TIP3   OH242377   7.397   0.827  10.232
 6061TIP3    H142378   7.492   0.836  10.227
 6061TIP3    H242379   7.381   0.733  10.227
 6062TIP3   OH242380   8.133   0.960  11.244
 6062TIP3    H142381   8.083   1.041  11.235
 6062TIP3    H242382   8.196   0.963  11.172
 6063TIP3   OH242383   7.769   1.004  10.485
 6063TIP3    H142384   7.706   1.043  10.545
 6063TIP3    H242385   7.830   0.956  10.542
 6064TIP3   OH242386   7.707   0.799  11.417
 6064TIP3    H142387   7.725   0.879  11.467
 6064TIP3    H242388   7.636   0.824  11.358
 6065TIP3   OH242389   6.898   1.109  10.663
 6065TIP3    H142390   6.853   1.067  10.590
 6065TIP3    H242391   6.941   1.036  10.709
 6066TIP3   OH242392   7.090   1.516  10.984
 6066TIP3    H142393   7.099   1.504  10.890
 6066TIP3    H242394   7.144   1.446  11.022
 6067TIP3   OH242395   6.862   1.012  11.033
 6067TIP3    H142396   6.923   0.986  10.963
 6067TIP3    H242397   6.913   1.070  11.089
 6068TIP3   OH242398   7.568   1.666  11.140
 6068TIP3    H142399   7.559   1.718  11.220
 6068TIP3    H242400   7.518   1.586  11.158
 6069TIP3   OH242401   6.952   1.457  11.514
 6069TIP3    H142402   6.889   1.516  11.555
 6069TIP3    H242403   6.915   1.440  11.427
 6070TIP3   OH242404   7.671   0.893  10.254
 6070TIP3    H142405   7.698   0.937  10.334
 6070TIP3    H242406   7.713   0.943  10.184
 6071TIP3   OH242407   6.594   0.978  11.466
 6071TIP3    H142408   6.618   1.054  11.519
 6071TIP3    H242409   6.498   0.974  11.473
 6072TIP3   OH242410   7.443   1.704  10.550
 6072TIP3    H142411   7.518   1.710  10.608
 6072TIP3    H242412   7.420   1.795  10.529
 6073TIP3   OH242413   6.788   1.659  11.609
 6073TIP3    H142414   6.794   1.720  11.536
 6073TIP3    H242415   6.697   1.663  11.638
 6074TIP3   OH242416   8.052   0.110  10.244
 6074TIP3    H142417   7.996   0.135  10.317
 6074TIP3    H242418   8.125   0.172  10.248
 6075TIP3   OH242419   6.753   1.014  10.437
 6075TIP3    H142420   6.690   1.085  10.425
 6075TIP3    H242421   6.705   0.935  10.413
 6076TIP3   OH242422   8.098   1.669  10.187
 6076TIP3    H142423   8.130   1.759  10.192
 6076TIP3    H242424   8.166   1.622  10.138
 6077TIP3   OH242425   6.338   1.233  11.383
 6077TIP3    H142426   6.297   1.246  11.298
 6077TIP3    H242427   6.335   1.139  11.398
 6078TIP3   OH242428   6.312   1.697  11.075
 6078TIP3    H142429   6.384   1.714  11.137
 6078TIP3    H242430   6.240   1.752  11.106
 6079TIP3   OH242431   8.181   1.710  11.644
 6079TIP3    H142432   8.212   1.657  11.716
 6079TIP3    H242433   8.089   1.727  11.664
 6080TIP3   OH242434   7.160   1.653  11.499
 6080TIP3    H142435   7.166   1.726  11.560
 6080TIP3    H242436   7.086   1.602  11.530
 6081TIP3   OH242437   7.415   1.975  10.470
 6081TIP3    H142438   7.392   1.967  10.378
 6081TIP3    H242439   7.375   2.057  10.498
 6082TIP3   OH242440   6.651   1.830  10.674
 6082TIP3    H142441   6.684   1.803  10.759
 6082TIP3    H242442   6.594   1.758  10.646
 6083TIP3   OH242443   7.648   1.938  10.175
 6083TIP3    H142444   7.663   1.845  10.158
 6083TIP3    H242445   7.681   1.951  10.264
 6084TIP3   OH242446   7.695   1.984  10.444
 6084TIP3    H142447   7.602   1.971  10.466
 6084TIP3    H242448   7.742   1.950  10.519
 6085TIP3   OH242449   7.810   0.660  11.637
 6085TIP3    H142450   7.790   0.714  11.561
 6085TIP3    H242451   7.841   0.577  11.601
 6086TIP3   OH242452   6.595   1.340  11.400
 6086TIP3    H142453   6.623   1.298  11.481
 6086TIP3    H242454   6.503   1.314  11.390
 6087TIP3   OH242455   6.871   0.139  11.068
 6087TIP3    H142456   6.802   0.138  11.001
 6087TIP3    H242457   6.846   0.210  11.127
 6088TIP3   OH242458   7.351   0.125  11.397
 6088TIP3    H142459   7.356   0.029  11.400
 6088TIP3    H242460   7.260   0.145  11.421
 6089TIP3   OH242461   7.583   0.519  11.459
 6089TIP3    H142462   7.559   0.504  11.551
 6089TIP3    H242463   7.609   0.611  11.456
 6090TIP3   OH242464   7.812   1.086  10.108
 6090TIP3    H142465   7.782   1.143  10.037
 6090TIP3    H242466   7.824   1.145  10.182
 6091TIP3   OH242467   7.301   0.555  10.205
 6091TIP3    H142468   7.263   0.495  10.269
 6091TIP3    H242469   7.235   0.560  10.135
 6092TIP3   OH242470   6.822   0.750  11.111
 6092TIP3    H142471   6.750   0.744  11.174
 6092TIP3    H242472   6.823   0.842  11.085
 6093TIP3   OH242473   6.840   0.704  10.697
 6093TIP3    H142474   6.746   0.686  10.694
 6093TIP3    H242475   6.870   0.691  10.607
 6094TIP3   OH242476   7.448   0.748  10.562
 6094TIP3    H142477   7.427   0.838  10.536
 6094TIP3    H242478   7.521   0.723  10.505
 6095TIP3   OH242479   7.306   0.804  11.624
 6095TIP3    H142480   7.262   0.723  11.650
 6095TIP3    H242481   7.395   0.796  11.658
 6096TIP3   OH242482   7.608   0.704  10.783
 6096TIP3    H142483   7.545   0.731  10.716
 6096TIP3    H242484   7.647   0.623  10.749
 6097TIP3   OH242485   6.610   0.654  11.278
 6097TIP3    H142486   6.666   0.678  11.352
 6097TIP3    H242487   6.573   0.569  11.302
 6098TIP3   OH242488   7.034   0.501  10.085
 6098TIP3    H142489   6.990   0.454  10.156
 6098TIP3    H242490   7.014   0.450  10.006
 6099TIP3   OH242491   6.249   0.386  10.900
 6099TIP3    H142492   6.343   0.372  10.908
 6099TIP3    H242493   6.237   0.478  10.923
 6100TIP3   OH242494   6.286   0.528  10.282
 6100TIP3    H142495   6.369   0.565  10.251
 6100TIP3    H242496   6.236   0.603  10.314
 6101TIP3   OH242497   7.474   0.825  11.246
 6101TIP3    H142498   7.484   0.775  11.165
 6101TIP3    H242499   7.401   0.783  11.291
 6102TIP3   OH242500   7.176   0.426  10.765
 6102TIP3    H142501   7.083   0.422  10.784
 6102TIP3    H242502   7.218   0.383  10.839
 6103TIP3   OH242503   6.582   0.601  10.676
 6103TIP3    H142504   6.504   0.625  10.626
 6103TIP3    H242505   6.599   0.510  10.650
 6104TIP3   OH242506   6.949   0.636  10.456
 6104TIP3    H142507   7.040   0.633  10.485
 6104TIP3    H242508   6.952   0.683  10.373
 6105TIP3   OH242509   7.532   0.405  11.030
 6105TIP3    H142510   7.535   0.372  11.119
 6105TIP3    H242511   7.464   0.354  10.987
 6106TIP3   OH242512   6.971   0.741  10.205
 6106TIP3    H142513   6.986   0.663  10.152
 6106TIP3    H242514   7.034   0.805  10.172
 6107TIP3   OH242515   7.925   2.048  11.682
 6107TIP3    H142516   7.962   2.063  11.594
 6107TIP3    H242517   7.994   2.076  11.742
 6108TIP3   OH242518   6.652   1.199  11.632
 6108TIP3    H142519   6.726   1.205  11.693
 6108TIP3    H242520   6.575   1.220  11.685
 6109TIP3   OH242521   7.205   0.780  10.988
 6109TIP3    H142522   7.294   0.745  10.984
 6109TIP3    H242523   7.156   0.715  11.038
 6110TIP3   OH242524   6.681   0.339  10.612
 6110TIP3    H142525   6.651   0.256  10.649
 6110TIP3    H242526   6.682   0.324  10.517
 6111TIP3   OH242527   7.062   0.629  11.181
 6111TIP3    H142528   6.983   0.680  11.166
 6111TIP3    H242529   7.111   0.680  11.246
 6112TIP3   OH242530   7.199   1.196  10.394
 6112TIP3    H142531   7.127   1.158  10.344
 6112TIP3    H242532   7.156   1.253  10.458
 6113TIP3   OH242533   8.016   1.200  11.167
 6113TIP3    H142534   8.095   1.234  11.125
 6113TIP3    H242535   7.960   1.173  11.094
 6114TIP3   OH242536   7.532   0.446  10.333
 6114TIP3    H142537   7.461   0.478  10.278
 6114TIP3    H242538   7.580   0.524  10.358
 6115TIP3   OH242539   7.333   1.439  11.495
 6115TIP3    H142540   7.288   1.382  11.557
 6115TIP3    H242541   7.278   1.518  11.490
 6116TIP3   OH242542   7.674   0.668  10.413
 6116TIP3    H142543   7.762   0.647  10.446
 6116TIP3    H242544   7.689   0.739  10.351
 6117TIP3   OH242545   6.795   1.243  10.886
 6117TIP3    H142546   6.825   1.209  10.801
 6117TIP3    H242547   6.791   1.167  10.943
 6118TIP3   OH242548   7.424   1.341  10.318
 6118TIP3    H142549   7.380   1.426  10.309
 6118TIP3    H242550   7.353   1.279  10.332
 6119TIP3   OH242551   6.314   0.963  11.454
 6119TIP3    H142552   6.287   0.905  11.526
 6119TIP3    H242553   6.247   0.952  11.387
 6120TIP3   OH242554   7.130   1.018  11.614
 6120TIP3    H142555   7.083   1.000  11.533
 6120TIP3    H242556   7.202   0.954  11.616
 6121TIP3   OH242557   7.596   1.488  11.565
 6121TIP3    H142558   7.507   1.467  11.538
 6121TIP3    H242559   7.587   1.517  11.656
 6122TIP3   OH242560   8.113   0.703  10.328
 6122TIP3    H142561   8.115   0.643  10.253
 6122TIP3    H242562   8.085   0.786  10.291
 6123TIP3   OH242563   8.223   1.262  11.551
 6123TIP3    H142564   8.146   1.304  11.512
 6123TIP3    H242565   8.285   1.254  11.479
 6124TIP3   OH242566   7.977   1.702  10.436
 6124TIP3    H142567   7.926   1.628  10.470
 6124TIP3    H242568   8.008   1.672  10.350
 6125TIP3   OH242569   7.859   1.115  10.949
 6125TIP3    H142570   7.784   1.144  10.897
 6125TIP3    H242571   7.860   1.020  10.940
 6126TIP3   OH242572   6.963   1.545  10.723
 6126TIP3    H142573   6.960   1.629  10.677
 6126TIP3    H242574   6.886   1.545  10.780
 6127TIP3   OH242575   6.466   0.951  10.288
 6127TIP3    H142576   6.498   1.038  10.314
 6127TIP3    H242577   6.372   0.963  10.278
 6128TIP3   OH242578   7.022   1.334  10.556
 6128TIP3    H142579   7.011   1.406  10.619
 6128TIP3    H242580   6.979   1.259  10.597
 6129TIP3   OH242581   7.107   1.814  11.282
 6129TIP3    H142582   7.186   1.867  11.271
 6129TIP3    H242583   7.130   1.750  11.348
 6130TIP3   OH242584   6.918   1.790  10.596
 6130TIP3    H142585   6.826   1.815  10.612
 6130TIP3    H242586   6.968   1.869  10.620
 6131TIP3   OH242587   7.450   1.422  11.243
 6131TIP3    H142588   7.405   1.431  11.327
 6131TIP3    H242589   7.528   1.369  11.263
 6132TIP3   OH242590   7.682   1.400  10.225
 6132TIP3    H142591   7.744   1.347  10.276
 6132TIP3    H242592   7.596   1.370  10.254
 6133TIP3   OH242593   7.750   1.695  11.471
 6133TIP3    H142594   7.698   1.620  11.502
 6133TIP3    H242595   7.684   1.756  11.437
 6134TIP3   OH242596   8.206   1.921  10.209
 6134TIP3    H142597   8.294   1.946  10.238
 6134TIP3    H242598   8.151   1.995  10.233
 6135TIP3   OH242599   6.521   0.386  11.357
 6135TIP3    H142600   6.455   0.322  11.331
 6135TIP3    H242601   6.511   0.392  11.453
 6136TIP3   OH242602   7.861   1.219  10.341
 6136TIP3    H142603   7.823   1.153  10.399
 6136TIP3    H242604   7.954   1.219  10.361
 6137TIP3   OH242605   6.521   1.805  11.243
 6137TIP3    H142606   6.593   1.759  11.286
 6137TIP3    H242607   6.518   1.890  11.288
 6138TIP3   OH242608   6.922   1.467  10.332
 6138TIP3    H142609   6.957   1.418  10.406
 6138TIP3    H242610   6.968   1.551  10.335
 6139TIP3   OH242611   6.550   1.202  10.379
 6139TIP3    H142612   6.482   1.251  10.424
 6139TIP3    H242613   6.595   1.267  10.325
 6140TIP3   OH242614   7.523   0.312  11.284
 6140TIP3    H142615   7.539   0.379  11.351
 6140TIP3    H242616   7.469   0.246  11.327
 6141TIP3   OH242617   7.634   0.287  10.533
 6141TIP3    H142618   7.589   0.330  10.460
 6141TIP3    H242619   7.665   0.359  10.588
 6142TIP3   OH242620   7.306   1.586  10.341
 6142TIP3    H142621   7.216   1.619  10.348
 6142TIP3    H242622   7.352   1.626  10.415
 6143TIP3   OH242623   7.207   0.603  10.556
 6143TIP3    H142624   7.287   0.656  10.561
 6143TIP3    H242625   7.204   0.555  10.639
 6144TIP3   OH242626   7.252   0.711  11.371
 6144TIP3    H142627   7.263   0.759  11.453
 6144TIP3    H242628   7.262   0.619  11.396
 6145TIP3   OH242629   7.263   0.225  10.593
 6145TIP3    H142630   7.240   0.297  10.651
 6145TIP3    H242631   7.347   0.192  10.627
 6146TIP3   OH242632   7.056   1.705  10.373
 6146TIP3    H142633   7.071   1.788  10.327
 6146TIP3    H242634   7.011   1.731  10.454
 6147TIP3   OH242635   6.911   0.391  10.312
 6147TIP3    H142636   6.892   0.469  10.364
 6147TIP3    H242637   7.000   0.366  10.339
 6148TIP3   OH242638   7.853   0.439  11.465
 6148TIP3    H142639   7.758   0.448  11.450
 6148TIP3    H242640   7.884   0.391  11.388
 6149TIP3   OH242641   7.828   0.837  10.893
 6149TIP3    H142642   7.744   0.800  10.867
 6149TIP3    H242643   7.866   0.770  10.950
 6150TIP3   OH242644   6.669   1.405  10.229
 6150TIP3    H142645   6.736   1.447  10.282
 6150TIP3    H242646   6.717   1.358  10.161
 6151TIP3   OH242647   6.495   0.689  10.201
 6151TIP3    H142648   6.484   0.778  10.236
 6151TIP3    H242649   6.575   0.695  10.148
 6152TIP3   OH242650   7.956   1.856  11.041
 6152TIP3    H142651   7.944   1.927  10.978
 6152TIP3    H242652   8.047   1.864  11.070
 6153TIP3   OH242653   6.641   0.108  10.920
 6153TIP3    H142654   6.626   0.108  10.826
 6153TIP3    H242655   6.609   0.024  10.950
 6154TIP3   OH242656   6.434   1.643  10.587
 6154TIP3    H142657   6.395   1.680  10.666
 6154TIP3    H242658   6.428   1.714  10.523
 6155TIP3   OH242659   6.403   1.925  11.712
 6155TIP3    H142660   6.471   1.869  11.750
 6155TIP3    H242661   6.353   1.867  11.655
 6156TIP3   OH242662   6.841   1.788  11.853
 6156TIP3    H142663   6.876   1.726  11.917
 6156TIP3    H242664   6.834   1.737  11.772
 6157TIP3   OH242665   7.412   1.698  10.108
 6157TIP3    H142666   7.378   1.644  10.180
 6157TIP3    H242667   7.506   1.678  10.107
 6158TIP3   OH242668   7.563   1.583  11.821
 6158TIP3    H142669   7.559   1.508  11.881
 6158TIP3    H242670   7.639   1.633  11.852
 6159TIP3   OH242671   7.693   1.660  10.138
 6159TIP3    H142672   7.686   1.571  10.172
 6159TIP3    H242673   7.784   1.667  10.109
 6160TIP3   OH242674   6.406   1.245  11.765
 6160TIP3    H142675   6.416   1.150  11.775
 6160TIP3    H242676   6.323   1.255  11.719
 6161TIP3   OH242677   6.894   1.289  10.118
 6161TIP3    H142678   6.925   1.210  10.161
 6161TIP3    H242679   6.922   1.361  10.175
 6162TIP3   OH242680   7.099   1.292  11.677
 6162TIP3    H142681   7.049   1.333  11.606
 6162TIP3    H242682   7.113   1.202  11.648
 6163TIP3   OH242683   7.761   1.265  11.513
 6163TIP3    H142684   7.846   1.300  11.485
 6163TIP3    H242685   7.710   1.343  11.536
 6164TIP3   OH242686   6.458   0.977  11.776
 6164TIP3    H142687   6.503   0.908  11.728
 6164TIP3    H242688   6.460   0.949  11.867
 6165TIP3   OH242689   6.978   1.079  10.277
 6165TIP3    H142690   6.906   1.045  10.331
 6165TIP3    H242691   7.016   1.002  10.235
 6166TIP3   OH242692   6.808   0.803  11.426
 6166TIP3    H142693   6.739   0.866  11.446
 6166TIP3    H242694   6.883   0.857  11.401
 6167TIP3   OH242695   7.160   0.920  10.129
 6167TIP3    H142696   7.185   0.983  10.061
 6167TIP3    H242697   7.244   0.891  10.166
 6168TIP3   OH242698   7.521   1.142  11.877
 6168TIP3    H142699   7.606   1.101  11.861
 6168TIP3    H242700   7.459   1.069  11.878
 6169TIP3   OH242701   8.162   1.198  19.912
 6169TIP3    H142702   8.159   1.102  19.909
 6169TIP3    H242703   8.245   1.220  19.870
 6170TIP3   OH242704   6.916   0.581  11.557
 6170TIP3    H142705   6.935   0.520  11.486
 6170TIP3    H242706   6.882   0.659  11.513
 6171TIP3   OH242707   6.983   0.416  11.341
 6171TIP3    H142708   7.024   0.477  11.280
 6171TIP3    H242709   6.901   0.390  11.298
 6172TIP3   OH242710   7.036   0.963  11.352
 6172TIP3    H142711   7.120   0.942  11.310
 6172TIP3    H242712   7.007   1.043  11.308
 6173TIP3   OH242713   7.548   0.728  11.742
 6173TIP3    H142714   7.532   0.634  11.746
 6173TIP3    H242715   7.642   0.736  11.728
 6174TIP3   OH242716   7.804   1.003  11.578
 6174TIP3    H142717   7.777   1.092  11.555
 6174TIP3    H242718   7.898   1.010  11.593
 6175TIP3   OH242719   6.802   0.578  11.809
 6175TIP3    H142720   6.715   0.540  11.800
 6175TIP3    H242721   6.837   0.580  11.720
 6176TIP3   OH242722   7.068   0.158  11.412
 6176TIP3    H142723   7.043   0.250  11.416
 6176TIP3    H242724   7.064   0.136  11.319
 6177TIP3   OH242725   7.181   0.563  11.652
 6177TIP3    H142726   7.191   0.482  11.703
 6177TIP3    H242727   7.087   0.567  11.633
 6178TIP3   OH242728   7.522   0.456  11.724
 6178TIP3    H142729   7.446   0.403  11.748
 6178TIP3    H242730   7.595   0.414  11.769
 6179TIP3   OH242731   7.715   0.328  11.876
 6179TIP3    H142732   7.737   0.236  11.867
 6179TIP3    H242733   7.683   0.337  11.965
 6180TIP3   OH242734   6.559   0.421  11.798
 6180TIP3    H142735   6.551   0.333  11.763
 6180TIP3    H242736   6.573   0.409  11.892
 6181TIP3   OH242737   7.052   0.094  11.694
 6181TIP3    H142738   7.038   0.000  11.703
 6181TIP3    H242739   7.053   0.109  11.599
 6182TIP3   OH242740   7.185   0.322  11.804
 6182TIP3    H142741   7.158   0.239  11.766
 6182TIP3    H242742   7.109   0.351  11.854
 6183TIP3   OH242743   7.107   1.951  10.261
 6183TIP3    H142744   7.198   1.955  10.234
 6183TIP3    H242745   7.067   2.030  10.225
 6184TIP3   OH242746   6.414   1.512  10.207
 6184TIP3    H142747   6.506   1.487  10.218
 6184TIP3    H242748   6.393   1.486  10.117
 6185TIP3   OH242749   6.257   1.980  10.644
 6185TIP3    H142750   6.179   1.951  10.598
 6185TIP3    H242751   6.273   1.913  10.710
 6186TIP3   OH242752   6.358   1.788  10.817
 6186TIP3    H142753   6.322   1.736  10.888
 6186TIP3    H242754   6.426   1.841  10.858
 6187TIP3   OH242755   8.215   1.901  11.146
 6187TIP3    H142756   8.194   1.859  11.229
 6187TIP3    H242757   8.251   1.986  11.170
 6188TIP3   OH242758   8.132   1.799  11.386
 6188TIP3    H142759   8.074   1.728  11.358
 6188TIP3    H242760   8.165   1.771  11.471
 6189TIP3   OH242761   8.097   1.377  11.912
 6189TIP3    H142762   8.007   1.384  11.944
 6189TIP3    H242763   8.129   1.467  11.912
 6190TIP3   OH242764   8.127   1.148  10.392
 6190TIP3    H142765   8.197   1.213  10.394
 6190TIP3    H242766   8.147   1.089  10.465
 6191TIP3   OH242767   8.183   0.974  10.601
 6191TIP3    H142768   8.098   0.932  10.611
 6191TIP3    H242769   8.214   0.989  10.690
 6192TIP3   OH242770   8.262   1.284  11.074
 6192TIP3    H142771   8.311   1.226  11.017
 6192TIP3    H242772   8.287   1.372  11.046
 6193TIP3   OH242773   7.953   1.603  11.309
 6193TIP3    H142774   7.881   1.636  11.363
 6193TIP3    H242775   7.916   1.598  11.220
 6194TIP3   OH242776   8.031   0.943  10.223
 6194TIP3    H142777   7.961   0.981  10.171
 6194TIP3    H242778   8.066   1.016  10.274
 6195TIP3   OH242779   8.097   0.526  10.111
 6195TIP3    H142780   8.088   0.574  10.028
 6195TIP3    H242781   8.028   0.460  10.108
 6196TIP3   OH242782   7.941   0.850  10.642
 6196TIP3    H142783   7.941   0.759  10.614
 6196TIP3    H242784   7.907   0.847  10.731
 6197TIP3   OH242785   6.304   1.012  11.053
 6197TIP3    H142786   6.308   0.975  10.965
 6197TIP3    H242787   6.379   0.974  11.098
 6198TIP3   OH242788   8.073   1.045  11.634
 6198TIP3    H142789   8.129   0.967  11.627
 6198TIP3    H242790   8.128   1.117  11.605
 6199TIP3   OH242791   8.223   0.809  11.626
 6199TIP3    H142792   8.157   0.791  11.693
 6199TIP3    H242793   8.261   0.723  11.607
 6200TIP3   OH242794   7.920   0.319  10.103
 6200TIP3    H142795   7.960   0.236  10.128
 6200TIP3    H242796   7.826   0.306  10.118
 6201TIP3   OH242797   7.948   0.593  10.520
 6201TIP3    H142798   7.981   0.504  10.528
 6201TIP3    H242799   8.006   0.635  10.457
 6202TIP3   OH242800   7.949   0.634  11.045
 6202TIP3    H142801   8.042   0.635  11.025
 6202TIP3    H242802   7.943   0.661  11.137
 6203TIP3   OH242803   7.968   0.740  11.301
 6203TIP3    H142804   7.885   0.764  11.343
 6203TIP3    H242805   8.015   0.823  11.292
 6204TIP3   OH242806   6.323   0.553  11.733
 6204TIP3    H142807   6.406   0.510  11.752
 6204TIP3    H242808   6.261   0.482  11.716
 6205TIP3   OH242809   8.275   0.134  11.844
 6205TIP3    H142810   8.371   0.137  11.850
 6205TIP3    H242811   8.252   0.206  11.785
 6206TIP3   OH242812   8.021   0.326  10.556
 6206TIP3    H142813   8.043   0.281  10.638
 6206TIP3    H242814   7.962   0.267  10.511
 6207TIP3   OH242815   6.516   0.357  10.945
 6207TIP3    H142816   6.557   0.270  10.945
 6207TIP3    H242817   6.590   0.418  10.956
 6208TIP3   OH242818   6.228   0.631  11.026
 6208TIP3    H142819   6.314   0.663  10.998
 6208TIP3    H242820   6.236   0.623  11.121
 6209TIP3   OH242821   8.192   0.350  11.693
 6209TIP3    H142822   8.119   0.383  11.746
 6209TIP3    H242823   8.149   0.313  11.615
 6210TIP3   OH242824   8.246   0.316  10.220
 6210TIP3    H142825   8.321   0.303  10.162
 6210TIP3    H242826   8.203   0.395  10.186
 6211TIP3   OH242827   6.216   0.327  10.462
 6211TIP3    H142828   6.121   0.343  10.460
 6211TIP3    H242829   6.253   0.400  10.412
 6212TIP3   OH242830   7.853   1.928  10.663
 6212TIP3    H142831   7.936   1.919  10.615
 6212TIP3    H242832   7.876   1.973  10.744
 6213TIP3   OH242833   6.312   0.190  11.327
 6213TIP3    H142834   6.246   0.177  11.395
 6213TIP3    H242835   6.263   0.223  11.252
 6214TIP3   OH242836   6.532   1.668  11.722
 6214TIP3    H142837   6.451   1.664  11.671
 6214TIP3    H242838   6.518   1.606  11.794
 6215TIP3   OH242839   6.838   1.826  11.390
 6215TIP3    H142840   6.826   1.921  11.380
 6215TIP3    H242841   6.925   1.810  11.352
 6216TIP3   OH242842   7.226   1.893  11.639
 6216TIP3    H142843   7.254   1.841  11.714
 6216TIP3    H242844   7.305   1.941  11.612
 6217TIP3   OH242845   7.461   2.027  11.575
 6217TIP3    H142846   7.513   1.970  11.518
 6217TIP3    H242847   7.523   2.053  11.644
 6218TIP3   OH242848   8.094   0.197  11.475
 6218TIP3    H142849   8.037   0.232  11.406
 6218TIP3    H242850   8.039   0.134  11.521
 6219TIP3   OH242851   6.519   2.060  11.358
 6219TIP3    H142852   6.431   2.088  11.335
 6219TIP3    H242853   6.532   2.090  11.448
 6220TIP3   OH242854   6.804   2.096  11.326
 6220TIP3    H142855   6.709   2.093  11.336
 6220TIP3    H242856   6.818   2.128  11.237
 6221TIP3   OH242857   7.339   1.970  11.231
 6221TIP3    H142858   7.351   1.994  11.139
 6221TIP3    H242859   7.330   2.053  11.277
 6222TIP3   OH242860   7.564   1.864  11.354
 6222TIP3    H142861   7.483   1.897  11.314
 6222TIP3    H242862   7.634   1.909  11.308
 6223TIP3   OH242863   7.779   1.966  11.225
 6223TIP3    H142864   7.827   2.048  11.233
 6223TIP3    H242865   7.829   1.915  11.161
 6224TIP3   OH242866   6.551   1.903  10.986
 6224TIP3    H142867   6.528   1.872  11.074
 6224TIP3    H242868   6.629   1.853  10.962
 6225TIP3   OH242869   6.766   1.748  10.915
 6225TIP3    H142870   6.763   1.659  10.950
 6225TIP3    H242871   6.851   1.782  10.944
 6226TIP3   OH242872   7.020   1.798  11.021
 6226TIP3    H142873   7.055   1.712  10.998
 6226TIP3    H242874   7.041   1.808  11.114
 6227TIP3   OH242875   7.328   0.245  10.915
 6227TIP3    H142876   7.267   0.176  10.943
 6227TIP3    H242877   7.388   0.200  10.855
 6228TIP3   OH242878   7.913   0.156  10.959
 6228TIP3    H142879   7.987   0.164  10.898
 6228TIP3    H242880   7.867   0.239  10.952
 6229TIP3   OH242881   8.117   0.176  10.771
 6229TIP3    H142882   8.160   0.093  10.751
 6229TIP3    H242883   8.189   0.237  10.785
 6230TIP3   OH242884   6.581   0.077  10.656
 6230TIP3    H142885   6.519   0.096  10.586
 6230TIP3    H242886   6.590   8.430  10.655
 6231TIP3   OH242887   6.418   0.138  10.441
 6231TIP3    H142888   6.487   0.188  10.399
 6231TIP3    H242889   6.344   0.199  10.448
 6232TIP3   OH242890   7.117   0.008  10.686
 6232TIP3    H142891   7.158   0.077  10.634
 6232TIP3    H242892   7.118   0.041  10.776
 6233TIP3   OH242893   7.494   0.137  10.720
 6233TIP3    H142894   7.552   0.183  10.659
 6233TIP3    H242895   7.541   0.056  10.741
 6234TIP3   OH242896   7.848   0.146  10.430
 6234TIP3    H142897   7.771   0.193  10.463
 6234TIP3    H242898   7.817   0.057  10.414
 6235TIP3   OH242899   6.425   1.884  10.444
 6235TIP3    H142900   6.376   1.903  10.364
 6235TIP3    H242901   6.376   1.927  10.514
 6236TIP3   OH242902   6.669   0.242  10.350
 6236TIP3    H142903   6.673   0.153  10.316
 6236TIP3    H242904   6.749   0.284  10.318
 6237TIP3   OH242905   7.177   0.388  10.389
 6237TIP3    H142906   7.211   0.314  10.439
 6237TIP3    H242907   7.186   0.463  10.448
 6238TIP3   OH242908   7.374   1.953  10.193
 6238TIP3    H142909   7.464   1.981  10.177
 6238TIP3    H242910   7.368   1.866  10.154
 6239TIP3   OH242911   8.089   1.937  10.519
 6239TIP3    H142912   8.062   1.852  10.483
 6239TIP3    H242913   8.087   1.997  10.444
 6240TIP3   OH242914   6.551   0.150  11.731
 6240TIP3    H142915   6.565   0.071  11.678
 6240TIP3    H242916   6.629   0.155  11.786
 6241TIP3   OH242917   6.800   0.154  11.855
 6241TIP3    H142918   6.888   0.181  11.829
 6241TIP3    H242919   6.792   0.064  11.823
 6242TIP3   OH242920   6.673   1.998  10.367
 6242TIP3    H142921   6.592   1.958  10.397
 6242TIP3    H242922   6.737   1.927  10.368
 6243TIP3   OH242923   7.787   0.063  11.855
 6243TIP3    H142924   7.740   8.443  11.807
 6243TIP3    H242925   7.870   0.022  11.880
 6244TIP3   OH242926   7.915   1.768  11.683
 6244TIP3    H142927   7.860   1.744  11.608
 6244TIP3    H242928   7.910   1.864  11.685
 6245TIP3   OH242929   8.351   0.797  10.455
 6245TIP3    H142930   8.306   0.863  10.508
 6245TIP3    H242931   8.280   0.751  10.410
 6246TIP3   OH242932   8.376   1.212  11.327
 6246TIP3    H142933   8.338   1.228  11.241
 6246TIP3    H242934   8.372   1.117  11.338
 6247TIP3   OH242935   8.350   1.550  11.030
 6247TIP3    H142936   8.445   1.557  11.022
 6247TIP3    H242937   8.330   1.586  11.116
 6248TIP3   OH242938   8.330   0.341  10.771
 6248TIP3    H142939   8.407   0.381  10.811
 6248TIP3    H242940   8.345   0.349  10.677
 6249TIP3   OH242941   8.349   0.943  11.421
 6249TIP3    H142942   8.315   0.901  11.500
 6249TIP3    H242943   8.277   0.936  11.358
 6250TIP3   OH242944   8.360   1.296  11.792
 6250TIP3    H142945   8.285   1.315  11.849
 6250TIP3    H242946   8.321   1.284  11.705
 6251TIP3   OH242947   8.271   2.009  10.712
 6251TIP3    H142948   8.212   1.979  10.643
 6251TIP3    H242949   8.274   1.938  10.775
 6252TIP3   OH242950   8.289   1.806  10.896
 6252TIP3    H142951   8.295   1.711  10.911
 6252TIP3    H242952   8.266   1.841  10.982
 6253TIP3   OH242953   8.343   0.987  11.065
 6253TIP3    H142954   8.370   0.898  11.043
 6253TIP3    H242955   8.425   1.036  11.072
 6254TIP3   OH242956   8.333   0.561  11.569
 6254TIP3    H142957   8.423   0.569  11.602
 6254TIP3    H242958   8.296   0.489  11.619
 6255TIP3   OH242959   8.229   0.648  11.052
 6255TIP3    H142960   8.318   0.674  11.030
 6255TIP3    H242961   8.228   0.642  11.147
 6256TIP3   OH242962   8.297   0.323  10.491
 6256TIP3    H142963   8.207   0.334  10.519
 6256TIP3    H242964   8.293   0.322  10.395
 6257TIP3   OH242965   8.298   0.161  11.281
 6257TIP3    H142966   8.246   0.174  11.360
 6257TIP3    H242967   8.263   0.226  11.219
 6258TIP3   OH242968   1.378   3.200  10.604
 6258TIP3    H142969   1.348   3.290  10.615
 6258TIP3    H242970   1.304   3.155  10.563
 6259TIP3   OH242971   1.104   2.932  11.077
 6259TIP3    H142972   1.199   2.930  11.067
 6259TIP3    H242973   1.073   2.856  11.029
 6260TIP3   OH242974   0.414   3.146  11.126
 6260TIP3    H142975   0.486   3.084  11.116
 6260TIP3    H242976   0.404   3.155  11.221
 6261TIP3   OH242977   1.668   3.448  10.877
 6261TIP3    H142978   1.697   3.369  10.923
 6261TIP3    H242979   1.677   3.518  10.941
 6262TIP3   OH242980   0.487   3.594  11.047
 6262TIP3    H142981   0.503   3.506  11.012
 6262TIP3    H242982   0.524   3.592  11.136
 6263TIP3   OH242983   0.114   2.919  10.527
 6263TIP3    H142984   0.126   2.950  10.617
 6263TIP3    H242985   0.019   2.913  10.517
 6264TIP3   OH242986   0.232   3.005  10.779
 6264TIP3    H142987   0.264   2.922  10.814
 6264TIP3    H242988   0.302   3.037  10.723
 6265TIP3   OH242989   1.376   3.997  10.859
 6265TIP3    H142990   1.402   3.931  10.795
 6265TIP3    H242991   1.352   3.948  10.937
 6266TIP3   OH242992   1.015   3.403  11.043
 6266TIP3    H142993   1.064   3.378  10.965
 6266TIP3    H242994   1.082   3.427  11.107
 6267TIP3   OH242995   1.965   2.335  11.179
 6267TIP3    H142996   1.964   2.412  11.236
 6267TIP3    H242997   1.987   2.369  11.093
 6268TIP3   OH242998   1.425   2.780  11.031
 6268TIP3    H142999   1.483   2.704  11.034
 6268TIP3    H243000   1.367   2.764  10.957
 6269TIP3   OH243001   0.657   2.498  10.758
 6269TIP3    H143002   0.643   2.582  10.716
 6269TIP3    H243003   0.597   2.438  10.713
 6270TIP3   OH243004   1.506   2.551  10.731
 6270TIP3    H143005   1.545   2.548  10.818
 6270TIP3    H243006   1.577   2.580  10.673
 6271TIP3   OH243007   0.314   2.750  10.866
 6271TIP3    H143008   0.377   2.703  10.921
 6271TIP3    H243009   0.314   2.702  10.783
 6272TIP3   OH243010   0.718   2.941  10.839
 6272TIP3    H143011   0.808   2.909  10.828
 6272TIP3    H243012   0.665   2.880  10.786
 6273TIP3   OH243013   1.969   2.551  11.354
 6273TIP3    H143014   1.943   2.642  11.344
 6273TIP3    H243015   2.045   2.554  11.412
 6274TIP3   OH243016   0.565   2.413  11.202
 6274TIP3    H143017   0.543   2.472  11.130
 6274TIP3    H243018   0.492   2.421  11.262
 6275TIP3   OH243019   1.293   3.472  10.586
 6275TIP3    H143020   1.264   3.446  10.499
 6275TIP3    H243021   1.262   3.562  10.596
 6276TIP3   OH243022   0.823   3.241  11.166
 6276TIP3    H143023   0.756   3.305  11.191
 6276TIP3    H243024   0.889   3.293  11.119
 6277TIP3   OH243025   1.598   2.566  10.993
 6277TIP3    H143026   1.589   2.486  11.044
 6277TIP3    H243027   1.682   2.603  11.021
 6278TIP3   OH243028   0.518   2.580  10.983
 6278TIP3    H143029   0.571   2.644  11.031
 6278TIP3    H243030   0.575   2.553  10.910
 6279TIP3   OH243031   0.575   3.617  11.317
 6279TIP3    H143032   0.592   3.710  11.330
 6279TIP3    H243033   0.487   3.603  11.351
 6280TIP3   OH243034   0.202   3.510  10.427
 6280TIP3    H143035   0.200   3.528  10.333
 6280TIP3    H243036   0.207   3.597  10.467
 6281TIP3   OH243037   1.671   3.656  11.065
 6281TIP3    H143038   1.577   3.655  11.082
 6281TIP3    H243039   1.691   3.749  11.050
 6282TIP3   OH243040   1.736   2.181  11.246
 6282TIP3    H143041   1.662   2.232  11.211
 6282TIP3    H243042   1.814   2.227  11.215
 6283TIP3   OH243043   0.890   2.056  10.987
 6283TIP3    H143044   0.864   1.964  10.992
 6283TIP3    H243045   0.815   2.104  11.019
 6284TIP3   OH243046   1.487   3.825  10.656
 6284TIP3    H143047   1.512   3.732  10.654
 6284TIP3    H243048   1.569   3.871  10.676
 6285TIP3   OH243049   1.550   3.561  10.654
 6285TIP3    H143050   1.472   3.509  10.639
 6285TIP3    H243051   1.595   3.517  10.726
 6286TIP3   OH243052   1.858   3.421  11.435
 6286TIP3    H143053   1.868   3.365  11.358
 6286TIP3    H243054   1.840   3.508  11.400
 6287TIP3   OH243055   1.177   3.063  10.465
 6287TIP3    H143056   1.106   3.127  10.455
 6287TIP3    H243057   1.187   3.025  10.378
 6288TIP3   OH243058   1.237   2.898  10.241
 6288TIP3    H143059   1.332   2.911  10.244
 6288TIP3    H243060   1.226   2.803  10.247
 6289TIP3   OH243061   2.018   3.038  11.288
 6289TIP3    H143062   1.971   3.120  11.275
 6289TIP3    H243063   2.074   3.030  11.210
 6290TIP3   OH243064   1.606   3.084  10.509
 6290TIP3    H143065   1.531   3.125  10.552
 6290TIP3    H243066   1.655   3.044  10.581
 6291TIP3   OH243067   1.614   2.862  11.459
 6291TIP3    H143068   1.611   2.945  11.506
 6291TIP3    H243069   1.535   2.862  11.405
 6292TIP3   OH243070   0.627   3.187  10.739
 6292TIP3    H143071   0.554   3.157  10.685
 6292TIP3    H243072   0.665   3.107  10.775
 6293TIP3   OH243073   0.867   3.633  10.960
 6293TIP3    H143074   0.824   3.607  10.878
 6293TIP3    H243075   0.910   3.553  10.990
 6294TIP3   OH243076   0.671   3.017  11.103
 6294TIP3    H143077   0.684   2.996  11.010
 6294TIP3    H243078   0.725   3.095  11.117
 6295TIP3   OH243079   1.406   3.653  11.132
 6295TIP3    H143080   1.366   3.739  11.138
 6295TIP3    H243081   1.335   3.592  11.153
 6296TIP3   OH243082   0.749   3.586  11.543
 6296TIP3    H143083   0.696   3.646  11.595
 6296TIP3    H243084   0.702   3.578  11.460
 6297TIP3   OH243085   1.518   2.958  10.279
 6297TIP3    H143086   1.549   3.001  10.359
 6297TIP3    H243087   1.530   3.023  10.210
 6298TIP3   OH243088   0.440   3.100  11.417
 6298TIP3    H143089   0.459   3.135  11.504
 6298TIP3    H243090   0.347   3.076  11.421
 6299TIP3   OH243091   1.238   3.768  10.543
 6299TIP3    H143092   1.325   3.781  10.581
 6299TIP3    H243093   1.205   3.856  10.527
 6300TIP3   OH243094   0.576   3.777  11.647
 6300TIP3    H143095   0.584   3.824  11.564
 6300TIP3    H243096   0.485   3.747  11.648
 6301TIP3   OH243097   1.869   2.138  10.323
 6301TIP3    H143098   1.777   2.155  10.346
 6301TIP3    H243099   1.903   2.223  10.294
 6302TIP3   OH243100   0.421   3.089  10.585
 6302TIP3    H143101   0.393   3.166  10.535
 6302TIP3    H243102   0.415   3.017  10.522
 6303TIP3   OH243103   2.085   3.749  10.257
 6303TIP3    H143104   2.113   3.838  10.233
 6303TIP3    H243105   2.160   3.694  10.238
 6304TIP3   OH243106   0.200   3.348  11.423
 6304TIP3    H143107   0.111   3.343  11.388
 6304TIP3    H243108   0.215   3.262  11.462
 6305TIP3   OH243109   0.208   3.673  11.045
 6305TIP3    H143110   0.291   3.628  11.031
 6305TIP3    H243111   0.223   3.730  11.120
 6306TIP3   OH243112   1.960   3.709  11.675
 6306TIP3    H143113   1.939   3.629  11.723
 6306TIP3    H243114   1.884   3.766  11.688
 6307TIP3   OH243115   1.003   3.696  11.503
 6307TIP3    H143116   1.017   3.778  11.550
 6307TIP3    H243117   0.917   3.667  11.532
 6308TIP3   OH243118   1.189   4.036  10.471
 6308TIP3    H143119   1.162   4.030  10.379
 6308TIP3    H243120   1.150   4.118  10.502
 6309TIP3   OH243121   0.454   3.939  10.706
 6309TIP3    H143122   0.496   3.914  10.788
 6309TIP3    H243123   0.371   3.892  10.706
 6310TIP3   OH243124   1.415   3.975  10.199
 6310TIP3    H143125   1.445   3.885  10.185
 6310TIP3    H243126   1.453   3.999  10.284
 6311TIP3   OH243127   1.468   4.040  10.467
 6311TIP3    H143128   1.373   4.045  10.473
 6311TIP3    H243129   1.491   3.969  10.527
 6312TIP3   OH243130   1.815   2.741  11.636
 6312TIP3    H143131   1.740   2.777  11.589
 6312TIP3    H243132   1.806   2.646  11.627
 6313TIP3   OH243133   0.320   3.599  11.421
 6313TIP3    H143134   0.312   3.621  11.514
 6313TIP3    H243135   0.280   3.513  11.412
 6314TIP3   OH243136   0.657   2.180  11.082
 6314TIP3    H143137   0.577   2.159  11.033
 6314TIP3    H243138   0.639   2.266  11.120
 6315TIP3   OH243139   1.131   2.150  11.397
 6315TIP3    H143140   1.166   2.097  11.470
 6315TIP3    H243141   1.043   2.172  11.425
 6316TIP3   OH243142   1.552   2.583  11.506
 6316TIP3    H143143   1.460   2.557  11.513
 6316TIP3    H243144   1.548   2.674  11.476
 6317TIP3   OH243145   1.573   3.189  10.138
 6317TIP3    H143146   1.520   3.266  10.115
 6317TIP3    H243147   1.637   3.222  10.201
 6318TIP3   OH243148   1.105   2.593  10.220
 6318TIP3    H143149   1.057   2.534  10.278
 6318TIP3    H243150   1.050   2.599  10.142
 6319TIP3   OH243151   0.657   2.742  11.154
 6319TIP3    H143152   0.608   2.724  11.235
 6319TIP3    H243153   0.653   2.838  11.144
 6320TIP3   OH243154   0.598   2.757  10.669
 6320TIP3    H143155   0.509   2.727  10.656
 6320TIP3    H243156   0.641   2.747  10.584
 6321TIP3   OH243157   1.215   2.809  10.571
 6321TIP3    H143158   1.197   2.900  10.547
 6321TIP3    H243159   1.293   2.786  10.520
 6322TIP3   OH243160   1.114   2.812  11.651
 6322TIP3    H143161   1.088   2.719  11.653
 6322TIP3    H243162   1.189   2.817  11.710
 6323TIP3   OH243163   1.285   2.699  10.809
 6323TIP3    H143164   1.258   2.744  10.729
 6323TIP3    H243165   1.353   2.638  10.781
 6324TIP3   OH243166   0.519   2.669  11.381
 6324TIP3    H143167   0.517   2.694  11.473
 6324TIP3    H243168   0.454   2.599  11.374
 6325TIP3   OH243169   0.793   2.563  10.084
 6325TIP3    H143170   0.761   2.513  10.159
 6325TIP3    H243171   0.752   2.522  10.008
 6326TIP3   OH243172   0.096   2.470  10.793
 6326TIP3    H143173   0.171   2.442  10.845
 6326TIP3    H243174   0.118   2.443  10.703
 6327TIP3   OH243175   0.187   2.668  10.429
 6327TIP3    H143176   0.225   2.687  10.343
 6327TIP3    H243177   0.153   2.752  10.459
 6328TIP3   OH243178   1.384   2.827  11.308
 6328TIP3    H143179   1.395   2.811  11.214
 6328TIP3    H243180   1.292   2.808  11.325
 6329TIP3   OH243181   0.931   2.496  10.794
 6329TIP3    H143182   0.837   2.485  10.785
 6329TIP3    H243183   0.965   2.408  10.811
 6330TIP3   OH243184   0.366   2.616  10.631
 6330TIP3    H143185   0.304   2.628  10.560
 6330TIP3    H243186   0.386   2.522  10.629
 6331TIP3   OH243187   0.742   2.693  10.447
 6331TIP3    H143188   0.830   2.684  10.485
 6331TIP3    H243189   0.757   2.742  10.366
 6332TIP3   OH243190   1.527   2.324  11.122
 6332TIP3    H143191   1.457   2.332  11.186
 6332TIP3    H243192   1.488   2.277  11.048
 6333TIP3   OH243193   0.804   2.809  10.207
 6333TIP3    H143194   0.793   2.730  10.155
 6333TIP3    H243195   0.876   2.855  10.164
 6334TIP3   OH243196   1.738   4.134  11.712
 6334TIP3    H143197   1.768   4.143  11.621
 6334TIP3    H243198   1.809   4.171  11.764
 6335TIP3   OH243199   0.453   3.151  11.694
 6335TIP3    H143200   0.522   3.183  11.752
 6335TIP3    H243201   0.372   3.188  11.730
 6336TIP3   OH243202   1.044   2.697  10.939
 6336TIP3    H143203   1.132   2.695  10.901
 6336TIP3    H243204   0.996   2.629  10.892
 6337TIP3   OH243205   0.459   2.355  10.623
 6337TIP3    H143206   0.419   2.276  10.660
 6337TIP3    H243207   0.468   2.336  10.530
 6338TIP3   OH243208   0.916   2.648  11.179
 6338TIP3    H143209   0.829   2.685  11.166
 6338TIP3    H243210   0.961   2.661  11.096
 6339TIP3   OH243211   0.979   3.252  10.420
 6339TIP3    H143212   0.918   3.206  10.363
 6339TIP3    H243213   0.923   3.298  10.483
 6340TIP3   OH243214   1.908   3.281  11.201
 6340TIP3    H143215   1.963   3.347  11.159
 6340TIP3    H243216   1.840   3.261  11.136
 6341TIP3   OH243217   1.316   2.503  10.387
 6341TIP3    H143218   1.251   2.520  10.319
 6341TIP3    H243219   1.361   2.587  10.399
 6342TIP3   OH243220   1.188   3.497  11.486
 6342TIP3    H143221   1.178   3.450  11.569
 6342TIP3    H243222   1.124   3.568  11.490
 6343TIP3   OH243223   1.449   2.740  10.436
 6343TIP3    H143224   1.528   2.704  10.476
 6343TIP3    H243225   1.481   2.812  10.381
 6344TIP3   OH243226   0.534   3.340  10.959
 6344TIP3    H143227   0.565   3.293  10.882
 6344TIP3    H243228   0.483   3.275  11.008
 6345TIP3   OH243229   1.202   3.401  10.337
 6345TIP3    H143230   1.161   3.486  10.321
 6345TIP3    H243231   1.129   3.341  10.354
 6346TIP3   OH243232   0.178   3.061  11.487
 6346TIP3    H143233   0.202   3.000  11.556
 6346TIP3    H243234   0.086   3.041  11.469
 6347TIP3   OH243235   0.874   3.025  11.655
 6347TIP3    H143236   0.782   3.047  11.670
 6347TIP3    H243237   0.908   3.004  11.742
 6348TIP3   OH243238   1.438   3.607  11.536
 6348TIP3    H143239   1.357   3.570  11.501
 6348TIP3    H243240   1.417   3.630  11.626
 6349TIP3   OH243241   2.008   2.823  10.317
 6349TIP3    H143242   1.917   2.794  10.309
 6349TIP3    H243243   2.008   2.911  10.279
 6350TIP3   OH243244   2.087   3.326  11.556
 6350TIP3    H143245   2.009   3.375  11.529
 6350TIP3    H243246   2.141   3.322  11.477
 6351TIP3   OH243247   1.904   3.817  10.451
 6351TIP3    H143248   1.846   3.743  10.468
 6351TIP3    H243249   1.963   3.786  10.383
 6352TIP3   OH243250   1.702   3.205  11.026
 6352TIP3    H143251   1.612   3.220  11.052
 6352TIP3    H243252   1.704   3.113  10.997
 6353TIP3   OH243253   0.714   3.597  10.728
 6353TIP3    H143254   0.718   3.683  10.687
 6353TIP3    H243255   0.623   3.590  10.760
 6354TIP3   OH243256   0.293   3.007  10.336
 6354TIP3    H143257   0.299   3.102  10.341
 6354TIP3    H243258   0.221   2.984  10.396
 6355TIP3   OH243259   0.783   3.370  10.586
 6355TIP3    H143260   0.772   3.450  10.638
 6355TIP3    H243261   0.733   3.304  10.633
 6356TIP3   OH243262   0.912   3.867  11.302
 6356TIP3    H143263   0.981   3.930  11.286
 6356TIP3    H243264   0.953   3.799  11.355
 6357TIP3   OH243265   0.702   3.850  10.613
 6357TIP3    H143266   0.613   3.883  10.623
 6357TIP3    H243267   0.758   3.922  10.639
 6358TIP3   OH243268   1.228   3.445  11.219
 6358TIP3    H143269   1.205   3.468  11.309
 6358TIP3    H243270   1.294   3.376  11.228
 6359TIP3   OH243271   1.467   3.446  10.246
 6359TIP3    H143272   1.527   3.411  10.312
 6359TIP3    H243273   1.380   3.423  10.277
 6360TIP3   OH243274   1.602   3.815  11.454
 6360TIP3    H143275   1.532   3.753  11.471
 6360TIP3    H243276   1.564   3.879  11.394
 6361TIP3   OH243277   2.118   4.040  10.269
 6361TIP3    H143278   2.164   4.123  10.281
 6361TIP3    H243279   2.025   4.064  10.269
 6362TIP3   OH243280   0.347   2.451  11.379
 6362TIP3    H143281   0.266   2.474  11.424
 6362TIP3    H243282   0.351   2.356  11.384
 6363TIP3   OH243283   1.725   3.276  10.349
 6363TIP3    H143284   1.687   3.214  10.412
 6363TIP3    H243285   1.814   3.291  10.381
 6364TIP3   OH243286   0.283   3.830  11.264
 6364TIP3    H143287   0.292   3.750  11.317
 6364TIP3    H243288   0.284   3.901  11.327
 6365TIP3   OH243289   0.729   3.498  10.340
 6365TIP3    H143290   0.747   3.456  10.424
 6365TIP3    H243291   0.764   3.586  10.349
 6366TIP3   OH243292   0.340   3.275  10.396
 6366TIP3    H143293   0.281   3.346  10.423
 6366TIP3    H243294   0.396   3.315  10.329
 6367TIP3   OH243295   1.324   2.338  11.314
 6367TIP3    H143296   1.325   2.395  11.391
 6367TIP3    H243297   1.259   2.271  11.335
 6368TIP3   OH243298   1.399   2.339  10.588
 6368TIP3    H143299   1.369   2.385  10.510
 6368TIP3    H243300   1.434   2.408  10.645
 6369TIP3   OH243301   1.086   3.648  10.344
 6369TIP3    H143302   0.997   3.677  10.361
 6369TIP3    H243303   1.139   3.691  10.411
 6370TIP3   OH243304   0.986   2.650  10.568
 6370TIP3    H143305   1.065   2.704  10.573
 6370TIP3    H243306   0.981   2.607  10.654
 6371TIP3   OH243307   1.108   2.742  11.357
 6371TIP3    H143308   1.127   2.667  11.413
 6371TIP3    H243309   1.046   2.709  11.292
 6372TIP3   OH243310   1.123   2.265  10.580
 6372TIP3    H143311   1.095   2.259  10.671
 6372TIP3    H243312   1.217   2.282  10.586
 6373TIP3   OH243313   0.833   3.752  10.390
 6373TIP3    H143314   0.844   3.832  10.339
 6373TIP3    H243315   0.788   3.780  10.470
 6374TIP3   OH243316   0.717   2.441  10.320
 6374TIP3    H143317   0.698   2.521  10.370
 6374TIP3    H243318   0.804   2.415  10.348
 6375TIP3   OH243319   1.794   2.469  11.555
 6375TIP3    H143320   1.702   2.490  11.540
 6375TIP3    H243321   1.837   2.490  11.472
 6376TIP3   OH243322   1.660   2.929  10.965
 6376TIP3    H143323   1.573   2.898  10.987
 6376TIP3    H243324   1.719   2.863  11.001
 6377TIP3   OH243325   0.493   3.419  10.209
 6377TIP3    H143326   0.553   3.467  10.266
 6377TIP3    H243327   0.550   3.374  10.147
 6378TIP3   OH243328   0.304   2.769  10.202
 6378TIP3    H143329   0.307   2.856  10.241
 6378TIP3    H243330   0.335   2.782  10.112
 6379TIP3   OH243331   1.750   3.928  11.076
 6379TIP3    H143332   1.738   4.002  11.017
 6379TIP3    H243333   1.842   3.933  11.102
 6380TIP3   OH243334   0.409   2.137  10.967
 6380TIP3    H143335   0.393   2.133  10.872
 6380TIP3    H243336   0.370   2.057  11.001
 6381TIP3   OH243337   0.220   3.770  10.525
 6381TIP3    H143338   0.194   3.797  10.613
 6381TIP3    H243339   0.220   3.851  10.474
 6382TIP3   OH243340   0.101   4.080  11.789
 6382TIP3    H143341   0.157   4.048  11.860
 6382TIP3    H243342   0.060   4.001  11.754
 6383TIP3   OH243343   0.553   3.908  11.896
 6383TIP3    H143344   0.631   3.889  11.947
 6383TIP3    H243345   0.566   3.861  11.814
 6384TIP3   OH243346   1.127   3.752  10.090
 6384TIP3    H143347   1.110   3.706  10.172
 6384TIP3    H243348   1.198   3.703  10.049
 6385TIP3   OH243349   1.365   3.668  11.796
 6385TIP3    H143350   1.362   3.593  11.856
 6385TIP3    H243351   1.433   3.725  11.831
 6386TIP3   OH243352   1.512   3.714  10.175
 6386TIP3    H143353   1.487   3.625  10.200
 6386TIP3    H243354   1.603   3.707  10.149
 6387TIP3   OH243355   0.214   3.234  11.816
 6387TIP3    H143356   0.202   3.168  11.884
 6387TIP3    H243357   0.125   3.254  11.786
 6388TIP3   OH243358   0.737   3.326  10.119
 6388TIP3    H143359   0.766   3.245  10.160
 6388TIP3    H243360   0.753   3.394  10.184
 6389TIP3   OH243361   0.847   3.381  11.699
 6389TIP3    H143362   0.812   3.450  11.642
 6389TIP3    H243363   0.895   3.323  11.640
 6390TIP3   OH243364   1.599   3.368  11.531
 6390TIP3    H143365   1.688   3.394  11.507
 6390TIP3    H243366   1.551   3.450  11.535
 6391TIP3   OH243367   0.325   2.902  11.672
 6391TIP3    H143368   0.389   2.833  11.660
 6391TIP3    H243369   0.377   2.982  11.683
 6392TIP3   OH243370   0.823   3.099  10.253
 6392TIP3    H143371   0.762   3.027  10.271
 6392TIP3    H243372   0.889   3.060  10.195
 6393TIP3   OH243373   0.674   2.950  11.387
 6393TIP3    H143374   0.589   2.991  11.407
 6393TIP3    H243375   0.694   2.980  11.298
 6394TIP3   OH243376   1.010   2.964  10.101
 6394TIP3    H143377   1.038   2.994  10.015
 6394TIP3    H243378   1.091   2.944  10.148
 6395TIP3   OH243379   1.303   3.258  11.828
 6395TIP3    H143380   1.394   3.229  11.825
 6395TIP3    H243381   1.253   3.179  11.852
 6396TIP3   OH243382   1.867   3.212  19.960
 6396TIP3    H143383   1.957   3.216  19.929
 6396TIP3    H243384   1.833   3.301  19.947
 6397TIP3   OH243385   0.810   2.728  11.481
 6397TIP3    H143386   0.779   2.645  11.446
 6397TIP3    H243387   0.744   2.792  11.456
 6398TIP3   OH243388   0.794   2.470  11.355
 6398TIP3    H143389   0.848   2.517  11.291
 6398TIP3    H243390   0.712   2.451  11.309
 6399TIP3   OH243391   0.969   3.033  11.295
 6399TIP3    H143392   1.018   2.999  11.220
 6399TIP3    H243393   0.921   3.108  11.261
 6400TIP3   OH243394   1.328   2.779  11.827
 6400TIP3    H143395   1.311   2.728  11.906
 6400TIP3    H243396   1.402   2.735  11.786
 6401TIP3   OH243397   1.635   3.102  11.593
 6401TIP3    H143398   1.608   3.191  11.568
 6401TIP3    H243399   1.730   3.107  11.599
 6402TIP3   OH243400   0.512   2.693  11.659
 6402TIP3    H143401   0.468   2.616  11.695
 6402TIP3    H243402   0.598   2.693  11.701
 6403TIP3   OH243403   0.860   2.211  11.445
 6403TIP3    H143404   0.843   2.303  11.424
 6403TIP3    H243405   0.781   2.165  11.417
 6404TIP3   OH243406   1.023   2.555  11.606
 6404TIP3    H143407   1.005   2.495  11.678
 6404TIP3    H243408   0.936   2.580  11.573
 6405TIP3   OH243409   1.289   2.496  11.556
 6405TIP3    H143410   1.194   2.511  11.561
 6405TIP3    H243411   1.315   2.474  11.645
 6406TIP3   OH243412   1.303   2.459  11.831
 6406TIP3    H143413   1.241   2.392  11.860
 6406TIP3    H243414   1.314   2.516  11.908
 6407TIP3   OH243415   0.415   2.456  11.767
 6407TIP3    H143416   0.380   2.382  11.717
 6407TIP3    H243417   0.403   2.430  11.859
 6408TIP3   OH243418   0.928   2.128  11.700
 6408TIP3    H143419   0.946   2.034  11.694
 6408TIP3    H243420   0.896   2.153  11.613
 6409TIP3   OH243421   0.954   2.380  11.812
 6409TIP3    H143422   0.948   2.289  11.782
 6409TIP3    H243423   0.863   2.409  11.820
 6410TIP3   OH243424   0.876   3.997  10.271
 6410TIP3    H143425   0.966   4.003  10.241
 6410TIP3    H243426   0.838   4.082  10.249
 6411TIP3   OH243427   0.247   3.532  10.155
 6411TIP3    H143428   0.334   3.495  10.171
 6411TIP3    H243429   0.239   3.533  10.060
 6412TIP3   OH243430   0.102   4.070  10.664
 6412TIP3    H143431   0.009   4.088  10.678
 6412TIP3    H243432   0.120   3.994  10.720
 6413TIP3   OH243433   0.199   3.849  10.805
 6413TIP3    H143434   0.165   3.768  10.843
 6413TIP3    H243435   0.232   3.900  10.879
 6414TIP3   OH243436   2.013   3.950  11.184
 6414TIP3    H143437   1.993   3.914  11.271
 6414TIP3    H243438   2.051   4.036  11.202
 6415TIP3   OH243439   1.942   3.849  11.428
 6415TIP3    H143440   1.891   3.778  11.389
 6415TIP3    H243441   1.974   3.813  11.511
 6416TIP3   OH243442   1.875   3.531  11.873
 6416TIP3    H143443   1.790   3.531  11.917
 6416TIP3    H243444   1.931   3.584  11.930
 6417TIP3   OH243445   1.994   3.260  10.441
 6417TIP3    H143446   2.062   3.326  10.451
 6417TIP3    H243447   2.000   3.208  10.522
 6418TIP3   OH243448   1.999   3.074  10.654
 6418TIP3    H143449   1.911   3.039  10.669
 6418TIP3    H243450   2.043   3.068  10.739
 6419TIP3   OH243451   2.104   3.466  11.107
 6419TIP3    H143452   2.121   3.455  11.014
 6419TIP3    H243453   2.120   3.559  11.124
 6420TIP3   OH243454   1.781   3.655  11.319
 6420TIP3    H143455   1.712   3.704  11.363
 6420TIP3    H243456   1.751   3.647  11.228
 6421TIP3   OH243457   2.014   3.086  10.230
 6421TIP3    H143458   1.959   3.123  10.161
 6421TIP3    H243459   2.004   3.147  10.303
 6422TIP3   OH243460   1.748   2.728  10.283
 6422TIP3    H143461   1.684   2.781  10.235
 6422TIP3    H243462   1.756   2.648  10.231
 6423TIP3   OH243463   1.754   2.945  10.703
 6423TIP3    H143464   1.753   2.853  10.680
 6423TIP3    H243465   1.719   2.948  10.793
 6424TIP3   OH243466   0.129   3.157  10.994
 6424TIP3    H143467   0.154   3.113  10.912
 6424TIP3    H243468   0.210   3.164  11.044
 6425TIP3   OH243469   1.909   3.123  11.622
 6425TIP3    H143470   1.956   3.043  11.643
 6425TIP3    H243471   1.977   3.183  11.589
 6426TIP3   OH243472   2.042   2.886  11.685
 6426TIP3    H143473   1.965   2.832  11.669
 6426TIP3    H243474   2.074   2.858  11.771
 6427TIP3   OH243475   1.783   2.493  10.149
 6427TIP3    H143476   1.864   2.446  10.170
 6427TIP3    H243477   1.733   2.430  10.096
 6428TIP3   OH243478   1.695   2.624  10.535
 6428TIP3    H143479   1.740   2.541  10.543
 6428TIP3    H243480   1.726   2.662  10.453
 6429TIP3   OH243481   1.817   2.723  11.066
 6429TIP3    H143482   1.906   2.730  11.032
 6429TIP3    H243483   1.825   2.742  11.160
 6430TIP3   OH243484   1.860   2.808  11.324
 6430TIP3    H143485   1.781   2.830  11.373
 6430TIP3    H243486   1.911   2.889  11.322
 6431TIP3   OH243487   0.139   2.460  11.595
 6431TIP3    H143488   0.173   2.520  11.661
 6431TIP3    H243489   0.173   2.374  11.621
 6432TIP3   OH243490   2.036   2.063  11.796
 6432TIP3    H143491   2.126   2.039  11.775
 6432TIP3    H243492   2.023   2.147  11.752
 6433TIP3   OH243493   1.814   2.368  10.545
 6433TIP3    H143494   1.845   2.312  10.617
 6433TIP3    H243495   1.747   2.315  10.501
 6434TIP3   OH243496   0.308   2.398  10.948
 6434TIP3    H143497   0.345   2.311  10.964
 6434TIP3    H243498   0.381   2.459  10.963
 6435TIP3   OH243499   0.078   2.748  11.015
 6435TIP3    H143500   0.155   2.758  10.958
 6435TIP3    H243501   0.078   2.655  11.038
 6436TIP3   OH243502   1.981   2.277  11.619
 6436TIP3    H143503   1.911   2.343  11.615
 6436TIP3    H243504   1.953   2.209  11.558
 6437TIP3   OH243505   2.020   2.371  10.229
 6437TIP3    H143506   2.088   2.306  10.245
 6437TIP3    H243507   2.062   2.455  10.246
 6438TIP3   OH243508   0.091   2.424  10.511
 6438TIP3    H143509   8.444   2.427  10.510
 6438TIP3    H243510   0.118   2.509  10.476
 6439TIP3   OH243511   1.709   3.968  10.700
 6439TIP3    H143512   1.784   3.998  10.649
 6439TIP3    H243513   1.711   4.023  10.779
 6440TIP3   OH243514   0.119   2.151  11.266
 6440TIP3    H143515   0.025   2.143  11.282
 6440TIP3    H243516   0.126   2.171  11.173
 6441TIP3   OH243517   0.317   3.680  11.687
 6441TIP3    H143518   0.258   3.743  11.729
 6441TIP3    H243519   0.321   3.607  11.748
 6442TIP3   OH243520   0.647   3.876  11.390
 6442TIP3    H143521   0.624   3.968  11.375
 6442TIP3    H243522   0.739   3.870  11.365
 6443TIP3   OH243523   1.077   3.945  11.612
 6443TIP3    H143524   1.088   3.897  11.694
 6443TIP3    H243525   1.153   4.002  11.606
 6444TIP3   OH243526   1.292   4.124  11.602
 6444TIP3    H143527   1.363   4.120  11.537
 6444TIP3    H243528   1.337   4.148  11.683
 6445TIP3   OH243529   1.890   2.072  11.451
 6445TIP3    H143530   1.828   2.101  11.384
 6445TIP3    H243531   1.903   1.979  11.433
 6446TIP3   OH243532   0.339   4.169  11.410
 6446TIP3    H143533   0.254   4.193  11.374
 6446TIP3    H243534   0.334   4.195  11.502
 6447TIP3   OH243535   0.606   4.145  11.334
 6447TIP3    H143536   0.516   4.158  11.364
 6447TIP3    H243537   0.609   4.183  11.246
 6448TIP3   OH243538   1.093   4.063  11.219
 6448TIP3    H143539   1.034   4.105  11.156
 6448TIP3    H243540   1.113   4.132  11.283
 6449TIP3   OH243541   1.320   3.913  11.152
 6449TIP3    H143542   1.242   3.961  11.177
 6449TIP3    H243543   1.392   3.960  11.195
 6450TIP3   OH243544   1.561   4.016  11.260
 6450TIP3    H143545   1.596   4.105  11.269
 6450TIP3    H243546   1.618   3.975  11.195
 6451TIP3   OH243547   0.325   3.968  11.023
 6451TIP3    H143548   0.302   3.932  11.109
 6451TIP3    H243549   0.409   3.927  11.002
 6452TIP3   OH243550   0.554   3.840  10.944
 6452TIP3    H143551   0.535   3.752  10.976
 6452TIP3    H243552   0.641   3.860  10.977
 6453TIP3   OH243553   0.808   3.884  11.047
 6453TIP3    H143554   0.837   3.801  11.009
 6453TIP3    H243555   0.835   3.878  11.139
 6454TIP3   OH243556   1.046   2.245  10.851
 6454TIP3    H143557   0.987   2.183  10.892
 6454TIP3    H243558   1.127   2.238  10.902
 6455TIP3   OH243559   1.715   2.056  10.860
 6455TIP3    H143560   1.783   2.111  10.822
 6455TIP3    H243561   1.637   2.111  10.861
 6456TIP3   OH243562   1.922   2.191  10.734
 6456TIP3    H143563   1.984   2.126  10.702
 6456TIP3    H243564   1.977   2.258  10.775
 6457TIP3   OH243565   0.352   2.109  10.701
 6457TIP3    H143566   0.261   2.089  10.680
 6457TIP3    H243567   0.399   2.027  10.685
 6458TIP3   OH243568   0.213   2.220  10.360
 6458TIP3    H143569   0.301   2.256  10.349
 6458TIP3    H243570   0.167   2.285  10.414
 6459TIP3   OH243571   0.869   1.952  10.703
 6459TIP3    H143572   0.942   1.965  10.642
 6459TIP3    H243573   0.895   1.998  10.783
 6460TIP3   OH243574   1.463   2.182  10.838
 6460TIP3    H143575   1.441   2.217  10.752
 6460TIP3    H243576   1.422   2.096  10.840
 6461TIP3   OH243577   1.612   2.200  10.444
 6461TIP3    H143578   1.540   2.250  10.483
 6461TIP3    H243579   1.577   2.111  10.435
 6462TIP3   OH243580   0.216   4.035  10.417
 6462TIP3    H143581   0.169   4.049  10.499
 6462TIP3    H243582   0.193   4.111  10.364
 6463TIP3   OH243583   0.485   2.287  10.359
 6463TIP3    H143584   0.505   2.195  10.348
 6463TIP3    H243585   0.564   2.333  10.329
 6464TIP3   OH243586   0.979   2.428  10.406
 6464TIP3    H143587   1.027   2.359  10.452
 6464TIP3    H243588   0.982   2.503  10.466
 6465TIP3   OH243589   1.142   4.003  10.196
 6465TIP3    H143590   1.237   4.016  10.188
 6465TIP3    H243591   1.125   3.922  10.148
 6466TIP3   OH243592   1.930   4.066  10.551
 6466TIP3    H143593   1.924   3.977  10.517
 6466TIP3    H243594   1.914   4.122  10.475
 6467TIP3   OH243595   0.291   2.217  11.673
 6467TIP3    H143596   0.216   2.161  11.691
 6467TIP3    H243597   0.364   2.175  11.720
 6468TIP3   OH243598   0.469   2.072  11.834
 6468TIP3    H143599   0.541   2.011  11.821
 6468TIP3    H243600   0.403   2.021  11.882
 6469TIP3   OH243601   0.474   4.094  10.322
 6469TIP3    H143602   0.391   4.063  10.357
 6469TIP3    H243603   0.525   4.015  10.305
 6470TIP3   OH243604   1.497   1.913  11.724
 6470TIP3    H143605   1.519   1.835  11.775
 6470TIP3    H243606   1.581   1.959  11.713
 6471TIP3   OH243607   1.731   3.858  11.696
 6471TIP3    H143608   1.688   3.843  11.612
 6471TIP3    H243609   1.732   3.953  11.707
 6472TIP3   OH243610   3.415   3.193  10.631
 6472TIP3    H143611   3.392   3.286  10.632
 6472TIP3    H243612   3.345   3.151  10.582
 6473TIP3   OH243613   3.416   3.176  11.114
 6473TIP3    H143614   3.375   3.102  11.158
 6473TIP3    H243615   3.389   3.169  11.023
 6474TIP3   OH243616   2.448   3.062  11.187
 6474TIP3    H143617   2.465   3.058  11.281
 6474TIP3    H243618   2.535   3.064  11.148
 6475TIP3   OH243619   3.674   3.442  10.911
 6475TIP3    H143620   3.691   3.361  10.960
 6475TIP3    H243621   3.700   3.512  10.970
 6476TIP3   OH243622   2.659   3.553  11.042
 6476TIP3    H143623   2.645   3.476  10.986
 6476TIP3    H243624   2.751   3.576  11.027
 6477TIP3   OH243625   2.169   2.890  10.535
 6477TIP3    H143626   2.109   2.956  10.569
 6477TIP3    H243627   2.127   2.860  10.454
 6478TIP3   OH243628   2.240   2.985  10.809
 6478TIP3    H143629   2.268   2.898  10.838
 6478TIP3    H243630   2.252   2.983  10.714
 6479TIP3   OH243631   3.444   3.993  10.860
 6479TIP3    H143632   3.472   3.937  10.787
 6479TIP3    H243633   3.454   3.939  10.938
 6480TIP3   OH243634   3.088   3.409  11.035
 6480TIP3    H143635   3.137   3.385  10.956
 6480TIP3    H243636   3.156   3.436  11.098
 6481TIP3   OH243637   4.015   2.326  11.222
 6481TIP3    H143638   4.020   2.411  11.266
 6481TIP3    H243639   4.019   2.347  11.129
 6482TIP3   OH243640   3.442   2.767  11.050
 6482TIP3    H143641   3.466   2.679  11.078
 6482TIP3    H243642   3.386   2.754  10.974
 6483TIP3   OH243643   2.698   2.473  10.779
 6483TIP3    H143644   2.677   2.553  10.731
 6483TIP3    H243645   2.657   2.403  10.729
 6484TIP3   OH243646   3.506   2.563  10.729
 6484TIP3    H143647   3.565   2.536  10.800
 6484TIP3    H243648   3.563   2.609  10.667
 6485TIP3   OH243649   2.318   2.725  10.875
 6485TIP3    H143650   2.380   2.669  10.922
 6485TIP3    H243651   2.331   2.704  10.782
 6486TIP3   OH243652   2.786   2.909  10.837
 6486TIP3    H143653   2.866   2.859  10.853
 6486TIP3    H243654   2.730   2.848  10.788
 6487TIP3   OH243655   4.022   2.567  11.356
 6487TIP3    H143656   3.989   2.654  11.332
 6487TIP3    H243657   4.089   2.584  11.422
 6488TIP3   OH243658   2.594   2.409  11.203
 6488TIP3    H143659   2.556   2.463  11.135
 6488TIP3    H243660   2.530   2.410  11.274
 6489TIP3   OH243661   3.346   3.468  10.593
 6489TIP3    H143662   3.334   3.446  10.500
 6489TIP3    H243663   3.317   3.559  10.600
 6490TIP3   OH243664   2.886   3.247  11.160
 6490TIP3    H143665   2.829   3.307  11.208
 6490TIP3    H243666   2.947   3.304  11.113
 6491TIP3   OH243667   3.713   2.517  10.905
 6491TIP3    H143668   3.760   2.473  10.834
 6491TIP3    H243669   3.776   2.579  10.942
 6492TIP3   OH243670   2.533   2.567  10.982
 6492TIP3    H143671   2.575   2.642  11.025
 6492TIP3    H243672   2.598   2.538  10.917
 6493TIP3   OH243673   2.704   3.419  11.288
 6493TIP3    H143674   2.673   3.474  11.216
 6493TIP3    H243675   2.624   3.390  11.332
 6494TIP3   OH243676   2.212   3.442  10.446
 6494TIP3    H143677   2.222   3.482  10.360
 6494TIP3    H243678   2.228   3.513  10.508
 6495TIP3   OH243679   3.715   3.671  11.073
 6495TIP3    H143680   3.622   3.685  11.089
 6495TIP3    H243681   3.747   3.757  11.043
 6496TIP3   OH243682   3.789   2.191  11.338
 6496TIP3    H143683   3.778   2.265  11.397
 6496TIP3    H243684   3.855   2.220  11.275
 6497TIP3   OH243685   2.941   2.064  11.005
 6497TIP3    H143686   2.915   1.977  10.972
 6497TIP3    H243687   2.858   2.108  11.023
 6498TIP3   OH243688   3.550   3.820  10.663
 6498TIP3    H143689   3.573   3.727  10.665
 6498TIP3    H243690   3.633   3.865  10.678
 6499TIP3   OH243691   3.600   3.553  10.672
 6499TIP3    H143692   3.520   3.505  10.650
 6499TIP3    H243693   3.632   3.511  10.752
 6500TIP3   OH243694   3.922   3.432  11.422
 6500TIP3    H143695   3.922   3.375  11.345
 6500TIP3    H243696   3.909   3.520  11.387
 6501TIP3   OH243697   3.219   3.069  10.472
 6501TIP3    H143698   3.162   3.142  10.450
 6501TIP3    H243699   3.230   3.021  10.390
 6502TIP3   OH243700   3.261   2.898  10.254
 6502TIP3    H143701   3.350   2.932  10.250
 6502TIP3    H243702   3.270   2.805  10.232
 6503TIP3   OH243703   4.040   3.027  11.189
 6503TIP3    H143704   3.989   3.107  11.195
 6503TIP3    H243705   4.131   3.057  11.186
 6504TIP3   OH243706   3.649   3.086  10.532
 6504TIP3    H143707   3.576   3.125  10.580
 6504TIP3    H243708   3.702   3.043  10.600
 6505TIP3   OH243709   3.671   2.903  11.411
 6505TIP3    H143710   3.683   2.963  11.484
 6505TIP3    H243711   3.614   2.950  11.351
 6506TIP3   OH243712   2.744   3.159  10.690
 6506TIP3    H143713   2.703   3.132  10.608
 6506TIP3    H243714   2.767   3.077  10.734
 6507TIP3   OH243715   2.915   3.617  10.965
 6507TIP3    H143716   2.899   3.604  10.871
 6507TIP3    H243717   2.979   3.550  10.988
 6508TIP3   OH243718   2.707   3.037  11.080
 6508TIP3    H143719   2.732   3.003  10.994
 6508TIP3    H243720   2.767   3.111  11.094
 6509TIP3   OH243721   3.451   3.708  11.142
 6509TIP3    H143722   3.424   3.768  11.212
 6509TIP3    H243723   3.395   3.632  11.153
 6510TIP3   OH243724   2.813   3.534  11.524
 6510TIP3    H143725   2.747   3.598  11.551
 6510TIP3    H243726   2.780   3.498  11.442
 6511TIP3   OH243727   3.533   2.985  10.299
 6511TIP3    H143728   3.569   3.024  10.380
 6511TIP3    H243729   3.565   3.043  10.230
 6512TIP3   OH243730   2.481   3.015  11.468
 6512TIP3    H143731   2.485   3.084  11.535
 6512TIP3    H243732   2.389   2.989  11.467
 6513TIP3   OH243733   3.301   3.760  10.552
 6513TIP3    H143734   3.389   3.773  10.588
 6513TIP3    H243735   3.268   3.849  10.536
 6514TIP3   OH243736   2.632   3.740  11.577
 6514TIP3    H143737   2.643   3.792  11.497
 6514TIP3    H243738   2.539   3.746  11.597
 6515TIP3   OH243739   3.930   2.152  10.348
 6515TIP3    H143740   3.844   2.181  10.378
 6515TIP3    H243741   3.972   2.231  10.315
 6516TIP3   OH243742   2.629   3.082  10.448
 6516TIP3    H143743   2.551   3.133  10.427
 6516TIP3    H243744   2.616   2.998  10.405
 6517TIP3   OH243745   4.140   3.748  10.263
 6517TIP3    H143746   4.173   3.836  10.243
 6517TIP3    H243747   4.215   3.691  10.253
 6518TIP3   OH243748   2.223   3.311  11.312
 6518TIP3    H143749   2.185   3.371  11.249
 6518TIP3    H243750   2.224   3.226  11.267
 6519TIP3   OH243751   2.178   3.739  11.110
 6519TIP3    H143752   2.256   3.766  11.160
 6519TIP3    H243753   2.114   3.808  11.126
 6520TIP3   OH243754   4.071   3.760  11.643
 6520TIP3    H143755   4.082   3.673  11.683
 6520TIP3    H243756   3.979   3.782  11.661
 6521TIP3   OH243757   3.042   3.690  11.483
 6521TIP3    H143758   3.053   3.762  11.545
 6521TIP3    H243759   2.964   3.644  11.513
 6522TIP3   OH243760   3.251   4.027  10.477
 6522TIP3    H143761   3.229   4.020  10.384
 6522TIP3    H243762   3.211   4.110  10.505
 6523TIP3   OH243763   2.531   3.915  10.680
 6523TIP3    H143764   2.552   3.878  10.766
 6523TIP3    H243765   2.464   3.857  10.644
 6524TIP3   OH243766   3.490   3.968  10.215
 6524TIP3    H143767   3.539   3.886  10.205
 6524TIP3    H243768   3.520   4.004  10.299
 6525TIP3   OH243769   3.529   4.042  10.481
 6525TIP3    H143770   3.434   4.041  10.486
 6525TIP3    H243771   3.557   3.970  10.537
 6526TIP3   OH243772   3.693   2.740  11.778
 6526TIP3    H143773   3.765   2.803  11.772
 6526TIP3    H243774   3.710   2.692  11.859
 6527TIP3   OH243775   2.480   3.333  11.423
 6527TIP3    H143776   2.469   3.304  11.513
 6527TIP3    H243777   2.391   3.334  11.387
 6528TIP3   OH243778   2.696   2.186  11.065
 6528TIP3    H143779   2.620   2.161  11.013
 6528TIP3    H243780   2.670   2.268  11.108
 6529TIP3   OH243781   3.156   2.242  11.526
 6529TIP3    H143782   3.163   2.154  11.563
 6529TIP3    H243783   3.072   2.241  11.479
 6530TIP3   OH243784   3.651   2.646  11.518
 6530TIP3    H143785   3.661   2.667  11.611
 6530TIP3    H243786   3.658   2.730  11.473
 6531TIP3   OH243787   3.650   3.189  10.153
 6531TIP3    H143788   3.615   3.270  10.118
 6531TIP3    H243789   3.712   3.216  10.221
 6532TIP3   OH243790   3.135   2.573  10.226
 6532TIP3    H143791   3.102   2.504  10.284
 6532TIP3    H243792   3.062   2.590  10.166
 6533TIP3   OH243793   2.646   2.765  11.139
 6533TIP3    H143794   2.603   2.752  11.224
 6533TIP3    H243795   2.646   2.859  11.126
 6534TIP3   OH243796   2.632   2.725  10.679
 6534TIP3    H143797   2.539   2.730  10.657
 6534TIP3    H243798   2.676   2.709  10.595
 6535TIP3   OH243799   3.241   2.810  10.574
 6535TIP3    H143800   3.224   2.902  10.552
 6535TIP3    H243801   3.320   2.788  10.526
 6536TIP3   OH243802   3.082   2.869  11.667
 6536TIP3    H143803   3.050   2.785  11.698
 6536TIP3    H243804   3.142   2.899  11.736
 6537TIP3   OH243805   3.290   2.711  10.824
 6537TIP3    H143806   3.267   2.758  10.744
 6537TIP3    H243807   3.355   2.646  10.796
 6538TIP3   OH243808   2.539   2.704  11.391
 6538TIP3    H143809   2.482   2.768  11.434
 6538TIP3    H243810   2.496   2.620  11.405
 6539TIP3   OH243811   2.880   2.601  10.119
 6539TIP3    H143812   2.832   2.540  10.175
 6539TIP3    H243813   2.852   2.579  10.030
 6540TIP3   OH243814   2.095   2.386  10.808
 6540TIP3    H143815   2.179   2.385  10.852
 6540TIP3    H243816   2.116   2.408  10.717
 6541TIP3   OH243817   2.164   2.598  10.322
 6541TIP3    H143818   2.247   2.631  10.287
 6541TIP3    H243819   2.105   2.673  10.319
 6542TIP3   OH243820   3.293   2.941  11.210
 6542TIP3    H143821   3.345   2.881  11.157
 6542TIP3    H243822   3.261   2.888  11.283
 6543TIP3   OH243823   2.976   2.486  10.786
 6543TIP3    H143824   2.882   2.468  10.789
 6543TIP3    H243825   3.016   2.401  10.806
 6544TIP3   OH243826   2.362   2.704  10.602
 6544TIP3    H143827   2.301   2.772  10.574
 6544TIP3    H243828   2.341   2.629  10.547
 6545TIP3   OH243829   2.766   2.661  10.448
 6545TIP3    H143830   2.859   2.670  10.467
 6545TIP3    H243831   2.746   2.735  10.391
 6546TIP3   OH243832   3.516   2.498  11.100
 6546TIP3    H143833   3.478   2.412  11.082
 6546TIP3    H243834   3.593   2.504  11.043
 6547TIP3   OH243835   2.625   2.850  10.292
 6547TIP3    H143836   2.541   2.809  10.274
 6547TIP3    H243837   2.662   2.869  10.206
 6548TIP3   OH243838   3.837   4.118  11.681
 6548TIP3    H143839   3.856   4.148  11.593
 6548TIP3    H243840   3.911   4.146  11.734
 6549TIP3   OH243841   2.456   3.200  11.683
 6549TIP3    H143842   2.528   3.228  11.741
 6549TIP3    H243843   2.378   3.239  11.722
 6550TIP3   OH243844   3.015   2.730  10.906
 6550TIP3    H143845   3.109   2.743  10.893
 6550TIP3    H243846   2.997   2.644  10.866
 6551TIP3   OH243847   2.578   2.277  10.626
 6551TIP3    H143848   2.523   2.205  10.656
 6551TIP3    H243849   2.556   2.287  10.533
 6552TIP3   OH243850   2.910   2.700  11.162
 6552TIP3    H143851   2.818   2.714  11.141
 6552TIP3    H243852   2.956   2.711  11.079
 6553TIP3   OH243853   3.057   3.273  10.382
 6553TIP3    H143854   2.991   3.229  10.328
 6553TIP3    H243855   3.007   3.322  10.447
 6554TIP3   OH243856   3.920   3.280  11.187
 6554TIP3    H143857   3.969   3.345  11.137
 6554TIP3    H243858   3.843   3.262  11.134
 6555TIP3   OH243859   3.364   2.515  10.371
 6555TIP3    H143860   3.294   2.534  10.308
 6555TIP3    H243861   3.404   2.600  10.388
 6556TIP3   OH243862   3.243   3.503  11.466
 6556TIP3    H143863   3.207   3.443  11.532
 6556TIP3    H243864   3.180   3.574  11.462
 6557TIP3   OH243865   3.483   2.755  10.441
 6557TIP3    H143866   3.565   2.731  10.483
 6557TIP3    H243867   3.503   2.832  10.389
 6558TIP3   OH243868   2.633   3.329  10.883
 6558TIP3    H143869   2.679   3.280  10.814
 6558TIP3    H243870   2.556   3.275  10.901
 6559TIP3   OH243871   3.297   3.414  10.328
 6559TIP3    H143872   3.255   3.499  10.313
 6559TIP3    H243873   3.224   3.352  10.332
 6560TIP3   OH243874   2.213   2.957  11.475
 6560TIP3    H143875   2.163   2.929  11.552
 6560TIP3    H243876   2.147   2.983  11.412
 6561TIP3   OH243877   2.910   3.086  11.643
 6561TIP3    H143878   2.851   3.061  11.572
 6561TIP3    H243879   2.978   3.019  11.643
 6562TIP3   OH243880   3.492   3.574  11.569
 6562TIP3    H143881   3.409   3.548  11.529
 6562TIP3    H243882   3.469   3.597  11.659
 6563TIP3   OH243883   4.101   2.768  10.372
 6563TIP3    H143884   4.008   2.747  10.360
 6563TIP3    H243885   4.108   2.859  10.341
 6564TIP3   OH243886   4.137   3.331  11.571
 6564TIP3    H143887   4.063   3.375  11.529
 6564TIP3    H243888   4.201   3.319  11.500
 6565TIP3   OH243889   3.889   3.752  10.371
 6565TIP3    H143890   3.889   3.677  10.430
 6565TIP3    H243891   3.972   3.746  10.324
 6566TIP3   OH243892   3.692   3.192  11.049
 6566TIP3    H143893   3.603   3.196  11.084
 6566TIP3    H243894   3.699   3.104  11.013
 6567TIP3   OH243895   2.805   3.602  10.711
 6567TIP3    H143896   2.816   3.690  10.676
 6567TIP3    H243897   2.710   3.591  10.719
 6568TIP3   OH243898   2.287   3.017  10.243
 6568TIP3    H143899   2.329   3.092  10.286
 6568TIP3    H243900   2.196   3.044  10.233
 6569TIP3   OH243901   2.876   3.379  10.563
 6569TIP3    H143902   2.865   3.454  10.621
 6569TIP3    H243903   2.835   3.306  10.610
 6570TIP3   OH243904   2.957   3.871  11.288
 6570TIP3    H143905   3.030   3.932  11.282
 6570TIP3    H243906   2.989   3.801  11.346
 6571TIP3   OH243907   2.799   3.863  10.619
 6571TIP3    H143908   2.709   3.895  10.628
 6571TIP3    H243909   2.853   3.938  10.645
 6572TIP3   OH243910   3.308   3.459  11.198
 6572TIP3    H143911   3.293   3.469  11.292
 6572TIP3    H243912   3.367   3.383  11.192
 6573TIP3   OH243913   3.581   3.460  10.267
 6573TIP3    H143914   3.636   3.410  10.326
 6573TIP3    H243915   3.491   3.437  10.293
 6574TIP3   OH243916   3.628   3.783  11.455
 6574TIP3    H143917   3.581   3.709  11.493
 6574TIP3    H243918   3.560   3.834  11.411
 6575TIP3   OH243919   4.187   4.039  10.264
 6575TIP3    H143920   4.234   4.121  10.278
 6575TIP3    H243921   4.095   4.064  10.261
 6576TIP3   OH243922   2.423   2.450  11.428
 6576TIP3    H143923   2.330   2.466  11.447
 6576TIP3    H243924   2.445   2.374  11.482
 6577TIP3   OH243925   3.791   3.265  10.376
 6577TIP3    H143926   3.746   3.208  10.438
 6577TIP3    H243927   3.882   3.267  10.407
 6578TIP3   OH243928   2.399   3.878  11.251
 6578TIP3    H143929   2.488   3.855  11.278
 6578TIP3    H243930   2.381   3.959  11.298
 6579TIP3   OH243931   2.746   3.541  10.370
 6579TIP3    H143932   2.795   3.482  10.427
 6579TIP3    H243933   2.802   3.619  10.364
 6580TIP3   OH243934   2.403   3.240  10.370
 6580TIP3    H143935   2.337   3.293  10.415
 6580TIP3    H243936   2.452   3.303  10.318
 6581TIP3   OH243937   3.469   2.482  11.387
 6581TIP3    H143938   3.532   2.540  11.429
 6581TIP3    H243939   3.488   2.490  11.293
 6582TIP3   OH243940   3.423   2.347  10.574
 6582TIP3    H143941   3.400   2.392  10.493
 6582TIP3    H243942   3.444   2.416  10.636
 6583TIP3   OH243943   3.160   3.653  10.338
 6583TIP3    H143944   3.071   3.682  10.353
 6583TIP3    H243945   3.211   3.692  10.410
 6584TIP3   OH243946   3.026   2.630  10.551
 6584TIP3    H143947   3.098   2.692  10.557
 6584TIP3    H243948   3.019   2.593  10.639
 6585TIP3   OH243949   3.165   2.783  11.420
 6585TIP3    H143950   3.156   2.825  11.506
 6585TIP3    H243951   3.208   2.700  11.439
 6586TIP3   OH243952   3.167   2.221  10.571
 6586TIP3    H143953   3.141   2.223  10.663
 6586TIP3    H243954   3.256   2.255  10.571
 6587TIP3   OH243955   2.911   3.768  10.386
 6587TIP3    H143956   2.921   3.848  10.334
 6587TIP3    H243957   2.876   3.798  10.470
 6588TIP3   OH243958   2.757   2.423  10.305
 6588TIP3    H143959   2.738   2.497  10.362
 6588TIP3    H243960   2.842   2.390  10.335
 6589TIP3   OH243961   3.823   2.426  11.486
 6589TIP3    H143962   3.755   2.491  11.505
 6589TIP3    H243963   3.888   2.475  11.436
 6590TIP3   OH243964   3.678   2.908  10.967
 6590TIP3    H143965   3.595   2.870  10.994
 6590TIP3    H243966   3.744   2.844  10.993
 6591TIP3   OH243967   2.536   3.438  10.229
 6591TIP3    H143968   2.599   3.486  10.282
 6591TIP3    H243969   2.589   3.388  10.167
 6592TIP3   OH243970   2.369   2.762  10.209
 6592TIP3    H143971   2.338   2.850  10.229
 6592TIP3    H243972   2.354   2.752  10.115
 6593TIP3   OH243973   3.810   3.934  11.038
 6593TIP3    H143974   3.800   4.004  10.974
 6593TIP3    H243975   3.900   3.941  11.069
 6594TIP3   OH243976   2.459   2.119  10.945
 6594TIP3    H143977   2.446   2.104  10.852
 6594TIP3    H243978   2.432   2.036  10.986
 6595TIP3   OH243979   2.266   3.683  10.586
 6595TIP3    H143980   2.241   3.726  10.667
 6595TIP3    H243981   2.274   3.754  10.522
 6596TIP3   OH243982   2.201   4.050  11.774
 6596TIP3    H143983   2.254   4.058  11.853
 6596TIP3    H243984   2.204   3.957  11.752
 6597TIP3   OH243985   2.701   3.937  11.779
 6597TIP3    H143986   2.773   3.914  11.837
 6597TIP3    H243987   2.694   3.863  11.719
 6598TIP3   OH243988   3.201   3.749  10.082
 6598TIP3    H143989   3.184   3.706  10.166
 6598TIP3    H243990   3.281   3.709  10.049
 6599TIP3   OH243991   3.429   3.649  11.830
 6599TIP3    H143992   3.437   3.576  11.891
 6599TIP3    H243993   3.499   3.709  11.854
 6600TIP3   OH243994   3.639   3.736  10.235
 6600TIP3    H143995   3.620   3.642  10.239
 6600TIP3    H243996   3.724   3.746  10.276
 6601TIP3   OH243997   2.225   3.322  11.795
 6601TIP3    H143998   2.166   3.280  11.857
 6601TIP3    H243999   2.175   3.330  11.714
 6602TIP3   OH244000   2.722   3.290  10.091
 6602TIP3    H144001   2.768   3.232  10.152
 6602TIP3    H244002   2.790   3.322  10.033
 6603TIP3   OH244003   2.886   3.361  11.728
 6603TIP3    H144004   2.868   3.417  11.653
 6603TIP3    H244005   2.907   3.275  11.690
 6604TIP3   OH244006   3.676   3.355  11.541
 6604TIP3    H144007   3.759   3.389  11.509
 6604TIP3    H244008   3.621   3.433  11.551
 6605TIP3   OH244009   2.424   2.924  11.808
 6605TIP3    H144010   2.441   2.994  11.745
 6605TIP3    H244011   2.387   2.968  11.885
 6606TIP3   OH244012   2.850   3.122  10.273
 6606TIP3    H144013   2.783   3.110  10.340
 6606TIP3    H244014   2.888   3.035  10.261
 6607TIP3   OH244015   2.763   2.991  11.414
 6607TIP3    H144016   2.671   2.982  11.439
 6607TIP3    H244017   2.764   3.061  11.348
 6608TIP3   OH244018   2.969   2.874  10.239
 6608TIP3    H144019   2.956   2.787  10.201
 6608TIP3    H244020   3.064   2.884  10.244
 6609TIP3   OH244021   3.395   3.181  11.909
 6609TIP3    H144022   3.484   3.147  11.898
 6609TIP3    H244023   3.338   3.108  11.884
 6610TIP3   OH244024   4.121   3.052  19.919
 6610TIP3    H144025   4.186   3.112  19.883
 6610TIP3    H244026   4.089   3.096  19.998
 6611TIP3   OH244027   2.810   2.674  11.456
 6611TIP3    H144028   2.824   2.581  11.440
 6611TIP3    H244029   2.715   2.685  11.452
 6612TIP3   OH244030   2.851   2.444  11.296
 6612TIP3    H144031   2.887   2.515  11.243
 6612TIP3    H244032   2.763   2.431  11.261
 6613TIP3   OH244033   3.019   3.016  11.241
 6613TIP3    H144034   3.111   3.017  11.214
 6613TIP3    H244035   2.984   3.099  11.211
 6614TIP3   OH244036   3.413   2.721  11.798
 6614TIP3    H144037   3.429   2.648  11.858
 6614TIP3    H244038   3.501   2.753  11.775
 6615TIP3   OH244039   3.708   3.092  11.606
 6615TIP3    H144040   3.683   3.182  11.585
 6615TIP3    H244041   3.804   3.094  11.610
 6616TIP3   OH244042   2.563   2.681  11.809
 6616TIP3    H144043   2.496   2.615  11.791
 6616TIP3    H244044   2.517   2.765  11.802
 6617TIP3   OH244045   2.907   2.190  11.391
 6617TIP3    H144046   2.893   2.280  11.361
 6617TIP3    H244047   2.826   2.144  11.369
 6618TIP3   OH244048   3.027   2.614  11.763
 6618TIP3    H144049   3.067   2.571  11.839
 6618TIP3    H244050   2.936   2.584  11.764
 6619TIP3   OH244051   3.257   2.579  11.610
 6619TIP3    H144052   3.172   2.580  11.655
 6619TIP3    H244053   3.315   2.629  11.667
 6620TIP3   OH244054   3.457   2.364  11.762
 6620TIP3    H144055   3.495   2.279  11.783
 6620TIP3    H244056   3.471   2.417  11.841
 6621TIP3   OH244057   2.383   2.461  11.774
 6621TIP3    H144058   2.392   2.389  11.711
 6621TIP3    H244059   2.420   2.427  11.855
 6622TIP3   OH244060   2.895   2.087  11.656
 6622TIP3    H144061   2.971   2.028  11.651
 6622TIP3    H244062   2.887   2.123  11.567
 6623TIP3   OH244063   2.933   2.248  11.877
 6623TIP3    H144064   2.925   2.190  11.801
 6623TIP3    H244065   2.873   2.320  11.859
 6624TIP3   OH244066   2.952   4.014  10.271
 6624TIP3    H144067   3.042   4.013  10.240
 6624TIP3    H244068   2.923   4.105  10.257
 6625TIP3   OH244069   2.286   3.556  10.199
 6625TIP3    H144070   2.376   3.528  10.214
 6625TIP3    H244071   2.270   3.537  10.107
 6626TIP3   OH244072   2.187   4.040  10.654
 6626TIP3    H144073   2.097   4.057  10.626
 6626TIP3    H244074   2.179   3.973  10.721
 6627TIP3   OH244075   2.223   3.829  10.832
 6627TIP3    H144076   2.183   3.777  10.902
 6627TIP3    H244077   2.285   3.886  10.878
 6628TIP3   OH244078   4.063   3.969  11.148
 6628TIP3    H144079   4.049   3.941  11.238
 6628TIP3    H244080   4.114   4.049  11.156
 6629TIP3   OH244081   4.002   3.892  11.404
 6629TIP3    H144082   3.950   3.818  11.372
 6629TIP3    H244083   4.047   3.858  11.481
 6630TIP3   OH244084   3.943   3.479  11.912
 6630TIP3    H144085   3.858   3.488  11.956
 6630TIP3    H244086   4.001   3.539  11.959
 6631TIP3   OH244087   4.060   3.220  10.469
 6631TIP3    H144088   4.125   3.290  10.479
 6631TIP3    H244089   4.074   3.164  10.546
 6632TIP3   OH244090   4.081   3.016  10.671
 6632TIP3    H144091   3.992   2.993  10.696
 6632TIP3    H244092   4.127   3.029  10.754
 6633TIP3   OH244093   4.085   3.469  11.070
 6633TIP3    H144094   4.170   3.433  11.045
 6633TIP3    H244095   4.097   3.564  11.067
 6634TIP3   OH244096   3.845   3.680  11.318
 6634TIP3    H144097   3.767   3.714  11.364
 6634TIP3    H244098   3.815   3.667  11.228
 6635TIP3   OH244099   4.102   3.031  10.275
 6635TIP3    H144100   4.055   3.063  10.198
 6635TIP3    H244101   4.083   3.095  10.343
 6636TIP3   OH244102   3.832   2.709  10.317
 6636TIP3    H144103   3.786   2.770  10.258
 6636TIP3    H244104   3.845   2.631  10.264
 6637TIP3   OH244105   3.800   2.928  10.712
 6637TIP3    H144106   3.781   2.840  10.679
 6637TIP3    H244107   3.758   2.930  10.799
 6638TIP3   OH244108   2.198   3.031  11.080
 6638TIP3    H144109   2.211   3.036  10.985
 6638TIP3    H244110   2.287   3.037  11.116
 6639TIP3   OH244111   3.982   3.102  11.622
 6639TIP3    H144112   4.027   3.019  11.610
 6639TIP3    H244113   4.046   3.169  11.595
 6640TIP3   OH244114   4.096   2.837  11.616
 6640TIP3    H144115   4.047   2.826  11.698
 6640TIP3    H244116   4.130   2.750  11.596
 6641TIP3   OH244117   3.880   2.492  10.160
 6641TIP3    H144118   3.959   2.444  10.184
 6641TIP3    H244119   3.841   2.440  10.089
 6642TIP3   OH244120   3.722   2.660  10.567
 6642TIP3    H144121   3.759   2.576  10.596
 6642TIP3    H244122   3.768   2.679  10.485
 6643TIP3   OH244123   3.868   2.710  11.028
 6643TIP3    H144124   3.955   2.737  10.998
 6643TIP3    H244125   3.869   2.724  11.122
 6644TIP3   OH244126   3.903   2.806  11.286
 6644TIP3    H144127   3.828   2.840  11.335
 6644TIP3    H244128   3.954   2.883  11.262
 6645TIP3   OH244129   2.173   2.476  11.554
 6645TIP3    H144130   2.215   2.498  11.637
 6645TIP3    H244131   2.113   2.405  11.575
 6646TIP3   OH244132   4.112   2.093  11.786
 6646TIP3    H144133   4.166   2.020  11.754
 6646TIP3    H244134   4.106   2.152  11.712
 6647TIP3   OH244135   3.806   2.404  10.653
 6647TIP3    H144136   3.884   2.356  10.681
 6647TIP3    H244137   3.761   2.343  10.595
 6648TIP3   OH244138   2.340   2.372  10.926
 6648TIP3    H144139   2.380   2.287  10.942
 6648TIP3    H244140   2.408   2.435  10.949
 6649TIP3   OH244141   2.078   2.781  11.009
 6649TIP3    H144142   2.152   2.742  10.961
 6649TIP3    H244143   2.113   2.862  11.046
 6650TIP3   OH244144   4.032   2.361  11.667
 6650TIP3    H144145   3.991   2.360  11.754
 6650TIP3    H244146   3.958   2.368  11.606
 6651TIP3   OH244147   4.106   2.357  10.242
 6651TIP3    H144148   4.165   2.282  10.244
 6651TIP3    H244149   4.162   2.433  10.258
 6652TIP3   OH244150   2.102   2.417  10.526
 6652TIP3    H144151   2.007   2.406  10.521
 6652TIP3    H244152   2.122   2.482  10.459
 6653TIP3   OH244153   3.769   3.970  10.693
 6653TIP3    H144154   3.843   3.981  10.633
 6653TIP3    H244155   3.778   4.041  10.756
 6654TIP3   OH244156   2.121   2.132  11.292
 6654TIP3    H144157   2.059   2.114  11.363
 6654TIP3    H244158   2.082   2.205  11.244
 6655TIP3   OH244159   2.218   3.775  11.750
 6655TIP3    H144160   2.133   3.747  11.718
 6655TIP3    H244161   2.246   3.706  11.810
 6656TIP3   OH244162   2.676   3.884  11.345
 6656TIP3    H144163   2.669   3.979  11.344
 6656TIP3    H244164   2.768   3.866  11.322
 6657TIP3   OH244165   3.107   3.910  11.641
 6657TIP3    H144166   3.124   3.866  11.725
 6657TIP3    H244167   3.189   3.956  11.621
 6658TIP3   OH244168   3.345   4.044  11.581
 6658TIP3    H144169   3.384   3.999  11.505
 6658TIP3    H244170   3.419   4.056  11.641
 6659TIP3   OH244171   3.961   2.041  11.494
 6659TIP3    H144172   3.897   2.079  11.433
 6659TIP3    H244173   3.977   1.953  11.459
 6660TIP3   OH244174   2.366   4.133  11.362
 6660TIP3    H144175   2.278   4.156  11.334
 6660TIP3    H244176   2.372   4.163  11.452
 6661TIP3   OH244177   2.651   4.156  11.319
 6661TIP3    H144178   2.557   4.164  11.332
 6661TIP3    H244179   2.667   4.195  11.233
 6662TIP3   OH244180   3.177   4.045  11.239
 6662TIP3    H144181   3.153   4.082  11.154
 6662TIP3    H244182   3.190   4.121  11.296
 6663TIP3   OH244183   3.418   3.927  11.330
 6663TIP3    H144184   3.337   3.962  11.294
 6663TIP3    H244185   3.487   3.978  11.287
 6664TIP3   OH244186   3.636   4.048  11.221
 6664TIP3    H144187   3.682   4.132  11.228
 6664TIP3    H244188   3.688   3.997  11.159
 6665TIP3   OH244189   2.401   3.968  10.992
 6665TIP3    H144190   2.387   3.946  11.083
 6665TIP3    H244191   2.479   3.919  10.967
 6666TIP3   OH244192   2.613   3.809  10.927
 6666TIP3    H144193   2.610   3.723  10.970
 6666TIP3    H244194   2.696   3.847  10.956
 6667TIP3   OH244195   2.863   3.882  11.031
 6667TIP3    H144196   2.894   3.798  10.998
 6667TIP3    H244197   2.888   3.883  11.123
 6668TIP3   OH244198   3.095   2.234  10.841
 6668TIP3    H144199   3.034   2.175  10.885
 6668TIP3    H244200   3.178   2.219  10.886
 6669TIP3   OH244201   3.797   2.115  10.873
 6669TIP3    H144202   3.866   2.173  10.841
 6669TIP3    H244203   3.715   2.158  10.847
 6670TIP3   OH244204   4.020   2.256  10.755
 6670TIP3    H144205   4.074   2.178  10.740
 6670TIP3    H244206   4.083   2.328  10.756
 6671TIP3   OH244207   2.412   2.059  10.683
 6671TIP3    H144208   2.318   2.048  10.667
 6671TIP3    H244209   2.449   1.972  10.665
 6672TIP3   OH244210   2.229   2.227  10.344
 6672TIP3    H144211   2.323   2.241  10.342
 6672TIP3    H244212   2.200   2.269  10.425
 6673TIP3   OH244213   2.866   2.052  10.656
 6673TIP3    H144214   2.940   2.081  10.603
 6673TIP3    H244215   2.802   2.123  10.648
 6674TIP3   OH244216   3.547   2.202  10.787
 6674TIP3    H144217   3.510   2.236  10.706
 6674TIP3    H244218   3.502   2.119  10.802
 6675TIP3   OH244219   3.677   2.223  10.476
 6675TIP3    H144220   3.596   2.273  10.475
 6675TIP3    H244221   3.650   2.132  10.477
 6676TIP3   OH244222   2.306   3.925  10.439
 6676TIP3    H144223   2.246   3.949  10.368
 6676TIP3    H244224   2.273   3.973  10.515
 6677TIP3   OH244225   2.511   2.268  10.355
 6677TIP3    H144226   2.524   2.175  10.340
 6677TIP3    H244227   2.589   2.309  10.315
 6678TIP3   OH244228   3.015   2.394  10.407
 6678TIP3    H144229   3.066   2.327  10.453
 6678TIP3    H244230   3.019   2.471  10.464
 6679TIP3   OH244231   3.218   3.996  10.200
 6679TIP3    H144232   3.313   4.005  10.196
 6679TIP3    H244233   3.199   3.919  10.146
 6680TIP3   OH244234   3.968   3.990  10.501
 6680TIP3    H144235   3.938   3.912  10.454
 6680TIP3    H244236   3.954   4.061  10.439
 6681TIP3   OH244237   2.424   2.228  11.619
 6681TIP3    H144238   2.365   2.159  11.652
 6681TIP3    H244239   2.508   2.208  11.660
 6682TIP3   OH244240   2.636   2.141  11.776
 6682TIP3    H144241   2.720   2.110  11.742
 6682TIP3    H244242   2.601   2.067  11.825
 6683TIP3   OH244243   2.536   4.067  10.355
 6683TIP3    H144244   2.462   4.014  10.384
 6683TIP3    H244245   2.606   4.003  10.340
 6684TIP3   OH244246   3.571   2.104  11.804
 6684TIP3    H144247   3.546   2.050  11.879
 6684TIP3    H244248   3.662   2.080  11.787
 6685TIP3   OH244249   3.807   3.843  11.656
 6685TIP3    H144250   3.751   3.826  11.580
 6685TIP3    H244251   3.819   3.938  11.656
 6686TIP3   OH244252   5.515   3.197  10.601
 6686TIP3    H144253   5.484   3.287  10.609
 6686TIP3    H244254   5.442   3.150  10.561
 6687TIP3   OH244255   5.509   3.147  11.157
 6687TIP3    H144256   5.513   3.075  11.220
 6687TIP3    H244257   5.458   3.112  11.084
 6688TIP3   OH244258   4.499   2.941  11.225
 6688TIP3    H144259   4.512   2.856  11.267
 6688TIP3    H244260   4.547   3.003  11.279
 6689TIP3   OH244261   5.773   3.428  10.905
 6689TIP3    H144262   5.775   3.346  10.955
 6689TIP3    H244263   5.790   3.496  10.970
 6690TIP3   OH244264   4.717   3.552  10.916
 6690TIP3    H144265   4.692   3.459  10.915
 6690TIP3    H244266   4.802   3.553  10.959
 6691TIP3   OH244267   4.216   2.729  10.622
 6691TIP3    H144268   4.193   2.811  10.666
 6691TIP3    H244269   4.178   2.737  10.535
 6692TIP3   OH244270   4.305   3.038  10.860
 6692TIP3    H144271   4.344   2.955  10.890
 6692TIP3    H244272   4.371   3.075  10.801
 6693TIP3   OH244273   5.445   4.031  10.867
 6693TIP3    H144274   5.479   3.970  10.802
 6693TIP3    H244275   5.450   3.983  10.950
 6694TIP3   OH244276   5.164   3.387  11.041
 6694TIP3    H144277   5.206   3.348  10.964
 6694TIP3    H244278   5.237   3.406  11.101
 6695TIP3   OH244279   6.097   2.339  11.204
 6695TIP3    H144280   6.093   2.416  11.261
 6695TIP3    H244281   6.127   2.373  11.120
 6696TIP3   OH244282   5.546   2.754  11.054
 6696TIP3    H144283   5.559   2.663  11.082
 6696TIP3    H244284   5.504   2.747  10.968
 6697TIP3   OH244285   4.731   2.552  10.761
 6697TIP3    H144286   4.723   2.624  10.698
 6697TIP3    H244287   4.759   2.477  10.709
 6698TIP3   OH244288   5.640   2.558  10.710
 6698TIP3    H144289   5.691   2.551  10.790
 6698TIP3    H244290   5.704   2.582  10.643
 6699TIP3   OH244291   4.406   2.816  10.994
 6699TIP3    H144292   4.441   2.861  11.071
 6699TIP3    H244293   4.462   2.739  10.983
 6700TIP3   OH244294   4.967   2.949  10.846
 6700TIP3    H144295   5.058   2.927  10.869
 6700TIP3    H244296   4.925   2.864  10.832
 6701TIP3   OH244297   6.078   2.561  11.372
 6701TIP3    H144298   6.044   2.650  11.358
 6701TIP3    H244299   6.164   2.575  11.411
 6702TIP3   OH244300   4.662   2.413  11.200
 6702TIP3    H144301   4.639   2.483  11.139
 6702TIP3    H244302   4.594   2.416  11.267
 6703TIP3   OH244303   5.422   3.466  10.579
 6703TIP3    H144304   5.404   3.444  10.487
 6703TIP3    H244305   5.393   3.557  10.588
 6704TIP3   OH244306   4.955   3.266  11.191
 6704TIP3    H144307   4.903   3.336  11.232
 6704TIP3    H244308   5.022   3.312  11.140
 6705TIP3   OH244309   5.774   2.557  10.945
 6705TIP3    H144310   5.722   2.529  11.021
 6705TIP3    H244311   5.844   2.610  10.983
 6706TIP3   OH244312   4.611   2.609  10.999
 6706TIP3    H144313   4.666   2.670  11.047
 6706TIP3    H244314   4.659   2.591  10.918
 6707TIP3   OH244315   4.808   3.465  11.323
 6707TIP3    H144316   4.784   3.556  11.306
 6707TIP3    H244317   4.728   3.424  11.357
 6708TIP3   OH244318   4.266   3.421  10.463
 6708TIP3    H144319   4.273   3.459  10.375
 6708TIP3    H244320   4.278   3.496  10.522
 6709TIP3   OH244321   5.793   3.650  11.076
 6709TIP3    H144322   5.699   3.653  11.094
 6709TIP3    H244323   5.816   3.738  11.046
 6710TIP3   OH244324   5.860   2.201  11.268
 6710TIP3    H144325   5.798   2.274  11.270
 6710TIP3    H244326   5.940   2.239  11.230
 6711TIP3   OH244327   4.965   2.047  10.931
 6711TIP3    H144328   4.958   1.955  10.957
 6711TIP3    H244329   4.899   2.092  10.983
 6712TIP3   OH244330   5.577   3.839  10.715
 6712TIP3    H144331   5.599   3.747  10.727
 6712TIP3    H244332   5.661   3.882  10.696
 6713TIP3   OH244333   5.638   3.576  10.719
 6713TIP3    H144334   5.577   3.516  10.676
 6713TIP3    H244335   5.689   3.521  10.778
 6714TIP3   OH244336   5.947   3.432  11.423
 6714TIP3    H144337   5.951   3.375  11.346
 6714TIP3    H244338   5.942   3.521  11.386
 6715TIP3   OH244339   5.314   3.058  10.462
 6715TIP3    H144340   5.249   3.126  10.443
 6715TIP3    H244341   5.334   3.020  10.376
 6716TIP3   OH244342   5.389   2.905  10.241
 6716TIP3    H144343   5.477   2.942  10.238
 6716TIP3    H244344   5.403   2.811  10.257
 6717TIP3   OH244345   6.090   3.041  11.314
 6717TIP3    H144346   6.045   3.119  11.282
 6717TIP3    H244347   6.162   3.028  11.252
 6718TIP3   OH244348   5.754   3.084  10.523
 6718TIP3    H144349   5.677   3.124  10.563
 6718TIP3    H244350   5.803   3.048  10.597
 6719TIP3   OH244351   5.713   2.883  11.480
 6719TIP3    H144352   5.720   2.966  11.527
 6719TIP3    H244353   5.644   2.898  11.415
 6720TIP3   OH244354   4.841   3.153  10.692
 6720TIP3    H144355   4.786   3.107  10.629
 6720TIP3    H244356   4.892   3.085  10.735
 6721TIP3   OH244357   4.989   3.585  10.958
 6721TIP3    H144358   4.996   3.580  10.863
 6721TIP3    H244359   5.052   3.521  10.991
 6722TIP3   OH244360   4.821   3.057  11.061
 6722TIP3    H144361   4.881   3.032  10.991
 6722TIP3    H244362   4.868   3.124  11.111
 6723TIP3   OH244363   5.533   3.656  11.155
 6723TIP3    H144364   5.495   3.726  11.207
 6723TIP3    H244365   5.476   3.581  11.171
 6724TIP3   OH244366   4.973   3.551  11.534
 6724TIP3    H144367   4.902   3.606  11.568
 6724TIP3    H244368   4.934   3.509  11.457
 6725TIP3   OH244369   5.657   2.976  10.287
 6725TIP3    H144370   5.692   3.010  10.369
 6725TIP3    H244371   5.679   3.043  10.222
 6726TIP3   OH244372   4.637   3.053  11.445
 6726TIP3    H144373   4.638   3.148  11.439
 6726TIP3    H244374   4.591   3.035  11.528
 6727TIP3   OH244375   5.364   3.763  10.551
 6727TIP3    H144376   5.439   3.776  10.609
 6727TIP3    H244377   5.340   3.851  10.524
 6728TIP3   OH244378   4.748   3.704  11.580
 6728TIP3    H144379   4.757   3.736  11.490
 6728TIP3    H244380   4.657   3.676  11.587
 6729TIP3   OH244381   6.018   2.135  10.320
 6729TIP3    H144382   5.930   2.162  10.345
 6729TIP3    H244383   6.060   2.216  10.289
 6730TIP3   OH244384   4.666   3.032  10.505
 6730TIP3    H144385   4.600   3.100  10.490
 6730TIP3    H244386   4.688   3.000  10.417
 6731TIP3   OH244387   6.216   3.760  10.246
 6731TIP3    H144388   6.244   3.849  10.225
 6731TIP3    H244389   6.296   3.707  10.237
 6732TIP3   OH244390   4.323   3.249  11.376
 6732TIP3    H144391   4.308   3.222  11.285
 6732TIP3    H244392   4.309   3.168  11.427
 6733TIP3   OH244393   4.183   3.736  11.061
 6733TIP3    H144394   4.258   3.749  11.119
 6733TIP3    H244395   4.126   3.811  11.078
 6734TIP3   OH244396   6.144   3.787  11.636
 6734TIP3    H144397   6.161   3.696  11.660
 6734TIP3    H244398   6.055   3.803  11.665
 6735TIP3   OH244399   5.209   3.687  11.493
 6735TIP3    H144400   5.205   3.773  11.534
 6735TIP3    H244401   5.127   3.645  11.516
 6736TIP3   OH244402   5.337   4.027  10.470
 6736TIP3    H144403   5.315   4.020  10.377
 6736TIP3    H244404   5.314   4.117  10.493
 6737TIP3   OH244405   4.581   3.936  10.677
 6737TIP3    H144406   4.613   3.904  10.762
 6737TIP3    H244407   4.519   3.869  10.648
 6738TIP3   OH244408   5.565   3.969  10.200
 6738TIP3    H144409   5.612   3.887  10.192
 6738TIP3    H244410   5.596   4.007  10.283
 6739TIP3   OH244411   5.621   4.051  10.459
 6739TIP3    H144412   5.530   4.032  10.482
 6739TIP3    H244413   5.672   4.010  10.529
 6740TIP3   OH244414   5.912   2.762  11.653
 6740TIP3    H144415   5.845   2.810  11.603
 6740TIP3    H244416   5.872   2.677  11.671
 6741TIP3   OH244417   4.586   3.329  11.438
 6741TIP3    H144418   4.578   3.346  11.532
 6741TIP3    H244419   4.496   3.317  11.408
 6742TIP3   OH244420   4.751   2.179  11.069
 6742TIP3    H144421   4.668   2.162  11.026
 6742TIP3    H244422   4.739   2.264  11.112
 6743TIP3   OH244423   5.253   2.185  11.413
 6743TIP3    H144424   5.297   2.145  11.488
 6743TIP3    H244425   5.160   2.188  11.438
 6744TIP3   OH244426   5.667   2.603  11.527
 6744TIP3    H144427   5.575   2.582  11.544
 6744TIP3    H244428   5.666   2.696  11.503
 6745TIP3   OH244429   5.731   3.203  10.150
 6745TIP3    H144430   5.686   3.284  10.127
 6745TIP3    H244431   5.796   3.229  10.215
 6746TIP3   OH244432   5.206   2.536  10.232
 6746TIP3    H144433   5.179   2.470  10.295
 6746TIP3    H244434   5.131   2.546  10.173
 6747TIP3   OH244435   4.768   2.788  11.141
 6747TIP3    H144436   4.727   2.784  11.227
 6747TIP3    H244437   4.776   2.882  11.123
 6748TIP3   OH244438   4.693   2.754  10.571
 6748TIP3    H144439   4.679   2.849  10.562
 6748TIP3    H244440   4.769   2.736  10.516
 6749TIP3   OH244441   5.351   2.797  10.559
 6749TIP3    H144442   5.331   2.889  10.539
 6749TIP3    H244443   5.429   2.778  10.507
 6750TIP3   OH244444   5.243   2.808  11.640
 6750TIP3    H144445   5.192   2.730  11.662
 6750TIP3    H244446   5.320   2.803  11.696
 6751TIP3   OH244447   5.429   2.713  10.806
 6751TIP3    H144448   5.398   2.751  10.725
 6751TIP3    H244449   5.496   2.650  10.779
 6752TIP3   OH244450   4.585   2.717  11.356
 6752TIP3    H144451   4.603   2.746  11.446
 6752TIP3    H244452   4.551   2.628  11.366
 6753TIP3   OH244453   4.951   2.516  10.120
 6753TIP3    H144454   4.902   2.475  10.192
 6753TIP3    H244455   4.908   2.484  10.041
 6754TIP3   OH244456   4.201   2.467  10.740
 6754TIP3    H144457   4.275   2.463  10.800
 6754TIP3    H244458   4.195   2.560  10.716
 6755TIP3   OH244459   4.281   2.567  10.318
 6755TIP3    H144460   4.362   2.611  10.293
 6755TIP3    H244461   4.218   2.637  10.333
 6756TIP3   OH244462   5.505   2.896  11.287
 6756TIP3    H144463   5.527   2.848  11.207
 6756TIP3    H244464   5.423   2.858  11.317
 6757TIP3   OH244465   5.165   2.425  10.792
 6757TIP3    H144466   5.142   2.452  10.881
 6757TIP3    H244467   5.185   2.332  10.799
 6758TIP3   OH244468   4.467   2.592  10.603
 6758TIP3    H144469   4.388   2.646  10.606
 6758TIP3    H244470   4.538   2.654  10.587
 6759TIP3   OH244471   4.924   2.681  10.434
 6759TIP3    H144472   5.000   2.661  10.489
 6759TIP3    H244473   4.960   2.729  10.360
 6760TIP3   OH244474   5.567   2.481  11.123
 6760TIP3    H144475   5.519   2.463  11.204
 6760TIP3    H244476   5.548   2.406  11.067
 6761TIP3   OH244477   4.723   2.910  10.261
 6761TIP3    H144478   4.658   2.840  10.266
 6761TIP3    H244479   4.727   2.933  10.168
 6762TIP3   OH244480   5.906   4.116  11.714
 6762TIP3    H144481   5.934   4.128  11.623
 6762TIP3    H244482   5.980   4.148  11.766
 6763TIP3   OH244483   4.544   3.364  11.711
 6763TIP3    H144484   4.613   3.342  11.773
 6763TIP3    H244485   4.463   3.334  11.754
 6764TIP3   OH244486   5.204   2.831  10.933
 6764TIP3    H144487   5.279   2.793  10.886
 6764TIP3    H244488   5.213   2.798  11.022
 6765TIP3   OH244489   4.722   2.318  10.593
 6765TIP3    H144490   4.773   2.241  10.619
 6765TIP3    H244491   4.761   2.344  10.509
 6766TIP3   OH244492   5.013   2.658  11.238
 6766TIP3    H144493   4.942   2.715  11.208
 6766TIP3    H244494   5.077   2.718  11.276
 6767TIP3   OH244495   5.133   3.252  10.381
 6767TIP3    H144496   5.069   3.203  10.330
 6767TIP3    H244497   5.081   3.303  10.443
 6768TIP3   OH244498   5.980   3.268  11.206
 6768TIP3    H144499   6.052   3.299  11.151
 6768TIP3    H244500   5.910   3.247  11.144
 6769TIP3   OH244501   5.440   2.497  10.379
 6769TIP3    H144502   5.369   2.511  10.316
 6769TIP3    H244503   5.487   2.581  10.380
 6770TIP3   OH244504   5.302   3.416  11.459
 6770TIP3    H144505   5.354   3.400  11.538
 6770TIP3    H244506   5.268   3.505  11.470
 6771TIP3   OH244507   5.581   2.737  10.407
 6771TIP3    H144508   5.657   2.694  10.446
 6771TIP3    H244509   5.616   2.815  10.366
 6772TIP3   OH244510   4.707   3.274  10.906
 6772TIP3    H144511   4.749   3.242  10.826
 6772TIP3    H244512   4.721   3.205  10.970
 6773TIP3   OH244513   5.357   3.412  10.317
 6773TIP3    H144514   5.310   3.495  10.308
 6773TIP3    H244515   5.287   3.346  10.324
 6774TIP3   OH244516   4.279   3.024  11.522
 6774TIP3    H144517   4.354   3.012  11.580
 6774TIP3    H244518   4.219   2.954  11.547
 6775TIP3   OH244519   5.090   3.044  11.670
 6775TIP3    H144520   5.055   3.062  11.583
 6775TIP3    H244521   5.144   2.966  11.659
 6776TIP3   OH244522   5.495   3.662  11.539
 6776TIP3    H144523   5.409   3.680  11.502
 6776TIP3    H244524   5.481   3.658  11.633
 6777TIP3   OH244525   6.142   2.813  10.318
 6777TIP3    H144526   6.051   2.785  10.302
 6777TIP3    H244527   6.145   2.903  10.286
 6778TIP3   OH244528   6.191   3.375  11.535
 6778TIP3    H144529   6.111   3.414  11.499
 6778TIP3    H244530   6.247   3.362  11.459
 6779TIP3   OH244531   5.964   3.746  10.348
 6779TIP3    H144532   5.968   3.667  10.401
 6779TIP3    H244533   6.047   3.748  10.301
 6780TIP3   OH244534   5.767   3.186  11.051
 6780TIP3    H144535   5.681   3.187  11.094
 6780TIP3    H244536   5.775   3.098  11.015
 6781TIP3   OH244537   4.885   3.598  10.694
 6781TIP3    H144538   4.878   3.687  10.659
 6781TIP3    H244539   4.809   3.590  10.752
 6782TIP3   OH244540   4.379   2.995  10.292
 6782TIP3    H144541   4.413   3.075  10.333
 6782TIP3    H244542   4.285   3.011  10.285
 6783TIP3   OH244543   4.949   3.373  10.550
 6783TIP3    H144544   4.936   3.451  10.604
 6783TIP3    H244545   4.912   3.302  10.602
 6784TIP3   OH244546   5.073   3.837  11.282
 6784TIP3    H144547   5.130   3.913  11.270
 6784TIP3    H244548   5.125   3.777  11.336
 6785TIP3   OH244549   4.845   3.860  10.603
 6785TIP3    H144550   4.758   3.898  10.616
 6785TIP3    H244551   4.905   3.926  10.639
 6786TIP3   OH244552   5.389   3.406  11.200
 6786TIP3    H144553   5.363   3.406  11.292
 6786TIP3    H244554   5.447   3.330  11.192
 6787TIP3   OH244555   5.631   3.460  10.256
 6787TIP3    H144556   5.678   3.416  10.328
 6787TIP3    H244557   5.539   3.441  10.274
 6788TIP3   OH244558   5.716   3.816  11.461
 6788TIP3    H144559   5.635   3.767  11.476
 6788TIP3    H244560   5.694   3.879  11.392
 6789TIP3   OH244561   6.250   4.051  10.248
 6789TIP3    H144562   6.300   4.132  10.260
 6789TIP3    H244563   6.159   4.079  10.248
 6790TIP3   OH244564   4.473   2.467  11.411
 6790TIP3    H144565   4.381   2.491  11.422
 6790TIP3    H244566   4.489   2.402  11.480
 6791TIP3   OH244567   5.887   3.267  10.364
 6791TIP3    H144568   5.846   3.207  10.427
 6791TIP3    H244569   5.977   3.278  10.397
 6792TIP3   OH244570   4.388   3.831  11.231
 6792TIP3    H144571   4.449   3.775  11.279
 6792TIP3    H244572   4.392   3.916  11.276
 6793TIP3   OH244573   4.851   3.513  10.328
 6793TIP3    H144574   4.888   3.467  10.403
 6793TIP3    H244575   4.891   3.600  10.331
 6794TIP3   OH244576   4.472   3.229  10.415
 6794TIP3    H144577   4.401   3.281  10.452
 6794TIP3    H244578   4.522   3.292  10.362
 6795TIP3   OH244579   5.412   2.407  11.342
 6795TIP3    H144580   5.418   2.442  11.431
 6795TIP3    H244581   5.359   2.328  11.350
 6796TIP3   OH244582   5.536   2.339  10.578
 6796TIP3    H144583   5.500   2.384  10.501
 6796TIP3    H244584   5.567   2.409  10.634
 6797TIP3   OH244585   5.223   3.650  10.341
 6797TIP3    H144586   5.134   3.681  10.352
 6797TIP3    H244587   5.272   3.690  10.413
 6798TIP3   OH244588   5.145   2.605  10.582
 6798TIP3    H144589   5.218   2.667  10.578
 6798TIP3    H244590   5.159   2.556  10.662
 6799TIP3   OH244591   5.276   2.755  11.368
 6799TIP3    H144592   5.260   2.784  11.458
 6799TIP3    H244593   5.292   2.661  11.375
 6800TIP3   OH244594   5.292   2.196  10.563
 6800TIP3    H144595   5.268   2.181  10.654
 6800TIP3    H244596   5.378   2.239  10.568
 6801TIP3   OH244597   4.969   3.763  10.375
 6801TIP3    H144598   4.986   3.843  10.326
 6801TIP3    H244599   4.928   3.792  10.456
 6802TIP3   OH244600   4.856   2.419  10.371
 6802TIP3    H144601   4.862   2.512  10.392
 6802TIP3    H244602   4.945   2.386  10.388
 6803TIP3   OH244603   5.900   2.458  11.557
 6803TIP3    H144604   5.814   2.496  11.537
 6803TIP3    H244605   5.958   2.494  11.490
 6804TIP3   OH244606   5.770   2.914  10.972
 6804TIP3    H144607   5.689   2.868  10.993
 6804TIP3    H244608   5.840   2.856  11.004
 6805TIP3   OH244609   4.590   3.431  10.258
 6805TIP3    H144610   4.658   3.483  10.300
 6805TIP3    H244611   4.638   3.377  10.194
 6806TIP3   OH244612   4.481   2.755  10.224
 6806TIP3    H144613   4.444   2.837  10.256
 6806TIP3    H244614   4.458   2.754  10.131
 6807TIP3   OH244615   5.890   3.912  11.047
 6807TIP3    H144616   5.883   3.985  10.986
 6807TIP3    H244617   5.984   3.903  11.062
 6808TIP3   OH244618   4.500   2.142  10.959
 6808TIP3    H144619   4.483   2.126  10.866
 6808TIP3    H244620   4.471   2.061  11.002
 6809TIP3   OH244621   4.310   3.675  10.579
 6809TIP3    H144622   4.290   3.719  10.662
 6809TIP3    H244623   4.325   3.747  10.517
 6810TIP3   OH244624   4.316   4.059  11.750
 6810TIP3    H144625   4.393   4.036  11.803
 6810TIP3    H244626   4.276   3.975  11.730
 6811TIP3   OH244627   4.765   3.817  11.832
 6811TIP3    H144628   4.841   3.776  11.873
 6811TIP3    H244629   4.764   3.782  11.743
 6812TIP3   OH244630   5.289   3.743  10.087
 6812TIP3    H144631   5.264   3.700  10.169
 6812TIP3    H244632   5.377   3.712  10.069
 6813TIP3   OH244633   5.453   3.656  11.814
 6813TIP3    H144634   5.451   3.581  11.873
 6813TIP3    H244635   5.534   3.702  11.837
 6814TIP3   OH244636   5.706   3.733  10.218
 6814TIP3    H144637   5.685   3.640  10.225
 6814TIP3    H244638   5.793   3.741  10.258
 6815TIP3   OH244639   4.284   3.320  11.811
 6815TIP3    H144640   4.239   3.259  11.869
 6815TIP3    H244641   4.230   3.325  11.733
 6816TIP3   OH244642   4.805   3.304  10.144
 6816TIP3    H144643   4.863   3.232  10.170
 6816TIP3    H244644   4.841   3.381  10.189
 6817TIP3   OH244645   4.993   3.392  11.760
 6817TIP3    H144646   4.998   3.438  11.676
 6817TIP3    H244647   5.052   3.316  11.749
 6818TIP3   OH244648   5.698   3.380  11.540
 6818TIP3    H144649   5.785   3.403  11.507
 6818TIP3    H244650   5.649   3.462  11.537
 6819TIP3   OH244651   4.497   2.983  11.685
 6819TIP3    H144652   4.543   2.899  11.682
 6819TIP3    H244653   4.479   2.996  11.778
 6820TIP3   OH244654   4.948   3.089  10.250
 6820TIP3    H144655   4.878   3.030  10.278
 6820TIP3    H244656   5.013   3.031  10.210
 6821TIP3   OH244657   4.863   2.883  11.423
 6821TIP3    H144658   4.783   2.935  11.434
 6821TIP3    H244659   4.932   2.948  11.414
 6822TIP3   OH244660   5.126   2.908  10.151
 6822TIP3    H144661   5.132   2.854  10.072
 6822TIP3    H244662   5.217   2.915  10.183
 6823TIP3   OH244663   5.416   3.216  11.875
 6823TIP3    H144664   5.506   3.182  11.868
 6823TIP3    H244665   5.363   3.138  11.892
 6824TIP3   OH244666   6.131   3.249  19.846
 6824TIP3    H144667   6.079   3.177  19.882
 6824TIP3    H244668   6.067   3.320  19.834
 6825TIP3   OH244669   4.877   2.635  11.560
 6825TIP3    H144670   4.878   2.567  11.493
 6825TIP3    H244671   4.879   2.717  11.511
 6826TIP3   OH244672   4.895   2.438  11.354
 6826TIP3    H144673   4.947   2.503  11.307
 6826TIP3    H244674   4.816   2.427  11.300
 6827TIP3   OH244675   5.045   3.098  11.395
 6827TIP3    H144676   5.133   3.134  11.400
 6827TIP3    H244677   5.001   3.151  11.329
 6828TIP3   OH244678   5.451   2.753  11.822
 6828TIP3    H144679   5.456   2.662  11.850
 6828TIP3    H244680   5.542   2.782  11.818
 6829TIP3   OH244681   5.763   3.122  11.617
 6829TIP3    H144682   5.727   3.207  11.592
 6829TIP3    H244683   5.857   3.130  11.602
 6830TIP3   OH244684   4.617   2.736  11.634
 6830TIP3    H144685   4.558   2.671  11.673
 6830TIP3    H244686   4.703   2.695  11.636
 6831TIP3   OH244687   4.968   2.177  11.436
 6831TIP3    H144688   4.947   2.269  11.418
 6831TIP3    H244689   4.893   2.129  11.403
 6832TIP3   OH244690   5.126   2.562  11.686
 6832TIP3    H144691   5.111   2.507  11.763
 6832TIP3    H244692   5.038   2.578  11.651
 6833TIP3   OH244693   5.400   2.516  11.599
 6833TIP3    H144694   5.308   2.527  11.624
 6833TIP3    H244695   5.441   2.479  11.677
 6834TIP3   OH244696   5.525   2.426  11.834
 6834TIP3    H144697   5.537   2.331  11.824
 6834TIP3    H244698   5.507   2.438  11.927
 6835TIP3   OH244699   4.413   2.583  11.758
 6835TIP3    H144700   4.435   2.498  11.797
 6835TIP3    H244701   4.394   2.639  11.833
 6836TIP3   OH244702   4.998   2.054  11.686
 6836TIP3    H144703   5.063   1.984  11.675
 6836TIP3    H244704   4.989   2.092  11.598
 6837TIP3   OH244705   4.894   2.206  11.883
 6837TIP3    H144706   4.930   2.149  11.815
 6837TIP3    H244707   4.958   2.278  11.890
 6838TIP3   OH244708   5.027   4.011  10.270
 6838TIP3    H144709   5.118   4.009  10.239
 6838TIP3    H244710   5.003   4.103  10.270
 6839TIP3   OH244711   4.340   3.545  10.219
 6839TIP3    H144712   4.429   3.516  10.238
 6839TIP3    H244713   4.330   3.535  10.125
 6840TIP3   OH244714   4.192   4.049  10.649
 6840TIP3    H144715   4.114   4.025  10.598
 6840TIP3    H244716   4.202   3.977  10.711
 6841TIP3   OH244717   4.269   3.835  10.810
 6841TIP3    H144718   4.223   3.783  10.876
 6841TIP3    H244719   4.335   3.883  10.860
 6842TIP3   OH244720   6.168   3.884  11.105
 6842TIP3    H144721   6.154   3.899  11.198
 6842TIP3    H244722   6.259   3.909  11.090
 6843TIP3   OH244723   6.102   3.874  11.373
 6843TIP3    H144724   6.041   3.804  11.352
 6843TIP3    H244725   6.139   3.849  11.458
 6844TIP3   OH244726   6.007   3.459  11.890
 6844TIP3    H144727   5.916   3.467  11.917
 6844TIP3    H244728   6.046   3.543  11.915
 6845TIP3   OH244729   6.153   3.252  10.453
 6845TIP3    H144730   6.221   3.318  10.463
 6845TIP3    H244731   6.164   3.194  10.529
 6846TIP3   OH244732   6.164   3.057  10.655
 6846TIP3    H144733   6.076   3.032  10.684
 6846TIP3    H244734   6.218   3.050  10.734
 6847TIP3   OH244735   6.213   3.355  11.084
 6847TIP3    H144736   6.248   3.352  10.995
 6847TIP3    H244737   6.223   3.446  11.111
 6848TIP3   OH244738   5.913   3.682  11.322
 6848TIP3    H144739   5.842   3.725  11.370
 6848TIP3    H244740   5.877   3.667  11.234
 6849TIP3   OH244741   6.154   3.079  10.239
 6849TIP3    H144742   6.098   3.121  10.174
 6849TIP3    H244743   6.151   3.139  10.314
 6850TIP3   OH244744   5.890   2.714  10.257
 6850TIP3    H144745   5.832   2.765  10.201
 6850TIP3    H244746   5.905   2.633  10.208
 6851TIP3   OH244747   5.903   2.956  10.726
 6851TIP3    H144748   5.913   2.862  10.706
 6851TIP3    H244749   5.856   2.957  10.810
 6852TIP3   OH244750   4.297   3.109  11.134
 6852TIP3    H144751   4.298   3.104  11.039
 6852TIP3    H244752   4.369   3.053  11.162
 6853TIP3   OH244753   6.035   3.145  11.569
 6853TIP3    H144754   6.057   3.091  11.492
 6853TIP3    H244755   6.084   3.226  11.555
 6854TIP3   OH244756   6.171   2.815  11.559
 6854TIP3    H144757   6.082   2.796  11.587
 6854TIP3    H244758   6.206   2.872  11.627
 6855TIP3   OH244759   5.937   2.477  10.128
 6855TIP3    H144760   6.018   2.433  10.154
 6855TIP3    H244761   5.891   2.413  10.075
 6856TIP3   OH244762   5.821   2.608  10.505
 6856TIP3    H144763   5.881   2.536  10.524
 6856TIP3    H244764   5.856   2.647  10.425
 6857TIP3   OH244765   5.952   2.729  11.066
 6857TIP3    H144766   6.045   2.732  11.043
 6857TIP3    H244767   5.950   2.747  11.160
 6858TIP3   OH244768   5.947   2.805  11.330
 6858TIP3    H144769   5.868   2.830  11.378
 6858TIP3    H244770   6.003   2.882  11.334
 6859TIP3   OH244771   4.197   2.572  11.577
 6859TIP3    H144772   4.273   2.581  11.634
 6859TIP3    H244773   4.148   2.498  11.613
 6860TIP3   OH244774   6.215   2.114  11.809
 6860TIP3    H144775   6.285   2.058  11.775
 6860TIP3    H244776   6.208   2.185  11.745
 6861TIP3   OH244777   5.978   2.373  10.544
 6861TIP3    H144778   6.005   2.319  10.619
 6861TIP3    H244779   5.911   2.321  10.500
 6862TIP3   OH244780   4.448   2.405  10.870
 6862TIP3    H144781   4.459   2.326  10.923
 6862TIP3    H244782   4.494   2.473  10.919
 6863TIP3   OH244783   4.117   2.819  11.001
 6863TIP3    H144784   4.212   2.813  11.000
 6863TIP3    H244785   4.098   2.892  11.060
 6864TIP3   OH244786   6.124   2.291  11.602
 6864TIP3    H144787   6.050   2.352  11.608
 6864TIP3    H244788   6.089   2.217  11.553
 6865TIP3   OH244789   6.171   2.357  10.219
 6865TIP3    H144790   6.244   2.297  10.234
 6865TIP3    H244791   6.207   2.444  10.237
 6866TIP3   OH244792   4.304   2.363  10.504
 6866TIP3    H144793   4.244   2.392  10.573
 6866TIP3    H244794   4.303   2.433  10.440
 6867TIP3   OH244795   5.806   3.973  10.653
 6867TIP3    H144796   5.885   3.973  10.600
 6867TIP3    H244797   5.830   4.021  10.732
 6868TIP3   OH244798   4.185   2.142  11.345
 6868TIP3    H144799   4.127   2.110  11.414
 6868TIP3    H244800   4.135   2.212  11.303
 6869TIP3   OH244801   4.491   3.611  11.598
 6869TIP3    H144802   4.397   3.622  11.610
 6869TIP3    H244803   4.511   3.528  11.640
 6870TIP3   OH244804   4.797   3.760  11.315
 6870TIP3    H144805   4.750   3.836  11.281
 6870TIP3    H244806   4.890   3.784  11.307
 6871TIP3   OH244807   5.209   3.939  11.616
 6871TIP3    H144808   5.207   3.898  11.703
 6871TIP3    H244809   5.291   3.988  11.615
 6872TIP3   OH244810   5.447   4.083  11.596
 6872TIP3    H144811   5.510   4.033  11.544
 6872TIP3    H244812   5.499   4.122  11.666
 6873TIP3   OH244813   6.007   2.077  11.467
 6873TIP3    H144814   5.945   2.117  11.407
 6873TIP3    H244815   6.003   1.983  11.448
 6874TIP3   OH244816   4.425   4.086  11.336
 6874TIP3    H144817   4.349   4.134  11.303
 6874TIP3    H244818   4.448   4.131  11.417
 6875TIP3   OH244819   4.672   3.994  11.234
 6875TIP3    H144820   4.591   4.030  11.270
 6875TIP3    H244821   4.711   4.067  11.186
 6876TIP3   OH244822   5.239   4.059  11.220
 6876TIP3    H144823   5.186   4.102  11.153
 6876TIP3    H244824   5.273   4.131  11.273
 6877TIP3   OH244825   5.464   3.896  11.280
 6877TIP3    H144826   5.389   3.953  11.261
 6877TIP3    H244827   5.540   3.950  11.260
 6878TIP3   OH244828   5.719   4.007  11.247
 6878TIP3    H144829   5.762   4.092  11.261
 6878TIP3    H244830   5.771   3.965  11.179
 6879TIP3   OH244831   4.450   3.949  10.986
 6879TIP3    H144832   4.426   3.914  11.072
 6879TIP3    H244833   4.536   3.911  10.968
 6880TIP3   OH244834   4.683   3.826  10.913
 6880TIP3    H144835   4.681   3.730  10.916
 6880TIP3    H244836   4.765   3.849  10.958
 6881TIP3   OH244837   4.939   3.843  11.040
 6881TIP3    H144838   4.958   3.757  11.003
 6881TIP3    H244839   4.980   3.843  11.126
 6882TIP3   OH244840   5.210   2.145  10.822
 6882TIP3    H144841   5.133   2.106  10.864
 6882TIP3    H244842   5.281   2.084  10.840
 6883TIP3   OH244843   5.868   2.066  10.870
 6883TIP3    H144844   5.937   2.120  10.833
 6883TIP3    H244845   5.788   2.117  10.857
 6884TIP3   OH244846   6.078   2.191  10.736
 6884TIP3    H144847   6.137   2.123  10.702
 6884TIP3    H244848   6.136   2.258  10.772
 6885TIP3   OH244849   4.450   2.133  10.683
 6885TIP3    H144850   4.359   2.102  10.682
 6885TIP3    H244851   4.502   2.054  10.671
 6886TIP3   OH244852   4.295   2.165  10.311
 6886TIP3    H144853   4.388   2.152  10.290
 6886TIP3    H244854   4.296   2.220  10.389
 6887TIP3   OH244855   4.897   2.104  10.663
 6887TIP3    H144856   4.982   2.115  10.620
 6887TIP3    H244857   4.918   2.089  10.755
 6888TIP3   OH244858   5.622   2.176  10.802
 6888TIP3    H144859   5.594   2.219  10.722
 6888TIP3    H244860   5.553   2.111  10.820
 6889TIP3   OH244861   5.770   2.222  10.436
 6889TIP3    H144862   5.700   2.279  10.468
 6889TIP3    H244863   5.731   2.135  10.433
 6890TIP3   OH244864   4.355   3.931  10.455
 6890TIP3    H144865   4.307   3.953  10.376
 6890TIP3    H244866   4.311   3.979  10.525
 6891TIP3   OH244867   4.566   2.134  10.295
 6891TIP3    H144868   4.577   2.039  10.305
 6891TIP3    H244869   4.655   2.167  10.279
 6892TIP3   OH244870   5.116   2.370  10.437
 6892TIP3    H144871   5.177   2.302  10.468
 6892TIP3    H244872   5.133   2.445  10.494
 6893TIP3   OH244873   5.292   3.995  10.194
 6893TIP3    H144874   5.387   4.009  10.187
 6893TIP3    H244875   5.275   3.916  10.144
 6894TIP3   OH244876   6.030   3.984  10.487
 6894TIP3    H144877   6.005   3.907  10.435
 6894TIP3    H244878   6.023   4.057  10.425
 6895TIP3   OH244879   4.468   2.269  11.615
 6895TIP3    H144880   4.388   2.241  11.660
 6895TIP3    H244881   4.539   2.234  11.667
 6896TIP3   OH244882   4.638   2.147  11.790
 6896TIP3    H144883   4.722   2.176  11.827
 6896TIP3    H244884   4.642   2.051  11.796
 6897TIP3   OH244885   4.591   4.070  10.366
 6897TIP3    H144886   4.518   4.019  10.401
 6897TIP3    H244887   4.662   4.007  10.355
 6898TIP3   OH244888   5.569   2.148  11.822
 6898TIP3    H144889   5.555   2.117  11.911
 6898TIP3    H244890   5.643   2.097  11.790
 6899TIP3   OH244891   5.874   3.840  11.690
 6899TIP3    H144892   5.822   3.831  11.611
 6899TIP3    H244893   5.880   3.935  11.704
 6900TIP3   OH244894   7.548   3.194  10.628
 6900TIP3    H144895   7.522   3.287  10.630
 6900TIP3    H244896   7.477   3.151  10.580
 6901TIP3   OH244897   7.217   3.022  11.072
 6901TIP3    H144898   7.310   3.004  11.081
 6901TIP3    H244899   7.186   2.958  11.008
 6902TIP3   OH244900   6.557   3.001  11.164
 6902TIP3    H144901   6.588   2.936  11.228
 6902TIP3    H244902   6.637   3.035  11.124
 6903TIP3   OH244903   7.853   3.461  10.911
 6903TIP3    H144904   7.939   3.433  10.941
 6903TIP3    H244905   7.837   3.544  10.957
 6904TIP3   OH244906   6.759   3.548  10.904
 6904TIP3    H144907   6.727   3.459  10.890
 6904TIP3    H244908   6.830   3.538  10.968
 6905TIP3   OH244909   6.305   2.837  10.541
 6905TIP3    H144910   6.268   2.916  10.580
 6905TIP3    H244911   6.254   2.822  10.462
 6906TIP3   OH244912   6.359   3.023  10.853
 6906TIP3    H144913   6.393   2.934  10.865
 6906TIP3    H244914   6.437   3.075  10.829
 6907TIP3   OH244915   7.585   3.954  10.851
 6907TIP3    H144916   7.619   3.894  10.784
 6907TIP3    H244917   7.550   3.896  10.919
 6908TIP3   OH244918   7.197   3.373  11.097
 6908TIP3    H144919   7.227   3.285  11.071
 6908TIP3    H244920   7.273   3.413  11.139
 6909TIP3   OH244921   8.154   2.365  11.164
 6909TIP3    H144922   8.143   2.437  11.226
 6909TIP3    H244923   8.173   2.408  11.081
 6910TIP3   OH244924   7.587   2.722  11.086
 6910TIP3    H144925   7.645   2.649  11.065
 6910TIP3    H244926   7.559   2.755  11.000
 6911TIP3   OH244927   6.832   2.506  10.778
 6911TIP3    H144928   6.817   2.590  10.735
 6911TIP3    H244929   6.777   2.444  10.731
 6912TIP3   OH244930   7.704   2.549  10.700
 6912TIP3    H144931   7.732   2.536  10.790
 6912TIP3    H244932   7.780   2.586  10.655
 6913TIP3   OH244933   6.467   2.767  10.891
 6913TIP3    H144934   6.536   2.724  10.943
 6913TIP3    H244935   6.482   2.736  10.802
 6914TIP3   OH244936   6.924   2.949  10.826
 6914TIP3    H144937   7.000   2.900  10.856
 6914TIP3    H244938   6.870   2.885  10.780
 6915TIP3   OH244939   8.120   2.567  11.347
 6915TIP3    H144940   8.085   2.656  11.337
 6915TIP3    H244941   8.186   2.575  11.415
 6916TIP3   OH244942   6.739   2.451  11.219
 6916TIP3    H144943   6.712   2.509  11.148
 6916TIP3    H244944   6.679   2.471  11.290
 6917TIP3   OH244945   7.495   3.470  10.587
 6917TIP3    H144946   7.477   3.449  10.496
 6917TIP3    H244947   7.457   3.557  10.600
 6918TIP3   OH244948   6.936   3.292  11.165
 6918TIP3    H144949   6.889   3.364  11.206
 6918TIP3    H244950   7.020   3.330  11.140
 6919TIP3   OH244951   7.772   2.541  10.964
 6919TIP3    H144952   7.771   2.459  11.013
 6919TIP3    H244953   7.844   2.592  11.003
 6920TIP3   OH244954   6.699   2.616  10.998
 6920TIP3    H144955   6.750   2.687  11.037
 6920TIP3    H244956   6.754   2.581  10.928
 6921TIP3   OH244957   6.817   3.514  11.292
 6921TIP3    H144958   6.820   3.609  11.289
 6921TIP3    H244959   6.726   3.494  11.317
 6922TIP3   OH244960   6.362   3.445  10.454
 6922TIP3    H144961   6.371   3.486  10.368
 6922TIP3    H244962   6.380   3.516  10.516
 6923TIP3   OH244963   7.831   3.700  11.060
 6923TIP3    H144964   7.738   3.707  11.080
 6923TIP3    H244965   7.860   3.789  11.041
 6924TIP3   OH244966   7.943   2.193  11.223
 6924TIP3    H144967   7.869   2.235  11.179
 6924TIP3    H244968   8.019   2.247  11.199
 6925TIP3   OH244969   7.045   2.083  10.942
 6925TIP3    H144970   7.039   1.992  10.970
 6925TIP3    H244971   6.977   2.128  10.992
 6926TIP3   OH244972   7.698   3.802  10.644
 6926TIP3    H144973   7.722   3.710  10.641
 6926TIP3    H244974   7.779   3.847  10.670
 6927TIP3   OH244975   7.758   3.538  10.657
 6927TIP3    H144976   7.676   3.493  10.640
 6927TIP3    H244977   7.790   3.500  10.739
 6928TIP3   OH244978   8.027   3.404  11.368
 6928TIP3    H144979   8.043   3.353  11.289
 6928TIP3    H244980   8.022   3.495  11.338
 6929TIP3   OH244981   7.368   3.055  10.460
 6929TIP3    H144982   7.306   3.126  10.442
 6929TIP3    H244983   7.371   3.003  10.380
 6930TIP3   OH244984   7.396   2.868  10.251
 6930TIP3    H144985   7.487   2.895  10.242
 6930TIP3    H244986   7.398   2.773  10.240
 6931TIP3   OH244987   8.163   3.017  11.240
 6931TIP3    H144988   8.127   3.101  11.213
 6931TIP3    H244989   8.229   2.997  11.173
 6932TIP3   OH244990   7.758   3.092  10.491
 6932TIP3    H144991   7.690   3.127  10.548
 6932TIP3    H244992   7.809   3.034  10.548
 6933TIP3   OH244993   7.774   2.878  11.503
 6933TIP3    H144994   7.759   2.969  11.531
 6933TIP3    H244995   7.696   2.856  11.452
 6934TIP3   OH244996   6.869   3.169  10.657
 6934TIP3    H144997   6.837   3.132  10.575
 6934TIP3    H244998   6.900   3.093  10.707
 6935TIP3   OH244999   7.030   3.577  10.996
 6935TIP3    H145000   7.043   3.579  10.901
 6935TIP3    H245001   7.094   3.514  11.028
 6936TIP3   OH245002   6.800   3.078  11.041
 6936TIP3    H145003   6.853   3.047  10.967
 6936TIP3    H245004   6.851   3.149  11.079
 6937TIP3   OH245005   7.566   3.714  11.133
 6937TIP3    H145006   7.535   3.777  11.198
 6937TIP3    H245007   7.510   3.637  11.147
 6938TIP3   OH245008   6.977   3.528  11.523
 6938TIP3    H145009   6.911   3.580  11.568
 6938TIP3    H245010   6.939   3.511  11.437
 6939TIP3   OH245011   7.663   2.966  10.265
 6939TIP3    H145012   7.687   3.018  10.342
 6939TIP3    H245013   7.707   3.009  10.192
 6940TIP3   OH245014   6.640   3.063  11.507
 6940TIP3    H145015   6.643   3.149  11.547
 6940TIP3    H245016   6.548   3.052  11.481
 6941TIP3   OH245017   7.437   3.768  10.550
 6941TIP3    H145018   7.528   3.776  10.581
 6941TIP3    H245019   7.407   3.859  10.542
 6942TIP3   OH245020   6.780   3.678  11.639
 6942TIP3    H145021   6.752   3.757  11.592
 6942TIP3    H245022   6.698   3.633  11.659
 6943TIP3   OH245023   8.070   2.137  10.320
 6943TIP3    H145024   7.983   2.170  10.341
 6943TIP3    H245025   8.120   2.215  10.293
 6944TIP3   OH245026   6.774   3.067  10.415
 6944TIP3    H145027   6.692   3.113  10.397
 6944TIP3    H245028   6.763   2.981  10.374
 6945TIP3   OH245029   8.153   3.766  10.176
 6945TIP3    H145030   8.166   3.861  10.173
 6945TIP3    H245031   8.236   3.730  10.145
 6946TIP3   OH245032   6.350   3.288  11.328
 6946TIP3    H145033   6.310   3.285  11.241
 6946TIP3    H245034   6.360   3.196  11.353
 6947TIP3   OH245035   6.254   3.616  11.147
 6947TIP3    H145036   6.330   3.645  11.198
 6947TIP3    H245037   6.205   3.696  11.130
 6948TIP3   OH245038   8.213   3.750  11.592
 6948TIP3    H145039   8.236   3.684  11.658
 6948TIP3    H245040   8.134   3.791  11.626
 6949TIP3   OH245041   7.196   3.702  11.526
 6949TIP3    H145042   7.183   3.766  11.596
 6949TIP3    H245043   7.121   3.643  11.533
 6950TIP3   OH245044   7.394   4.043  10.483
 6950TIP3    H145045   7.367   4.035  10.392
 6950TIP3    H245046   7.366   4.130  10.510
 6951TIP3   OH245047   6.633   3.909  10.663
 6951TIP3    H145048   6.647   3.880  10.753
 6951TIP3    H245049   6.581   3.839  10.623
 6952TIP3   OH245050   7.630   4.010  10.212
 6952TIP3    H145051   7.647   3.919  10.188
 6952TIP3    H245052   7.665   4.019  10.300
 6953TIP3   OH245053   7.670   4.037  10.490
 6953TIP3    H145054   7.574   4.040  10.491
 6953TIP3    H245055   7.692   3.957  10.537
 6954TIP3   OH245056   7.953   2.731  11.654
 6954TIP3    H145057   7.891   2.788  11.610
 6954TIP3    H245058   7.938   2.644  11.616
 6955TIP3   OH245059   6.559   3.463  11.387
 6955TIP3    H145060   6.575   3.435  11.477
 6955TIP3    H245061   6.489   3.406  11.356
 6956TIP3   OH245062   6.833   2.219  11.079
 6956TIP3    H145063   6.759   2.203  11.021
 6956TIP3    H245064   6.813   2.302  11.122
 6957TIP3   OH245065   7.321   2.192  11.393
 6957TIP3    H145066   7.355   2.148  11.471
 6957TIP3    H245067   7.229   2.208  11.413
 6958TIP3   OH245068   7.630   2.528  11.468
 6958TIP3    H145069   7.588   2.531  11.553
 6958TIP3    H245070   7.610   2.613  11.428
 6959TIP3   OH245071   7.814   3.140  10.106
 6959TIP3    H145072   7.791   3.192  10.029
 6959TIP3    H245073   7.825   3.205  10.176
 6960TIP3   OH245074   7.350   2.587  10.207
 6960TIP3    H145075   7.294   2.535  10.265
 6960TIP3    H245076   7.325   2.559  10.119
 6961TIP3   OH245077   6.831   2.813  11.146
 6961TIP3    H145078   6.773   2.810  11.221
 6961TIP3    H245079   6.829   2.905  11.117
 6962TIP3   OH245080   6.782   2.759  10.680
 6962TIP3    H145081   6.689   2.750  10.659
 6962TIP3    H245082   6.827   2.736  10.598
 6963TIP3   OH245083   7.429   2.809  10.579
 6963TIP3    H145084   7.405   2.897  10.550
 6963TIP3    H245085   7.507   2.787  10.528
 6964TIP3   OH245086   7.275   2.866  11.664
 6964TIP3    H145087   7.239   2.786  11.701
 6964TIP3    H245088   7.367   2.865  11.689
 6965TIP3   OH245089   7.577   2.776  10.813
 6965TIP3    H145090   7.513   2.806  10.749
 6965TIP3    H245091   7.611   2.694  10.777
 6966TIP3   OH245092   6.650   2.808  11.351
 6966TIP3    H145093   6.646   2.866  11.427
 6966TIP3    H245094   6.622   2.723  11.384
 6967TIP3   OH245095   6.903   2.623  10.135
 6967TIP3    H145096   6.905   2.550  10.197
 6967TIP3    H245097   6.879   2.583  10.051
 6968TIP3   OH245098   6.265   2.376  10.795
 6968TIP3    H145099   6.342   2.400  10.846
 6968TIP3    H245100   6.287   2.400  10.705
 6969TIP3   OH245101   6.300   2.590  10.302
 6969TIP3    H145102   6.385   2.627  10.276
 6969TIP3    H245103   6.242   2.666  10.307
 6970TIP3   OH245104   7.553   2.774  11.355
 6970TIP3    H145105   7.568   2.761  11.261
 6970TIP3    H245106   7.458   2.781  11.364
 6971TIP3   OH245107   7.112   2.537  10.789
 6971TIP3    H145108   7.017   2.522  10.790
 6971TIP3    H245109   7.150   2.450  10.802
 6972TIP3   OH245110   6.520   2.691  10.629
 6972TIP3    H145111   6.448   2.742  10.591
 6972TIP3    H245112   6.504   2.601  10.599
 6973TIP3   OH245113   6.933   2.669  10.467
 6973TIP3    H145114   7.027   2.682  10.480
 6973TIP3    H245115   6.907   2.735  10.404
 6974TIP3   OH245116   7.729   2.299  11.089
 6974TIP3    H145117   7.662   2.310  11.157
 6974TIP3    H245118   7.689   2.241  11.025
 6975TIP3   OH245119   6.771   2.816  10.287
 6975TIP3    H145120   6.679   2.790  10.274
 6975TIP3    H245121   6.819   2.766  10.222
 6976TIP3   OH245122   8.019   4.146  11.700
 6976TIP3    H145123   8.023   4.159  11.606
 6976TIP3    H245124   8.106   4.171  11.732
 6977TIP3   OH245125   6.597   3.318  11.637
 6977TIP3    H145126   6.662   3.345  11.702
 6977TIP3    H245127   6.513   3.336  11.679
 6978TIP3   OH245128   7.127   2.787  10.929
 6978TIP3    H145129   7.136   2.709  10.873
 6978TIP3    H245130   7.119   2.751  11.018
 6979TIP3   OH245131   6.656   2.350  10.624
 6979TIP3    H145132   6.611   2.271  10.654
 6979TIP3    H245133   6.661   2.340  10.529
 6980TIP3   OH245134   7.087   2.711  11.193
 6980TIP3    H145135   7.007   2.763  11.192
 6980TIP3    H245136   7.143   2.754  11.257
 6981TIP3   OH245137   7.197   3.260  10.388
 6981TIP3    H145138   7.131   3.223  10.330
 6981TIP3    H245139   7.147   3.311  10.452
 6982TIP3   OH245140   8.088   3.262  11.132
 6982TIP3    H145141   8.173   3.288  11.096
 6982TIP3    H245142   8.039   3.229  11.057
 6983TIP3   OH245143   7.595   2.519  10.314
 6983TIP3    H145144   7.513   2.538  10.269
 6983TIP3    H245145   7.618   2.601  10.358
 6984TIP3   OH245146   7.416   3.542  11.495
 6984TIP3    H145147   7.401   3.480  11.567
 6984TIP3    H245148   7.343   3.604  11.501
 6985TIP3   OH245149   7.665   2.751  10.437
 6985TIP3    H145150   7.753   2.732  10.472
 6985TIP3    H245151   7.679   2.824  10.376
 6986TIP3   OH245152   6.710   3.281  10.858
 6986TIP3    H145153   6.758   3.251  10.781
 6986TIP3    H245154   6.719   3.211  10.922
 6987TIP3   OH245155   7.420   3.416  10.328
 6987TIP3    H145156   7.373   3.499  10.317
 6987TIP3    H245157   7.350   3.350  10.337
 6988TIP3   OH245158   6.363   3.034  11.474
 6988TIP3    H145159   6.347   3.035  11.568
 6988TIP3    H245160   6.301   2.970  11.439
 6989TIP3   OH245161   7.089   3.073  11.682
 6989TIP3    H145162   7.018   3.036  11.629
 6989TIP3    H245163   7.161   3.011  11.672
 6990TIP3   OH245164   7.669   3.648  11.549
 6990TIP3    H145165   7.584   3.615  11.519
 6990TIP3    H245166   7.657   3.666  11.642
 6991TIP3   OH245167   8.087   2.760  10.351
 6991TIP3    H145168   8.094   2.695  10.281
 6991TIP3    H245169   8.065   2.842  10.306
 6992TIP3   OH245170   8.223   3.306  11.542
 6992TIP3    H145171   8.150   3.351  11.499
 6992TIP3    H245172   8.291   3.302  11.475
 6993TIP3   OH245173   8.007   3.757  10.409
 6993TIP3    H145174   7.951   3.680  10.416
 6993TIP3    H245175   8.051   3.747  10.324
 6994TIP3   OH245176   7.933   3.166  10.922
 6994TIP3    H145177   7.864   3.226  10.894
 6994TIP3    H245178   7.892   3.080  10.921
 6995TIP3   OH245179   6.962   3.600  10.721
 6995TIP3    H145180   6.955   3.687  10.681
 6995TIP3    H245181   6.880   3.589  10.768
 6996TIP3   OH245182   6.427   3.011  10.249
 6996TIP3    H145183   6.469   3.088  10.287
 6996TIP3    H245184   6.335   3.036  10.241
 6997TIP3   OH245185   7.017   3.385  10.557
 6997TIP3    H145186   7.009   3.459  10.618
 6997TIP3    H245187   6.966   3.315  10.597
 6998TIP3   OH245188   7.091   3.878  11.336
 6998TIP3    H145189   7.157   3.926  11.286
 6998TIP3    H245190   7.141   3.818  11.391
 6999TIP3   OH245191   6.910   3.857  10.621
 6999TIP3    H145192   6.820   3.887  10.629
 6999TIP3    H245193   6.962   3.923  10.668
 7000TIP3   OH245194   7.433   3.471  11.226
 7000TIP3    H145195   7.420   3.498  11.317
 7000TIP3    H245196   7.513   3.418  11.229
 7001TIP3   OH245197   7.678   3.485  10.243
 7001TIP3    H145198   7.741   3.424  10.281
 7001TIP3    H245199   7.593   3.451  10.270
 7002TIP3   OH245200   7.836   3.843  11.439
 7002TIP3    H145201   7.773   3.777  11.471
 7002TIP3    H245202   7.785   3.899  11.381
 7003TIP3   OH245203   8.207   4.037  10.181
 7003TIP3    H145204   8.282   4.092  10.157
 7003TIP3    H245205   8.150   4.095  10.232
 7004TIP3   OH245206   6.580   2.541  11.440
 7004TIP3    H145207   6.486   2.528  11.444
 7004TIP3    H245208   6.614   2.500  11.520
 7005TIP3   OH245209   7.859   3.291  10.331
 7005TIP3    H145210   7.820   3.231  10.394
 7005TIP3    H245211   7.953   3.286  10.347
 7006TIP3   OH245212   6.476   3.718  11.286
 7006TIP3    H145213   6.510   3.635  11.319
 7006TIP3    H245214   6.502   3.782  11.352
 7007TIP3   OH245215   6.892   3.543  10.360
 7007TIP3    H145216   6.937   3.485  10.421
 7007TIP3    H245217   6.943   3.624  10.361
 7008TIP3   OH245218   6.545   3.238  10.362
 7008TIP3    H145219   6.486   3.290  10.415
 7008TIP3    H245220   6.595   3.302  10.312
 7009TIP3   OH245221   7.544   2.328  11.286
 7009TIP3    H145222   7.571   2.392  11.353
 7009TIP3    H245223   7.465   2.288  11.324
 7010TIP3   OH245224   7.585   2.358  10.537
 7010TIP3    H145225   7.579   2.410  10.457
 7010TIP3    H245226   7.619   2.420  10.603
 7011TIP3   OH245227   7.291   3.657  10.344
 7011TIP3    H145228   7.201   3.687  10.356
 7011TIP3    H245229   7.339   3.695  10.418
 7012TIP3   OH245230   7.204   2.644  10.549
 7012TIP3    H145231   7.279   2.702  10.562
 7012TIP3    H245232   7.179   2.618  10.638
 7013TIP3   OH245233   7.271   2.763  11.406
 7013TIP3    H145234   7.265   2.819  11.483
 7013TIP3    H245235   7.258   2.674  11.440
 7014TIP3   OH245236   7.329   2.240  10.560
 7014TIP3    H145237   7.299   2.256  10.649
 7014TIP3    H245238   7.418   2.275  10.558
 7015TIP3   OH245239   7.043   3.776  10.392
 7015TIP3    H145240   7.055   3.857  10.344
 7015TIP3    H245241   7.001   3.802  10.474
 7016TIP3   OH245242   6.918   2.424  10.331
 7016TIP3    H145243   6.904   2.494  10.394
 7016TIP3    H245244   7.011   2.402  10.340
 7017TIP3   OH245245   7.907   2.493  11.519
 7017TIP3    H145246   7.815   2.490  11.493
 7017TIP3    H245247   7.955   2.503  11.436
 7018TIP3   OH245248   7.813   2.907  10.906
 7018TIP3    H145249   7.725   2.872  10.890
 7018TIP3    H245250   7.853   2.845  10.967
 7019TIP3   OH245251   6.675   3.444  10.226
 7019TIP3    H145252   6.740   3.489  10.280
 7019TIP3    H245253   6.727   3.398  10.160
 7020TIP3   OH245254   6.508   2.756  10.207
 7020TIP3    H145255   6.478   2.843  10.234
 7020TIP3    H245256   6.503   2.757  10.112
 7021TIP3   OH245257   7.936   3.964  11.064
 7021TIP3    H145258   7.933   4.034  10.999
 7021TIP3    H245259   8.029   3.959  11.089
 7022TIP3   OH245260   6.605   2.169  10.933
 7022TIP3    H145261   6.587   2.160  10.839
 7022TIP3    H245262   6.579   2.084  10.970
 7023TIP3   OH245263   6.405   3.701  10.585
 7023TIP3    H145264   6.361   3.735  10.662
 7023TIP3    H245265   6.400   3.772  10.521
 7024TIP3   OH245266   6.311   4.015  11.658
 7024TIP3    H145267   6.396   3.992  11.620
 7024TIP3    H245268   6.259   3.935  11.649
 7025TIP3   OH245269   6.802   3.765  11.901
 7025TIP3    H145270   6.885   3.733  11.937
 7025TIP3    H245271   6.808   3.746  11.808
 7026TIP3   OH245272   7.391   3.771  10.111
 7026TIP3    H145273   7.355   3.718  10.182
 7026TIP3    H245274   7.485   3.755  10.114
 7027TIP3   OH245275   7.624   3.698  11.823
 7027TIP3    H145276   7.627   3.616  11.872
 7027TIP3    H245277   7.694   3.751  11.861
 7028TIP3   OH245278   7.669   3.740  10.145
 7028TIP3    H145279   7.671   3.654  10.187
 7028TIP3    H245280   7.741   3.737  10.081
 7029TIP3   OH245281   6.343   3.359  11.763
 7029TIP3    H145282   6.281   3.302  11.808
 7029TIP3    H245283   6.300   3.380  11.680
 7030TIP3   OH245284   6.870   3.317  10.080
 7030TIP3    H145285   6.911   3.250  10.135
 7030TIP3    H245286   6.943   3.372  10.050
 7031TIP3   OH245287   7.040   3.352  11.728
 7031TIP3    H145288   7.029   3.397  11.644
 7031TIP3    H245289   7.065   3.263  11.704
 7032TIP3   OH245290   7.793   3.382  11.521
 7032TIP3    H145291   7.874   3.391  11.471
 7032TIP3    H245292   7.762   3.471  11.533
 7033TIP3   OH245293   6.275   2.999  11.742
 7033TIP3    H145294   6.288   2.968  11.831
 7033TIP3    H245295   6.220   3.077  11.751
 7034TIP3   OH245296   6.991   3.135  10.252
 7034TIP3    H145297   6.919   3.116  10.312
 7034TIP3    H245298   7.032   3.050  10.235
 7035TIP3   OH245299   6.904   2.952  11.500
 7035TIP3    H145300   6.817   2.993  11.501
 7035TIP3    H245301   6.944   2.984  11.419
 7036TIP3   OH245302   7.118   2.894  10.221
 7036TIP3    H145303   7.094   2.813  10.175
 7036TIP3    H245304   7.213   2.889  10.229
 7037TIP3   OH245305   7.558   3.249  11.801
 7037TIP3    H145306   7.626   3.211  11.745
 7037TIP3    H245307   7.515   3.174  11.841
 7038TIP3   OH245308   8.152   3.157  19.720
 7038TIP3    H145309   8.135   3.110  19.802
 7038TIP3    H245310   8.224   3.216  19.741
 7039TIP3   OH245311   6.946   2.679  11.568
 7039TIP3    H145312   6.950   2.626  11.489
 7039TIP3    H245313   6.933   2.768  11.536
 7040TIP3   OH245314   6.979   2.502  11.345
 7040TIP3    H145315   7.027   2.556  11.282
 7040TIP3    H245316   6.897   2.480  11.301
 7041TIP3   OH245317   7.021   3.049  11.270
 7041TIP3    H145318   7.095   3.036  11.210
 7041TIP3    H245319   6.986   3.135  11.248
 7042TIP3   OH245320   7.540   2.821  11.738
 7042TIP3    H145321   7.532   2.726  11.737
 7042TIP3    H245322   7.630   2.838  11.710
 7043TIP3   OH245323   7.799   3.132  11.636
 7043TIP3    H145324   7.788   3.219  11.596
 7043TIP3    H245325   7.893   3.116  11.634
 7044TIP3   OH245326   6.787   2.611  11.785
 7044TIP3    H145327   6.725   2.549  11.746
 7044TIP3    H245328   6.838   2.644  11.711
 7045TIP3   OH245329   7.040   2.230  11.426
 7045TIP3    H145330   7.023   2.322  11.408
 7045TIP3    H245331   6.963   2.184  11.393
 7046TIP3   OH245332   7.168   2.619  11.727
 7046TIP3    H145333   7.137   2.565  11.799
 7046TIP3    H245334   7.091   2.634  11.672
 7047TIP3   OH245335   7.505   2.547  11.718
 7047TIP3    H145336   7.414   2.532  11.745
 7047TIP3    H245337   7.556   2.482  11.767
 7048TIP3   OH245338   7.645   2.353  11.859
 7048TIP3    H145339   7.636   2.261  11.835
 7048TIP3    H245340   7.613   2.358  11.949
 7049TIP3   OH245341   6.631   2.397  11.683
 7049TIP3    H145342   6.601   2.316  11.642
 7049TIP3    H245343   6.658   2.371  11.771
 7050TIP3   OH245344   7.039   2.095  11.670
 7050TIP3    H145345   7.095   2.018  11.657
 7050TIP3    H245346   7.042   2.141  11.586
 7051TIP3   OH245347   7.130   2.224  11.897
 7051TIP3    H145348   7.101   2.175  11.820
 7051TIP3    H245349   7.083   2.307  11.892
 7052TIP3   OH245350   7.087   4.019  10.272
 7052TIP3    H145351   7.179   4.025  10.245
 7052TIP3    H245352   7.048   4.101  10.240
 7053TIP3   OH245353   6.426   3.564  10.207
 7053TIP3    H145354   6.516   3.536  10.219
 7053TIP3    H245355   6.405   3.543  10.116
 7054TIP3   OH245356   6.250   4.044  10.645
 7054TIP3    H145357   6.173   4.021  10.593
 7054TIP3    H245358   6.258   3.973  10.709
 7055TIP3   OH245359   6.290   3.829  10.816
 7055TIP3    H145360   6.212   3.795  10.859
 7055TIP3    H245361   6.353   3.842  10.887
 7056TIP3   OH245362   8.203   3.964  11.153
 7056TIP3    H145363   8.229   3.895  11.213
 7056TIP3    H245364   8.231   4.045  11.195
 7057TIP3   OH245365   8.257   3.742  11.312
 7057TIP3    H145366   8.170   3.704  11.296
 7057TIP3    H245367   8.263   3.746  11.407
 7058TIP3   OH245368   8.095   3.464  11.895
 7058TIP3    H145369   8.014   3.466  11.946
 7058TIP3    H245370   8.127   3.555  11.897
 7059TIP3   OH245371   8.121   3.211  10.381
 7059TIP3    H145372   8.206   3.254  10.375
 7059TIP3    H245373   8.123   3.168  10.467
 7060TIP3   OH245374   8.120   3.079  10.624
 7060TIP3    H145375   8.042   3.023  10.629
 7060TIP3    H245376   8.128   3.117  10.711
 7061TIP3   OH245377   8.350   3.329  11.063
 7061TIP3    H145378   8.428   3.290  11.023
 7061TIP3    H245379   8.363   3.423  11.053
 7062TIP3   OH245380   7.992   3.665  11.283
 7062TIP3    H145381   7.946   3.724  11.343
 7062TIP3    H245382   7.943   3.669  11.202
 7063TIP3   OH245383   8.023   2.996  10.228
 7063TIP3    H145384   7.955   3.034  10.174
 7063TIP3    H245385   8.062   3.070  10.274
 7064TIP3   OH245386   8.058   2.570  10.143
 7064TIP3    H145387   8.041   2.612  10.058
 7064TIP3    H245388   7.977   2.523  10.164
 7065TIP3   OH245389   7.902   2.915  10.648
 7065TIP3    H145390   7.913   2.823  10.624
 7065TIP3    H245391   7.873   2.912  10.739
 7066TIP3   OH245392   6.290   3.019  11.125
 7066TIP3    H145393   6.291   3.043  11.032
 7066TIP3    H245394   6.382   3.015  11.150
 7067TIP3   OH245395   8.077   3.092  11.638
 7067TIP3    H145396   8.127   3.011  11.627
 7067TIP3    H245397   8.131   3.160  11.600
 7068TIP3   OH245398   8.204   2.834  11.597
 7068TIP3    H145399   8.117   2.805  11.624
 7068TIP3    H245400   8.255   2.753  11.593
 7069TIP3   OH245401   7.834   2.429  10.205
 7069TIP3    H145402   7.835   2.343  10.248
 7069TIP3    H245403   7.749   2.466  10.228
 7070TIP3   OH245404   7.918   2.655  10.540
 7070TIP3    H145405   7.947   2.564  10.550
 7070TIP3    H245406   7.980   2.694  10.478
 7071TIP3   OH245407   7.951   2.721  11.066
 7071TIP3    H145408   8.040   2.730  11.031
 7071TIP3    H245409   7.959   2.748  11.158
 7072TIP3   OH245410   7.993   2.812  11.324
 7072TIP3    H145411   7.926   2.845  11.384
 7072TIP3    H245412   8.048   2.889  11.307
 7073TIP3   OH245413   6.315   2.489  11.523
 7073TIP3    H145414   6.313   2.541  11.603
 7073TIP3    H245415   6.262   2.411  11.543
 7074TIP3   OH245416   8.180   2.151  11.789
 7074TIP3    H145417   8.256   2.123  11.738
 7074TIP3    H245418   8.152   2.232  11.748
 7075TIP3   OH245419   7.990   2.387  10.563
 7075TIP3    H145420   8.019   2.333  10.636
 7075TIP3    H245421   7.933   2.330  10.511
 7076TIP3   OH245422   6.495   2.427  10.935
 7076TIP3    H145423   6.537   2.341  10.944
 7076TIP3    H245424   6.563   2.489  10.959
 7077TIP3   OH245425   6.220   2.764  11.031
 7077TIP3    H145426   6.298   2.743  10.978
 7077TIP3    H245427   6.243   2.846  11.075
 7078TIP3   OH245428   8.090   2.396  11.703
 7078TIP3    H145429   8.034   2.410  11.779
 7078TIP3    H245430   8.034   2.419  11.628
 7079TIP3   OH245431   8.215   2.361  10.233
 7079TIP3    H145432   8.287   2.351  10.170
 7079TIP3    H245433   8.165   2.436  10.200
 7080TIP3   OH245434   6.264   2.414  10.514
 7080TIP3    H145435   6.168   2.406  10.518
 7080TIP3    H245436   6.279   2.481  10.448
 7081TIP3   OH245437   7.908   3.954  10.711
 7081TIP3    H145438   7.982   3.962  10.651
 7081TIP3    H245439   7.921   4.024  10.775
 7082TIP3   OH245440   6.241   2.116  11.306
 7082TIP3    H145441   6.177   2.104  11.376
 7082TIP3    H245442   6.211   2.195  11.260
 7083TIP3   OH245443   6.510   3.640  11.682
 7083TIP3    H145444   6.517   3.720  11.630
 7083TIP3    H245445   6.453   3.665  11.756
 7084TIP3   OH245446   6.828   3.793  11.319
 7084TIP3    H145447   6.762   3.840  11.370
 7084TIP3    H245448   6.911   3.835  11.341
 7085TIP3   OH245449   7.211   3.924  11.702
 7085TIP3    H145450   7.254   3.889  11.780
 7085TIP3    H245451   7.282   3.962  11.650
 7086TIP3   OH245452   7.422   4.024  11.549
 7086TIP3    H145453   7.445   3.974  11.470
 7086TIP3    H245454   7.507   4.042  11.591
 7087TIP3   OH245455   8.064   2.066  11.439
 7087TIP3    H145456   8.011   2.101  11.367
 7087TIP3    H245457   8.077   1.974  11.416
 7088TIP3   OH245458   6.541   4.186  11.408
 7088TIP3    H145459   6.448   4.198  11.387
 7088TIP3    H245460   6.547   4.094  11.436
 7089TIP3   OH245461   6.820   4.186  11.364
 7089TIP3    H145462   6.727   4.182  11.386
 7089TIP3    H245463   6.822   4.190  11.269
 7090TIP3   OH245464   7.273   4.050  11.188
 7090TIP3    H145465   7.199   4.064  11.129
 7090TIP3    H245466   7.274   4.128  11.243
 7091TIP3   OH245467   7.496   3.928  11.299
 7091TIP3    H145468   7.425   3.969  11.249
 7091TIP3    H245469   7.574   3.976  11.272
 7092TIP3   OH245470   7.747   4.035  11.251
 7092TIP3    H145471   7.769   4.128  11.260
 7092TIP3    H245472   7.803   4.004  11.180
 7093TIP3   OH245473   6.449   3.867  11.046
 7093TIP3    H145474   6.461   3.822  11.130
 7093TIP3    H245475   6.533   3.855  11.001
 7094TIP3   OH245476   6.685   3.811  10.913
 7094TIP3    H145477   6.694   3.716  10.906
 7094TIP3    H245478   6.764   3.839  10.958
 7095TIP3   OH245479   6.920   3.828  11.058
 7095TIP3    H145480   6.968   3.747  11.039
 7095TIP3    H245481   6.889   3.817  11.148
 7096TIP3   OH245482   7.223   2.271  10.825
 7096TIP3    H145483   7.158   2.210  10.862
 7096TIP3    H245484   7.288   2.281  10.895
 7097TIP3   OH245485   7.921   2.076  10.882
 7097TIP3    H145486   7.983   2.143  10.851
 7097TIP3    H245487   7.840   2.125  10.898
 7098TIP3   OH245488   8.113   2.237  10.763
 7098TIP3    H145489   8.173   2.165  10.746
 7098TIP3    H245490   8.170   2.311  10.784
 7099TIP3   OH245491   6.533   2.098  10.677
 7099TIP3    H145492   6.440   2.077  10.665
 7099TIP3    H245493   6.578   2.015  10.661
 7100TIP3   OH245494   6.386   2.224  10.337
 7100TIP3    H145495   6.480   2.240  10.335
 7100TIP3    H245496   6.355   2.273  10.414
 7101TIP3   OH245497   7.049   2.017  10.670
 7101TIP3    H145498   7.112   2.078  10.630
 7101TIP3    H245499   7.045   2.043  10.762
 7102TIP3   OH245500   7.640   2.125  10.894
 7102TIP3    H145501   7.609   2.132  10.804
 7102TIP3    H245502   7.620   2.035  10.919
 7103TIP3   OH245503   7.811   2.229  10.413
 7103TIP3    H145504   7.737   2.276  10.453
 7103TIP3    H245505   7.783   2.138  10.410
 7104TIP3   OH245506   6.412   3.944  10.443
 7104TIP3    H145507   6.362   3.967  10.364
 7104TIP3    H245508   6.367   3.990  10.514
 7105TIP3   OH245509   6.667   2.274  10.357
 7105TIP3    H145510   6.681   2.179  10.356
 7105TIP3    H245511   6.752   2.311  10.332
 7106TIP3   OH245512   7.199   2.425  10.382
 7106TIP3    H145513   7.238   2.353  10.431
 7106TIP3    H245514   7.199   2.498  10.444
 7107TIP3   OH245515   7.355   4.024  10.206
 7107TIP3    H145516   7.446   4.051  10.197
 7107TIP3    H245517   7.350   3.940  10.161
 7108TIP3   OH245518   8.108   3.982  10.521
 7108TIP3    H145519   8.080   3.897  10.487
 7108TIP3    H245520   8.097   4.042  10.447
 7109TIP3   OH245521   6.573   2.126  11.624
 7109TIP3    H145522   6.509   2.063  11.658
 7109TIP3    H245523   6.654   2.104  11.671
 7110TIP3   OH245524   6.792   2.053  11.785
 7110TIP3    H145525   6.876   2.071  11.744
 7110TIP3    H245526   6.800   1.964  11.819
 7111TIP3   OH245527   6.659   4.061  10.369
 7111TIP3    H145528   6.579   4.016  10.396
 7111TIP3    H245529   6.728   3.994  10.376
 7112TIP3   OH245530   7.659   2.081  11.773
 7112TIP3    H145531   7.655   2.023  11.849
 7112TIP3    H245532   7.748   2.072  11.740
 7113TIP3   OH245533   7.975   3.872  11.681
 7113TIP3    H145534   7.926   3.863  11.600
 7113TIP3    H245535   7.991   3.966  11.690
 7114TIP3   OH245536   8.292   2.895  10.500
 7114TIP3    H145537   8.235   2.958  10.544
 7114TIP3    H245538   8.232   2.838  10.451
 7115TIP3   OH245539   8.398   3.271  11.333
 7115TIP3    H145540   8.376   3.283  11.240
 7115TIP3    H245541   8.395   3.176  11.346
 7116TIP3   OH245542   8.382   3.615  11.071
 7116TIP3    H145543   0.027   3.634  11.065
 7116TIP3    H245544   8.355   3.654  11.155
 7117TIP3   OH245545   8.274   2.459  10.779
 7117TIP3    H145546   8.367   2.465  10.801
 7117TIP3    H245547   8.271   2.472  10.684
 7118TIP3   OH245548   8.356   3.005  11.436
 7118TIP3    H145549   8.321   2.949  11.506
 7118TIP3    H245550   8.289   3.001  11.368
 7119TIP3   OH245551   8.393   3.293  11.767
 7119TIP3    H145552   8.331   3.317  11.836
 7119TIP3    H245553   8.341   3.297  11.687
 7120TIP3   OH245554   8.277   4.068  10.719
 7120TIP3    H145555   8.223   4.030  10.650
 7120TIP3    H245556   8.283   3.999  10.785
 7121TIP3   OH245557   8.300   3.869  10.911
 7121TIP3    H145558   8.313   3.776  10.932
 7121TIP3    H245559   8.264   3.907  10.991
 7122TIP3   OH245560   8.376   2.971  11.067
 7122TIP3    H145561   8.434   2.895  11.062
 7122TIP3    H245562   8.431   3.045  11.044
 7123TIP3   OH245563   8.296   2.564  11.568
 7123TIP3    H145564   8.385   2.529  11.571
 7123TIP3    H245565   8.246   2.506  11.627
 7124TIP3   OH245566   8.208   2.756  10.981
 7124TIP3    H145567   8.267   2.704  10.927
 7124TIP3    H245568   8.260   2.833  11.007
 7125TIP3   OH245569   8.256   2.436  10.496
 7125TIP3    H145570   8.164   2.429  10.521
 7125TIP3    H245571   8.258   2.410  10.404
 7126TIP3   OH245572   8.285   2.145  11.273
 7126TIP3    H145573   8.228   2.128  11.348
 7126TIP3    H245574   8.249   2.223  11.231
 7127TIP3   OH245575   1.373   5.270  10.577
 7127TIP3    H145576   1.336   5.356  10.595
 7127TIP3    H245577   1.301   5.221  10.536
 7128TIP3   OH245578   1.379   5.199  11.132
 7128TIP3    H145579   1.391   5.131  11.198
 7128TIP3    H245580   1.308   5.168  11.077
 7129TIP3   OH245581   0.317   5.097  11.187
 7129TIP3    H145582   0.338   5.007  11.210
 7129TIP3    H245583   0.330   5.147  11.267
 7130TIP3   OH245584   1.585   5.529  10.901
 7130TIP3    H145585   1.606   5.447  10.946
 7130TIP3    H245586   1.616   5.597  10.960
 7131TIP3   OH245587   0.517   5.685  11.058
 7131TIP3    H145588   0.510   5.627  11.133
 7131TIP3    H245589   0.607   5.676  11.028
 7132TIP3   OH245590   0.159   4.907  10.494
 7132TIP3    H145591   0.182   4.976  10.432
 7132TIP3    H245592   0.064   4.913  10.501
 7133TIP3   OH245593   0.256   5.028  10.768
 7133TIP3    H145594   0.251   4.947  10.819
 7133TIP3    H245595   0.210   5.007  10.686
 7134TIP3   OH245596   1.392   6.026  10.910
 7134TIP3    H145597   1.408   5.974  10.831
 7134TIP3    H245598   1.380   5.961  10.979
 7135TIP3   OH245599   0.999   5.519  11.049
 7135TIP3    H145600   1.046   5.473  10.980
 7135TIP3    H245601   1.068   5.558  11.103
 7136TIP3   OH245602   1.962   4.407  11.199
 7136TIP3    H145603   1.957   4.488  11.250
 7136TIP3    H245604   1.994   4.434  11.113
 7137TIP3   OH245605   1.426   4.849  11.014
 7137TIP3    H145606   1.481   4.771  11.006
 7137TIP3    H245607   1.358   4.838  10.949
 7138TIP3   OH245608   0.635   4.585  10.711
 7138TIP3    H145609   0.654   4.651  10.644
 7138TIP3    H245610   0.563   4.535  10.676
 7139TIP3   OH245611   1.483   4.621  10.714
 7139TIP3    H145612   1.528   4.620  10.798
 7139TIP3    H245613   1.550   4.651  10.651
 7140TIP3   OH245614   0.246   4.787  10.896
 7140TIP3    H145615   0.329   4.746  10.920
 7140TIP3    H245616   0.201   4.722  10.842
 7141TIP3   OH245617   0.812   5.018  10.840
 7141TIP3    H145618   0.886   4.958  10.849
 7141TIP3    H245619   0.738   4.962  10.819
 7142TIP3   OH245620   1.952   4.644  11.339
 7142TIP3    H145621   1.917   4.733  11.331
 7142TIP3    H245622   2.013   4.649  11.412
 7143TIP3   OH245623   0.533   4.525  11.191
 7143TIP3    H145624   0.516   4.580  11.115
 7143TIP3    H245625   0.460   4.545  11.251
 7144TIP3   OH245626   1.257   5.534  10.577
 7144TIP3    H145627   1.229   5.506  10.489
 7144TIP3    H245628   1.236   5.627  10.580
 7145TIP3   OH245629   0.820   5.362  11.210
 7145TIP3    H145630   0.764   5.427  11.251
 7145TIP3    H245631   0.884   5.413  11.160
 7146TIP3   OH245632   1.598   4.637  10.964
 7146TIP3    H145633   1.595   4.554  11.012
 7146TIP3    H245634   1.679   4.678  10.994
 7147TIP3   OH245635   0.508   4.665  10.948
 7147TIP3    H145636   0.554   4.742  10.982
 7147TIP3    H245637   0.557   4.641  10.869
 7148TIP3   OH245638   0.667   5.583  11.319
 7148TIP3    H145639   0.661   5.679  11.321
 7148TIP3    H245640   0.580   5.552  11.345
 7149TIP3   OH245641   0.209   5.583  10.426
 7149TIP3    H145642   0.210   5.600  10.332
 7149TIP3    H245643   0.213   5.669  10.467
 7150TIP3   OH245644   1.632   5.764  11.056
 7150TIP3    H145645   1.540   5.789  11.065
 7150TIP3    H245646   1.675   5.844  11.025
 7151TIP3   OH245647   1.731   4.248  11.240
 7151TIP3    H145648   1.668   4.293  11.184
 7151TIP3    H245649   1.813   4.296  11.226
 7152TIP3   OH245650   0.841   4.148  10.971
 7152TIP3    H145651   0.829   4.056  10.995
 7152TIP3    H245652   0.769   4.194  11.014
 7153TIP3   OH245653   1.468   5.885  10.673
 7153TIP3    H145654   1.489   5.791  10.666
 7153TIP3    H245655   1.553   5.927  10.681
 7154TIP3   OH245656   1.512   5.618  10.653
 7154TIP3    H145657   1.432   5.569  10.635
 7154TIP3    H245658   1.544   5.581  10.736
 7155TIP3   OH245659   1.846   5.518  11.419
 7155TIP3    H145660   1.842   5.456  11.347
 7155TIP3    H245661   1.824   5.603  11.380
 7156TIP3   OH245662   1.170   5.133  10.442
 7156TIP3    H145663   1.094   5.188  10.426
 7156TIP3    H245664   1.195   5.102  10.355
 7157TIP3   OH245665   1.269   4.992  10.220
 7157TIP3    H145666   1.360   5.021  10.223
 7157TIP3    H245667   1.273   4.899  10.241
 7158TIP3   OH245668   1.945   5.150  11.311
 7158TIP3    H145669   1.898   5.225  11.275
 7158TIP3    H245670   2.025   5.145  11.259
 7159TIP3   OH245671   1.618   5.163  10.510
 7159TIP3    H145672   1.538   5.200  10.547
 7159TIP3    H245673   1.666   5.130  10.585
 7160TIP3   OH245674   1.607   4.969  11.458
 7160TIP3    H145675   1.601   5.045  11.516
 7160TIP3    H245676   1.530   4.977  11.400
 7161TIP3   OH245677   0.680   5.225  10.715
 7161TIP3    H145678   0.734   5.295  10.677
 7161TIP3    H245679   0.743   5.164  10.753
 7162TIP3   OH245680   0.781   5.683  10.964
 7162TIP3    H145681   0.775   5.667  10.870
 7162TIP3    H245682   0.853   5.626  10.993
 7163TIP3   OH245683   0.712   5.144  11.070
 7163TIP3    H145684   0.774   5.120  11.001
 7163TIP3    H245685   0.755   5.215  11.117
 7164TIP3   OH245686   1.368   5.831  11.116
 7164TIP3    H145687   1.369   5.871  11.203
 7164TIP3    H245688   1.315   5.752  11.127
 7165TIP3   OH245689   0.794   5.587  11.571
 7165TIP3    H145690   0.727   5.641  11.614
 7165TIP3    H245691   0.759   5.572  11.483
 7166TIP3   OH245692   1.544   5.036  10.275
 7166TIP3    H145693   1.570   5.074  10.359
 7166TIP3    H245694   1.573   5.100  10.210
 7167TIP3   OH245695   0.415   5.139  11.471
 7167TIP3    H145696   0.435   5.214  11.527
 7167TIP3    H245697   0.324   5.117  11.490
 7168TIP3   OH245698   1.219   5.824  10.550
 7168TIP3    H145699   1.303   5.838  10.594
 7168TIP3    H245700   1.185   5.912  10.535
 7169TIP3   OH245701   0.591   5.775  11.619
 7169TIP3    H145702   0.601   5.818  11.534
 7169TIP3    H245703   0.501   5.744  11.620
 7170TIP3   OH245704   1.872   4.217  10.328
 7170TIP3    H145705   1.780   4.237  10.344
 7170TIP3    H245706   1.907   4.297  10.289
 7171TIP3   OH245707   0.416   5.137  10.519
 7171TIP3    H145708   0.386   5.215  10.472
 7171TIP3    H245709   0.417   5.068  10.453
 7172TIP3   OH245710   2.065   5.782  10.257
 7172TIP3    H145711   2.089   5.870  10.227
 7172TIP3    H245712   2.140   5.728  10.233
 7173TIP3   OH245713   0.194   5.348  11.366
 7173TIP3    H145714   0.103   5.371  11.345
 7173TIP3    H245715   0.186   5.274  11.426
 7174TIP3   OH245716   0.190   5.773  11.062
 7174TIP3    H145717   0.271   5.723  11.048
 7174TIP3    H245718   0.212   5.835  11.132
 7175TIP3   OH245719   2.055   5.804  11.598
 7175TIP3    H145720   2.060   5.708  11.590
 7175TIP3    H245721   1.974   5.819  11.647
 7176TIP3   OH245722   0.984   5.781  11.499
 7176TIP3    H145723   0.995   5.855  11.559
 7176TIP3    H245724   0.919   5.725  11.542
 7177TIP3   OH245725   1.161   6.090  10.480
 7177TIP3    H145726   1.141   6.090  10.386
 7177TIP3    H245727   1.123   6.171  10.513
 7178TIP3   OH245728   0.456   6.006  10.697
 7178TIP3    H145729   0.484   5.988  10.787
 7178TIP3    H245730   0.376   5.954  10.687
 7179TIP3   OH245731   1.415   6.043  10.218
 7179TIP3    H145732   1.468   5.965  10.202
 7179TIP3    H245733   1.440   6.071  10.306
 7180TIP3   OH245734   1.437   6.101  10.491
 7180TIP3    H145735   1.341   6.100  10.492
 7180TIP3    H245736   1.463   6.030  10.549
 7181TIP3   OH245737   1.774   4.804  11.600
 7181TIP3    H145738   1.712   4.864  11.559
 7181TIP3    H245739   1.748   4.717  11.570
 7182TIP3   OH245740   0.424   5.490  11.397
 7182TIP3    H145741   0.442   5.444  11.479
 7182TIP3    H245742   0.344   5.448  11.364
 7183TIP3   OH245743   0.622   4.278  11.091
 7183TIP3    H145744   0.546   4.256  11.035
 7183TIP3    H245745   0.601   4.364  11.127
 7184TIP3   OH245746   1.135   4.264  11.404
 7184TIP3    H145747   1.165   4.231  11.489
 7184TIP3    H245748   1.042   4.283  11.417
 7185TIP3   OH245749   1.400   4.601  11.472
 7185TIP3    H145750   1.377   4.594  11.565
 7185TIP3    H245751   1.344   4.672  11.440
 7186TIP3   OH245752   1.638   5.257  10.140
 7186TIP3    H145753   1.596   5.332  10.097
 7186TIP3    H245754   1.686   5.296  10.213
 7187TIP3   OH245755   1.051   4.626  10.221
 7187TIP3    H145756   1.014   4.558  10.278
 7187TIP3    H245757   0.976   4.665  10.177
 7188TIP3   OH245758   0.620   4.880  11.081
 7188TIP3    H145759   0.544   4.877  11.139
 7188TIP3    H245760   0.645   4.972  11.079
 7189TIP3   OH245761   0.574   4.910  10.700
 7189TIP3    H145762   0.498   4.854  10.686
 7189TIP3    H245763   0.638   4.879  10.635
 7190TIP3   OH245764   1.206   4.877  10.547
 7190TIP3    H145765   1.187   4.968  10.525
 7190TIP3    H245766   1.284   4.855  10.496
 7191TIP3   OH245767   1.093   4.915  11.629
 7191TIP3    H145768   1.037   4.846  11.663
 7191TIP3    H245769   1.172   4.912  11.683
 7192TIP3   OH245770   1.268   4.778  10.795
 7192TIP3    H145771   1.244   4.822  10.714
 7192TIP3    H245772   1.334   4.714  10.769
 7193TIP3   OH245773   0.409   4.844  11.259
 7193TIP3    H145774   0.471   4.866  11.329
 7193TIP3    H245775   0.367   4.764  11.289
 7194TIP3   OH245776   0.774   4.659  10.125
 7194TIP3    H145777   0.739   4.600  10.192
 7194TIP3    H245778   0.765   4.610  10.043
 7195TIP3   OH245779   0.127   4.584  10.749
 7195TIP3    H145780   0.179   4.530  10.808
 7195TIP3    H245781   0.129   4.536  10.666
 7196TIP3   OH245782   0.212   4.681  10.340
 7196TIP3    H145783   0.293   4.707  10.296
 7196TIP3    H245784   0.185   4.759  10.388
 7197TIP3   OH245785   1.396   4.957  11.271
 7197TIP3    H145786   1.408   4.913  11.186
 7197TIP3    H245787   1.330   4.904  11.316
 7198TIP3   OH245788   0.908   4.570  10.784
 7198TIP3    H145789   0.813   4.561  10.771
 7198TIP3    H245790   0.938   4.482  10.804
 7199TIP3   OH245791   0.374   4.747  10.612
 7199TIP3    H145792   0.290   4.780  10.580
 7199TIP3    H245793   0.367   4.652  10.604
 7200TIP3   OH245794   0.719   4.759  10.506
 7200TIP3    H145795   0.814   4.750  10.513
 7200TIP3    H245796   0.706   4.811  10.426
 7201TIP3   OH245797   1.544   4.388  11.085
 7201TIP3    H145798   1.473   4.391  11.150
 7201TIP3    H245799   1.505   4.346  11.009
 7202TIP3   OH245800   0.669   4.879  10.261
 7202TIP3    H145801   0.576   4.879  10.241
 7202TIP3    H245802   0.706   4.813  10.202
 7203TIP3   OH245803   1.748   6.165  11.695
 7203TIP3    H145804   1.773   6.182  11.604
 7203TIP3    H245805   1.811   6.217  11.747
 7204TIP3   OH245806   0.428   5.362  11.639
 7204TIP3    H145807   0.495   5.363  11.707
 7204TIP3    H245808   0.348   5.392  11.682
 7205TIP3   OH245809   0.999   4.820  10.858
 7205TIP3    H145810   1.094   4.809  10.855
 7205TIP3    H245811   0.965   4.731  10.852
 7206TIP3   OH245812   0.417   4.461  10.590
 7206TIP3    H145813   0.390   4.380  10.633
 7206TIP3    H245814   0.419   4.439  10.496
 7207TIP3   OH245815   0.838   4.809  11.247
 7207TIP3    H145816   0.773   4.826  11.179
 7207TIP3    H245817   0.854   4.894  11.286
 7208TIP3   OH245818   0.948   5.293  10.385
 7208TIP3    H145819   0.889   5.239  10.332
 7208TIP3    H245820   0.893   5.328  10.454
 7209TIP3   OH245821   1.836   5.370  11.187
 7209TIP3    H145822   1.888   5.429  11.134
 7209TIP3    H245823   1.762   5.346  11.131
 7210TIP3   OH245824   1.281   4.576  10.375
 7210TIP3    H145825   1.210   4.591  10.313
 7210TIP3    H245826   1.332   4.657  10.373
 7211TIP3   OH245827   1.173   5.586  11.457
 7211TIP3    H145828   1.135   5.517  11.512
 7211TIP3    H245829   1.113   5.660  11.468
 7212TIP3   OH245830   1.435   4.810  10.399
 7212TIP3    H145831   1.505   4.764  10.445
 7212TIP3    H245832   1.478   4.884  10.357
 7213TIP3   OH245833   0.464   5.167  10.965
 7213TIP3    H145834   0.550   5.173  11.005
 7213TIP3    H245835   0.404   5.151  11.037
 7214TIP3   OH245836   1.158   5.466  10.333
 7214TIP3    H145837   1.117   5.551  10.317
 7214TIP3    H245838   1.085   5.404  10.335
 7215TIP3   OH245839   0.147   5.121  11.521
 7215TIP3    H145840   0.156   5.096  11.613
 7215TIP3    H245841   0.056   5.101  11.499
 7216TIP3   OH245842   0.903   5.120  11.635
 7216TIP3    H145843   0.839   5.077  11.691
 7216TIP3    H245844   0.977   5.059  11.630
 7217TIP3   OH245845   1.426   5.632  11.565
 7217TIP3    H145846   1.343   5.613  11.523
 7217TIP3    H245847   1.403   5.651  11.656
 7218TIP3   OH245848   2.008   4.878  10.333
 7218TIP3    H145849   1.917   4.851  10.320
 7218TIP3    H245850   2.012   4.967  10.298
 7219TIP3   OH245851   2.098   5.531  11.534
 7219TIP3    H145852   2.006   5.523  11.507
 7219TIP3    H245853   2.144   5.464  11.482
 7220TIP3   OH245854   1.819   5.831  10.363
 7220TIP3    H145855   1.797   5.759  10.422
 7220TIP3    H245856   1.901   5.805  10.322
 7221TIP3   OH245857   1.623   5.281  11.031
 7221TIP3    H145858   1.538   5.267  11.072
 7221TIP3    H245859   1.647   5.195  10.995
 7222TIP3   OH245860   0.727   5.664  10.686
 7222TIP3    H145861   0.739   5.756  10.661
 7222TIP3    H245862   0.637   5.643  10.661
 7223TIP3   OH245863   0.221   5.089  10.286
 7223TIP3    H145864   0.253   5.177  10.306
 7223TIP3    H245865   0.134   5.103  10.247
 7224TIP3   OH245866   0.855   5.425  10.618
 7224TIP3    H145867   0.809   5.508  10.634
 7224TIP3    H245868   0.948   5.447  10.629
 7225TIP3   OH245869   0.929   5.942  11.282
 7225TIP3    H145870   1.005   5.999  11.273
 7225TIP3    H245871   0.954   5.881  11.352
 7226TIP3   OH245872   0.710   5.932  10.611
 7226TIP3    H145873   0.620   5.960  10.628
 7226TIP3    H245874   0.764   6.006  10.639
 7227TIP3   OH245875   1.237   5.586  11.188
 7227TIP3    H145876   1.216   5.588  11.282
 7227TIP3    H245877   1.303   5.517  11.180
 7228TIP3   OH245878   1.575   5.543  10.280
 7228TIP3    H145879   1.645   5.489  10.316
 7228TIP3    H245880   1.500   5.525  10.337
 7229TIP3   OH245881   1.580   5.842  11.483
 7229TIP3    H145882   1.530   5.767  11.516
 7229TIP3    H245883   1.513   5.901  11.448
 7230TIP3   OH245884   2.074   6.064  10.216
 7230TIP3    H145885   2.107   6.154  10.215
 7230TIP3    H245886   1.980   6.072  10.205
 7231TIP3   OH245887   0.305   4.601  11.352
 7231TIP3    H145888   0.276   4.624  11.441
 7231TIP3    H245889   0.244   4.533  11.324
 7232TIP3   OH245890   1.760   5.352  10.369
 7232TIP3    H145891   1.713   5.290  10.425
 7232TIP3    H245892   1.850   5.352  10.403
 7233TIP3   OH245893   0.273   5.964  11.246
 7233TIP3    H145894   0.364   5.990  11.262
 7233TIP3    H245895   0.224   6.001  11.319
 7234TIP3   OH245896   0.709   5.632  10.287
 7234TIP3    H145897   0.786   5.595  10.243
 7234TIP3    H245898   0.738   5.719  10.317
 7235TIP3   OH245899   0.319   5.337  10.359
 7235TIP3    H145900   0.269   5.410  10.397
 7235TIP3    H245901   0.384   5.380  10.302
 7236TIP3   OH245902   1.354   4.396  11.284
 7236TIP3    H145903   1.372   4.465  11.349
 7236TIP3    H245904   1.276   4.351  11.319
 7237TIP3   OH245905   1.368   4.410  10.575
 7237TIP3    H145906   1.336   4.457  10.498
 7237TIP3    H245907   1.404   4.479  10.631
 7238TIP3   OH245908   1.058   5.722  10.344
 7238TIP3    H145909   0.976   5.771  10.353
 7238TIP3    H245910   1.115   5.757  10.413
 7239TIP3   OH245911   0.985   4.704  10.551
 7239TIP3    H145912   1.061   4.763  10.550
 7239TIP3    H245913   0.978   4.676  10.642
 7240TIP3   OH245914   1.206   4.799  11.401
 7240TIP3    H145915   1.170   4.846  11.476
 7240TIP3    H245916   1.129   4.762  11.357
 7241TIP3   OH245917   1.109   4.289  10.580
 7241TIP3    H145918   1.080   4.300  10.670
 7241TIP3    H245919   1.199   4.322  10.578
 7242TIP3   OH245920   0.826   5.868  10.371
 7242TIP3    H145921   0.840   5.953  10.329
 7242TIP3    H245922   0.786   5.890  10.455
 7243TIP3   OH245923   0.689   4.515  10.345
 7243TIP3    H145924   0.673   4.585  10.408
 7243TIP3    H245925   0.773   4.477  10.371
 7244TIP3   OH245926   1.685   4.569  11.484
 7244TIP3    H145927   1.589   4.571  11.479
 7244TIP3    H245928   1.713   4.561  11.393
 7245TIP3   OH245929   1.652   5.007  10.953
 7245TIP3    H145930   1.565   4.973  10.972
 7245TIP3    H245931   1.712   4.943  10.990
 7246TIP3   OH245932   0.499   5.477  10.200
 7246TIP3    H145933   0.558   5.540  10.241
 7246TIP3    H245934   0.557   5.420  10.150
 7247TIP3   OH245935   0.394   4.885  10.201
 7247TIP3    H145936   0.337   4.956  10.232
 7247TIP3    H245937   0.370   4.874  10.109
 7248TIP3   OH245938   1.754   6.014  11.014
 7248TIP3    H145939   1.753   6.084  10.948
 7248TIP3    H245940   1.841   6.019  11.052
 7249TIP3   OH245941   0.398   4.221  10.945
 7249TIP3    H145942   0.386   4.216  10.850
 7249TIP3    H245943   0.363   4.138  10.978
 7250TIP3   OH245944   0.225   5.849  10.522
 7250TIP3    H145945   0.191   5.875  10.608
 7250TIP3    H245946   0.224   5.929  10.471
 7251TIP3   OH245947   0.176   6.164  11.745
 7251TIP3    H145948   0.238   6.142  11.814
 7251TIP3    H245949   0.131   6.081  11.726
 7252TIP3   OH245950   0.564   5.911  11.869
 7252TIP3    H145951   0.623   5.864  11.928
 7252TIP3    H245952   0.575   5.867  11.784
 7253TIP3   OH245953   1.140   5.822  10.097
 7253TIP3    H145954   1.112   5.776  10.176
 7253TIP3    H245955   1.227   5.788  10.079
 7254TIP3   OH245956   1.362   5.704  11.823
 7254TIP3    H145957   1.354   5.636  11.889
 7254TIP3    H245958   1.441   5.753  11.848
 7255TIP3   OH245959   1.576   5.817  10.220
 7255TIP3    H145960   1.568   5.722  10.226
 7255TIP3    H245961   1.660   5.837  10.261
 7256TIP3   OH245962   0.199   5.473  11.773
 7256TIP3    H145963   0.215   5.407  11.840
 7256TIP3    H245964   0.103   5.479  11.768
 7257TIP3   OH245965   0.694   5.326  10.082
 7257TIP3    H145966   0.728   5.255  10.135
 7257TIP3    H245967   0.750   5.327  10.004
 7258TIP3   OH245968   0.875   5.384  11.746
 7258TIP3    H145969   0.852   5.451  11.681
 7258TIP3    H245970   0.892   5.305  11.694
 7259TIP3   OH245971   1.619   5.426  11.558
 7259TIP3    H145972   1.698   5.465  11.520
 7259TIP3    H245973   1.556   5.498  11.561
 7260TIP3   OH245974   0.250   5.068  11.781
 7260TIP3    H145975   0.343   5.055  11.796
 7260TIP3    H245976   0.227   5.142  11.837
 7261TIP3   OH245977   0.808   5.118  10.222
 7261TIP3    H145978   0.758   5.040  10.243
 7261TIP3    H245979   0.885   5.086  10.174
 7262TIP3   OH245980   0.605   4.947  11.422
 7262TIP3    H145981   0.542   5.014  11.451
 7262TIP3    H245982   0.683   4.997  11.398
 7263TIP3   OH245983   1.029   5.032  10.087
 7263TIP3    H145984   1.050   5.003   9.998
 7263TIP3    H245985   1.112   5.024  10.134
 7264TIP3   OH245986   1.313   5.273  11.893
 7264TIP3    H145987   1.405   5.248  11.891
 7264TIP3    H245988   1.266   5.192  11.914
 7265TIP3   OH245989   2.057   5.123  19.876
 7265TIP3    H145990   2.125   5.180  19.839
 7265TIP3    H245991   2.007   5.181  19.934
 7266TIP3   OH245992   0.706   4.712  11.538
 7266TIP3    H145993   0.732   4.658  11.463
 7266TIP3    H245994   0.671   4.792  11.498
 7267TIP3   OH245995   0.778   4.545  11.320
 7267TIP3    H145996   0.816   4.626  11.284
 7267TIP3    H245997   0.695   4.534  11.273
 7268TIP3   OH245998   0.832   5.094  11.363
 7268TIP3    H145999   0.863   5.113  11.452
 7268TIP3    H246000   0.833   5.179  11.319
 7269TIP3   OH246001   1.332   4.875  11.767
 7269TIP3    H146002   1.336   4.780  11.760
 7269TIP3    H246003   1.421   4.904  11.749
 7270TIP3   OH246004   1.651   5.172  11.647
 7270TIP3    H146005   1.629   5.261  11.618
 7270TIP3    H246006   1.745   5.166  11.634
 7271TIP3   OH246007   0.617   4.540  11.733
 7271TIP3    H146008   0.521   4.536  11.738
 7271TIP3    H246009   0.634   4.604  11.663
 7272TIP3   OH246010   0.851   4.282  11.401
 7272TIP3    H146011   0.830   4.373  11.380
 7272TIP3    H246012   0.771   4.233  11.382
 7273TIP3   OH246013   0.925   4.717  11.711
 7273TIP3    H146014   0.902   4.660  11.784
 7273TIP3    H246015   0.848   4.716  11.654
 7274TIP3   OH246016   1.327   4.600  11.743
 7274TIP3    H146017   1.245   4.575  11.785
 7274TIP3    H246018   1.394   4.549  11.789
 7275TIP3   OH246019   1.492   4.440  11.895
 7275TIP3    H146020   1.475   4.347  11.879
 7275TIP3    H246021   1.448   4.459  11.977
 7276TIP3   OH246022   0.342   4.492  11.771
 7276TIP3    H146023   0.333   4.403  11.737
 7276TIP3    H246024   0.360   4.481  11.864
 7277TIP3   OH246025   0.910   4.165  11.647
 7277TIP3    H146026   0.956   4.084  11.625
 7277TIP3    H246027   0.885   4.202  11.562
 7278TIP3   OH246028   0.805   4.235  11.886
 7278TIP3    H146029   0.844   4.210  11.802
 7278TIP3    H246030   0.825   4.328  11.896
 7279TIP3   OH246031   0.878   6.116  10.266
 7279TIP3    H146032   0.968   6.110  10.234
 7279TIP3    H246033   0.852   6.206  10.248
 7280TIP3   OH246034   0.257   5.602  10.156
 7280TIP3    H146035   0.342   5.559  10.165
 7280TIP3    H246036   0.258   5.637  10.066
 7281TIP3   OH246037   0.102   6.160  10.657
 7281TIP3    H146038   0.009   6.182  10.670
 7281TIP3    H246039   0.115   6.082  10.711
 7282TIP3   OH246040   0.183   5.933  10.793
 7282TIP3    H146041   0.137   5.863  10.840
 7282TIP3    H246042   0.218   5.989  10.862
 7283TIP3   OH246043   2.000   6.041  11.138
 7283TIP3    H146044   1.982   6.003  11.224
 7283TIP3    H246045   2.050   6.120  11.157
 7284TIP3   OH246046   1.942   5.938  11.382
 7284TIP3    H146047   1.883   5.868  11.354
 7284TIP3    H246048   1.991   5.900  11.455
 7285TIP3   OH246049   1.884   5.544  11.896
 7285TIP3    H146050   1.796   5.541  11.934
 7285TIP3    H246051   1.927   5.617  11.942
 7286TIP3   OH246052   2.022   5.307  10.458
 7286TIP3    H146053   2.092   5.372  10.463
 7286TIP3    H246054   2.037   5.249  10.533
 7287TIP3   OH246055   2.048   5.120  10.666
 7287TIP3    H146056   1.957   5.099  10.689
 7287TIP3    H246057   2.094   5.119  10.750
 7288TIP3   OH246058   2.006   5.540  11.052
 7288TIP3    H146059   2.084   5.502  11.012
 7288TIP3    H246060   2.024   5.634  11.055
 7289TIP3   OH246061   1.762   5.750  11.301
 7289TIP3    H146062   1.692   5.783  11.357
 7289TIP3    H246063   1.722   5.745  11.214
 7290TIP3   OH246064   2.009   5.139  10.240
 7290TIP3    H146065   1.942   5.177  10.182
 7290TIP3    H246066   2.012   5.199  10.315
 7291TIP3   OH246067   1.750   4.799  10.274
 7291TIP3    H146068   1.692   4.857  10.226
 7291TIP3    H246069   1.761   4.722  10.217
 7292TIP3   OH246070   1.776   5.038  10.708
 7292TIP3    H146071   1.778   4.945  10.687
 7292TIP3    H246072   1.734   5.042  10.794
 7293TIP3   OH246073   0.121   5.164  10.994
 7293TIP3    H146074   0.169   5.131  10.918
 7293TIP3    H246075   0.180   5.148  11.068
 7294TIP3   OH246076   1.921   5.155  11.591
 7294TIP3    H146077   1.966   5.073  11.609
 7294TIP3    H246078   1.929   5.167  11.497
 7295TIP3   OH246079   2.036   4.892  11.576
 7295TIP3    H146080   1.944   4.866  11.586
 7295TIP3    H246081   2.085   4.810  11.582
 7296TIP3   OH246082   1.794   4.572  10.126
 7296TIP3    H146083   1.872   4.523  10.152
 7296TIP3    H246084   1.750   4.515  10.063
 7297TIP3   OH246085   1.667   4.691  10.514
 7297TIP3    H146086   1.720   4.612  10.529
 7297TIP3    H246087   1.706   4.732  10.438
 7298TIP3   OH246088   1.807   4.798  11.053
 7298TIP3    H146089   1.899   4.804  11.026
 7298TIP3    H246090   1.808   4.823  11.145
 7299TIP3   OH246091   1.829   4.897  11.307
 7299TIP3    H146092   1.749   4.915  11.357
 7299TIP3    H246093   1.878   4.980  11.311
 7300TIP3   OH246094   0.196   4.661  11.607
 7300TIP3    H146095   0.206   4.746  11.651
 7300TIP3    H246096   0.241   4.599  11.665
 7301TIP3   OH246097   1.990   4.238  11.784
 7301TIP3    H146098   2.064   4.181  11.762
 7301TIP3    H246099   1.988   4.304  11.715
 7302TIP3   OH246100   1.807   4.452  10.544
 7302TIP3    H146101   1.832   4.404  10.624
 7302TIP3    H246102   1.742   4.395  10.502
 7303TIP3   OH246103   0.302   4.477  10.927
 7303TIP3    H146104   0.332   4.388  10.945
 7303TIP3    H246105   0.379   4.532  10.939
 7304TIP3   OH246106   0.021   4.841  11.051
 7304TIP3    H146107   0.097   4.821  10.995
 7304TIP3    H246108   0.059   4.860  11.137
 7305TIP3   OH246109   1.903   4.481  11.646
 7305TIP3    H146110   1.859   4.501  11.729
 7305TIP3    H246111   1.835   4.496  11.580
 7306TIP3   OH246112   2.021   4.435  10.210
 7306TIP3    H146113   2.088   4.368  10.223
 7306TIP3    H246114   2.065   4.517  10.231
 7307TIP3   OH246115   0.093   4.486  10.491
 7307TIP3    H146116   8.448   4.494  10.476
 7307TIP3    H246117   0.132   4.553  10.436
 7308TIP3   OH246118   1.699   6.023  10.676
 7308TIP3    H146119   1.770   6.030  10.611
 7308TIP3    H246120   1.716   6.094  10.738
 7309TIP3   OH246121   0.090   4.234  11.292
 7309TIP3    H146122   8.445   4.225  11.310
 7309TIP3    H246123   0.096   4.240  11.197
 7310TIP3   OH246124   0.338   5.668  11.603
 7310TIP3    H146125   0.344   5.615  11.523
 7310TIP3    H246126   0.283   5.616  11.662
 7311TIP3   OH246127   0.657   5.867  11.352
 7311TIP3    H146128   0.603   5.943  11.328
 7311TIP3    H246129   0.747   5.895  11.334
 7312TIP3   OH246130   1.040   6.015  11.645
 7312TIP3    H146131   1.061   5.954  11.716
 7312TIP3    H246132   1.122   6.061  11.629
 7313TIP3   OH246133   1.282   6.144  11.586
 7313TIP3    H146134   1.333   6.087  11.528
 7313TIP3    H246135   1.342   6.167  11.657
 7314TIP3   OH246136   1.855   4.118  11.458
 7314TIP3    H146137   1.803   4.148  11.383
 7314TIP3    H246138   1.870   4.025  11.442
 7315TIP3   OH246139   0.303   6.237  11.394
 7315TIP3    H146140   0.214   6.253  11.361
 7315TIP3    H246141   0.308   6.287  11.475
 7316TIP3   OH246142   0.516   6.103  11.281
 7316TIP3    H146143   0.451   6.154  11.330
 7316TIP3    H246144   0.559   6.168  11.225
 7317TIP3   OH246145   1.156   6.109  11.241
 7317TIP3    H146146   1.176   6.134  11.151
 7317TIP3    H246147   1.160   6.191  11.290
 7318TIP3   OH246148   1.384   5.997  11.356
 7318TIP3    H146149   1.301   6.031  11.323
 7318TIP3    H246150   1.451   6.044  11.307
 7319TIP3   OH246151   1.581   6.112  11.208
 7319TIP3    H146152   1.631   6.192  11.222
 7319TIP3    H246153   1.626   6.066  11.137
 7320TIP3   OH246154   0.299   6.080  10.997
 7320TIP3    H146155   0.268   6.051  11.083
 7320TIP3    H246156   0.384   6.038  10.986
 7321TIP3   OH246157   0.530   5.941  10.956
 7321TIP3    H146158   0.514   5.853  10.990
 7321TIP3    H246159   0.619   5.962  10.985
 7322TIP3   OH246160   0.795   5.952  11.042
 7322TIP3    H146161   0.799   5.862  11.010
 7322TIP3    H246162   0.840   5.950  11.126
 7323TIP3   OH246163   1.018   4.317  10.843
 7323TIP3    H146164   0.955   4.260  10.887
 7323TIP3    H246165   1.091   4.324  10.904
 7324TIP3   OH246166   1.713   4.147  10.910
 7324TIP3    H146167   1.776   4.203  10.864
 7324TIP3    H246168   1.629   4.193  10.900
 7325TIP3   OH246169   1.889   4.270  10.738
 7325TIP3    H146170   1.912   4.200  10.678
 7325TIP3    H246171   1.972   4.310  10.763
 7326TIP3   OH246172   0.349   4.201  10.675
 7326TIP3    H146173   0.258   4.173  10.665
 7326TIP3    H246174   0.400   4.121  10.661
 7327TIP3   OH246175   0.180   4.293  10.318
 7327TIP3    H146176   0.271   4.319  10.303
 7327TIP3    H246177   0.152   4.346  10.393
 7328TIP3   OH246178   0.844   4.069  10.696
 7328TIP3    H146179   0.913   4.122  10.657
 7328TIP3    H246180   0.840   4.097  10.787
 7329TIP3   OH246181   1.459   4.257  10.851
 7329TIP3    H146182   1.436   4.289  10.763
 7329TIP3    H246183   1.424   4.168  10.854
 7330TIP3   OH246184   1.608   4.280  10.448
 7330TIP3    H146185   1.532   4.332  10.474
 7330TIP3    H246186   1.577   4.189  10.449
 7331TIP3   OH246187   0.225   6.121  10.417
 7331TIP3    H146188   0.177   6.134  10.498
 7331TIP3    H246189   0.212   6.202  10.367
 7332TIP3   OH246190   0.450   4.368  10.328
 7332TIP3    H146191   0.471   4.274  10.323
 7332TIP3    H246192   0.534   4.412  10.319
 7333TIP3   OH246193   0.948   4.462  10.422
 7333TIP3    H146194   1.000   4.393  10.464
 7333TIP3    H246195   0.968   4.541  10.472
 7334TIP3   OH246196   1.142   6.076  10.200
 7334TIP3    H146197   1.237   6.088  10.196
 7334TIP3    H246198   1.126   5.996  10.151
 7335TIP3   OH246199   1.899   6.066  10.488
 7335TIP3    H146200   1.871   5.989  10.438
 7335TIP3    H246201   1.870   6.141  10.435
 7336TIP3   OH246202   0.321   4.227  11.687
 7336TIP3    H146203   0.246   4.180  11.723
 7336TIP3    H246204   0.394   4.205  11.744
 7337TIP3   OH246205   0.533   4.182  11.865
 7337TIP3    H146206   0.625   4.207  11.864
 7337TIP3    H246207   0.533   4.088  11.879
 7338TIP3   OH246208   0.492   6.172  10.333
 7338TIP3    H146209   0.407   6.140  10.365
 7338TIP3    H246210   0.547   6.094  10.328
 7339TIP3   OH246211   1.473   4.170  11.813
 7339TIP3    H146212   1.461   4.109  11.885
 7339TIP3    H246213   1.563   4.156  11.784
 7340TIP3   OH246214   1.784   5.885  11.678
 7340TIP3    H146215   1.718   5.865  11.611
 7340TIP3    H246216   1.773   5.979  11.694
 7341TIP3   OH246217   3.482   5.221  10.565
 7341TIP3    H146218   3.486   5.313  10.539
 7341TIP3    H246219   3.393   5.194  10.543
 7342TIP3   OH246220   3.136   5.148  11.088
 7342TIP3    H146221   3.217   5.115  11.126
 7342TIP3    H246222   3.108   5.080  11.027
 7343TIP3   OH246223   2.413   5.076  11.249
 7343TIP3    H146224   2.440   4.985  11.259
 7343TIP3    H246225   2.455   5.122  11.322
 7344TIP3   OH246226   3.690   5.573  10.927
 7344TIP3    H146227   3.723   5.493  10.967
 7344TIP3    H246228   3.715   5.643  10.988
 7345TIP3   OH246229   2.682   5.637  10.897
 7345TIP3    H146230   2.649   5.547  10.896
 7345TIP3    H246231   2.770   5.629  10.935
 7346TIP3   OH246232   2.180   4.891  10.553
 7346TIP3    H146233   2.148   4.971  10.594
 7346TIP3    H246234   2.125   4.879  10.476
 7347TIP3   OH246235   2.236   5.101  10.883
 7347TIP3    H146236   2.264   5.009  10.889
 7347TIP3    H246237   2.315   5.148  10.856
 7348TIP3   OH246238   3.450   6.098  10.864
 7348TIP3    H146239   3.461   6.040  10.789
 7348TIP3    H246240   3.456   6.040  10.940
 7349TIP3   OH246241   3.084   5.434  11.092
 7349TIP3    H146242   3.109   5.342  11.079
 7349TIP3    H246243   3.163   5.476  11.124
 7350TIP3   OH246244   4.045   4.429  11.156
 7350TIP3    H146245   4.041   4.504  11.215
 7350TIP3    H246246   4.089   4.463  11.077
 7351TIP3   OH246247   3.492   4.850  11.033
 7351TIP3    H146248   3.545   4.771  11.017
 7351TIP3    H246249   3.425   4.847  10.965
 7352TIP3   OH246250   2.687   4.557  10.765
 7352TIP3    H146251   2.694   4.646  10.730
 7352TIP3    H246252   2.624   4.513  10.708
 7353TIP3   OH246253   3.531   4.626  10.720
 7353TIP3    H146254   3.576   4.625  10.804
 7353TIP3    H246255   3.599   4.648  10.656
 7354TIP3   OH246256   2.328   4.837  10.902
 7354TIP3    H146257   2.390   4.786  10.954
 7354TIP3    H246258   2.343   4.809  10.812
 7355TIP3   OH246259   2.838   5.018  10.802
 7355TIP3    H146260   2.921   4.975  10.824
 7355TIP3    H246261   2.782   4.947  10.770
 7356TIP3   OH246262   4.022   4.640  11.337
 7356TIP3    H146263   3.993   4.730  11.323
 7356TIP3    H246264   4.089   4.647  11.405
 7357TIP3   OH246265   2.593   4.513  11.215
 7357TIP3    H146266   2.565   4.567  11.140
 7357TIP3    H246267   2.526   4.529  11.281
 7358TIP3   OH246268   3.495   5.488  10.487
 7358TIP3    H146269   3.405   5.502  10.456
 7358TIP3    H246270   3.506   5.550  10.559
 7359TIP3   OH246271   2.851   5.320  11.198
 7359TIP3    H146272   2.795   5.388  11.236
 7359TIP3    H246273   2.926   5.368  11.163
 7360TIP3   OH246274   3.652   4.632  10.967
 7360TIP3    H146275   3.650   4.544  11.003
 7360TIP3    H246276   3.736   4.668  10.995
 7361TIP3   OH246277   2.548   4.660  10.981
 7361TIP3    H146278   2.600   4.735  11.008
 7361TIP3    H246279   2.598   4.619  10.910
 7362TIP3   OH246280   2.695   5.529  11.308
 7362TIP3    H146281   2.674   5.606  11.254
 7362TIP3    H246282   2.612   5.504  11.347
 7363TIP3   OH246283   2.233   5.494  10.445
 7363TIP3    H146284   2.232   5.536  10.359
 7363TIP3    H246285   2.257   5.565  10.506
 7364TIP3   OH246286   3.729   5.793  11.100
 7364TIP3    H146287   3.634   5.803  11.112
 7364TIP3    H246288   3.758   5.880  11.072
 7365TIP3   OH246289   3.815   4.274  11.205
 7365TIP3    H146290   3.744   4.313  11.153
 7365TIP3    H246291   3.893   4.324  11.181
 7366TIP3   OH246292   2.926   4.153  10.973
 7366TIP3    H146293   2.904   4.062  10.991
 7366TIP3    H246294   2.855   4.203  11.012
 7367TIP3   OH246295   3.516   5.920  10.655
 7367TIP3    H146296   3.530   5.825  10.663
 7367TIP3    H246297   3.603   5.957  10.668
 7368TIP3   OH246298   3.602   5.659  10.681
 7368TIP3    H146299   3.689   5.658  10.639
 7368TIP3    H246300   3.618   5.628  10.770
 7369TIP3   OH246301   3.899   5.504  11.404
 7369TIP3    H146302   3.904   5.463  11.317
 7369TIP3    H246303   3.901   5.598  11.386
 7370TIP3   OH246304   3.231   5.141  10.466
 7370TIP3    H146305   3.163   5.207  10.454
 7370TIP3    H246306   3.242   5.102  10.379
 7371TIP3   OH246307   3.293   4.979  10.246
 7371TIP3    H146308   3.385   5.006  10.243
 7371TIP3    H246309   3.296   4.884  10.237
 7372TIP3   OH246310   4.013   5.131  11.238
 7372TIP3    H146311   3.969   5.215  11.228
 7372TIP3    H246312   4.099   5.144  11.197
 7373TIP3   OH246313   3.722   5.117  10.492
 7373TIP3    H146314   3.641   5.151  10.531
 7373TIP3    H246315   3.771   5.082  10.567
 7374TIP3   OH246316   3.679   4.932  11.460
 7374TIP3    H146317   3.667   5.015  11.506
 7374TIP3    H246318   3.596   4.917  11.414
 7375TIP3   OH246319   2.728   5.236  10.660
 7375TIP3    H146320   2.693   5.197  10.580
 7375TIP3    H246321   2.773   5.163  10.703
 7376TIP3   OH246322   2.950   5.650  10.967
 7376TIP3    H146323   3.005   5.654  10.889
 7376TIP3    H246324   2.989   5.581  11.020
 7377TIP3   OH246325   2.719   5.142  11.025
 7377TIP3    H146326   2.777   5.116  10.953
 7377TIP3    H246327   2.774   5.198  11.080
 7378TIP3   OH246328   3.459   5.812  11.153
 7378TIP3    H146329   3.442   5.864  11.231
 7378TIP3    H246330   3.395   5.740  11.158
 7379TIP3   OH246331   2.825   5.621  11.540
 7379TIP3    H146332   2.756   5.680  11.570
 7379TIP3    H246333   2.791   5.583  11.459
 7380TIP3   OH246334   3.580   5.018  10.274
 7380TIP3    H146335   3.628   5.046  10.352
 7380TIP3    H246336   3.601   5.083  10.207
 7381TIP3   OH246337   2.507   5.144  11.509
 7381TIP3    H146338   2.516   5.217  11.569
 7381TIP3    H246339   2.418   5.112  11.523
 7382TIP3   OH246340   3.265   5.910  10.532
 7382TIP3    H146341   3.347   5.902  10.579
 7382TIP3    H246342   3.253   6.004  10.519
 7383TIP3   OH246343   2.621   5.816  11.568
 7383TIP3    H146344   2.654   5.861  11.490
 7383TIP3    H246345   2.527   5.809  11.554
 7384TIP3   OH246346   3.930   4.198  10.324
 7384TIP3    H146347   3.841   4.224  10.348
 7384TIP3    H246348   3.969   4.278  10.288
 7385TIP3   OH246349   2.630   5.132  10.419
 7385TIP3    H146350   2.548   5.179  10.399
 7385TIP3    H246351   2.619   5.046  10.379
 7386TIP3   OH246352   4.139   5.831  10.237
 7386TIP3    H146353   4.168   5.921  10.223
 7386TIP3    H246354   4.218   5.779  10.222
 7387TIP3   OH246355   2.223   5.322  11.394
 7387TIP3    H146356   2.198   5.287  11.308
 7387TIP3    H246357   2.224   5.246  11.452
 7388TIP3   OH246358   2.113   5.804  11.056
 7388TIP3    H146359   2.185   5.810  11.119
 7388TIP3    H246360   2.059   5.880  11.073
 7389TIP3   OH246361   4.123   5.894  11.692
 7389TIP3    H146362   4.164   5.820  11.738
 7389TIP3    H246363   4.030   5.888  11.714
 7390TIP3   OH246364   3.050   5.781  11.484
 7390TIP3    H146365   3.059   5.857  11.541
 7390TIP3    H246366   2.971   5.736  11.516
 7391TIP3   OH246367   3.249   6.176  10.464
 7391TIP3    H146368   3.202   6.171  10.380
 7391TIP3    H246369   3.222   6.260  10.501
 7392TIP3   OH246370   2.485   5.995  10.702
 7392TIP3    H146371   2.517   5.964  10.787
 7392TIP3    H246372   2.433   5.922  10.668
 7393TIP3   OH246373   3.473   6.012  10.200
 7393TIP3    H146374   3.539   5.943  10.196
 7393TIP3    H246375   3.497   6.064  10.277
 7394TIP3   OH246376   3.521   6.127  10.451
 7394TIP3    H146377   3.429   6.150  10.461
 7394TIP3    H246378   3.535   6.055  10.513
 7395TIP3   OH246379   3.840   4.794  11.638
 7395TIP3    H146380   3.783   4.844  11.579
 7395TIP3    H246381   3.835   4.705  11.606
 7396TIP3   OH246382   2.454   5.477  11.433
 7396TIP3    H146383   2.475   5.442  11.520
 7396TIP3    H246384   2.377   5.428  11.405
 7397TIP3   OH246385   2.696   4.286  11.080
 7397TIP3    H146386   2.623   4.269  11.021
 7397TIP3    H246387   2.674   4.370  11.121
 7398TIP3   OH246388   3.228   4.250  11.419
 7398TIP3    H146389   3.260   4.195  11.491
 7398TIP3    H246390   3.141   4.279  11.447
 7399TIP3   OH246391   3.534   4.612  11.439
 7399TIP3    H146392   3.502   4.625  11.529
 7399TIP3    H246393   3.511   4.693  11.394
 7400TIP3   OH246394   3.676   5.236  10.137
 7400TIP3    H146395   3.654   5.313  10.084
 7400TIP3    H246396   3.738   5.269  10.202
 7401TIP3   OH246397   3.101   4.657  10.231
 7401TIP3    H146398   3.076   4.592  10.296
 7401TIP3    H246399   3.034   4.650  10.162
 7402TIP3   OH246400   2.683   4.874  11.090
 7402TIP3    H146401   2.623   4.868  11.164
 7402TIP3    H246402   2.682   4.967  11.066
 7403TIP3   OH246403   2.666   4.824  10.686
 7403TIP3    H146404   2.571   4.816  10.680
 7403TIP3    H246405   2.698   4.799  10.599
 7404TIP3   OH246406   3.254   4.878  10.562
 7404TIP3    H146407   3.241   4.970  10.540
 7404TIP3    H246408   3.332   4.852  10.513
 7405TIP3   OH246409   3.169   4.935  11.631
 7405TIP3    H146410   3.126   4.858  11.668
 7405TIP3    H246411   3.256   4.935  11.671
 7406TIP3   OH246412   3.322   4.797  10.816
 7406TIP3    H146413   3.293   4.835  10.733
 7406TIP3    H246414   3.381   4.726  10.790
 7407TIP3   OH246415   2.522   4.829  11.308
 7407TIP3    H146416   2.585   4.861  11.373
 7407TIP3    H246417   2.483   4.752  11.348
 7408TIP3   OH246418   2.859   4.617  10.102
 7408TIP3    H146419   2.813   4.568  10.171
 7408TIP3    H246420   2.823   4.582  10.020
 7409TIP3   OH246421   2.125   4.394  10.776
 7409TIP3    H146422   2.196   4.429  10.829
 7409TIP3    H246423   2.142   4.429  10.688
 7410TIP3   OH246424   2.164   4.655  10.303
 7410TIP3    H146425   2.251   4.688  10.280
 7410TIP3    H246426   2.110   4.734  10.312
 7411TIP3   OH246427   3.450   4.854  11.313
 7411TIP3    H146428   3.467   4.857  11.218
 7411TIP3    H246429   3.357   4.876  11.321
 7412TIP3   OH246430   2.976   4.551  10.759
 7412TIP3    H146431   2.883   4.535  10.774
 7412TIP3    H246432   3.020   4.474  10.795
 7413TIP3   OH246433   2.400   4.748  10.650
 7413TIP3    H146434   2.326   4.787  10.604
 7413TIP3    H246435   2.398   4.656  10.623
 7414TIP3   OH246436   2.766   4.727  10.450
 7414TIP3    H146437   2.860   4.737  10.466
 7414TIP3    H246438   2.745   4.795  10.385
 7415TIP3   OH246439   3.596   4.363  11.047
 7415TIP3    H146440   3.545   4.371  11.128
 7415TIP3    H246441   3.534   4.333  10.982
 7416TIP3   OH246442   2.636   4.897  10.269
 7416TIP3    H146443   2.550   4.858  10.253
 7416TIP3    H246444   2.679   4.896  10.183
 7417TIP3   OH246445   3.845   6.194  11.733
 7417TIP3    H146446   3.873   6.222  11.646
 7417TIP3    H246447   3.917   6.219  11.790
 7418TIP3   OH246448   2.485   5.365  11.683
 7418TIP3    H146449   2.549   5.372  11.754
 7418TIP3    H246450   2.402   5.391  11.723
 7419TIP3   OH246451   3.087   4.903  10.944
 7419TIP3    H146452   3.166   4.871  10.900
 7419TIP3    H246453   3.051   4.825  10.987
 7420TIP3   OH246454   2.479   4.454  10.603
 7420TIP3    H146455   2.453   4.371  10.643
 7420TIP3    H246456   2.488   4.434  10.510
 7421TIP3   OH246457   2.926   4.782  11.187
 7421TIP3    H146458   2.843   4.807  11.146
 7421TIP3    H246459   2.968   4.865  11.209
 7422TIP3   OH246460   3.030   5.330  10.401
 7422TIP3    H146461   2.975   5.282  10.338
 7422TIP3    H246462   2.968   5.379  10.454
 7423TIP3   OH246463   3.923   5.385  11.156
 7423TIP3    H146464   4.002   5.420  11.115
 7423TIP3    H246465   3.870   5.353  11.083
 7424TIP3   OH246466   3.339   4.571  10.372
 7424TIP3    H146467   3.270   4.595  10.310
 7424TIP3    H246468   3.389   4.651  10.384
 7425TIP3   OH246469   3.240   5.584  11.470
 7425TIP3    H146470   3.204   5.523  11.534
 7425TIP3    H246471   3.179   5.657  11.469
 7426TIP3   OH246472   3.486   4.800  10.421
 7426TIP3    H146473   3.563   4.759  10.462
 7426TIP3    H246474   3.523   4.872  10.369
 7427TIP3   OH246475   2.625   5.368  10.882
 7427TIP3    H146476   2.651   5.328  10.799
 7427TIP3    H246477   2.632   5.297  10.945
 7428TIP3   OH246478   3.237   5.516  10.405
 7428TIP3    H146479   3.192   5.598  10.382
 7428TIP3    H246480   3.169   5.449  10.400
 7429TIP3   OH246481   2.235   5.089  11.546
 7429TIP3    H146482   2.265   5.079  11.636
 7429TIP3    H246483   2.166   5.023  11.536
 7430TIP3   OH246484   2.998   5.162  11.639
 7430TIP3    H146485   2.958   5.154  11.553
 7430TIP3    H246486   3.063   5.092  11.643
 7431TIP3   OH246487   3.497   5.644  11.556
 7431TIP3    H146488   3.413   5.621  11.516
 7431TIP3    H246489   3.475   5.672  11.645
 7432TIP3   OH246490   4.049   4.869  10.350
 7432TIP3    H146491   3.957   4.849  10.329
 7432TIP3    H246492   4.065   4.955  10.311
 7433TIP3   OH246493   4.091   5.366  11.553
 7433TIP3    H146494   4.026   5.418  11.506
 7433TIP3    H246495   4.158   5.346  11.487
 7434TIP3   OH246496   3.900   5.823  10.364
 7434TIP3    H146497   3.869   5.733  10.371
 7434TIP3    H246498   3.982   5.817  10.316
 7435TIP3   OH246499   3.753   5.284  10.959
 7435TIP3    H146500   3.708   5.298  10.875
 7435TIP3    H246501   3.750   5.190  10.972
 7436TIP3   OH246502   2.789   5.723  10.654
 7436TIP3    H146503   2.772   5.817  10.649
 7436TIP3    H246504   2.744   5.695  10.734
 7437TIP3   OH246505   2.279   5.064  10.225
 7437TIP3    H146506   2.324   5.137  10.267
 7437TIP3    H246507   2.187   5.090  10.222
 7438TIP3   OH246508   2.832   5.465  10.541
 7438TIP3    H146509   2.821   5.544  10.595
 7438TIP3    H246510   2.795   5.395  10.594
 7439TIP3   OH246511   2.999   5.951  11.270
 7439TIP3    H146512   3.069   6.016  11.278
 7439TIP3    H246513   3.022   5.882  11.333
 7440TIP3   OH246514   2.736   5.994  10.596
 7440TIP3    H146515   2.650   6.009  10.635
 7440TIP3    H246516   2.791   6.065  10.630
 7441TIP3   OH246517   3.314   5.557  11.205
 7441TIP3    H146518   3.287   5.565  11.297
 7441TIP3    H246519   3.399   5.514  11.209
 7442TIP3   OH246520   3.724   5.571  10.352
 7442TIP3    H146521   3.774   5.490  10.342
 7442TIP3    H246522   3.642   5.544  10.393
 7443TIP3   OH246523   3.652   5.863  11.496
 7443TIP3    H146524   3.605   5.783  11.519
 7443TIP3    H246525   3.588   5.917  11.450
 7444TIP3   OH246526   4.183   6.116  10.251
 7444TIP3    H146527   4.241   6.189  10.229
 7444TIP3    H246528   4.101   6.158  10.278
 7445TIP3   OH246529   2.404   4.601  11.414
 7445TIP3    H146530   2.310   4.612  11.402
 7445TIP3    H246531   2.413   4.564  11.502
 7446TIP3   OH246532   3.842   5.318  10.345
 7446TIP3    H146533   3.802   5.250  10.398
 7446TIP3    H246534   3.931   5.326  10.379
 7447TIP3   OH246535   2.303   5.904  11.255
 7447TIP3    H146536   2.324   5.841  11.325
 7447TIP3    H246537   2.306   5.989  11.298
 7448TIP3   OH246538   2.696   5.587  10.332
 7448TIP3    H146539   2.736   5.529  10.396
 7448TIP3    H246540   2.752   5.665  10.333
 7449TIP3   OH246541   2.401   5.284  10.345
 7449TIP3    H146542   2.345   5.341  10.399
 7449TIP3    H246543   2.441   5.343  10.282
 7450TIP3   OH246544   3.450   4.389  11.281
 7450TIP3    H146545   3.477   4.460  11.339
 7450TIP3    H246546   3.377   4.347  11.325
 7451TIP3   OH246547   3.426   4.410  10.576
 7451TIP3    H146548   3.397   4.456  10.497
 7451TIP3    H246549   3.458   4.479  10.634
 7452TIP3   OH246550   3.128   5.767  10.345
 7452TIP3    H146551   3.176   5.810  10.417
 7452TIP3    H246552   3.167   5.804  10.266
 7453TIP3   OH246553   3.027   4.713  10.544
 7453TIP3    H146554   3.104   4.769  10.552
 7453TIP3    H246555   3.018   4.672  10.630
 7454TIP3   OH246556   3.167   4.898  11.355
 7454TIP3    H146557   3.167   4.920  11.448
 7454TIP3    H246558   3.127   4.811  11.351
 7455TIP3   OH246559   3.172   4.285  10.574
 7455TIP3    H146560   3.150   4.302  10.665
 7455TIP3    H246561   3.261   4.320  10.563
 7456TIP3   OH246562   2.863   5.801  10.393
 7456TIP3    H146563   2.954   5.786  10.369
 7456TIP3    H246564   2.855   5.766  10.481
 7457TIP3   OH246565   2.751   4.481  10.323
 7457TIP3    H146566   2.734   4.560  10.374
 7457TIP3    H246567   2.838   4.451  10.352
 7458TIP3   OH246568   3.808   4.556  11.499
 7458TIP3    H146569   3.718   4.561  11.469
 7458TIP3    H246570   3.861   4.578  11.422
 7459TIP3   OH246571   3.726   5.000  10.956
 7459TIP3    H146572   3.638   4.971  10.980
 7459TIP3    H246573   3.784   4.932  10.992
 7460TIP3   OH246574   2.510   5.473  10.174
 7460TIP3    H146575   2.569   5.523  10.230
 7460TIP3    H246576   2.568   5.420  10.119
 7461TIP3   OH246577   2.378   4.814  10.192
 7461TIP3    H146578   2.343   4.901  10.212
 7461TIP3    H246579   2.357   4.800  10.100
 7462TIP3   OH246580   3.816   6.056  11.055
 7462TIP3    H146581   3.817   6.115  10.979
 7462TIP3    H246582   3.902   6.067  11.094
 7463TIP3   OH246583   2.467   4.233  10.939
 7463TIP3    H146584   2.459   4.228  10.844
 7463TIP3    H246585   2.433   4.149  10.970
 7464TIP3   OH246586   2.301   5.810  10.596
 7464TIP3    H146587   2.244   5.841  10.666
 7464TIP3    H246588   2.282   5.868  10.522
 7465TIP3   OH246589   2.199   6.183  11.704
 7465TIP3    H146590   2.245   6.154  11.782
 7465TIP3    H246591   2.188   6.102  11.653
 7466TIP3   OH246592   2.688   6.015  11.757
 7466TIP3    H146593   2.762   5.979  11.806
 7466TIP3    H246594   2.664   5.946  11.696
 7467TIP3   OH246595   3.243   5.893  10.127
 7467TIP3    H146596   3.264   5.839  10.051
 7467TIP3    H246597   3.327   5.931  10.152
 7468TIP3   OH246598   3.425   5.734  11.805
 7468TIP3    H146599   3.420   5.659  11.866
 7468TIP3    H246600   3.498   5.786  11.838
 7469TIP3   OH246601   3.659   5.815  10.224
 7469TIP3    H146602   3.659   5.723  10.252
 7469TIP3    H246603   3.740   5.851  10.259
 7470TIP3   OH246604   2.233   5.458  11.768
 7470TIP3    H146605   2.170   5.395  11.802
 7470TIP3    H246606   2.191   5.496  11.691
 7471TIP3   OH246607   2.716   5.326  10.064
 7471TIP3    H146608   2.762   5.277  10.131
 7471TIP3    H246609   2.779   5.335   9.992
 7472TIP3   OH246610   2.909   5.432  11.733
 7472TIP3    H146611   2.889   5.487  11.658
 7472TIP3    H246612   2.943   5.351  11.696
 7473TIP3   OH246613   3.666   5.417  11.533
 7473TIP3    H146614   3.747   5.447  11.493
 7473TIP3    H246615   3.613   5.496  11.544
 7474TIP3   OH246616   2.339   5.034  11.790
 7474TIP3    H146617   2.322   4.947  11.827
 7474TIP3    H246618   2.353   5.090  11.866
 7475TIP3   OH246619   2.853   5.174  10.253
 7475TIP3    H146620   2.783   5.156  10.316
 7475TIP3    H246621   2.900   5.091  10.246
 7476TIP3   OH246622   2.713   4.964  11.456
 7476TIP3    H146623   2.648   5.028  11.484
 7476TIP3    H246624   2.787   5.016  11.426
 7477TIP3   OH246625   3.010   4.944  10.239
 7477TIP3    H146626   3.018   4.848  10.242
 7477TIP3    H246627   3.101   4.974  10.233
 7478TIP3   OH246628   3.354   5.302  11.827
 7478TIP3    H146629   3.413   5.265  11.762
 7478TIP3    H246630   3.305   5.227  11.861
 7479TIP3   OH246631   4.000   5.077  19.874
 7479TIP3    H146632   4.066   5.147  19.868
 7479TIP3    H246633   3.917   5.123  19.882
 7480TIP3   OH246634   2.820   4.729  11.557
 7480TIP3    H146635   2.823   4.663  11.488
 7480TIP3    H246636   2.786   4.808  11.515
 7481TIP3   OH246637   2.838   4.556  11.336
 7481TIP3    H146638   2.881   4.619  11.278
 7481TIP3    H246639   2.754   4.537  11.293
 7482TIP3   OH246640   2.931   5.114  11.366
 7482TIP3    H146641   3.015   5.090  11.328
 7482TIP3    H246642   2.899   5.184  11.309
 7483TIP3   OH246643   3.416   4.914  11.767
 7483TIP3    H146644   3.432   4.822  11.742
 7483TIP3    H246645   3.501   4.945  11.798
 7484TIP3   OH246646   3.693   5.158  11.621
 7484TIP3    H146647   3.674   5.247  11.590
 7484TIP3    H246648   3.788   5.158  11.637
 7485TIP3   OH246649   2.713   4.755  11.812
 7485TIP3    H146650   2.619   4.771  11.806
 7485TIP3    H246651   2.743   4.753  11.721
 7486TIP3   OH246652   2.901   4.281  11.413
 7486TIP3    H146653   2.886   4.373  11.393
 7486TIP3    H246654   2.820   4.237  11.387
 7487TIP3   OH246655   3.047   4.701  11.717
 7487TIP3    H146656   3.020   4.644  11.789
 7487TIP3    H246657   2.970   4.707  11.660
 7488TIP3   OH246658   3.432   4.643  11.702
 7488TIP3    H146659   3.342   4.615  11.715
 7488TIP3    H246660   3.484   4.588  11.761
 7489TIP3   OH246661   3.539   4.466  11.893
 7489TIP3    H146662   3.498   4.380  11.880
 7489TIP3    H246663   3.495   4.501  11.971
 7490TIP3   OH246664   2.361   4.489  11.668
 7490TIP3    H146665   2.358   4.396  11.646
 7490TIP3    H246666   2.402   4.492  11.755
 7491TIP3   OH246667   3.020   4.181  11.642
 7491TIP3    H146668   3.026   4.085  11.634
 7491TIP3    H246669   2.967   4.208  11.566
 7492TIP3   OH246670   2.990   4.287  11.893
 7492TIP3    H146671   3.002   4.249  11.806
 7492TIP3    H246672   2.939   4.367  11.878
 7493TIP3   OH246673   2.873   6.156  10.274
 7493TIP3    H146674   2.965   6.148  10.251
 7493TIP3    H246675   2.852   6.249  10.260
 7494TIP3   OH246676   2.263   5.595  10.184
 7494TIP3    H146677   2.353   5.564  10.181
 7494TIP3    H246678   2.225   5.566  10.101
 7495TIP3   OH246679   2.118   6.144  10.633
 7495TIP3    H146680   2.039   6.116  10.588
 7495TIP3    H246681   2.130   6.079  10.703
 7496TIP3   OH246682   2.185   5.943  10.816
 7496TIP3    H146683   2.138   5.882  10.873
 7496TIP3    H246684   2.251   5.983  10.873
 7497TIP3   OH246685   4.049   6.103  11.192
 7497TIP3    H146686   4.046   6.052  11.273
 7497TIP3    H246687   4.119   6.167  11.208
 7498TIP3   OH246688   4.025   5.987  11.442
 7498TIP3    H146689   3.977   5.909  11.412
 7498TIP3    H246690   4.068   5.958  11.522
 7499TIP3   OH246691   3.924   5.513  11.982
 7499TIP3    H146692   3.835   5.547  11.985
 7499TIP3    H246693   3.980   5.590  11.989
 7500TIP3   OH246694   4.098   5.312  10.446
 7500TIP3    H146695   4.159   5.385  10.455
 7500TIP3    H246696   4.114   5.259  10.525
 7501TIP3   OH246697   4.118   5.125  10.654
 7501TIP3    H146698   4.031   5.095  10.679
 7501TIP3    H246699   4.170   5.116  10.733
 7502TIP3   OH246700   4.168   5.468  11.060
 7502TIP3    H146701   4.226   5.395  11.080
 7502TIP3    H246702   4.228   5.540  11.039
 7503TIP3   OH246703   3.866   5.777  11.344
 7503TIP3    H146704   3.791   5.806  11.397
 7503TIP3    H246705   3.833   5.776  11.254
 7504TIP3   OH246706   4.109   5.121  10.250
 7504TIP3    H146707   4.068   5.163  10.174
 7504TIP3    H246708   4.105   5.186  10.319
 7505TIP3   OH246709   3.794   4.783  10.278
 7505TIP3    H146710   3.736   4.836  10.224
 7505TIP3    H246711   3.812   4.705  10.224
 7506TIP3   OH246712   3.862   5.012  10.711
 7506TIP3    H146713   3.880   4.918  10.699
 7506TIP3    H246714   3.815   5.017  10.794
 7507TIP3   OH246715   2.171   5.150  11.153
 7507TIP3    H146716   2.180   5.150  11.058
 7507TIP3    H246717   2.257   5.123  11.186
 7508TIP3   OH246718   3.966   5.156  11.681
 7508TIP3    H146719   4.019   5.078  11.664
 7508TIP3    H246720   4.012   5.227  11.636
 7509TIP3   OH246721   4.097   4.902  11.624
 7509TIP3    H146722   4.007   4.873  11.637
 7509TIP3    H246723   4.145   4.821  11.606
 7510TIP3   OH246724   3.848   4.555  10.134
 7510TIP3    H146725   3.927   4.507  10.160
 7510TIP3    H246726   3.808   4.500  10.067
 7511TIP3   OH246727   3.725   4.670  10.522
 7511TIP3    H146728   3.783   4.596  10.539
 7511TIP3    H246729   3.760   4.711  10.443
 7512TIP3   OH246730   3.872   4.781  11.051
 7512TIP3    H146731   3.964   4.780  11.023
 7512TIP3    H246732   3.876   4.809  11.143
 7513TIP3   OH246733   3.904   4.887  11.303
 7513TIP3    H146734   3.829   4.907  11.358
 7513TIP3    H246735   3.945   4.972  11.287
 7514TIP3   OH246736   2.129   4.622  11.567
 7514TIP3    H146737   2.205   4.587  11.612
 7514TIP3    H246738   2.055   4.572  11.600
 7515TIP3   OH246739   4.080   4.221  11.780
 7515TIP3    H146740   4.164   4.174  11.772
 7515TIP3    H246741   4.083   4.287  11.711
 7516TIP3   OH246742   3.882   4.435  10.554
 7516TIP3    H146743   3.920   4.379  10.622
 7516TIP3    H246744   3.815   4.380  10.513
 7517TIP3   OH246745   2.336   4.479  10.932
 7517TIP3    H146746   2.380   4.396  10.947
 7517TIP3    H246747   2.402   4.545  10.950
 7518TIP3   OH246748   2.073   4.857  11.021
 7518TIP3    H146749   2.153   4.833  10.975
 7518TIP3    H246750   2.100   4.929  11.078
 7519TIP3   OH246751   4.028   4.396  11.571
 7519TIP3    H146752   3.951   4.454  11.566
 7519TIP3    H246753   4.007   4.323  11.513
 7520TIP3   OH246754   4.078   4.417  10.216
 7520TIP3    H146755   4.151   4.356  10.229
 7520TIP3    H246756   4.115   4.503  10.236
 7521TIP3   OH246757   2.102   4.473  10.507
 7521TIP3    H146758   2.006   4.476  10.510
 7521TIP3    H246759   2.126   4.543  10.447
 7522TIP3   OH246760   3.756   6.035  10.684
 7522TIP3    H146761   3.835   6.028  10.630
 7522TIP3    H246762   3.776   6.104  10.747
 7523TIP3   OH246763   2.092   4.189  11.314
 7523TIP3    H146764   2.030   4.173  11.386
 7523TIP3    H246765   2.060   4.268  11.271
 7524TIP3   OH246766   2.338   5.776  11.512
 7524TIP3    H146767   2.252   5.795  11.551
 7524TIP3    H246768   2.345   5.681  11.515
 7525TIP3   OH246769   2.729   5.946  11.353
 7525TIP3    H146770   2.698   6.035  11.342
 7525TIP3    H246771   2.821   5.948  11.324
 7526TIP3   OH246772   3.118   6.017  11.628
 7526TIP3    H146773   3.127   5.957  11.702
 7526TIP3    H246774   3.204   6.059  11.619
 7527TIP3   OH246775   3.373   6.134  11.607
 7527TIP3    H146776   3.422   6.080  11.545
 7527TIP3    H246777   3.439   6.166  11.669
 7528TIP3   OH246778   3.946   4.168  11.425
 7528TIP3    H146779   3.891   4.194  11.352
 7528TIP3    H246780   3.958   4.073  11.414
 7529TIP3   OH246781   2.371   6.209  11.359
 7529TIP3    H146782   2.282   6.227  11.329
 7529TIP3    H246783   2.382   6.262  11.437
 7530TIP3   OH246784   2.646   6.206  11.309
 7530TIP3    H146785   2.553   6.204  11.327
 7530TIP3    H246786   2.653   6.245  11.222
 7531TIP3   OH246787   3.212   6.138  11.280
 7531TIP3    H146788   3.206   6.185  11.197
 7531TIP3    H246789   3.212   6.206  11.347
 7532TIP3   OH246790   3.450   6.009  11.361
 7532TIP3    H146791   3.366   6.046  11.334
 7532TIP3    H246792   3.516   6.065  11.319
 7533TIP3   OH246793   3.649   6.157  11.250
 7533TIP3    H146794   3.694   6.239  11.269
 7533TIP3    H246795   3.700   6.117  11.181
 7534TIP3   OH246796   2.372   6.022  11.009
 7534TIP3    H146797   2.345   5.985  11.093
 7534TIP3    H246798   2.457   5.981  10.992
 7535TIP3   OH246799   2.608   5.899  10.932
 7535TIP3    H146800   2.616   5.804  10.924
 7535TIP3    H246801   2.691   5.928  10.970
 7536TIP3   OH246802   2.872   5.930  11.025
 7536TIP3    H146803   2.899   5.843  10.999
 7536TIP3    H246804   2.912   5.943  11.112
 7537TIP3   OH246805   3.117   4.316  10.842
 7537TIP3    H146806   3.063   4.263  10.900
 7537TIP3    H246807   3.206   4.305  10.874
 7538TIP3   OH246808   3.798   4.167  10.884
 7538TIP3    H146809   3.872   4.209  10.839
 7538TIP3    H246810   3.748   4.239  10.922
 7539TIP3   OH246811   4.009   4.262  10.736
 7539TIP3    H146812   4.071   4.197  10.704
 7539TIP3    H246813   4.064   4.333  10.770
 7540TIP3   OH246814   2.424   4.185  10.673
 7540TIP3    H146815   2.334   4.153  10.666
 7540TIP3    H246816   2.478   4.109  10.657
 7541TIP3   OH246817   2.228   4.288  10.332
 7541TIP3    H146818   2.322   4.306  10.330
 7541TIP3    H246819   2.195   4.337  10.407
 7542TIP3   OH246820   2.936   4.086  10.696
 7542TIP3    H146821   3.000   4.144  10.653
 7542TIP3    H246822   2.934   4.117  10.787
 7543TIP3   OH246823   3.409   4.267  10.850
 7543TIP3    H146824   3.428   4.290  10.759
 7543TIP3    H246825   3.421   4.172  10.854
 7544TIP3   OH246826   3.676   4.275  10.457
 7544TIP3    H146827   3.602   4.331  10.477
 7544TIP3    H246828   3.641   4.186  10.462
 7545TIP3   OH246829   2.259   6.024  10.421
 7545TIP3    H146830   2.199   6.026  10.347
 7545TIP3    H246831   2.217   6.078  10.487
 7546TIP3   OH246832   2.505   4.341  10.348
 7546TIP3    H146833   2.523   4.247  10.350
 7546TIP3    H246834   2.588   4.381  10.324
 7547TIP3   OH246835   3.013   4.463  10.417
 7547TIP3    H146836   3.065   4.396  10.460
 7547TIP3    H246837   3.018   4.539  10.476
 7548TIP3   OH246838   3.142   6.139  10.207
 7548TIP3    H146839   3.204   6.190  10.155
 7548TIP3    H246840   3.161   6.048  10.184
 7549TIP3   OH246841   3.979   6.040  10.520
 7549TIP3    H146842   3.954   5.967  10.465
 7549TIP3    H246843   3.975   6.117  10.462
 7550TIP3   OH246844   2.368   4.214  11.627
 7550TIP3    H146845   2.300   4.160  11.666
 7550TIP3    H246846   2.445   4.201  11.683
 7551TIP3   OH246847   2.542   4.157  11.833
 7551TIP3    H146848   2.607   4.090  11.812
 7551TIP3    H246849   2.486   4.117  11.899
 7552TIP3   OH246850   2.526   6.080  10.355
 7552TIP3    H146851   2.509   6.173  10.338
 7552TIP3    H246852   2.441   6.044  10.379
 7553TIP3   OH246853   3.568   4.060  11.754
 7553TIP3    H146854   3.584   3.979  11.801
 7553TIP3    H246855   3.655   4.090  11.727
 7554TIP3   OH246856   3.838   5.916  11.707
 7554TIP3    H146857   3.780   5.898  11.633
 7554TIP3    H246858   3.834   6.011  11.718
 7555TIP3   OH246859   5.533   5.208  10.663
 7555TIP3    H146860   5.503   5.298  10.677
 7555TIP3    H246861   5.469   5.171  10.602
 7556TIP3   OH246862   5.503   5.221  11.134
 7556TIP3    H146863   5.505   5.145  11.192
 7556TIP3    H246864   5.465   5.188  11.053
 7557TIP3   OH246865   4.504   5.089  11.164
 7557TIP3    H146866   4.520   5.019  11.226
 7557TIP3    H246867   4.590   5.113  11.131
 7558TIP3   OH246868   5.786   5.508  10.887
 7558TIP3    H146869   5.777   5.423  10.930
 7558TIP3    H246870   5.783   5.571  10.958
 7559TIP3   OH246871   4.646   5.626  10.982
 7559TIP3    H146872   4.635   5.536  10.951
 7559TIP3    H246873   4.741   5.637  10.990
 7560TIP3   OH246874   4.233   4.878  10.557
 7560TIP3    H146875   4.212   4.967  10.587
 7560TIP3    H246876   4.173   4.863  10.484
 7561TIP3   OH246877   4.302   5.075  10.859
 7561TIP3    H146878   4.325   4.983  10.872
 7561TIP3    H246879   4.385   5.117  10.835
 7562TIP3   OH246880   5.552   6.084  10.894
 7562TIP3    H146881   5.604   6.010  10.864
 7562TIP3    H246882   5.475   6.044  10.936
 7563TIP3   OH246883   5.120   5.460  11.034
 7563TIP3    H146884   5.159   5.435  10.951
 7563TIP3    H246885   5.194   5.472  11.093
 7564TIP3   OH246886   6.121   4.404  11.212
 7564TIP3    H146887   6.113   4.484  11.265
 7564TIP3    H246888   6.158   4.434  11.129
 7565TIP3   OH246889   5.534   4.810  11.057
 7565TIP3    H146890   5.597   4.738  11.050
 7565TIP3    H246891   5.519   4.837  10.967
 7566TIP3   OH246892   4.694   4.562  10.784
 7566TIP3    H146893   4.721   4.644  10.743
 7566TIP3    H246894   4.636   4.521  10.720
 7567TIP3   OH246895   5.642   4.615  10.716
 7567TIP3    H146896   5.678   4.614  10.804
 7567TIP3    H246897   5.716   4.636  10.659
 7568TIP3   OH246898   4.393   4.811  10.893
 7568TIP3    H146899   4.454   4.762  10.947
 7568TIP3    H246900   4.414   4.786  10.803
 7569TIP3   OH246901   4.850   5.014  10.820
 7569TIP3    H146902   4.930   4.969  10.848
 7569TIP3    H246903   4.801   4.948  10.771
 7570TIP3   OH246904   6.102   4.635  11.365
 7570TIP3    H146905   6.065   4.720  11.342
 7570TIP3    H246906   6.170   4.655  11.429
 7571TIP3   OH246907   4.689   4.462  11.220
 7571TIP3    H146908   4.647   4.524  11.160
 7571TIP3    H246909   4.631   4.458  11.296
 7572TIP3   OH246910   5.430   5.468  10.655
 7572TIP3    H146911   5.400   5.480  10.565
 7572TIP3    H246912   5.502   5.530  10.665
 7573TIP3   OH246913   4.945   5.291  11.187
 7573TIP3    H146914   4.891   5.357  11.232
 7573TIP3    H246915   5.007   5.343  11.136
 7574TIP3   OH246916   5.742   4.638  10.971
 7574TIP3    H146917   5.751   4.553  11.015
 7574TIP3    H246918   5.823   4.685  10.993
 7575TIP3   OH246919   4.597   4.646  11.022
 7575TIP3    H146920   4.655   4.717  11.050
 7575TIP3    H246921   4.638   4.612  10.943
 7576TIP3   OH246922   4.782   5.499  11.288
 7576TIP3    H146923   4.761   5.560  11.217
 7576TIP3    H246924   4.697   5.473  11.323
 7577TIP3   OH246925   4.282   5.525  10.437
 7577TIP3    H146926   4.287   5.566  10.351
 7577TIP3    H246927   4.300   5.595  10.499
 7578TIP3   OH246928   5.747   5.720  11.069
 7578TIP3    H146929   5.663   5.713  11.114
 7578TIP3    H246930   5.729   5.775  10.993
 7579TIP3   OH246931   5.894   4.241  11.236
 7579TIP3    H146932   5.831   4.289  11.183
 7579TIP3    H246933   5.976   4.290  11.225
 7580TIP3   OH246934   5.006   4.108  11.001
 7580TIP3    H146935   4.981   4.016  11.011
 7580TIP3    H246936   4.929   4.157  11.030
 7581TIP3   OH246937   5.691   5.850  10.820
 7581TIP3    H146938   5.674   5.775  10.762
 7581TIP3    H246939   5.759   5.900  10.776
 7582TIP3   OH246940   5.671   5.613  10.663
 7582TIP3    H146941   5.694   5.559  10.587
 7582TIP3    H246942   5.716   5.572  10.736
 7583TIP3   OH246943   5.950   5.512  11.424
 7583TIP3    H146944   5.950   5.457  11.345
 7583TIP3    H246945   5.933   5.600  11.391
 7584TIP3   OH246946   5.348   5.130  10.468
 7584TIP3    H146947   5.265   5.177  10.462
 7584TIP3    H246948   5.402   5.167  10.398
 7585TIP3   OH246949   5.316   5.078  10.132
 7585TIP3    H146950   5.370   5.154  10.156
 7585TIP3    H246951   5.376   5.004  10.138
 7586TIP3   OH246952   6.057   5.112  11.234
 7586TIP3    H146953   6.008   5.194  11.233
 7586TIP3    H246954   6.119   5.119  11.161
 7587TIP3   OH246955   5.785   5.169  10.551
 7587TIP3    H146956   5.705   5.177  10.603
 7587TIP3    H246957   5.851   5.136  10.612
 7588TIP3   OH246958   5.706   4.914  11.435
 7588TIP3    H146959   5.725   4.991  11.489
 7588TIP3    H246960   5.633   4.941  11.379
 7589TIP3   OH246961   4.786   5.245  10.676
 7589TIP3    H146962   4.749   5.213  10.594
 7589TIP3    H246963   4.820   5.166  10.719
 7590TIP3   OH246964   4.921   5.658  10.982
 7590TIP3    H146965   4.917   5.656  10.886
 7590TIP3    H246966   4.989   5.595  11.005
 7591TIP3   OH246967   4.757   5.132  11.051
 7591TIP3    H146968   4.798   5.102  10.970
 7591TIP3    H246969   4.827   5.181  11.096
 7592TIP3   OH246970   5.515   5.692  11.215
 7592TIP3    H146971   5.496   5.718  11.305
 7592TIP3    H246972   5.456   5.619  11.197
 7593TIP3   OH246973   4.938   5.605  11.500
 7593TIP3    H146974   4.876   5.665  11.540
 7593TIP3    H246975   4.892   5.568  11.424
 7594TIP3   OH246976   5.706   5.019  10.330
 7594TIP3    H146977   5.748   5.067  10.401
 7594TIP3    H246978   5.649   5.083  10.288
 7595TIP3   OH246979   4.584   5.152  11.542
 7595TIP3    H146980   4.582   5.241  11.577
 7595TIP3    H246981   4.495   5.119  11.557
 7596TIP3   OH246982   5.436   5.992  10.573
 7596TIP3    H146983   5.407   5.901  10.574
 7596TIP3    H246984   5.360   6.042  10.544
 7597TIP3   OH246985   4.763   5.797  11.596
 7597TIP3    H146986   4.783   5.866  11.533
 7597TIP3    H246987   4.667   5.788  11.591
 7598TIP3   OH246988   6.008   4.201  10.309
 7598TIP3    H146989   5.920   4.225  10.336
 7598TIP3    H246990   6.046   4.283  10.276
 7599TIP3   OH246991   4.670   5.152  10.436
 7599TIP3    H146992   4.604   5.218  10.413
 7599TIP3    H246993   4.627   5.068  10.421
 7600TIP3   OH246994   6.239   5.829  10.230
 7600TIP3    H146995   6.268   5.918  10.213
 7600TIP3    H246996   6.318   5.776  10.222
 7601TIP3   OH246997   4.296   5.275  11.391
 7601TIP3    H146998   4.284   5.232  11.306
 7601TIP3    H246999   4.311   5.203  11.453
 7602TIP3   OH247000   4.368   5.691  11.014
 7602TIP3    H147001   4.457   5.660  10.999
 7602TIP3    H247002   4.374   5.747  11.091
 7603TIP3   OH247003   6.151   5.880  11.666
 7603TIP3    H147004   6.159   5.794  11.707
 7603TIP3    H247005   6.057   5.900  11.672
 7604TIP3   OH247006   5.162   5.779  11.477
 7604TIP3    H147007   5.149   5.856  11.532
 7604TIP3    H247008   5.085   5.725  11.492
 7605TIP3   OH247009   5.230   6.150  10.475
 7605TIP3    H147010   5.238   6.133  10.381
 7605TIP3    H247011   5.249   6.243  10.484
 7606TIP3   OH247012   4.579   6.004  10.682
 7606TIP3    H147013   4.606   5.973  10.769
 7606TIP3    H247014   4.521   5.936  10.649
 7607TIP3   OH247015   5.539   6.071  10.257
 7607TIP3    H147016   5.557   5.982  10.228
 7607TIP3    H247017   5.595   6.083  10.333
 7608TIP3   OH247018   5.677   6.102  10.506
 7608TIP3    H147019   5.593   6.067  10.534
 7608TIP3    H247020   5.740   6.065  10.568
 7609TIP3   OH247021   5.930   4.822  11.662
 7609TIP3    H147022   5.859   4.873  11.623
 7609TIP3    H247023   5.916   4.733  11.630
 7610TIP3   OH247024   4.529   5.444  11.383
 7610TIP3    H147025   4.538   5.444  11.478
 7610TIP3    H247026   4.451   5.392  11.366
 7611TIP3   OH247027   4.759   4.221  11.092
 7611TIP3    H147028   4.686   4.222  11.030
 7611TIP3    H247029   4.750   4.303  11.140
 7612TIP3   OH247030   5.338   4.253  11.398
 7612TIP3    H147031   5.368   4.206  11.475
 7612TIP3    H247032   5.247   4.276  11.417
 7613TIP3   OH247033   5.620   4.639  11.467
 7613TIP3    H147034   5.556   4.646  11.537
 7613TIP3    H247035   5.647   4.729  11.449
 7614TIP3   OH247036   5.869   5.281  10.185
 7614TIP3    H147037   5.780   5.250  10.199
 7614TIP3    H247038   5.861   5.375  10.173
 7615TIP3   OH247039   5.199   4.598  10.185
 7615TIP3    H147040   5.167   4.535  10.249
 7615TIP3    H247041   5.122   4.623  10.135
 7616TIP3   OH247042   4.747   4.856  11.124
 7616TIP3    H147043   4.684   4.860  11.196
 7616TIP3    H247044   4.749   4.946  11.090
 7617TIP3   OH247045   4.719   4.820  10.672
 7617TIP3    H147046   4.628   4.803  10.647
 7617TIP3    H247047   4.770   4.791  10.596
 7618TIP3   OH247048   5.355   4.868  10.562
 7618TIP3    H147049   5.340   4.957  10.531
 7618TIP3    H247050   5.431   4.837  10.511
 7619TIP3   OH247051   5.245   4.867  11.600
 7619TIP3    H147052   5.177   4.876  11.668
 7619TIP3    H247053   5.309   4.806  11.639
 7620TIP3   OH247054   5.538   4.864  10.788
 7620TIP3    H147055   5.474   4.896  10.724
 7620TIP3    H247056   5.564   4.778  10.755
 7621TIP3   OH247057   4.566   4.873  11.328
 7621TIP3    H147058   4.631   4.905  11.391
 7621TIP3    H247059   4.516   4.808  11.376
 7622TIP3   OH247060   4.924   4.603  10.100
 7622TIP3    H147061   4.883   4.556  10.172
 7622TIP3    H247062   4.897   4.555  10.022
 7623TIP3   OH247063   4.176   4.461  10.805
 7623TIP3    H147064   4.253   4.469  10.861
 7623TIP3    H247065   4.207   4.484  10.718
 7624TIP3   OH247066   4.202   4.647  10.303
 7624TIP3    H147067   4.286   4.684  10.276
 7624TIP3    H247068   4.145   4.723  10.316
 7625TIP3   OH247069   5.486   4.975  11.268
 7625TIP3    H147070   5.504   4.914  11.197
 7625TIP3    H247071   5.395   4.959  11.292
 7626TIP3   OH247072   5.166   4.446  10.734
 7626TIP3    H147073   5.076   4.464  10.763
 7626TIP3    H247074   5.194   4.372  10.787
 7627TIP3   OH247075   4.458   4.736  10.634
 7627TIP3    H147076   4.381   4.776  10.593
 7627TIP3    H247077   4.453   4.644  10.609
 7628TIP3   OH247078   4.882   4.717  10.475
 7628TIP3    H147079   4.973   4.709  10.506
 7628TIP3    H247080   4.889   4.772  10.396
 7629TIP3   OH247081   5.715   4.384  11.081
 7629TIP3    H147082   5.648   4.397  11.147
 7629TIP3    H247083   5.670   4.342  11.008
 7630TIP3   OH247084   4.901   4.845  10.235
 7630TIP3    H147085   4.912   4.771  10.175
 7630TIP3    H247086   4.954   4.915  10.196
 7631TIP3   OH247087   5.886   6.208  11.682
 7631TIP3    H147088   5.920   6.221  11.594
 7631TIP3    H247089   5.953   6.243  11.740
 7632TIP3   OH247090   4.531   5.403  11.655
 7632TIP3    H147091   4.591   5.415  11.728
 7632TIP3    H247092   4.444   5.415  11.693
 7633TIP3   OH247093   5.060   4.867  10.920
 7633TIP3    H147094   5.146   4.842  10.887
 7633TIP3    H247095   5.050   4.817  11.001
 7634TIP3   OH247096   4.506   4.454  10.602
 7634TIP3    H147097   4.478   4.372  10.642
 7634TIP3    H247098   4.530   4.431  10.512
 7635TIP3   OH247099   5.000   4.762  11.177
 7635TIP3    H147100   4.911   4.791  11.159
 7635TIP3    H247101   5.036   4.829  11.235
 7636TIP3   OH247102   5.111   5.273  10.440
 7636TIP3    H147103   5.045   5.258  10.372
 7636TIP3    H247104   5.076   5.344  10.493
 7637TIP3   OH247105   5.960   5.365  11.193
 7637TIP3    H147106   6.030   5.408  11.145
 7637TIP3    H247107   5.894   5.344  11.126
 7638TIP3   OH247108   5.428   4.577  10.347
 7638TIP3    H147109   5.361   4.593  10.280
 7638TIP3    H247110   5.474   4.660  10.356
 7639TIP3   OH247111   5.266   5.511  11.446
 7639TIP3    H147112   5.226   5.473  11.524
 7639TIP3    H247113   5.237   5.602  11.447
 7640TIP3   OH247114   5.587   4.792  10.427
 7640TIP3    H147115   5.662   4.747  10.465
 7640TIP3    H247116   5.623   4.872  10.390
 7641TIP3   OH247117   4.664   5.364  10.900
 7641TIP3    H147118   4.700   5.333  10.816
 7641TIP3    H247119   4.678   5.291  10.960
 7642TIP3   OH247120   5.373   5.502  10.385
 7642TIP3    H147121   5.370   5.564  10.312
 7642TIP3    H247122   5.410   5.423  10.347
 7643TIP3   OH247123   4.318   5.080  11.603
 7643TIP3    H147124   4.360   5.075  11.689
 7643TIP3    H247125   4.245   5.019  11.608
 7644TIP3   OH247126   5.006   5.159  11.659
 7644TIP3    H147127   5.008   5.128  11.568
 7644TIP3    H247128   5.009   5.079  11.711
 7645TIP3   OH247129   5.458   5.773  11.481
 7645TIP3    H147130   5.364   5.789  11.480
 7645TIP3    H247131   5.476   5.737  11.568
 7646TIP3   OH247132   6.156   4.905  10.316
 7646TIP3    H147133   6.065   4.876  10.319
 7646TIP3    H247134   6.151   4.995  10.286
 7647TIP3   OH247135   6.176   5.417  11.556
 7647TIP3    H147136   6.095   5.457  11.523
 7647TIP3    H247137   6.232   5.409  11.478
 7648TIP3   OH247138   6.023   5.862  10.393
 7648TIP3    H147139   5.970   5.783  10.392
 7648TIP3    H247140   6.095   5.843  10.332
 7649TIP3   OH247141   5.762   5.265  11.024
 7649TIP3    H147142   5.677   5.261  11.068
 7649TIP3    H247143   5.770   5.181  10.979
 7650TIP3   OH247144   4.854   5.682  10.713
 7650TIP3    H147145   4.870   5.773  10.686
 7650TIP3    H247146   4.772   5.658  10.669
 7651TIP3   OH247147   4.386   5.070  10.281
 7651TIP3    H147148   4.415   5.159  10.301
 7651TIP3    H247149   4.291   5.078  10.267
 7652TIP3   OH247150   4.942   5.454  10.574
 7652TIP3    H147151   4.935   5.526  10.637
 7652TIP3    H247152   4.892   5.382  10.614
 7653TIP3   OH247153   5.068   5.955  11.271
 7653TIP3    H147154   5.132   6.024  11.252
 7653TIP3    H247155   5.115   5.892  11.324
 7654TIP3   OH247156   4.849   5.944  10.619
 7654TIP3    H147157   4.762   5.982  10.631
 7654TIP3    H247158   4.910   6.015  10.640
 7655TIP3   OH247159   5.351   5.459  11.190
 7655TIP3    H147160   5.328   5.463  11.283
 7655TIP3    H247161   5.410   5.384  11.183
 7656TIP3   OH247162   5.662   5.559  10.217
 7656TIP3    H147163   5.695   5.542  10.305
 7656TIP3    H247164   5.617   5.478  10.193
 7657TIP3   OH247165   5.703   5.913  11.446
 7657TIP3    H147166   5.614   5.879  11.451
 7657TIP3    H247167   5.696   5.989  11.388
 7658TIP3   OH247168   6.264   6.118  10.251
 7658TIP3    H147169   6.316   6.198  10.259
 7658TIP3    H247170   6.173   6.146  10.260
 7659TIP3   OH247171   4.521   4.452  11.439
 7659TIP3    H147172   4.496   4.513  11.509
 7659TIP3    H247173   4.505   4.365  11.476
 7660TIP3   OH247174   5.717   5.426  10.458
 7660TIP3    H147175   5.648   5.381  10.409
 7660TIP3    H247176   5.771   5.355  10.493
 7661TIP3   OH247177   4.411   5.871  11.229
 7661TIP3    H147178   4.488   5.854  11.283
 7661TIP3    H247179   4.341   5.888  11.293
 7662TIP3   OH247180   4.786   5.618  10.407
 7662TIP3    H147181   4.845   5.552  10.445
 7662TIP3    H247182   4.843   5.693  10.388
 7663TIP3   OH247183   4.467   5.327  10.356
 7663TIP3    H147184   4.402   5.380  10.402
 7663TIP3    H247185   4.517   5.390  10.303
 7664TIP3   OH247186   5.541   4.423  11.287
 7664TIP3    H147187   5.562   4.491  11.351
 7664TIP3    H247188   5.471   4.372  11.328
 7665TIP3   OH247189   5.542   4.424  10.540
 7665TIP3    H147190   5.505   4.474  10.467
 7665TIP3    H247191   5.568   4.491  10.604
 7666TIP3   OH247192   5.181   5.699  10.305
 7666TIP3    H147193   5.101   5.743  10.333
 7666TIP3    H247194   5.193   5.629  10.368
 7667TIP3   OH247195   5.149   4.668  10.556
 7667TIP3    H147196   5.215   4.738  10.554
 7667TIP3    H247197   5.177   4.610  10.626
 7668TIP3   OH247198   5.214   4.895  11.333
 7668TIP3    H147199   5.223   4.893  11.428
 7668TIP3    H247200   5.231   4.805  11.306
 7669TIP3   OH247201   5.292   4.296  10.531
 7669TIP3    H147202   5.253   4.343  10.605
 7669TIP3    H247203   5.382   4.329  10.526
 7670TIP3   OH247204   4.952   5.840  10.383
 7670TIP3    H147205   4.965   5.916  10.327
 7670TIP3    H247206   4.922   5.877  10.467
 7671TIP3   OH247207   4.827   4.479  10.333
 7671TIP3    H147208   4.819   4.558  10.387
 7671TIP3    H247209   4.915   4.445  10.353
 7672TIP3   OH247210   5.891   4.575  11.541
 7672TIP3    H147211   5.800   4.570  11.512
 7672TIP3    H247212   5.942   4.578  11.461
 7673TIP3   OH247213   5.772   5.001  10.911
 7673TIP3    H147214   5.693   4.962  10.873
 7673TIP3    H247215   5.814   4.930  10.959
 7674TIP3   OH247216   4.597   5.536  10.227
 7674TIP3    H147217   4.652   5.574  10.295
 7674TIP3    H247218   4.659   5.497  10.165
 7675TIP3   OH247219   4.421   4.799  10.236
 7675TIP3    H147220   4.408   4.892  10.255
 7675TIP3    H247221   4.511   4.794  10.202
 7676TIP3   OH247222   5.923   6.076  11.082
 7676TIP3    H147223   5.919   6.132  11.005
 7676TIP3    H247224   6.012   6.040  11.082
 7677TIP3   OH247225   4.522   4.215  10.945
 7677TIP3    H147226   4.505   4.221  10.851
 7677TIP3    H247227   4.488   4.129  10.970
 7678TIP3   OH247228   4.337   5.766  10.570
 7678TIP3    H147229   4.313   5.803  10.655
 7678TIP3    H247230   4.341   5.842  10.511
 7679TIP3   OH247231   4.301   6.109  11.759
 7679TIP3    H147232   4.378   6.072  11.802
 7679TIP3    H247233   4.250   6.032  11.732
 7680TIP3   OH247234   4.744   5.836  11.878
 7680TIP3    H147235   4.815   5.800  11.932
 7680TIP3    H247236   4.775   5.825  11.788
 7681TIP3   OH247237   5.303   5.846  10.106
 7681TIP3    H147238   5.259   5.787  10.167
 7681TIP3    H247239   5.396   5.827  10.117
 7682TIP3   OH247240   5.508   5.693  11.751
 7682TIP3    H147241   5.504   5.620  11.813
 7682TIP3    H247242   5.578   5.749  11.784
 7683TIP3   OH247243   5.579   5.811  10.147
 7683TIP3    H147244   5.605   5.726  10.180
 7683TIP3    H247245   5.634   5.825  10.069
 7684TIP3   OH247246   4.268   5.421  11.758
 7684TIP3    H147247   4.265   5.344  11.814
 7684TIP3    H247248   4.205   5.404  11.689
 7685TIP3   OH247249   4.809   5.420  10.097
 7685TIP3    H147250   4.836   5.352  10.158
 7685TIP3    H247251   4.890   5.456  10.063
 7686TIP3   OH247252   4.941   5.423  11.718
 7686TIP3    H147253   4.942   5.466  11.632
 7686TIP3    H247254   4.964   5.332  11.700
 7687TIP3   OH247255   5.736   5.380  11.546
 7687TIP3    H147256   5.813   5.425  11.511
 7687TIP3    H247257   5.668   5.447  11.549
 7688TIP3   OH247258   4.463   5.065  11.839
 7688TIP3    H147259   4.551   5.028  11.828
 7688TIP3    H247260   4.455   5.080  11.933
 7689TIP3   OH247261   4.893   5.222  10.270
 7689TIP3    H147262   4.826   5.183  10.327
 7689TIP3    H247263   4.934   5.148  10.226
 7690TIP3   OH247264   4.771   4.965  11.484
 7690TIP3    H147265   4.718   5.040  11.513
 7690TIP3    H247266   4.853   5.004  11.453
 7691TIP3   OH247267   5.046   5.047  10.115
 7691TIP3    H147268   5.041   5.068  10.022
 7691TIP3    H247269   5.138   5.057  10.137
 7692TIP3   OH247270   5.460   5.237  11.902
 7692TIP3    H147271   5.532   5.176  11.885
 7692TIP3    H247272   5.396   5.219  11.833
 7693TIP3   OH247273   5.975   5.048  19.847
 7693TIP3    H147274   5.893   5.047  19.798
 7693TIP3    H247275   5.948   5.066  19.937
 7694TIP3   OH247276   4.694   4.746  11.629
 7694TIP3    H147277   4.770   4.688  11.640
 7694TIP3    H247278   4.727   4.820  11.579
 7695TIP3   OH247279   4.959   4.500  11.276
 7695TIP3    H147280   4.983   4.585  11.238
 7695TIP3    H247281   4.866   4.491  11.258
 7696TIP3   OH247282   5.001   5.085  11.381
 7696TIP3    H147283   5.082   5.041  11.354
 7696TIP3    H247284   4.989   5.154  11.316
 7697TIP3   OH247285   5.526   4.820  11.897
 7697TIP3    H147286   5.505   4.776  11.815
 7697TIP3    H247287   5.575   4.898  11.870
 7698TIP3   OH247288   5.795   5.119  11.601
 7698TIP3    H147289   5.763   5.206  11.578
 7698TIP3    H247290   5.888   5.132  11.618
 7699TIP3   OH247291   4.710   4.928  11.842
 7699TIP3    H147292   4.680   4.861  11.780
 7699TIP3    H247293   4.805   4.928  11.833
 7700TIP3   OH247294   5.059   4.278  11.399
 7700TIP3    H147295   5.036   4.364  11.366
 7700TIP3    H247296   4.997   4.218  11.357
 7701TIP3   OH247297   5.184   4.610  11.791
 7701TIP3    H147298   5.140   4.695  11.799
 7701TIP3    H247299   5.113   4.547  11.781
 7702TIP3   OH247300   5.437   4.650  11.689
 7702TIP3    H147301   5.349   4.628  11.718
 7702TIP3    H247302   5.491   4.576  11.717
 7703TIP3   OH247303   5.564   4.436  11.799
 7703TIP3    H147304   5.587   4.344  11.797
 7703TIP3    H247305   5.558   4.458  11.892
 7704TIP3   OH247306   4.455   4.608  11.664
 7704TIP3    H147307   4.530   4.667  11.652
 7704TIP3    H247308   4.473   4.564  11.747
 7705TIP3   OH247309   5.059   4.178  11.658
 7705TIP3    H147310   5.098   4.092  11.643
 7705TIP3    H247311   5.060   4.219  11.572
 7706TIP3   OH247312   4.913   4.268  11.870
 7706TIP3    H147313   4.966   4.237  11.797
 7706TIP3    H247314   4.923   4.363  11.869
 7707TIP3   OH247315   4.994   6.074  10.243
 7707TIP3    H147316   5.088   6.080  10.229
 7707TIP3    H247317   4.958   6.153  10.203
 7708TIP3   OH247318   4.346   5.643  10.189
 7708TIP3    H147319   4.437   5.618  10.207
 7708TIP3    H247320   4.332   5.618  10.098
 7709TIP3   OH247321   4.201   6.115  10.666
 7709TIP3    H147322   4.120   6.088  10.623
 7709TIP3    H247323   4.219   6.044  10.728
 7710TIP3   OH247324   4.302   5.896  10.820
 7710TIP3    H147325   4.298   5.815  10.870
 7710TIP3    H247326   4.343   5.959  10.879
 7711TIP3   OH247327   6.191   5.999  11.147
 7711TIP3    H147328   6.154   5.982  11.233
 7711TIP3    H247329   6.247   6.076  11.159
 7712TIP3   OH247330   6.078   5.944  11.390
 7712TIP3    H147331   6.017   5.875  11.362
 7712TIP3    H247332   6.110   5.915  11.475
 7713TIP3   OH247333   6.020   5.571  11.891
 7713TIP3    H147334   5.929   5.578  11.918
 7713TIP3    H247335   6.066   5.638  11.941
 7714TIP3   OH247336   6.244   5.321  10.432
 7714TIP3    H147337   6.291   5.399  10.464
 7714TIP3    H247338   6.239   5.263  10.507
 7715TIP3   OH247339   6.221   5.133  10.636
 7715TIP3    H147340   6.132   5.111  10.662
 7715TIP3    H247341   6.273   5.121  10.716
 7716TIP3   OH247342   6.199   5.476  11.099
 7716TIP3    H147343   6.237   5.429  11.024
 7716TIP3    H247344   6.218   5.568  11.082
 7717TIP3   OH247345   5.887   5.757  11.310
 7717TIP3    H147346   5.817   5.804  11.355
 7717TIP3    H247347   5.855   5.743  11.221
 7718TIP3   OH247348   6.125   5.169  10.240
 7718TIP3    H147349   6.038   5.199  10.213
 7718TIP3    H247350   6.152   5.232  10.306
 7719TIP3   OH247351   5.900   4.813  10.307
 7719TIP3    H147352   5.834   4.879  10.285
 7719TIP3    H247353   5.893   4.748  10.237
 7720TIP3   OH247354   5.969   5.038  10.719
 7720TIP3    H147355   5.975   4.945  10.695
 7720TIP3    H247356   5.910   5.039  10.794
 7721TIP3   OH247357   4.258   5.183  11.114
 7721TIP3    H147358   4.245   5.158  11.022
 7721TIP3    H247359   4.347   5.155  11.135
 7722TIP3   OH247360   6.062   5.174  11.647
 7722TIP3    H147361   6.121   5.100  11.638
 7722TIP3    H247362   6.109   5.248  11.608
 7723TIP3   OH247363   6.183   4.916  11.596
 7723TIP3    H147364   6.095   4.888  11.623
 7723TIP3    H247365   6.236   4.837  11.603
 7724TIP3   OH247366   5.916   4.587  10.146
 7724TIP3    H147367   5.992   4.532  10.164
 7724TIP3    H247368   5.859   4.533  10.091
 7725TIP3   OH247369   5.834   4.668  10.530
 7725TIP3    H147370   5.891   4.591  10.534
 7725TIP3    H247371   5.870   4.720  10.458
 7726TIP3   OH247372   5.948   4.810  11.038
 7726TIP3    H147373   6.041   4.816  11.015
 7726TIP3    H247374   5.946   4.822  11.132
 7727TIP3   OH247375   5.955   4.866  11.310
 7727TIP3    H147376   5.870   4.881  11.351
 7727TIP3    H247377   5.988   4.954  11.290
 7728TIP3   OH247378   4.192   4.638  11.565
 7728TIP3    H147379   4.281   4.630  11.599
 7728TIP3    H247380   4.153   4.552  11.581
 7729TIP3   OH247381   6.172   4.207  11.801
 7729TIP3    H147382   6.228   4.152  11.746
 7729TIP3    H247383   6.162   4.288  11.751
 7730TIP3   OH247384   5.976   4.427  10.541
 7730TIP3    H147385   6.003   4.371  10.614
 7730TIP3    H247386   5.907   4.377  10.497
 7731TIP3   OH247387   4.391   4.462  10.974
 7731TIP3    H147388   4.438   4.378  10.977
 7731TIP3    H247389   4.457   4.527  10.999
 7732TIP3   OH247390   4.142   4.815  11.018
 7732TIP3    H147391   4.218   4.796  10.962
 7732TIP3    H247392   4.176   4.873  11.086
 7733TIP3   OH247393   6.094   4.472  11.706
 7733TIP3    H147394   6.059   4.493  11.792
 7733TIP3    H247395   6.021   4.491  11.646
 7734TIP3   OH247396   6.147   4.435  10.211
 7734TIP3    H147397   6.220   4.374  10.222
 7734TIP3    H247398   6.185   4.521  10.230
 7735TIP3   OH247399   4.170   4.470  10.514
 7735TIP3    H147400   4.074   4.468  10.519
 7735TIP3    H247401   4.189   4.538  10.450
 7736TIP3   OH247402   5.864   6.031  10.699
 7736TIP3    H147403   5.942   6.037  10.644
 7736TIP3    H247404   5.875   6.100  10.764
 7737TIP3   OH247405   4.179   4.202  11.261
 7737TIP3    H147406   4.117   4.200  11.334
 7737TIP3    H247407   4.156   4.282  11.213
 7738TIP3   OH247408   4.487   5.761  11.612
 7738TIP3    H147409   4.392   5.751  11.601
 7738TIP3    H247410   4.505   5.721  11.697
 7739TIP3   OH247411   4.821   5.979  11.401
 7739TIP3    H147412   4.792   6.068  11.382
 7739TIP3    H247413   4.906   5.972  11.357
 7740TIP3   OH247414   5.161   6.035  11.621
 7740TIP3    H147415   5.198   5.973  11.684
 7740TIP3    H247416   5.231   6.099  11.607
 7741TIP3   OH247417   5.379   6.208  11.585
 7741TIP3    H147418   5.417   6.168  11.506
 7741TIP3    H247419   5.454   6.224  11.642
 7742TIP3   OH247420   6.009   4.122  11.458
 7742TIP3    H147421   5.962   4.163  11.385
 7742TIP3    H247422   6.039   4.038  11.423
 7743TIP3   OH247423   4.476   6.285  11.381
 7743TIP3    H147424   4.386   6.289  11.349
 7743TIP3    H247425   4.469   6.298  11.475
 7744TIP3   OH247426   4.744   6.237  11.330
 7744TIP3    H147427   4.652   6.250  11.354
 7744TIP3    H247428   4.748   6.262  11.237
 7745TIP3   OH247429   5.217   6.178  11.190
 7745TIP3    H147430   5.145   6.203  11.133
 7745TIP3    H247431   5.225   6.251  11.252
 7746TIP3   OH247432   5.457   6.113  11.342
 7746TIP3    H147433   5.394   6.121  11.270
 7746TIP3    H247434   5.543   6.119  11.300
 7747TIP3   OH247435   5.722   6.126  11.261
 7747TIP3    H147436   5.752   6.217  11.269
 7747TIP3    H247437   5.779   6.088  11.194
 7748TIP3   OH247438   4.443   6.044  11.010
 7748TIP3    H147439   4.421   6.002  11.093
 7748TIP3    H247440   4.526   6.004  10.984
 7749TIP3   OH247441   4.662   5.903  10.926
 7749TIP3    H147442   4.652   5.809  10.942
 7749TIP3    H247443   4.747   5.925  10.963
 7750TIP3   OH247444   4.915   5.933  11.042
 7750TIP3    H147445   4.928   5.841  11.018
 7750TIP3    H247446   4.962   5.944  11.125
 7751TIP3   OH247447   5.223   4.206  10.852
 7751TIP3    H147448   5.160   4.169  10.913
 7751TIP3    H247449   5.298   4.146  10.855
 7752TIP3   OH247450   5.868   4.126  10.873
 7752TIP3    H147451   5.938   4.181  10.837
 7752TIP3    H247452   5.792   4.185  10.876
 7753TIP3   OH247453   6.074   4.252  10.738
 7753TIP3    H147454   6.136   4.186  10.706
 7753TIP3    H247455   6.129   4.323  10.769
 7754TIP3   OH247456   4.444   4.188  10.680
 7754TIP3    H147457   4.355   4.155  10.667
 7754TIP3    H247458   4.500   4.114  10.661
 7755TIP3   OH247459   4.295   4.285  10.337
 7755TIP3    H147460   4.388   4.306  10.332
 7755TIP3    H247461   4.263   4.336  10.412
 7756TIP3   OH247462   4.999   4.057  10.715
 7756TIP3    H147463   5.080   4.100  10.685
 7756TIP3    H247464   4.992   4.082  10.807
 7757TIP3   OH247465   5.617   4.256  10.852
 7757TIP3    H147466   5.592   4.304  10.772
 7757TIP3    H247467   5.554   4.184  10.856
 7758TIP3   OH247468   5.765   4.283  10.432
 7758TIP3    H147469   5.695   4.343  10.458
 7758TIP3    H247470   5.722   4.197  10.431
 7759TIP3   OH247471   4.350   6.020  10.448
 7759TIP3    H147472   4.298   6.041  10.371
 7759TIP3    H247473   4.305   6.062  10.521
 7760TIP3   OH247474   4.573   4.345  10.356
 7760TIP3    H147475   4.589   4.251  10.357
 7760TIP3    H247476   4.658   4.385  10.336
 7761TIP3   OH247477   5.096   4.445  10.394
 7761TIP3    H147478   5.161   4.381  10.424
 7761TIP3    H247479   5.113   4.523  10.447
 7762TIP3   OH247480   5.269   6.096  10.206
 7762TIP3    H147481   5.362   6.113  10.219
 7762TIP3    H247482   5.267   6.014  10.158
 7763TIP3   OH247483   6.075   6.091  10.528
 7763TIP3    H147484   6.059   6.009  10.481
 7763TIP3    H247485   6.061   6.159  10.463
 7764TIP3   OH247486   4.477   4.215  11.582
 7764TIP3    H147487   4.410   4.169  11.632
 7764TIP3    H247488   4.548   4.229  11.644
 7765TIP3   OH247489   4.643   4.228  11.812
 7765TIP3    H147490   4.737   4.233  11.830
 7765TIP3    H247491   4.617   4.141  11.844
 7766TIP3   OH247492   4.597   6.131  10.360
 7766TIP3    H147493   4.518   6.088  10.393
 7766TIP3    H247494   4.660   6.059  10.351
 7767TIP3   OH247495   5.633   4.160  11.790
 7767TIP3    H147496   5.616   4.100  11.862
 7767TIP3    H247497   5.726   4.148  11.770
 7768TIP3   OH247498   5.879   5.932  11.661
 7768TIP3    H147499   5.821   5.915  11.587
 7768TIP3    H247500   5.874   6.027  11.674
 7769TIP3   OH247501   7.575   5.288  10.640
 7769TIP3    H147502   7.558   5.381  10.628
 7769TIP3    H247503   7.503   5.244  10.595
 7770TIP3   OH247504   7.313   5.168  11.164
 7770TIP3    H147505   7.395   5.130  11.195
 7770TIP3    H247506   7.274   5.098  11.111
 7771TIP3   OH247507   6.402   4.955  11.213
 7771TIP3    H147508   6.480   4.910  11.244
 7771TIP3    H247509   6.367   5.000  11.290
 7772TIP3   OH247510   7.854   5.561  10.854
 7772TIP3    H147511   7.850   5.476  10.899
 7772TIP3    H247512   7.849   5.626  10.924
 7773TIP3   OH247513   6.812   5.628  11.021
 7773TIP3    H147514   6.793   5.547  10.975
 7773TIP3    H247515   6.906   5.640  11.010
 7774TIP3   OH247516   6.349   4.904  10.518
 7774TIP3    H147517   6.321   4.986  10.560
 7774TIP3    H247518   6.292   4.895  10.442
 7775TIP3   OH247519   6.404   5.080  10.836
 7775TIP3    H147520   6.418   4.987  10.853
 7775TIP3    H247521   6.491   5.113  10.810
 7776TIP3   OH247522   7.545   6.042  10.947
 7776TIP3    H147523   7.572   5.997  10.867
 7776TIP3    H247524   7.547   5.973  11.014
 7777TIP3   OH247525   7.234   5.439  11.094
 7777TIP3    H147526   7.266   5.349  11.105
 7777TIP3    H247527   7.307   5.494  11.122
 7778TIP3   OH247528   8.092   4.427  11.193
 7778TIP3    H147529   8.120   4.503  11.242
 7778TIP3    H247530   8.092   4.455  11.102
 7779TIP3   OH247531   7.471   4.803  11.056
 7779TIP3    H147532   7.503   4.716  11.079
 7779TIP3    H247533   7.512   4.822  10.971
 7780TIP3   OH247534   6.787   4.568  10.778
 7780TIP3    H147535   6.816   4.647  10.731
 7780TIP3    H247536   6.729   4.524  10.716
 7781TIP3   OH247537   7.732   4.615  10.687
 7781TIP3    H147538   7.769   4.596  10.772
 7781TIP3    H247539   7.803   4.656  10.638
 7782TIP3   OH247540   6.465   4.813  10.873
 7782TIP3    H147541   6.519   4.758  10.931
 7782TIP3    H247542   6.492   4.789  10.785
 7783TIP3   OH247543   6.966   5.017  10.817
 7783TIP3    H147544   7.048   4.975  10.843
 7783TIP3    H247545   6.917   4.947  10.772
 7784TIP3   OH247546   8.162   4.649  11.342
 7784TIP3    H147547   8.119   4.733  11.330
 7784TIP3    H247548   8.236   4.668  11.400
 7785TIP3   OH247549   6.747   4.494  11.213
 7785TIP3    H147550   6.714   4.549  11.142
 7785TIP3    H247551   6.686   4.508  11.285
 7786TIP3   OH247552   7.535   5.561  10.562
 7786TIP3    H147553   7.505   5.531  10.477
 7786TIP3    H247554   7.491   5.645  10.575
 7787TIP3   OH247555   6.992   5.326  11.183
 7787TIP3    H147556   6.935   5.395  11.219
 7787TIP3    H247557   7.066   5.374  11.146
 7788TIP3   OH247558   7.813   4.601  10.945
 7788TIP3    H147559   7.741   4.589  11.007
 7788TIP3    H247560   7.866   4.670  10.984
 7789TIP3   OH247561   6.667   4.656  11.003
 7789TIP3    H147562   6.713   4.735  11.032
 7789TIP3    H247563   6.717   4.626  10.927
 7790TIP3   OH247564   6.829   5.529  11.280
 7790TIP3    H147565   6.817   5.576  11.198
 7790TIP3    H247566   6.740   5.512  11.311
 7791TIP3   OH247567   6.419   5.543  10.476
 7791TIP3    H147568   6.415   5.583  10.389
 7791TIP3    H247569   6.441   5.616  10.534
 7792TIP3   OH247570   7.829   5.769  11.043
 7792TIP3    H147571   7.737   5.790  11.060
 7792TIP3    H247572   7.869   5.854  11.024
 7793TIP3   OH247573   7.853   4.292  11.277
 7793TIP3    H147574   7.780   4.354  11.284
 7793TIP3    H247575   7.925   4.343  11.240
 7794TIP3   OH247576   7.038   4.079  11.037
 7794TIP3    H147577   6.997   3.993  11.047
 7794TIP3    H247578   6.969   4.142  11.057
 7795TIP3   OH247579   7.660   5.899  10.729
 7795TIP3    H147580   7.702   5.819  10.699
 7795TIP3    H247581   7.728   5.966  10.721
 7796TIP3   OH247582   7.785   5.677  10.615
 7796TIP3    H147583   7.710   5.624  10.588
 7796TIP3    H247584   7.820   5.631  10.691
 7797TIP3   OH247585   8.008   5.472  11.374
 7797TIP3    H147586   8.007   5.423  11.291
 7797TIP3    H247587   8.003   5.564  11.347
 7798TIP3   OH247588   7.393   5.144  10.470
 7798TIP3    H147589   7.327   5.211  10.450
 7798TIP3    H247590   7.392   5.087  10.393
 7799TIP3   OH247591   7.397   4.955  10.264
 7799TIP3    H147592   7.488   4.978  10.243
 7799TIP3    H247593   7.392   4.861  10.247
 7800TIP3   OH247594   8.130   5.116  11.228
 7800TIP3    H147595   8.075   5.193  11.213
 7800TIP3    H247596   8.182   5.107  11.149
 7801TIP3   OH247597   7.765   5.158  10.492
 7801TIP3    H147598   7.703   5.196  10.554
 7801TIP3    H247599   7.822   5.103  10.545
 7802TIP3   OH247600   7.751   4.937  11.413
 7802TIP3    H147601   7.767   5.008  11.475
 7802TIP3    H247602   7.675   4.965  11.362
 7803TIP3   OH247603   6.895   5.247  10.671
 7803TIP3    H147604   6.850   5.212  10.594
 7803TIP3    H247605   6.927   5.169  10.717
 7804TIP3   OH247606   7.081   5.661  10.971
 7804TIP3    H147607   7.071   5.652  10.876
 7804TIP3    H247608   7.138   5.589  10.997
 7805TIP3   OH247609   6.842   5.142  11.034
 7805TIP3    H147610   6.894   5.107  10.962
 7805TIP3    H247611   6.902   5.196  11.084
 7806TIP3   OH247612   7.571   5.829  11.133
 7806TIP3    H147613   7.570   5.870  11.219
 7806TIP3    H247614   7.521   5.748  11.143
 7807TIP3   OH247615   6.963   5.613  11.510
 7807TIP3    H147616   6.901   5.678  11.541
 7807TIP3    H247617   6.926   5.582  11.428
 7808TIP3   OH247618   7.669   5.049  10.257
 7808TIP3    H147619   7.691   5.094  10.338
 7808TIP3    H247620   7.715   5.097  10.189
 7809TIP3   OH247621   6.710   5.028  11.534
 7809TIP3    H147622   6.674   5.110  11.499
 7809TIP3    H247623   6.686   5.030  11.627
 7810TIP3   OH247624   7.442   5.843  10.565
 7810TIP3    H147625   7.511   5.857  10.630
 7810TIP3    H247626   7.416   5.931  10.538
 7811TIP3   OH247627   6.792   5.823  11.569
 7811TIP3    H147628   6.829   5.890  11.511
 7811TIP3    H247629   6.700   5.817  11.543
 7812TIP3   OH247630   8.068   4.211  10.350
 7812TIP3    H147631   7.974   4.220  10.367
 7812TIP3    H247632   8.110   4.261  10.420
 7813TIP3   OH247633   6.771   5.152  10.440
 7813TIP3    H147634   6.698   5.212  10.423
 7813TIP3    H247635   6.744   5.069  10.399
 7814TIP3   OH247636   7.994   5.840  10.182
 7814TIP3    H147637   8.040   5.923  10.187
 7814TIP3    H247638   8.052   5.783  10.131
 7815TIP3   OH247639   6.327   5.368  11.329
 7815TIP3    H147640   6.280   5.391  11.249
 7815TIP3    H247641   6.317   5.273  11.337
 7816TIP3   OH247642   6.283   5.747  11.066
 7816TIP3    H147643   6.360   5.752  11.122
 7816TIP3    H247644   6.232   5.825  11.088
 7817TIP3   OH247645   8.194   5.778  11.576
 7817TIP3    H147646   8.223   5.710  11.637
 7817TIP3    H247647   8.115   5.815  11.616
 7818TIP3   OH247648   7.179   5.795  11.475
 7818TIP3    H147649   7.182   5.867  11.538
 7818TIP3    H247650   7.101   5.744  11.501
 7819TIP3   OH247651   7.408   6.107  10.477
 7819TIP3    H147652   7.388   6.102  10.383
 7819TIP3    H247653   7.364   6.187  10.507
 7820TIP3   OH247654   6.679   5.977  10.691
 7820TIP3    H147655   6.702   5.948  10.780
 7820TIP3    H247656   6.620   5.909  10.659
 7821TIP3   OH247657   7.659   6.095  10.189
 7821TIP3    H147658   7.677   6.003  10.168
 7821TIP3    H247659   7.681   6.103  10.282
 7822TIP3   OH247660   7.687   6.124  10.463
 7822TIP3    H147661   7.594   6.106  10.481
 7822TIP3    H247662   7.733   6.094  10.541
 7823TIP3   OH247663   7.993   4.777  11.677
 7823TIP3    H147664   7.906   4.809  11.654
 7823TIP3    H247665   7.997   4.689  11.638
 7824TIP3   OH247666   6.570   5.498  11.366
 7824TIP3    H147667   6.568   5.508  11.461
 7824TIP3    H247668   6.489   5.452  11.345
 7825TIP3   OH247669   6.822   4.249  11.094
 7825TIP3    H147670   6.746   4.231  11.038
 7825TIP3    H247671   6.806   4.336  11.129
 7826TIP3   OH247672   7.318   4.236  11.393
 7826TIP3    H147673   7.346   4.171  11.457
 7826TIP3    H247674   7.229   4.259  11.419
 7827TIP3   OH247675   7.770   4.668  11.497
 7827TIP3    H147676   7.686   4.628  11.518
 7827TIP3    H247677   7.747   4.754  11.461
 7828TIP3   OH247678   7.826   5.240  10.122
 7828TIP3    H147679   7.797   5.295  10.049
 7828TIP3    H247680   7.832   5.301  10.196
 7829TIP3   OH247681   7.323   4.687  10.213
 7829TIP3    H147682   7.289   4.622  10.274
 7829TIP3    H247683   7.252   4.698  10.149
 7830TIP3   OH247684   6.782   4.880  11.113
 7830TIP3    H147685   6.724   4.879  11.189
 7830TIP3    H247686   6.787   4.972  11.087
 7831TIP3   OH247687   6.824   4.824  10.667
 7831TIP3    H147688   6.730   4.815  10.652
 7831TIP3    H247689   6.864   4.817  10.580
 7832TIP3   OH247690   7.468   4.896  10.584
 7832TIP3    H147691   7.437   4.982  10.556
 7832TIP3    H247692   7.535   4.873  10.520
 7833TIP3   OH247693   7.281   4.941  11.713
 7833TIP3    H147694   7.228   4.865  11.738
 7833TIP3    H247695   7.354   4.941  11.774
 7834TIP3   OH247696   7.601   4.830  10.813
 7834TIP3    H147697   7.545   4.865  10.743
 7834TIP3    H247698   7.638   4.750  10.777
 7835TIP3   OH247699   6.625   4.841  11.340
 7835TIP3    H147700   6.652   4.892  11.416
 7835TIP3    H247701   6.618   4.751  11.373
 7836TIP3   OH247702   7.070   4.712  10.094
 7836TIP3    H147703   7.024   4.653  10.154
 7836TIP3    H247704   7.031   4.695  10.009
 7837TIP3   OH247705   6.253   4.446  10.785
 7837TIP3    H147706   6.330   4.461  10.839
 7837TIP3    H247707   6.280   4.473  10.697
 7838TIP3   OH247708   6.284   4.664  10.294
 7838TIP3    H147709   6.370   4.698  10.269
 7838TIP3    H247710   6.229   4.742  10.301
 7839TIP3   OH247711   7.511   4.984  11.265
 7839TIP3    H147712   7.504   4.923  11.192
 7839TIP3    H247713   7.447   4.953  11.329
 7840TIP3   OH247714   7.301   4.478  10.773
 7840TIP3    H147715   7.222   4.486  10.826
 7840TIP3    H247716   7.366   4.441  10.833
 7841TIP3   OH247717   6.558   4.750  10.620
 7841TIP3    H147718   6.488   4.795  10.573
 7841TIP3    H247719   6.546   4.657  10.597
 7842TIP3   OH247720   6.917   4.806  10.408
 7842TIP3    H147721   6.996   4.851  10.377
 7842TIP3    H247722   6.845   4.846  10.359
 7843TIP3   OH247723   7.579   4.549  11.095
 7843TIP3    H147724   7.570   4.506  11.180
 7843TIP3    H247725   7.544   4.485  11.032
 7844TIP3   OH247726   6.723   4.937  10.266
 7844TIP3    H147727   6.638   4.894  10.256
 7844TIP3    H247728   6.733   4.988  10.186
 7845TIP3   OH247729   7.929   6.162  11.679
 7845TIP3    H147730   7.939   6.195  11.590
 7845TIP3    H247731   8.004   6.198  11.727
 7846TIP3   OH247732   6.556   5.537  11.643
 7846TIP3    H147733   6.631   5.509  11.695
 7846TIP3    H247734   6.480   5.509  11.694
 7847TIP3   OH247735   7.218   4.929  11.055
 7847TIP3    H147736   7.299   4.878  11.050
 7847TIP3    H247737   7.159   4.873  11.106
 7848TIP3   OH247738   6.598   4.448  10.605
 7848TIP3    H147739   6.564   4.372  10.651
 7848TIP3    H247740   6.613   4.418  10.516
 7849TIP3   OH247741   7.025   4.792  11.213
 7849TIP3    H147742   6.948   4.808  11.158
 7849TIP3    H247743   7.008   4.841  11.293
 7850TIP3   OH247744   7.206   5.332  10.384
 7850TIP3    H147745   7.139   5.286  10.333
 7850TIP3    H247746   7.157   5.386  10.446
 7851TIP3   OH247747   8.014   5.347  11.122
 7851TIP3    H147748   8.076   5.395  11.066
 7851TIP3    H247749   7.943   5.322  11.062
 7852TIP3   OH247750   7.561   4.594  10.324
 7852TIP3    H147751   7.486   4.622  10.271
 7852TIP3    H247752   7.600   4.676  10.354
 7853TIP3   OH247753   7.361   5.591  11.465
 7853TIP3    H147754   7.312   5.524  11.513
 7853TIP3    H247755   7.303   5.667  11.465
 7854TIP3   OH247756   7.681   4.824  10.416
 7854TIP3    H147757   7.769   4.800  10.444
 7854TIP3    H247758   7.693   4.895  10.354
 7855TIP3   OH247759   6.795   5.387  10.892
 7855TIP3    H147760   6.825   5.352  10.808
 7855TIP3    H247761   6.785   5.309  10.948
 7856TIP3   OH247762   7.430   5.485  10.319
 7856TIP3    H147763   7.384   5.569  10.311
 7856TIP3    H247764   7.360   5.421  10.329
 7857TIP3   OH247765   6.268   5.096  11.406
 7857TIP3    H147766   6.250   5.035  11.478
 7857TIP3    H247767   6.186   5.100  11.357
 7858TIP3   OH247768   7.141   5.187  11.638
 7858TIP3    H147769   7.132   5.177  11.543
 7858TIP3    H247770   7.195   5.112  11.664
 7859TIP3   OH247771   7.621   5.631  11.553
 7859TIP3    H147772   7.532   5.614  11.521
 7859TIP3    H247773   7.609   5.657  11.644
 7860TIP3   OH247774   8.109   4.861  10.350
 7860TIP3    H147775   8.098   4.802  10.275
 7860TIP3    H247776   8.085   4.948  10.315
 7861TIP3   OH247777   8.218   5.399  11.543
 7861TIP3    H147778   8.139   5.432  11.500
 7861TIP3    H247779   8.282   5.392  11.472
 7862TIP3   OH247780   7.964   5.840  10.467
 7862TIP3    H147781   7.903   5.780  10.510
 7862TIP3    H247782   7.956   5.819  10.374
 7863TIP3   OH247783   7.822   5.274  10.927
 7863TIP3    H147784   7.749   5.294  10.867
 7863TIP3    H247785   7.827   5.178  10.927
 7864TIP3   OH247786   6.966   5.678  10.714
 7864TIP3    H147787   6.975   5.766  10.677
 7864TIP3    H247788   6.872   5.665  10.725
 7865TIP3   OH247789   6.410   5.115  10.242
 7865TIP3    H147790   6.454   5.186  10.290
 7865TIP3    H247791   6.319   5.142  10.237
 7866TIP3   OH247792   7.032   5.461  10.554
 7866TIP3    H147793   7.023   5.534  10.615
 7866TIP3    H247794   6.987   5.389  10.598
 7867TIP3   OH247795   7.144   5.971  11.264
 7867TIP3    H147796   7.228   6.015  11.253
 7867TIP3    H247797   7.161   5.902  11.329
 7868TIP3   OH247798   6.944   5.936  10.609
 7868TIP3    H147799   6.853   5.962  10.627
 7868TIP3    H247800   6.995   6.015  10.626
 7869TIP3   OH247801   7.459   5.577  11.208
 7869TIP3    H147802   7.422   5.584  11.296
 7869TIP3    H247803   7.531   5.515  11.217
 7870TIP3   OH247804   7.687   5.555  10.234
 7870TIP3    H147805   7.747   5.502  10.286
 7870TIP3    H247806   7.600   5.523  10.256
 7871TIP3   OH247807   7.783   5.831  11.456
 7871TIP3    H147808   7.729   5.759  11.488
 7871TIP3    H247809   7.720   5.898  11.429
 7872TIP3   OH247810   8.146   6.069  10.198
 7872TIP3    H147811   8.238   6.091  10.209
 7872TIP3    H247812   8.099   6.142  10.237
 7873TIP3   OH247813   6.584   4.572  11.432
 7873TIP3    H147814   6.489   4.579  11.443
 7873TIP3    H247815   6.611   4.508  11.497
 7874TIP3   OH247816   7.861   5.377  10.357
 7874TIP3    H147817   7.820   5.308  10.410
 7874TIP3    H247818   7.952   5.377  10.385
 7875TIP3   OH247819   6.508   5.780  11.232
 7875TIP3    H147820   6.551   5.695  11.223
 7875TIP3    H247821   6.508   5.797  11.326
 7876TIP3   OH247822   6.905   5.612  10.352
 7876TIP3    H147823   6.950   5.555  10.414
 7876TIP3    H247824   6.958   5.692  10.350
 7877TIP3   OH247825   6.565   5.324  10.368
 7877TIP3    H147826   6.510   5.381  10.422
 7877TIP3    H247827   6.610   5.383  10.308
 7878TIP3   OH247828   7.543   4.398  11.324
 7878TIP3    H147829   7.553   4.440  11.409
 7878TIP3    H247830   7.467   4.341  11.334
 7879TIP3   OH247831   7.607   4.424  10.529
 7879TIP3    H147832   7.587   4.477  10.452
 7879TIP3    H247833   7.640   4.487  10.593
 7880TIP3   OH247834   7.314   5.731  10.345
 7880TIP3    H147835   7.223   5.760  10.349
 7880TIP3    H247836   7.355   5.769  10.423
 7881TIP3   OH247837   7.294   4.675  10.573
 7881TIP3    H147838   7.349   4.753  10.584
 7881TIP3    H247839   7.308   4.624  10.652
 7882TIP3   OH247840   7.319   4.896  11.439
 7882TIP3    H147841   7.314   4.917  11.532
 7882TIP3    H247842   7.238   4.847  11.421
 7883TIP3   OH247843   7.353   4.314  10.551
 7883TIP3    H147844   7.323   4.366  10.626
 7883TIP3    H247845   7.443   4.343  10.537
 7884TIP3   OH247846   7.062   5.842  10.378
 7884TIP3    H147847   7.074   5.922  10.327
 7884TIP3    H247848   7.022   5.872  10.460
 7885TIP3   OH247849   6.954   4.554  10.288
 7885TIP3    H147850   6.928   4.626  10.346
 7885TIP3    H247851   7.035   4.520  10.326
 7886TIP3   OH247852   8.003   4.533  11.534
 7886TIP3    H147853   7.913   4.560  11.518
 7886TIP3    H247854   8.051   4.562  11.456
 7887TIP3   OH247855   7.813   4.991  10.898
 7887TIP3    H147856   7.731   4.945  10.879
 7887TIP3    H247857   7.861   4.932  10.956
 7888TIP3   OH247858   6.693   5.513  10.210
 7888TIP3    H147859   6.758   5.558  10.263
 7888TIP3    H247860   6.745   5.458  10.151
 7889TIP3   OH247861   6.470   4.855  10.189
 7889TIP3    H147862   6.444   4.941  10.220
 7889TIP3    H247863   6.431   4.848  10.101
 7890TIP3   OH247864   7.951   6.021  11.033
 7890TIP3    H147865   7.953   6.088  10.965
 7890TIP3    H247866   8.041   6.020  11.068
 7891TIP3   OH247867   6.585   4.206  10.955
 7891TIP3    H147868   6.568   4.196  10.862
 7891TIP3    H247869   6.536   4.135  10.996
 7892TIP3   OH247870   6.475   5.798  10.605
 7892TIP3    H147871   6.422   5.826  10.680
 7892TIP3    H247872   6.456   5.863  10.537
 7893TIP3   OH247873   6.318   6.113  11.743
 7893TIP3    H147874   6.387   6.075  11.797
 7893TIP3    H247875   6.270   6.037  11.710
 7894TIP3   OH247876   6.775   5.917  11.833
 7894TIP3    H147877   6.840   5.870  11.886
 7894TIP3    H247878   6.788   5.884  11.744
 7895TIP3   OH247879   7.437   5.841  10.119
 7895TIP3    H147880   7.400   5.788  10.188
 7895TIP3    H247881   7.531   5.826  10.124
 7896TIP3   OH247882   7.581   5.719  11.811
 7896TIP3    H147883   7.574   5.647  11.874
 7896TIP3    H247884   7.655   5.771  11.842
 7897TIP3   OH247885   7.717   5.819  10.163
 7897TIP3    H147886   7.705   5.726  10.186
 7897TIP3    H247887   7.812   5.832  10.163
 7898TIP3   OH247888   6.327   5.466  11.783
 7898TIP3    H147889   6.281   5.407  11.843
 7898TIP3    H247890   6.276   5.463  11.702
 7899TIP3   OH247891   6.882   5.355  10.085
 7899TIP3    H147892   6.921   5.297  10.150
 7899TIP3    H247893   6.957   5.393  10.038
 7900TIP3   OH247894   7.021   5.433  11.716
 7900TIP3    H147895   7.010   5.481  11.634
 7900TIP3    H247896   7.064   5.352  11.692
 7901TIP3   OH247897   7.781   5.398  11.519
 7901TIP3    H147898   7.860   5.429  11.475
 7901TIP3    H247899   7.730   5.477  11.536
 7902TIP3   OH247900   6.624   5.064  11.797
 7902TIP3    H147901   6.636   4.983  11.847
 7902TIP3    H247902   6.561   5.114  11.847
 7903TIP3   OH247903   6.995   5.188  10.276
 7903TIP3    H147904   6.924   5.178  10.339
 7903TIP3    H247905   7.031   5.100  10.267
 7904TIP3   OH247906   6.958   4.935  11.441
 7904TIP3    H147907   6.875   4.969  11.475
 7904TIP3    H247908   7.009   5.013  11.420
 7905TIP3   OH247909   7.113   4.938  10.256
 7905TIP3    H147910   7.102   4.869  10.191
 7905TIP3    H247911   7.207   4.950  10.263
 7906TIP3   OH247912   7.539   5.284  11.870
 7906TIP3    H147913   7.489   5.230  11.809
 7906TIP3    H247914   7.626   5.242  11.873
 7907TIP3   OH247915   8.117   5.275  19.910
 7907TIP3    H147916   8.153   5.192  19.942
 7907TIP3    H247917   8.194   5.326  19.885
 7908TIP3   OH247918   6.969   4.689  11.567
 7908TIP3    H147919   6.975   4.626  11.495
 7908TIP3    H247920   6.959   4.773  11.523
 7909TIP3   OH247921   6.991   4.537  11.337
 7909TIP3    H147922   7.023   4.607  11.281
 7909TIP3    H247923   6.909   4.508  11.296
 7910TIP3   OH247924   7.109   5.153  11.362
 7910TIP3    H147925   7.191   5.145  11.313
 7910TIP3    H247926   7.055   5.212  11.309
 7911TIP3   OH247927   7.476   4.902  11.907
 7911TIP3    H147928   7.520   4.818  11.922
 7911TIP3    H247929   7.522   4.963  11.964
 7912TIP3   OH247930   7.832   5.138  11.590
 7912TIP3    H147931   7.804   5.226  11.565
 7912TIP3    H247932   7.926   5.146  11.604
 7913TIP3   OH247933   6.809   4.594  11.777
 7913TIP3    H147934   6.715   4.606  11.758
 7913TIP3    H247935   6.853   4.624  11.698
 7914TIP3   OH247936   7.053   4.286  11.461
 7914TIP3    H147937   7.041   4.376  11.430
 7914TIP3    H247938   6.975   4.240  11.431
 7915TIP3   OH247939   7.117   4.727  11.793
 7915TIP3    H147940   7.078   4.664  11.853
 7915TIP3    H247941   7.072   4.713  11.710
 7916TIP3   OH247942   7.550   4.512  11.577
 7916TIP3    H147943   7.464   4.535  11.612
 7916TIP3    H247944   7.589   4.456  11.644
 7917TIP3   OH247945   7.632   4.361  11.791
 7917TIP3    H147946   7.684   4.286  11.820
 7917TIP3    H247947   7.615   4.411  11.871
 7918TIP3   OH247948   6.513   4.574  11.746
 7918TIP3    H147949   6.539   4.487  11.715
 7918TIP3    H247950   6.520   4.569  11.842
 7919TIP3   OH247951   7.011   4.128  11.701
 7919TIP3    H147952   7.070   4.053  11.696
 7919TIP3    H247953   7.030   4.178  11.621
 7920TIP3   OH247954   7.087   4.246  11.947
 7920TIP3    H147955   7.055   4.204  11.867
 7920TIP3    H247956   7.055   4.336  11.941
 7921TIP3   OH247957   7.110   6.082  10.253
 7921TIP3    H147958   7.203   6.090  10.229
 7921TIP3    H247959   7.070   6.162  10.219
 7922TIP3   OH247960   6.443   5.632  10.210
 7922TIP3    H147961   6.534   5.605  10.206
 7922TIP3    H247962   6.398   5.576  10.146
 7923TIP3   OH247963   6.308   6.124  10.670
 7923TIP3    H147964   6.221   6.119  10.631
 7923TIP3    H247965   6.309   6.053  10.734
 7924TIP3   OH247966   6.359   5.907  10.838
 7924TIP3    H147967   6.313   5.840  10.888
 7924TIP3    H247968   6.416   5.950  10.903
 7925TIP3   OH247969   8.203   6.043  11.149
 7925TIP3    H147970   8.220   5.973  11.212
 7925TIP3    H247971   8.213   6.124  11.200
 7926TIP3   OH247972   8.230   5.813  11.302
 7926TIP3    H147973   8.142   5.779  11.286
 7926TIP3    H247974   8.241   5.807  11.397
 7927TIP3   OH247975   8.116   5.547  11.913
 7927TIP3    H147976   8.022   5.548  11.931
 7927TIP3    H247977   8.148   5.630  11.950
 7928TIP3   OH247978   8.122   5.311  10.432
 7928TIP3    H147979   8.190   5.377  10.444
 7928TIP3    H247980   8.138   5.247  10.501
 7929TIP3   OH247981   8.168   5.122  10.631
 7929TIP3    H147982   8.083   5.077  10.629
 7929TIP3    H247983   8.191   5.125  10.724
 7930TIP3   OH247984   8.332   5.435  11.049
 7930TIP3    H147985   8.421   5.421  11.016
 7930TIP3    H247986   8.323   5.530  11.055
 7931TIP3   OH247987   7.969   5.727  11.278
 7931TIP3    H147988   7.911   5.769  11.342
 7931TIP3    H247989   7.923   5.736  11.195
 7932TIP3   OH247990   8.042   5.108  10.252
 7932TIP3    H147991   7.973   5.142  10.196
 7932TIP3    H247992   8.069   5.183  10.305
 7933TIP3   OH247993   8.054   4.687  10.148
 7933TIP3    H147994   7.989   4.686  10.077
 7933TIP3    H247995   8.080   4.595  10.157
 7934TIP3   OH247996   7.925   4.991  10.646
 7934TIP3    H147997   7.927   4.898  10.619
 7934TIP3    H247998   7.889   4.989  10.734
 7935TIP3   OH247999   6.278   5.159  11.069
 7935TIP3    H148000   6.304   5.148  10.978
 7935TIP3    H248001   6.331   5.095  11.118
 7936TIP3   OH248002   8.103   5.168  11.648
 7936TIP3    H148003   8.158   5.090  11.637
 7936TIP3    H248004   8.153   5.239  11.609
 7937TIP3   OH248005   8.223   4.909  11.598
 7937TIP3    H148006   8.140   4.875  11.631
 7937TIP3    H248007   8.280   4.831  11.594
 7938TIP3   OH248008   8.132   4.427  10.178
 7938TIP3    H148009   8.224   4.402  10.164
 7938TIP3    H248010   8.091   4.348  10.213
 7939TIP3   OH248011   7.936   4.731  10.522
 7939TIP3    H148012   7.966   4.640  10.522
 7939TIP3    H248013   7.999   4.777  10.466
 7940TIP3   OH248014   7.964   4.810  11.045
 7940TIP3    H148015   8.050   4.831  11.010
 7940TIP3    H248016   7.973   4.822  11.140
 7941TIP3   OH248017   8.007   4.877  11.310
 7941TIP3    H148018   7.922   4.895  11.350
 7941TIP3    H248019   8.044   4.964  11.293
 7942TIP3   OH248020   6.287   4.649  11.597
 7942TIP3    H148021   6.367   4.637  11.648
 7942TIP3    H248022   6.226   4.584  11.633
 7943TIP3   OH248023   8.295   4.207  11.795
 7943TIP3    H148024   8.385   4.179  11.781
 7943TIP3    H248025   8.288   4.290  11.748
 7944TIP3   OH248026   8.010   4.456  10.533
 7944TIP3    H148027   8.040   4.414  10.615
 7944TIP3    H248028   7.937   4.401  10.504
 7945TIP3   OH248029   6.475   4.463  10.943
 7945TIP3    H148030   6.518   4.379  10.958
 7945TIP3    H248031   6.539   4.529  10.970
 7946TIP3   OH248032   6.226   4.836  11.024
 7946TIP3    H148033   6.291   4.814  10.957
 7946TIP3    H248034   6.277   4.873  11.096
 7947TIP3   OH248035   8.211   4.455  11.695
 7947TIP3    H148036   8.170   4.467  11.781
 7947TIP3    H248037   8.140   4.469  11.632
 7948TIP3   OH248038   8.403   4.389  10.186
 7948TIP3    H148039   0.024   4.339  10.229
 7948TIP3    H248040   8.448   4.459  10.139
 7949TIP3   OH248041   6.253   4.480  10.502
 7949TIP3    H148042   6.158   4.471  10.509
 7949TIP3    H248043   6.266   4.552  10.441
 7950TIP3   OH248044   7.851   6.088  10.685
 7950TIP3    H148045   7.932   6.069  10.638
 7950TIP3    H248046   7.877   6.148  10.754
 7951TIP3   OH248047   6.270   4.223  11.366
 7951TIP3    H148048   6.201   4.186  11.422
 7951TIP3    H248049   6.224   4.284  11.309
 7952TIP3   OH248050   6.518   5.782  11.516
 7952TIP3    H148051   6.440   5.817  11.557
 7952TIP3    H248052   6.531   5.697  11.558
 7953TIP3   OH248053   6.897   6.009  11.399
 7953TIP3    H148054   6.864   6.097  11.382
 7953TIP3    H248055   6.978   6.003  11.347
 7954TIP3   OH248056   7.242   6.019  11.632
 7954TIP3    H148057   7.267   5.964  11.707
 7954TIP3    H248058   7.321   6.067  11.610
 7955TIP3   OH248059   7.479   6.153  11.577
 7955TIP3    H148060   7.534   6.103  11.516
 7955TIP3    H248061   7.536   6.171  11.652
 7956TIP3   OH248062   8.018   4.123  11.423
 7956TIP3    H148063   7.959   4.185  11.379
 7956TIP3    H248064   7.982   4.037  11.403
 7957TIP3   OH248065   6.531   6.348  11.397
 7957TIP3    H148066   6.447   6.325  11.358
 7957TIP3    H248067   6.519   6.333  11.491
 7958TIP3   OH248068   6.807   6.266  11.340
 7958TIP3    H148069   6.716   6.291  11.359
 7958TIP3    H248070   6.815   6.279  11.245
 7959TIP3   OH248071   7.384   6.112  11.219
 7959TIP3    H148072   7.395   6.136  11.128
 7959TIP3    H248073   7.363   6.195  11.263
 7960TIP3   OH248074   7.606   6.022  11.353
 7960TIP3    H148075   7.525   6.051  11.310
 7960TIP3    H248076   7.675   6.075  11.313
 7961TIP3   OH248077   7.807   6.162  11.225
 7961TIP3    H148078   7.816   6.245  11.179
 7961TIP3    H248079   7.849   6.098  11.168
 7962TIP3   OH248080   6.533   6.000  11.040
 7962TIP3    H148081   6.515   5.943  11.116
 7962TIP3    H248082   6.617   5.969  11.006
 7963TIP3   OH248083   6.764   5.889  10.941
 7963TIP3    H148084   6.764   5.798  10.971
 7963TIP3    H248085   6.851   5.922  10.963
 7964TIP3   OH248086   7.028   5.939  11.017
 7964TIP3    H148087   7.056   5.851  10.994
 7964TIP3    H248088   7.061   5.952  11.106
 7965TIP3   OH248089   7.481   4.344  10.936
 7965TIP3    H148090   7.451   4.268  10.986
 7965TIP3    H248091   7.551   4.310  10.880
 7966TIP3   OH248092   7.928   4.171  10.880
 7966TIP3    H148093   7.990   4.231  10.840
 7966TIP3    H248094   7.842   4.207  10.857
 7967TIP3   OH248095   8.128   4.306  10.739
 7967TIP3    H148096   8.184   4.228  10.736
 7967TIP3    H248097   8.190   4.378  10.751
 7968TIP3   OH248098   6.514   4.169  10.690
 7968TIP3    H148099   6.422   4.147  10.671
 7968TIP3    H248100   6.564   4.092  10.663
 7969TIP3   OH248101   6.363   4.294  10.324
 7969TIP3    H148102   6.458   4.309  10.324
 7969TIP3    H248103   6.331   4.346  10.398
 7970TIP3   OH248104   7.055   4.044  10.758
 7970TIP3    H148105   7.125   4.101  10.728
 7970TIP3    H248106   7.052   4.058  10.853
 7971TIP3   OH248107   7.665   4.208  10.784
 7971TIP3    H148108   7.661   4.211  10.688
 7971TIP3    H248109   7.639   4.119  10.807
 7972TIP3   OH248110   7.819   4.265  10.457
 7972TIP3    H148111   7.745   4.324  10.467
 7972TIP3    H248112   7.781   4.177  10.464
 7973TIP3   OH248113   6.435   6.025  10.446
 7973TIP3    H148114   6.376   6.041  10.373
 7973TIP3    H248115   6.394   6.069  10.520
 7974TIP3   OH248116   6.640   4.334  10.355
 7974TIP3    H148117   6.654   4.239  10.359
 7974TIP3    H248118   6.718   4.367  10.311
 7975TIP3   OH248119   7.206   4.500  10.388
 7975TIP3    H148120   7.247   4.419  10.419
 7975TIP3    H248121   7.227   4.565  10.454
 7976TIP3   OH248122   7.381   6.095  10.198
 7976TIP3    H148123   7.470   6.129  10.184
 7976TIP3    H248124   7.382   6.008  10.160
 7977TIP3   OH248125   8.088   6.070  10.539
 7977TIP3    H148126   8.059   5.983  10.512
 7977TIP3    H248127   8.073   6.125  10.462
 7978TIP3   OH248128   6.611   4.351  11.616
 7978TIP3    H148129   6.580   4.299  11.542
 7978TIP3    H248130   6.657   4.287  11.672
 7979TIP3   OH248131   6.725   4.115  11.729
 7979TIP3    H148132   6.820   4.114  11.716
 7979TIP3    H248133   6.692   4.051  11.666
 7980TIP3   OH248134   6.676   6.140  10.358
 7980TIP3    H148135   6.595   6.101  10.390
 7980TIP3    H248136   6.736   6.065  10.349
 7981TIP3   OH248137   7.790   4.132  11.864
 7981TIP3    H148138   7.800   4.040  11.888
 7981TIP3    H248139   7.866   4.150  11.809
 7982TIP3   OH248140   7.951   5.884  11.674
 7982TIP3    H148141   7.896   5.863  11.599
 7982TIP3    H248142   7.946   5.979  11.681
 7983TIP3   OH248143   8.339   4.955  10.481
 7983TIP3    H148144   8.290   5.018  10.535
 7983TIP3    H248145   8.271   4.908  10.433
 7984TIP3   OH248146   8.371   5.349  11.319
 7984TIP3    H148147   8.344   5.365  11.229
 7984TIP3    H248148   8.360   5.255  11.332
 7985TIP3   OH248149   8.363   5.713  11.072
 7985TIP3    H148150   0.008   5.735  11.075
 7985TIP3    H248151   8.328   5.748  11.153
 7986TIP3   OH248152   8.302   4.515  10.726
 7986TIP3    H148153   8.385   4.553  10.756
 7986TIP3    H248154   8.300   4.533  10.632
 7987TIP3   OH248155   8.328   5.084  11.417
 7987TIP3    H148156   8.299   5.020  11.483
 7987TIP3    H248157   8.257   5.086  11.353
 7988TIP3   OH248158   8.361   5.482  11.767
 7988TIP3    H148159   8.290   5.499  11.829
 7988TIP3    H248160   8.317   5.450  11.689
 7989TIP3   OH248161   8.277   6.165  10.717
 7989TIP3    H148162   8.214   6.128  10.655
 7989TIP3    H248163   8.287   6.097  10.784
 7990TIP3   OH248164   8.311   5.963  10.908
 7990TIP3    H148165   8.316   5.869  10.927
 7990TIP3    H248166   8.276   6.001  10.989
 7991TIP3   OH248167   8.295   5.162  11.004
 7991TIP3    H148168   8.287   5.258  11.010
 7991TIP3    H248169   8.389   5.146  11.000
 7992TIP3   OH248170   8.356   4.664  11.560
 7992TIP3    H148171   0.002   4.656  11.570
 7992TIP3    H248172   8.320   4.591  11.611
 7993TIP3   OH248173   8.212   4.901  10.973
 7993TIP3    H148174   8.294   4.857  10.994
 7993TIP3    H248175   8.233   4.994  10.972
 7994TIP3   OH248176   8.270   4.508  10.442
 7994TIP3    H148177   8.177   4.504  10.466
 7994TIP3    H248178   8.270   4.497  10.347
 7995TIP3   OH248179   8.250   4.209  11.289
 7995TIP3    H148180   8.186   4.179  11.354
 7995TIP3    H248181   8.208   4.284  11.247
 7996TIP3   OH248182   1.405   7.356  10.580
 7996TIP3    H148183   1.392   7.451  10.582
 7996TIP3    H248184   1.323   7.321  10.545
 7997TIP3   OH248185   1.073   7.178  11.118
 7997TIP3    H148186   1.155   7.147  11.157
 7997TIP3    H248187   1.054   7.116  11.048
 7998TIP3   OH248188   0.353   7.122  11.128
 7998TIP3    H148189   0.369   7.059  11.197
 7998TIP3    H248190   0.440   7.152  11.102
 7999TIP3   OH248191   1.677   7.597  10.876
 7999TIP3    H148192   1.684   7.510  10.917
 7999TIP3    H248193   1.672   7.657  10.950
 8000TIP3   OH248194   0.462   7.640  11.101
 8000TIP3    H148195   0.476   7.567  11.040
 8000TIP3    H248196   0.532   7.703  11.079
 8001TIP3   OH248197   0.122   7.050  10.514
 8001TIP3    H148198   0.145   7.087  10.599
 8001TIP3    H248199   0.036   7.011  10.528
 8002TIP3   OH248200   0.253   7.153  10.750
 8002TIP3    H148201   0.276   7.071  10.794
 8002TIP3    H248202   0.329   7.175  10.697
 8003TIP3   OH248203   1.356   7.995  10.908
 8003TIP3    H148204   1.446   7.977  10.879
 8003TIP3    H248205   1.348   7.947  10.990
 8004TIP3   OH248206   1.013   7.454  11.123
 8004TIP3    H148207   1.044   7.364  11.114
 8004TIP3    H248208   1.092   7.505  11.144
 8005TIP3   OH248209   1.996   6.456  11.149
 8005TIP3    H148210   1.988   6.533  11.206
 8005TIP3    H248211   2.040   6.489  11.071
 8006TIP3   OH248212   1.407   6.927  11.010
 8006TIP3    H148213   1.460   6.848  11.003
 8006TIP3    H248214   1.338   6.915  10.945
 8007TIP3   OH248215   0.643   6.644  10.780
 8007TIP3    H148216   0.638   6.732  10.744
 8007TIP3    H248217   0.587   6.592  10.723
 8008TIP3   OH248218   1.444   6.699  10.718
 8008TIP3    H148219   1.490   6.696  10.802
 8008TIP3    H248220   1.509   6.732  10.656
 8009TIP3   OH248221   0.300   6.906  10.866
 8009TIP3    H148222   0.358   6.866  10.930
 8009TIP3    H248223   0.308   6.851  10.788
 8010TIP3   OH248224   0.757   7.093  10.851
 8010TIP3    H148225   0.841   7.055  10.873
 8010TIP3    H248226   0.711   7.025  10.803
 8011TIP3   OH248227   1.980   6.671  11.311
 8011TIP3    H148228   1.946   6.760  11.298
 8011TIP3    H248229   2.036   6.678  11.388
 8012TIP3   OH248230   0.547   6.584  11.242
 8012TIP3    H148231   0.523   6.637  11.165
 8012TIP3    H248232   0.485   6.613  11.309
 8013TIP3   OH248233   1.385   7.645  10.545
 8013TIP3    H148234   1.314   7.625  10.484
 8013TIP3    H248235   1.354   7.720  10.596
 8014TIP3   OH248236   0.753   7.410  11.193
 8014TIP3    H148237   0.723   7.484  11.246
 8014TIP3    H248238   0.841   7.436  11.164
 8015TIP3   OH248239   1.578   6.713  10.960
 8015TIP3    H148240   1.579   6.630  11.006
 8015TIP3    H248241   1.662   6.754  10.982
 8016TIP3   OH248242   0.517   6.743  11.009
 8016TIP3    H148243   0.570   6.812  11.048
 8016TIP3    H248244   0.572   6.707  10.939
 8017TIP3   OH248245   0.667   7.625  11.353
 8017TIP3    H148246   0.655   7.719  11.338
 8017TIP3    H248247   0.581   7.595  11.385
 8018TIP3   OH248248   0.138   7.604  10.429
 8018TIP3    H148249   0.162   7.652  10.350
 8018TIP3    H248250   0.125   7.672  10.495
 8019TIP3   OH248251   1.630   7.811  11.061
 8019TIP3    H148252   1.539   7.818  11.091
 8019TIP3    H248253   1.632   7.862  10.980
 8020TIP3   OH248254   1.756   6.329  11.215
 8020TIP3    H148255   1.690   6.384  11.172
 8020TIP3    H248256   1.840   6.366  11.186
 8021TIP3   OH248257   0.819   6.220  10.967
 8021TIP3    H148258   0.816   6.127  10.990
 8021TIP3    H248259   0.750   6.261  11.019
 8022TIP3   OH248260   1.606   7.937  10.808
 8022TIP3    H148261   1.623   7.868  10.743
 8022TIP3    H248262   1.631   8.018  10.764
 8023TIP3   OH248263   1.646   7.718  10.632
 8023TIP3    H148264   1.562   7.685  10.600
 8023TIP3    H248265   1.664   7.665  10.710
 8024TIP3   OH248266   1.814   7.586  11.431
 8024TIP3    H148267   1.827   7.521  11.362
 8024TIP3    H248268   1.813   7.670  11.385
 8025TIP3   OH248269   1.182   7.231  10.456
 8025TIP3    H148270   1.111   7.294  10.443
 8025TIP3    H248271   1.196   7.193  10.369
 8026TIP3   OH248272   1.250   7.064  10.237
 8026TIP3    H148273   1.338   7.096  10.217
 8026TIP3    H248274   1.265   6.979  10.280
 8027TIP3   OH248275   1.979   7.178  11.257
 8027TIP3    H148276   1.924   7.257  11.250
 8027TIP3    H248277   2.055   7.198  11.203
 8028TIP3   OH248278   1.624   7.213  10.502
 8028TIP3    H148279   1.550   7.260  10.542
 8028TIP3    H248280   1.671   7.175  10.576
 8029TIP3   OH248281   1.484   7.007  11.479
 8029TIP3    H148282   1.501   7.083  11.535
 8029TIP3    H248283   1.432   7.042  11.407
 8030TIP3   OH248284   0.662   7.319  10.709
 8030TIP3    H148285   0.592   7.280  10.657
 8030TIP3    H248286   0.706   7.245  10.750
 8031TIP3   OH248287   0.687   7.744  10.952
 8031TIP3    H148288   0.684   7.748  10.857
 8031TIP3    H248289   0.717   7.655  10.972
 8032TIP3   OH248290   0.613   7.207  11.060
 8032TIP3    H148291   0.669   7.177  10.987
 8032TIP3    H248292   0.666   7.272  11.105
 8033TIP3   OH248293   1.362   7.839  11.144
 8033TIP3    H148294   1.343   7.898  11.217
 8033TIP3    H248295   1.314   7.759  11.165
 8034TIP3   OH248296   0.846   7.705  11.553
 8034TIP3    H148297   0.783   7.767  11.589
 8034TIP3    H248298   0.801   7.663  11.480
 8035TIP3   OH248299   1.539   7.103  10.266
 8035TIP3    H148300   1.569   7.139  10.349
 8035TIP3    H248301   1.551   7.174  10.203
 8036TIP3   OH248302   0.456   7.170  11.504
 8036TIP3    H148303   0.472   7.243  11.564
 8036TIP3    H248304   0.367   7.185  11.472
 8037TIP3   OH248305   1.270   7.869  10.675
 8037TIP3    H148306   1.287   7.906  10.762
 8037TIP3    H248307   1.177   7.885  10.660
 8038TIP3   OH248308   0.643   7.880  11.617
 8038TIP3    H148309   0.641   7.902  11.524
 8038TIP3    H248310   0.551   7.866  11.641
 8039TIP3   OH248311   1.814   6.285  10.346
 8039TIP3    H148312   1.727   6.306  10.381
 8039TIP3    H248313   1.846   6.369  10.311
 8040TIP3   OH248314   0.450   7.218  10.561
 8040TIP3    H148315   0.411   7.295  10.519
 8040TIP3    H248316   0.454   7.152  10.492
 8041TIP3   OH248317   2.027   7.810  10.298
 8041TIP3    H148318   2.033   7.899  10.263
 8041TIP3    H248319   2.104   7.765  10.264
 8042TIP3   OH248320   0.168   7.473  11.360
 8042TIP3    H148321   0.073   7.488  11.358
 8042TIP3    H248322   0.178   7.382  11.387
 8043TIP3   OH248323   0.173   7.733  11.089
 8043TIP3    H148324   0.199   7.695  11.005
 8043TIP3    H248325   0.202   7.824  11.084
 8044TIP3   OH248326   2.043   7.902  11.666
 8044TIP3    H148327   2.046   7.809  11.645
 8044TIP3    H248328   1.953   7.918  11.693
 8045TIP3   OH248329   1.104   7.805  11.512
 8045TIP3    H148330   1.096   7.895  11.544
 8045TIP3    H248331   1.014   7.771  11.514
 8046TIP3   OH248332   1.118   8.200  10.569
 8046TIP3    H148333   1.058   8.188  10.496
 8046TIP3    H248334   1.087   8.279  10.613
 8047TIP3   OH248335   0.414   8.072  10.742
 8047TIP3    H148336   0.450   8.042  10.825
 8047TIP3    H248337   0.325   8.036  10.741
 8048TIP3   OH248338   1.420   8.105  10.305
 8048TIP3    H148339   1.478   8.032  10.284
 8048TIP3    H248340   1.405   8.098  10.399
 8049TIP3   OH248341   1.374   8.108  10.574
 8049TIP3    H148342   1.286   8.148  10.574
 8049TIP3    H248343   1.360   8.018  10.603
 8050TIP3   OH248344   1.745   6.906  11.526
 8050TIP3    H148345   1.656   6.941  11.526
 8050TIP3    H248346   1.733   6.811  11.536
 8051TIP3   OH248347   0.420   7.534  11.452
 8051TIP3    H148348   0.457   7.501  11.533
 8051TIP3    H248349   0.332   7.498  11.448
 8052TIP3   OH248350   0.607   6.328  11.125
 8052TIP3    H148351   0.539   6.330  11.057
 8052TIP3    H248352   0.595   6.409  11.173
 8053TIP3   OH248353   1.177   6.332  11.405
 8053TIP3    H148354   1.208   6.282  11.480
 8053TIP3    H248355   1.086   6.353  11.425
 8054TIP3   OH248356   1.437   6.718  11.468
 8054TIP3    H148357   1.391   6.699  11.550
 8054TIP3    H248358   1.452   6.813  11.470
 8055TIP3   OH248359   1.586   7.346  10.146
 8055TIP3    H148360   1.536   7.425  10.126
 8055TIP3    H248361   1.652   7.375  10.209
 8056TIP3   OH248362   1.054   6.697  10.212
 8056TIP3    H148363   1.024   6.630  10.273
 8056TIP3    H248364   0.975   6.730  10.171
 8057TIP3   OH248365   0.651   6.938  11.156
 8057TIP3    H148366   0.584   6.936  11.224
 8057TIP3    H248367   0.657   7.031  11.131
 8058TIP3   OH248368   0.613   6.908  10.697
 8058TIP3    H148369   0.521   6.887  10.682
 8058TIP3    H248370   0.656   6.890  10.614
 8059TIP3   OH248371   1.196   6.971  10.561
 8059TIP3    H148372   1.184   7.064  10.541
 8059TIP3    H248373   1.275   6.947  10.512
 8060TIP3   OH248374   1.117   6.937  11.642
 8060TIP3    H148375   1.083   6.860  11.687
 8060TIP3    H248376   1.204   6.951  11.681
 8061TIP3   OH248377   1.227   6.859  10.808
 8061TIP3    H148378   1.210   6.909  10.729
 8061TIP3    H248379   1.285   6.788  10.780
 8062TIP3   OH248380   0.441   6.947  11.332
 8062TIP3    H148381   0.447   7.008  11.405
 8062TIP3    H248382   0.416   6.864  11.373
 8063TIP3   OH248383   0.799   6.769  10.114
 8063TIP3    H148384   0.758   6.705  10.173
 8063TIP3    H248385   0.775   6.738  10.026
 8064TIP3   OH248386   0.090   6.641  10.747
 8064TIP3    H148387   0.163   6.624  10.806
 8064TIP3    H248388   0.124   6.619  10.660
 8065TIP3   OH248389   0.252   6.836  10.390
 8065TIP3    H148390   0.308   6.864  10.317
 8065TIP3    H248391   0.207   6.916  10.418
 8066TIP3   OH248392   1.295   7.048  11.235
 8066TIP3    H148393   1.339   7.002  11.164
 8066TIP3    H248394   1.238   6.982  11.275
 8067TIP3   OH248395   0.921   6.630  10.756
 8067TIP3    H148396   0.827   6.630  10.774
 8067TIP3    H248397   0.952   6.547  10.793
 8068TIP3   OH248398   0.376   6.780  10.631
 8068TIP3    H148399   0.331   6.796  10.548
 8068TIP3    H248400   0.397   6.687  10.629
 8069TIP3   OH248401   0.731   6.829  10.465
 8069TIP3    H148402   0.825   6.821  10.483
 8069TIP3    H248403   0.725   6.896  10.397
 8070TIP3   OH248404   1.555   6.467  11.085
 8070TIP3    H148405   1.486   6.477  11.151
 8070TIP3    H248406   1.518   6.405  11.022
 8071TIP3   OH248407   0.679   6.989  10.248
 8071TIP3    H148408   0.587   6.977  10.225
 8071TIP3    H248409   0.727   6.932  10.187
 8072TIP3   OH248410   1.760   8.251  11.665
 8072TIP3    H148411   1.785   8.267  11.574
 8072TIP3    H248412   1.827   8.296  11.716
 8073TIP3   OH248413   0.449   7.384  11.686
 8073TIP3    H148414   0.510   7.394  11.759
 8073TIP3    H248415   0.364   7.403  11.724
 8074TIP3   OH248416   0.998   6.964  10.945
 8074TIP3    H148417   1.069   6.921  10.897
 8074TIP3    H248418   0.970   6.899  11.010
 8075TIP3   OH248419   0.462   6.519  10.601
 8075TIP3    H148420   0.425   6.438  10.637
 8075TIP3    H248421   0.465   6.504  10.507
 8076TIP3   OH248422   0.909   6.827  11.178
 8076TIP3    H148423   0.829   6.880  11.181
 8076TIP3    H248424   0.967   6.867  11.243
 8077TIP3   OH248425   0.971   7.402  10.395
 8077TIP3    H148426   0.913   7.351  10.340
 8077TIP3    H248427   0.913   7.445  10.458
 8078TIP3   OH248428   1.858   7.424  11.207
 8078TIP3    H148429   1.936   7.463  11.168
 8078TIP3    H248430   1.799   7.409  11.134
 8079TIP3   OH248431   1.285   6.654  10.363
 8079TIP3    H148432   1.215   6.669  10.299
 8079TIP3    H248433   1.330   6.738  10.369
 8080TIP3   OH248434   1.172   7.539  11.480
 8080TIP3    H148435   1.211   7.505  11.561
 8080TIP3    H248436   1.148   7.629  11.502
 8081TIP3   OH248437   1.419   6.896  10.408
 8081TIP3    H148438   1.488   6.854  10.459
 8081TIP3    H248439   1.464   6.964  10.357
 8082TIP3   OH248440   0.544   7.447  10.927
 8082TIP3    H148441   0.578   7.424  10.840
 8082TIP3    H248442   0.544   7.365  10.976
 8083TIP3   OH248443   1.175   7.594  10.383
 8083TIP3    H148444   1.134   7.674  10.350
 8083TIP3    H248445   1.106   7.528  10.377
 8084TIP3   OH248446   0.167   7.220  11.473
 8084TIP3    H148447   0.183   7.185  11.560
 8084TIP3    H248448   0.075   7.198  11.455
 8085TIP3   OH248449   0.916   7.128  11.678
 8085TIP3    H148450   0.846   7.095  11.620
 8085TIP3    H248451   0.991   7.072  11.658
 8086TIP3   OH248452   1.393   7.772  11.535
 8086TIP3    H148453   1.301   7.787  11.510
 8086TIP3    H248454   1.390   7.766  11.631
 8087TIP3   OH248455   2.019   6.931  10.315
 8087TIP3    H148456   1.926   6.912  10.315
 8087TIP3    H248457   2.026   7.021  10.281
 8088TIP3   OH248458   2.048   7.640  11.583
 8088TIP3    H148459   1.960   7.618  11.553
 8088TIP3    H248460   2.106   7.603  11.516
 8089TIP3   OH248461   1.802   7.869  10.452
 8089TIP3    H148462   1.764   7.803  10.510
 8089TIP3    H248463   1.874   7.824  10.408
 8090TIP3   OH248464   1.667   7.349  11.012
 8090TIP3    H148465   1.575   7.355  11.037
 8090TIP3    H248466   1.678   7.258  10.984
 8091TIP3   OH248467   0.678   7.768  10.679
 8091TIP3    H148468   0.685   7.863  10.671
 8091TIP3    H248469   0.638   7.740  10.596
 8092TIP3   OH248470   0.282   7.154  10.316
 8092TIP3    H148471   0.294   7.249  10.329
 8092TIP3    H248472   0.215   7.129  10.379
 8093TIP3   OH248473   0.796   7.523  10.573
 8093TIP3    H148474   0.784   7.597  10.633
 8093TIP3    H248475   0.752   7.450  10.618
 8094TIP3   OH248476   0.911   8.009  11.307
 8094TIP3    H148477   0.884   8.098  11.329
 8094TIP3    H248478   1.007   8.011  11.316
 8095TIP3   OH248479   0.669   8.039  10.627
 8095TIP3    H148480   0.578   8.060  10.650
 8095TIP3    H248481   0.720   8.111  10.663
 8096TIP3   OH248482   1.254   7.582  11.222
 8096TIP3    H148483   1.215   7.570  11.309
 8096TIP3    H248484   1.336   7.533  11.226
 8097TIP3   OH248485   1.557   7.613  10.305
 8097TIP3    H148486   1.628   7.555  10.332
 8097TIP3    H248487   1.496   7.612  10.380
 8098TIP3   OH248488   1.603   7.943  11.464
 8098TIP3    H148489   1.524   7.891  11.480
 8098TIP3    H248490   1.572   8.018  11.413
 8099TIP3   OH248491   2.066   8.086  10.242
 8099TIP3    H148492   2.128   8.158  10.243
 8099TIP3    H248493   1.980   8.128  10.242
 8100TIP3   OH248494   0.377   6.700  11.452
 8100TIP3    H148495   0.283   6.682  11.459
 8100TIP3    H248496   0.411   6.684  11.540
 8101TIP3   OH248497   1.748   7.413  10.361
 8101TIP3    H148498   1.707   7.345  10.414
 8101TIP3    H248499   1.840   7.414  10.390
 8102TIP3   OH248500   0.311   7.840  11.386
 8102TIP3    H148501   0.300   7.933  11.366
 8102TIP3    H248502   0.333   7.838  11.479
 8103TIP3   OH248503   0.680   7.716  10.398
 8103TIP3    H148504   0.741   7.649  10.428
 8103TIP3    H248505   0.733   7.795  10.387
 8104TIP3   OH248506   0.332   7.412  10.401
 8104TIP3    H148507   0.257   7.468  10.424
 8104TIP3    H248508   0.389   7.468  10.349
 8105TIP3   OH248509   1.372   6.505  11.287
 8105TIP3    H148510   1.390   6.575  11.349
 8105TIP3    H248511   1.307   6.450  11.331
 8106TIP3   OH248512   1.339   6.485  10.569
 8106TIP3    H148513   1.317   6.535  10.490
 8106TIP3    H248514   1.370   6.551  10.631
 8107TIP3   OH248515   1.052   7.829  10.310
 8107TIP3    H148516   0.972   7.867  10.345
 8107TIP3    H248517   1.097   7.903  10.268
 8108TIP3   OH248518   0.990   6.781  10.540
 8108TIP3    H148519   1.061   6.844  10.550
 8108TIP3    H248520   0.980   6.743  10.627
 8109TIP3   OH248521   1.117   6.878  11.369
 8109TIP3    H148522   1.110   6.913  11.457
 8109TIP3    H248523   1.149   6.788  11.381
 8110TIP3   OH248524   1.093   6.348  10.591
 8110TIP3    H148525   1.070   6.364  10.682
 8110TIP3    H248526   1.180   6.386  10.580
 8111TIP3   OH248527   0.823   7.959  10.410
 8111TIP3    H148528   0.866   8.039  10.382
 8111TIP3    H248529   0.769   7.985  10.485
 8112TIP3   OH248530   0.709   6.596  10.312
 8112TIP3    H148531   0.692   6.667  10.374
 8112TIP3    H248532   0.789   6.555  10.345
 8113TIP3   OH248533   1.708   6.634  11.498
 8113TIP3    H148534   1.613   6.639  11.489
 8113TIP3    H248535   1.738   6.594  11.416
 8114TIP3   OH248536   1.644   7.073  10.952
 8114TIP3    H148537   1.555   7.042  10.971
 8114TIP3    H248538   1.701   7.004  10.986
 8115TIP3   OH248539   0.486   7.588  10.252
 8115TIP3    H148540   0.545   7.641  10.305
 8115TIP3    H248541   0.545   7.536  10.196
 8116TIP3   OH248542   0.410   6.960  10.181
 8116TIP3    H148543   0.370   7.036  10.221
 8116TIP3    H248544   0.376   6.959  10.092
 8117TIP3   OH248545   1.800   8.248  11.137
 8117TIP3    H148546   1.762   8.282  11.056
 8117TIP3    H248547   1.890   8.225  11.114
 8118TIP3   OH248548   0.400   6.329  10.941
 8118TIP3    H148549   0.400   6.320  10.846
 8118TIP3    H248550   0.353   6.252  10.972
 8119TIP3   OH248551   0.119   7.835  10.579
 8119TIP3    H148552   0.135   7.879  10.663
 8119TIP3    H248553   0.118   7.906  10.515
 8120TIP3   OH248554   0.259   8.130  11.599
 8120TIP3    H148555   0.322   8.153  11.667
 8120TIP3    H248556   0.174   8.157  11.634
 8121TIP3   OH248557   0.654   8.044  11.858
 8121TIP3    H148558   0.735   8.073  11.899
 8121TIP3    H248559   0.682   7.997  11.779
 8122TIP3   OH248560   1.215   7.854  19.783
 8122TIP3    H148561   1.130   7.811  19.789
 8122TIP3    H248562   1.279   7.785  19.797
 8123TIP3   OH248563   1.387   7.761  11.812
 8123TIP3    H148564   1.378   7.695  11.881
 8123TIP3    H248565   1.462   7.814  11.839
 8124TIP3   OH248566   1.583   7.890  10.280
 8124TIP3    H148567   1.567   7.796  10.269
 8124TIP3    H248568   1.663   7.895  10.333
 8125TIP3   OH248569   0.198   7.433  11.803
 8125TIP3    H148570   0.192   7.355  11.858
 8125TIP3    H248571   0.107   7.451  11.777
 8126TIP3   OH248572   0.681   7.446  10.120
 8126TIP3    H148573   0.724   7.371  10.163
 8126TIP3    H248574   0.743   7.472  10.052
 8127TIP3   OH248575   0.846   7.396  11.711
 8127TIP3    H148576   0.867   7.431  11.625
 8127TIP3    H248577   0.874   7.305  11.709
 8128TIP3   OH248578   1.555   7.516  11.526
 8128TIP3    H148579   1.645   7.541  11.504
 8128TIP3    H248580   1.506   7.599  11.525
 8129TIP3   OH248581   0.246   7.117  11.715
 8129TIP3    H148582   0.341   7.107  11.712
 8129TIP3    H248583   0.228   7.144  11.805
 8130TIP3   OH248584   0.817   7.232  10.233
 8130TIP3    H148585   0.755   7.163  10.257
 8130TIP3    H248586   0.888   7.186  10.188
 8131TIP3   OH248587   0.721   7.046  11.491
 8131TIP3    H148588   0.636   7.090  11.494
 8131TIP3    H248589   0.764   7.083  11.414
 8132TIP3   OH248590   0.996   7.055  10.127
 8132TIP3    H148591   0.987   6.962  10.106
 8132TIP3    H248592   1.087   7.064  10.158
 8133TIP3   OH248593   1.299   7.338  11.977
 8133TIP3    H148594   1.387   7.312  11.952
 8133TIP3    H248595   1.244   7.262  11.955
 8134TIP3   OH248596   1.918   7.191  19.823
 8134TIP3    H148597   1.983   7.260  19.838
 8134TIP3    H248598   1.834   7.236  19.822
 8135TIP3   OH248599   0.764   6.781  11.570
 8135TIP3    H148600   0.784   6.725  11.495
 8135TIP3    H248601   0.757   6.869  11.533
 8136TIP3   OH248602   0.805   6.622  11.339
 8136TIP3    H148603   0.847   6.677  11.273
 8136TIP3    H248604   0.717   6.606  11.304
 8137TIP3   OH248605   0.844   7.164  11.278
 8137TIP3    H148606   0.929   7.163  11.233
 8137TIP3    H248607   0.809   7.251  11.261
 8138TIP3   OH248608   1.361   6.918  11.790
 8138TIP3    H148609   1.348   6.827  11.766
 8138TIP3    H248610   1.455   6.926  11.805
 8139TIP3   OH248611   1.578   7.249  11.618
 8139TIP3    H148612   1.556   7.336  11.586
 8139TIP3    H248613   1.673   7.249  11.624
 8140TIP3   OH248614   0.618   6.792  11.798
 8140TIP3    H148615   0.536   6.749  11.774
 8140TIP3    H248616   0.669   6.794  11.717
 8141TIP3   OH248617   0.900   6.371  11.426
 8141TIP3    H148618   0.876   6.463  11.413
 8141TIP3    H248619   0.841   6.322  11.367
 8142TIP3   OH248620   1.029   6.703  11.769
 8142TIP3    H148621   1.035   6.662  11.856
 8142TIP3    H248622   0.938   6.688  11.743
 8143TIP3   OH248623   1.298   6.664  11.699
 8143TIP3    H148624   1.204   6.662  11.721
 8143TIP3    H248625   1.335   6.591  11.747
 8144TIP3   OH248626   1.405   6.458  11.847
 8144TIP3    H148627   1.416   6.363  11.836
 8144TIP3    H248628   1.377   6.468  11.938
 8145TIP3   OH248629   0.388   6.627  11.743
 8145TIP3    H148630   0.366   6.543  11.702
 8145TIP3    H248631   0.408   6.605  11.834
 8146TIP3   OH248632   0.855   6.224  11.666
 8146TIP3    H148633   0.907   6.145  11.656
 8146TIP3    H248634   0.872   6.275  11.587
 8147TIP3   OH248635   0.905   6.337  11.911
 8147TIP3    H148636   0.892   6.290  11.829
 8147TIP3    H248637   0.851   6.415  11.903
 8148TIP3   OH248638   0.973   8.177  10.328
 8148TIP3    H148639   1.043   8.138  10.276
 8148TIP3    H248640   0.960   8.264  10.291
 8149TIP3   OH248641   0.253   7.734  10.212
 8149TIP3    H148642   0.335   7.688  10.229
 8149TIP3    H248643   0.252   7.747  10.117
 8150TIP3   OH248644   0.102   8.196  10.588
 8150TIP3    H148645   0.012   8.177  10.617
 8150TIP3    H248646   0.112   8.144  10.508
 8151TIP3   OH248647   0.153   7.965  10.827
 8151TIP3    H148648   0.059   7.981  10.834
 8151TIP3    H248649   0.188   7.983  10.914
 8152TIP3   OH248650   2.076   8.207  11.103
 8152TIP3    H148651   2.115   8.249  11.179
 8152TIP3    H248652   2.149   8.159  11.062
 8153TIP3   OH248653   1.952   8.030  11.425
 8153TIP3    H148654   1.915   7.959  11.372
 8153TIP3    H248655   1.997   7.985  11.497
 8154TIP3   OH248656   1.859   7.618  11.945
 8154TIP3    H148657   1.777   7.630  11.994
 8154TIP3    H248658   1.915   7.690  11.975
 8155TIP3   OH248659   2.009   7.359  10.451
 8155TIP3    H148660   2.076   7.427  10.463
 8155TIP3    H248661   2.021   7.301  10.527
 8156TIP3   OH248662   2.033   7.164  10.655
 8156TIP3    H148663   1.944   7.139  10.678
 8156TIP3    H248664   2.079   7.170  10.739
 8157TIP3   OH248665   2.117   7.499  11.135
 8157TIP3    H148666   2.160   7.417  11.109
 8157TIP3    H248667   2.179   7.568  11.111
 8158TIP3   OH248668   1.790   7.828  11.298
 8158TIP3    H148669   1.723   7.869  11.353
 8158TIP3    H248670   1.749   7.823  11.211
 8159TIP3   OH248671   2.029   7.197  10.232
 8159TIP3    H148672   1.973   7.237  10.165
 8159TIP3    H248673   2.018   7.253  10.309
 8160TIP3   OH248674   1.743   6.887  10.297
 8160TIP3    H148675   1.685   6.950  10.255
 8160TIP3    H248676   1.749   6.815  10.234
 8161TIP3   OH248677   1.765   7.075  10.701
 8161TIP3    H148678   1.748   6.984  10.676
 8161TIP3    H248679   1.724   7.083  10.787
 8162TIP3   OH248680   0.208   7.309  10.981
 8162TIP3    H148681   0.224   7.273  10.894
 8162TIP3    H248682   0.258   7.253  11.040
 8163TIP3   OH248683   1.857   7.257  11.652
 8163TIP3    H148684   1.885   7.168  11.671
 8163TIP3    H248685   1.921   7.289  11.588
 8164TIP3   OH248686   1.956   7.002  11.672
 8164TIP3    H148687   1.885   6.964  11.621
 8164TIP3    H248688   1.969   6.941  11.744
 8165TIP3   OH248689   1.782   6.673  10.131
 8165TIP3    H148690   1.862   6.626  10.151
 8165TIP3    H248691   1.738   6.620  10.064
 8166TIP3   OH248692   1.644   6.783  10.535
 8166TIP3    H148693   1.685   6.699  10.552
 8166TIP3    H248694   1.691   6.819  10.460
 8167TIP3   OH248695   1.803   6.860  11.031
 8167TIP3    H148696   1.890   6.868  10.992
 8167TIP3    H248697   1.817   6.872  11.125
 8168TIP3   OH248698   1.875   6.926  11.287
 8168TIP3    H148699   1.828   6.927  11.370
 8168TIP3    H248700   1.912   7.014  11.279
 8169TIP3   OH248701   0.127   6.624  11.591
 8169TIP3    H148702   0.174   6.656  11.668
 8169TIP3    H248703   0.145   6.530  11.590
 8170TIP3   OH248704   1.968   6.320  11.779
 8170TIP3    H148705   2.050   6.281  11.747
 8170TIP3    H248706   1.958   6.399  11.726
 8171TIP3   OH248707   1.749   6.532  10.577
 8171TIP3    H148708   1.822   6.484  10.616
 8171TIP3    H248709   1.690   6.463  10.545
 8172TIP3   OH248710   0.307   6.588  10.908
 8172TIP3    H148711   0.333   6.498  10.926
 8172TIP3    H248712   0.374   6.641  10.950
 8173TIP3   OH248713   0.070   7.001  11.010
 8173TIP3    H148714   0.122   6.953  10.945
 8173TIP3    H248715   0.135   7.036  11.072
 8174TIP3   OH248716   1.921   6.568  11.670
 8174TIP3    H148717   1.924   6.633  11.740
 8174TIP3    H248718   1.838   6.585  11.625
 8175TIP3   OH248719   2.012   6.533  10.189
 8175TIP3    H148720   2.062   6.451  10.186
 8175TIP3    H248721   2.077   6.599  10.212
 8176TIP3   OH248722   0.113   6.609  10.467
 8176TIP3    H148723   0.020   6.621  10.448
 8176TIP3    H248724   0.155   6.688  10.432
 8177TIP3   OH248725   1.682   8.176  10.686
 8177TIP3    H148726   1.765   8.164  10.641
 8177TIP3    H248727   1.702   8.239  10.756
 8178TIP3   OH248728   0.047   6.279  11.290
 8178TIP3    H148729   8.402   6.277  11.310
 8178TIP3    H248730   0.051   6.301  11.197
 8179TIP3   OH248731   0.370   7.850  11.660
 8179TIP3    H148732   0.324   7.931  11.682
 8179TIP3    H248733   0.351   7.791  11.733
 8180TIP3   OH248734   0.660   7.903  11.340
 8180TIP3    H148735   0.613   7.979  11.304
 8180TIP3    H248736   0.752   7.927  11.333
 8181TIP3   OH248737   1.066   8.051  11.637
 8181TIP3    H148738   1.088   7.999  11.715
 8181TIP3    H248739   1.141   8.110  11.626
 8182TIP3   OH248740   1.289   8.205  11.578
 8182TIP3    H148741   1.328   8.147  11.513
 8182TIP3    H248742   1.360   8.227  11.637
 8183TIP3   OH248743   1.859   6.197  11.440
 8183TIP3    H148744   1.812   6.235  11.366
 8183TIP3    H248745   1.874   6.106  11.414
 8184TIP3   OH248746   0.284   8.130  11.321
 8184TIP3    H148747   0.232   8.202  11.287
 8184TIP3    H248748   0.276   8.137  11.416
 8185TIP3   OH248749   0.554   8.146  11.254
 8185TIP3    H148750   0.462   8.149  11.279
 8185TIP3    H248751   0.564   8.214  11.187
 8186TIP3   OH248752   1.116   8.216  11.253
 8186TIP3    H148753   1.062   8.246  11.180
 8186TIP3    H248754   1.113   8.287  11.317
 8187TIP3   OH248755   1.329   8.055  11.326
 8187TIP3    H148756   1.256   8.108  11.295
 8187TIP3    H248757   1.407   8.102  11.295
 8188TIP3   OH248758   1.573   8.178  11.291
 8188TIP3    H148759   1.567   8.270  11.317
 8188TIP3    H248760   1.648   8.175  11.231
 8189TIP3   OH248761   0.275   7.986  11.077
 8189TIP3    H148762   0.273   8.041  11.155
 8189TIP3    H248763   0.366   7.989  11.047
 8190TIP3   OH248764   0.531   7.978  10.977
 8190TIP3    H148765   0.571   7.893  10.959
 8190TIP3    H248766   0.602   8.031  11.012
 8191TIP3   OH248767   0.807   7.989  11.052
 8191TIP3    H148768   0.792   7.899  11.022
 8191TIP3    H248769   0.850   7.979  11.137
 8192TIP3   OH248770   1.012   6.385  10.857
 8192TIP3    H148771   0.945   6.330  10.897
 8192TIP3    H248772   1.074   6.403  10.928
 8193TIP3   OH248773   1.758   6.234  10.841
 8193TIP3    H148774   1.817   6.300  10.805
 8193TIP3    H248775   1.677   6.282  10.859
 8194TIP3   OH248776   1.961   6.385  10.694
 8194TIP3    H148777   2.011   6.306  10.674
 8194TIP3    H248778   2.026   6.455  10.694
 8195TIP3   OH248779   0.361   6.271  10.676
 8195TIP3    H148780   0.268   6.250  10.665
 8195TIP3    H248781   0.406   6.188  10.664
 8196TIP3   OH248782   0.198   6.387  10.330
 8196TIP3    H148783   0.291   6.405  10.315
 8196TIP3    H248784   0.169   6.456  10.390
 8197TIP3   OH248785   0.848   6.153  10.692
 8197TIP3    H148786   0.911   6.215  10.655
 8197TIP3    H248787   0.835   6.182  10.782
 8198TIP3   OH248788   1.479   6.288  10.884
 8198TIP3    H148789   1.438   6.306  10.799
 8198TIP3    H248790   1.453   6.198  10.905
 8199TIP3   OH248791   1.570   6.341  10.483
 8199TIP3    H148792   1.492   6.395  10.500
 8199TIP3    H248793   1.538   6.251  10.482
 8200TIP3   OH248794   0.136   8.019  10.367
 8200TIP3    H148795   0.176   7.952  10.312
 8200TIP3    H248796   0.148   8.101  10.318
 8201TIP3   OH248797   0.472   6.446  10.333
 8201TIP3    H148798   0.493   6.352  10.327
 8201TIP3    H248799   0.553   6.490  10.307
 8202TIP3   OH248800   0.957   6.532  10.416
 8202TIP3    H148801   0.997   6.462  10.467
 8202TIP3    H248802   0.974   6.611  10.468
 8203TIP3   OH248803   1.176   8.057  10.188
 8203TIP3    H148804   1.259   8.079  10.230
 8203TIP3    H248805   1.199   8.041  10.096
 8204TIP3   OH248806   1.896   8.116  10.525
 8204TIP3    H148807   1.867   8.027  10.505
 8204TIP3    H248808   1.883   8.165  10.444
 8205TIP3   OH248809   0.313   6.377  11.646
 8205TIP3    H148810   0.250   6.312  11.677
 8205TIP3    H248811   0.396   6.351  11.687
 8206TIP3   OH248812   0.524   6.292  11.805
 8206TIP3    H148813   0.610   6.256  11.784
 8206TIP3    H248814   0.479   6.220  11.850
 8207TIP3   OH248815   0.453   8.171  10.181
 8207TIP3    H148816   0.501   8.142  10.258
 8207TIP3    H248817   0.521   8.199  10.119
 8208TIP3   OH248818   1.474   6.189  11.783
 8208TIP3    H148819   1.465   6.128  11.856
 8208TIP3    H248820   1.566   6.181  11.757
 8209TIP3   OH248821   1.768   7.972  11.692
 8209TIP3    H148822   1.718   7.949  11.614
 8209TIP3    H248823   1.770   8.068  11.691
 8210TIP3   OH248824   3.467   7.350  10.601
 8210TIP3    H148825   3.443   7.441  10.622
 8210TIP3    H248826   3.386   7.312  10.565
 8211TIP3   OH248827   3.271   7.185  11.015
 8211TIP3    H148828   3.260   7.125  11.088
 8211TIP3    H248829   3.209   7.154  10.949
 8212TIP3   OH248830   2.392   7.111  11.282
 8212TIP3    H148831   2.388   7.024  11.322
 8212TIP3    H248832   2.440   7.165  11.344
 8213TIP3   OH248833   3.643   7.548  10.944
 8213TIP3    H148834   3.607   7.461  10.958
 8213TIP3    H248835   3.586   7.606  10.995
 8214TIP3   OH248836   2.585   7.692  10.987
 8214TIP3    H148837   2.572   7.606  10.948
 8214TIP3    H248838   2.680   7.701  10.997
 8215TIP3   OH248839   2.169   6.941  10.548
 8215TIP3    H148840   2.131   7.019  10.588
 8215TIP3    H248841   2.120   6.930  10.466
 8216TIP3   OH248842   2.253   7.155  10.849
 8216TIP3    H148843   2.281   7.064  10.854
 8216TIP3    H248844   2.321   7.199  10.798
 8217TIP3   OH248845   3.380   8.059  10.870
 8217TIP3    H148846   3.457   8.026  10.823
 8217TIP3    H248847   3.393   8.031  10.961
 8218TIP3   OH248848   3.057   7.527  11.035
 8218TIP3    H148849   3.098   7.488  10.958
 8218TIP3    H248850   3.130   7.548  11.094
 8219TIP3   OH248851   4.059   6.510  11.198
 8219TIP3    H148852   4.060   6.589  11.252
 8219TIP3    H248853   4.096   6.538  11.114
 8220TIP3   OH248854   3.411   6.848  11.068
 8220TIP3    H148855   3.489   6.794  11.074
 8220TIP3    H248856   3.411   6.881  10.978
 8221TIP3   OH248857   2.697   6.650  10.800
 8221TIP3    H148858   2.689   6.735  10.757
 8221TIP3    H248859   2.647   6.590  10.745
 8222TIP3   OH248860   3.594   6.700  10.729
 8222TIP3    H148861   3.623   6.699  10.820
 8222TIP3    H248862   3.671   6.726  10.679
 8223TIP3   OH248863   2.324   6.889  10.873
 8223TIP3    H148864   2.380   6.838  10.932
 8223TIP3    H248865   2.353   6.865  10.785
 8224TIP3   OH248866   2.820   7.095  10.816
 8224TIP3    H148867   2.903   7.059  10.846
 8224TIP3    H248868   2.774   7.020  10.777
 8225TIP3   OH248869   4.049   6.729  11.362
 8225TIP3    H148870   4.033   6.821  11.344
 8225TIP3    H248871   4.118   6.729  11.428
 8226TIP3   OH248872   2.566   6.559  11.224
 8226TIP3    H148873   2.535   6.620  11.156
 8226TIP3    H248874   2.499   6.563  11.291
 8227TIP3   OH248875   3.391   7.625  10.617
 8227TIP3    H148876   3.363   7.620  10.526
 8227TIP3    H248877   3.345   7.701  10.653
 8228TIP3   OH248878   2.852   7.380  11.161
 8228TIP3    H148879   2.798   7.444  11.206
 8228TIP3    H248880   2.920   7.431  11.117
 8229TIP3   OH248881   3.659   6.721  10.995
 8229TIP3    H148882   3.662   6.637  11.041
 8229TIP3    H248883   3.740   6.765  11.021
 8230TIP3   OH248884   2.519   6.725  11.002
 8230TIP3    H148885   2.552   6.806  11.041
 8230TIP3    H248886   2.589   6.697  10.942
 8231TIP3   OH248887   2.698   7.583  11.279
 8231TIP3    H148888   2.673   7.658  11.225
 8231TIP3    H248889   2.617   7.558  11.323
 8232TIP3   OH248890   2.217   7.547  10.452
 8232TIP3    H148891   2.211   7.589  10.366
 8232TIP3    H248892   2.239   7.619  10.511
 8233TIP3   OH248893   3.735   7.855  11.130
 8233TIP3    H148894   3.659   7.800  11.109
 8233TIP3    H248895   3.743   7.914  11.056
 8234TIP3   OH248896   3.817   6.395  11.277
 8234TIP3    H148897   3.751   6.424  11.215
 8234TIP3    H248898   3.900   6.425  11.240
 8235TIP3   OH248899   2.884   6.220  10.951
 8235TIP3    H148900   2.881   6.129  10.981
 8235TIP3    H248901   2.811   6.263  10.996
 8236TIP3   OH248902   3.580   7.975  10.709
 8236TIP3    H148903   3.611   7.885  10.704
 8236TIP3    H248904   3.652   8.027  10.673
 8237TIP3   OH248905   3.641   7.706  10.713
 8237TIP3    H148906   3.561   7.671  10.675
 8237TIP3    H248907   3.659   7.650  10.788
 8238TIP3   OH248908   3.923   7.610  11.438
 8238TIP3    H148909   3.934   7.563  11.356
 8238TIP3    H248910   3.919   7.703  11.412
 8239TIP3   OH248911   3.248   7.222  10.474
 8239TIP3    H148912   3.189   7.296  10.455
 8239TIP3    H248913   3.254   7.175  10.391
 8240TIP3   OH248914   3.280   7.035  10.263
 8240TIP3    H148915   3.373   7.057  10.259
 8240TIP3    H248916   3.278   6.939  10.255
 8241TIP3   OH248917   4.069   7.223  11.235
 8241TIP3    H148918   4.021   7.306  11.233
 8241TIP3    H248919   4.122   7.224  11.155
 8242TIP3   OH248920   3.686   7.224  10.501
 8242TIP3    H148921   3.617   7.268  10.550
 8242TIP3    H248922   3.738   7.181  10.569
 8243TIP3   OH248923   3.710   7.056  11.432
 8243TIP3    H148924   3.705   7.126  11.498
 8243TIP3    H248925   3.670   7.095  11.354
 8244TIP3   OH248926   2.743   7.321  10.668
 8244TIP3    H148927   2.708   7.284  10.588
 8244TIP3    H248928   2.778   7.245  10.716
 8245TIP3   OH248929   2.860   7.721  10.980
 8245TIP3    H148930   2.859   7.720  10.884
 8245TIP3    H248931   2.930   7.660  11.003
 8246TIP3   OH248932   2.676   7.212  11.021
 8246TIP3    H148933   2.731   7.175  10.951
 8246TIP3    H248934   2.735   7.265  11.073
 8247TIP3   OH248935   3.483   7.730  11.087
 8247TIP3    H148936   3.453   7.820  11.101
 8247TIP3    H248937   3.409   7.675  11.114
 8248TIP3   OH248938   2.816   7.650  11.523
 8248TIP3    H148939   2.741   7.700  11.556
 8248TIP3    H248940   2.789   7.620  11.437
 8249TIP3   OH248941   3.551   7.120  10.285
 8249TIP3    H148942   3.595   7.158  10.361
 8249TIP3    H248943   3.563   7.185  10.216
 8250TIP3   OH248944   2.539   7.196  11.515
 8250TIP3    H148945   2.541   7.287  11.543
 8250TIP3    H248946   2.472   7.155  11.571
 8251TIP3   OH248947   3.260   7.859  10.697
 8251TIP3    H148948   3.291   7.916  10.767
 8251TIP3    H248949   3.208   7.916  10.641
 8252TIP3   OH248950   2.605   7.822  11.585
 8252TIP3    H148951   2.598   7.861  11.498
 8252TIP3    H248952   2.515   7.822  11.618
 8253TIP3   OH248953   3.985   6.283  10.383
 8253TIP3    H148954   3.897   6.318  10.396
 8253TIP3    H248955   4.043   6.357  10.402
 8254TIP3   OH248956   2.644   7.221  10.428
 8254TIP3    H148957   2.564   7.269  10.409
 8254TIP3    H248958   2.634   7.137  10.383
 8255TIP3   OH248959   4.141   7.853  10.241
 8255TIP3    H148960   4.140   7.932  10.188
 8255TIP3    H248961   4.214   7.802  10.207
 8256TIP3   OH248962   2.193   7.494  11.403
 8256TIP3    H148963   2.160   7.496  11.313
 8256TIP3    H248964   2.165   7.408  11.436
 8257TIP3   OH248965   2.315   7.696  11.098
 8257TIP3    H148966   2.402   7.690  11.059
 8257TIP3    H248967   2.320   7.770  11.157
 8258TIP3   OH248968   4.085   7.946  11.684
 8258TIP3    H148969   4.097   7.851  11.686
 8258TIP3    H248970   3.994   7.959  11.711
 8259TIP3   OH248971   3.049   7.809  11.490
 8259TIP3    H148972   3.056   7.887  11.546
 8259TIP3    H248973   2.969   7.766  11.520
 8260TIP3   OH248974   3.138   8.075  10.569
 8260TIP3    H148975   3.106   8.093  10.480
 8260TIP3    H248976   3.073   8.115  10.626
 8261TIP3   OH248977   2.508   8.051  10.671
 8261TIP3    H148978   2.527   8.022  10.760
 8261TIP3    H248979   2.448   7.985  10.636
 8262TIP3   OH248980   3.484   8.115  10.300
 8262TIP3    H148981   3.540   8.038  10.295
 8262TIP3    H248982   3.457   8.119  10.392
 8263TIP3   OH248983   3.409   8.139  10.562
 8263TIP3    H148984   3.316   8.115  10.572
 8263TIP3    H248985   3.456   8.073  10.612
 8264TIP3   OH248986   3.869   6.886  11.600
 8264TIP3    H148987   3.813   6.946  11.550
 8264TIP3    H248988   3.845   6.799  11.567
 8265TIP3   OH248989   2.469   7.533  11.418
 8265TIP3    H148990   2.479   7.509  11.510
 8265TIP3    H248991   2.375   7.530  11.402
 8266TIP3   OH248992   2.660   6.342  11.070
 8266TIP3    H148993   2.580   6.327  11.018
 8266TIP3    H248994   2.642   6.422  11.119
 8267TIP3   OH248995   3.247   6.337  11.471
 8267TIP3    H148996   3.300   6.278  11.525
 8267TIP3    H248997   3.166   6.349  11.521
 8268TIP3   OH248998   3.551   6.821  11.440
 8268TIP3    H148999   3.618   6.752  11.440
 8268TIP3    H249000   3.601   6.903  11.438
 8269TIP3   OH249001   3.623   7.351  10.148
 8269TIP3    H149002   3.580   7.435  10.128
 8269TIP3    H249003   3.696   7.374  10.205
 8270TIP3   OH249004   3.231   6.757  10.218
 8270TIP3    H149005   3.172   6.703  10.272
 8270TIP3    H249006   3.202   6.739  10.128
 8271TIP3   OH249007   2.593   6.962  11.120
 8271TIP3    H149008   2.533   6.976  11.193
 8271TIP3    H249009   2.609   7.050  11.085
 8272TIP3   OH249010   2.669   6.896  10.680
 8272TIP3    H149011   2.575   6.890  10.661
 8272TIP3    H249012   2.712   6.876  10.597
 8273TIP3   OH249013   3.284   6.971  10.588
 8273TIP3    H149014   3.267   7.062  10.563
 8273TIP3    H249015   3.361   6.946  10.536
 8274TIP3   OH249016   3.195   6.961  11.723
 8274TIP3    H149017   3.137   6.994  11.792
 8274TIP3    H249018   3.279   6.947  11.768
 8275TIP3   OH249019   3.442   6.916  10.807
 8275TIP3    H149020   3.381   6.947  10.741
 8275TIP3    H249021   3.482   6.838  10.768
 8276TIP3   OH249022   2.449   6.864  11.394
 8276TIP3    H149023   2.484   6.880  11.482
 8276TIP3    H249024   2.425   6.772  11.393
 8277TIP3   OH249025   2.629   6.492  10.164
 8277TIP3    H149026   2.695   6.520  10.227
 8277TIP3    H249027   2.649   6.540  10.084
 8278TIP3   OH249028   2.163   6.583  10.684
 8278TIP3    H149029   2.217   6.568  10.762
 8278TIP3    H249030   2.133   6.673  10.693
 8279TIP3   OH249031   2.202   6.728  10.276
 8279TIP3    H149032   2.279   6.775  10.246
 8279TIP3    H249033   2.136   6.796  10.289
 8280TIP3   OH249034   3.209   6.980  11.196
 8280TIP3    H149035   3.277   6.930  11.153
 8280TIP3    H249036   3.213   6.953  11.288
 8281TIP3   OH249037   2.980   6.662  10.768
 8281TIP3    H149038   2.886   6.660  10.789
 8281TIP3    H249039   3.012   6.576  10.795
 8282TIP3   OH249040   2.407   6.824  10.619
 8282TIP3    H149041   2.329   6.866  10.582
 8282TIP3    H249042   2.406   6.736  10.581
 8283TIP3   OH249043   2.794   6.831  10.446
 8283TIP3    H149044   2.886   6.850  10.463
 8283TIP3    H249045   2.768   6.897  10.381
 8284TIP3   OH249046   3.617   6.469  11.105
 8284TIP3    H149047   3.540   6.467  11.163
 8284TIP3    H249048   3.588   6.426  11.025
 8285TIP3   OH249049   2.654   6.994  10.265
 8285TIP3    H149050   2.571   6.951  10.244
 8285TIP3    H249051   2.691   7.018  10.180
 8286TIP3   OH249052   3.811   8.257  11.719
 8286TIP3    H149053   3.802   8.282  11.627
 8286TIP3    H249054   3.903   8.276  11.740
 8287TIP3   OH249055   2.480   7.433  11.675
 8287TIP3    H149056   2.541   7.429  11.749
 8287TIP3    H249057   2.396   7.457  11.715
 8288TIP3   OH249058   3.061   6.989  10.923
 8288TIP3    H149059   3.096   6.915  10.874
 8288TIP3    H249060   3.072   6.965  11.015
 8289TIP3   OH249061   2.546   6.488  10.628
 8289TIP3    H149062   2.485   6.417  10.648
 8289TIP3    H249063   2.590   6.459  10.548
 8290TIP3   OH249064   2.842   6.871  11.202
 8290TIP3    H149065   2.756   6.895  11.167
 8290TIP3    H249066   2.884   6.955  11.222
 8291TIP3   OH249067   3.078   7.429  10.402
 8291TIP3    H149068   3.013   7.388  10.344
 8291TIP3    H249069   3.026   7.480  10.464
 8292TIP3   OH249070   3.964   7.482  11.194
 8292TIP3    H149071   4.051   7.502  11.162
 8292TIP3    H249072   3.905   7.508  11.123
 8293TIP3   OH249073   3.419   6.655  10.398
 8293TIP3    H149074   3.361   6.679  10.325
 8293TIP3    H249075   3.461   6.737  10.423
 8294TIP3   OH249076   3.254   7.631  11.453
 8294TIP3    H149077   3.235   7.574  11.527
 8294TIP3    H249078   3.186   7.698  11.455
 8295TIP3   OH249079   3.525   6.903  10.458
 8295TIP3    H149080   3.611   6.882  10.496
 8295TIP3    H249081   3.542   6.973  10.396
 8296TIP3   OH249082   2.597   7.442  10.875
 8296TIP3    H149083   2.642   7.413  10.796
 8296TIP3    H249084   2.601   7.367  10.935
 8297TIP3   OH249085   3.303   7.593  10.357
 8297TIP3    H149086   3.260   7.673  10.327
 8297TIP3    H249087   3.232   7.529  10.364
 8298TIP3   OH249088   2.095   7.253  11.499
 8298TIP3    H149089   2.141   7.188  11.552
 8298TIP3    H249090   2.060   7.204  11.425
 8299TIP3   OH249091   2.973   7.221  11.656
 8299TIP3    H149092   2.904   7.170  11.613
 8299TIP3    H249093   3.052   7.168  11.644
 8300TIP3   OH249094   3.493   7.755  11.532
 8300TIP3    H149095   3.417   7.715  11.489
 8300TIP3    H249096   3.466   7.764  11.623
 8301TIP3   OH249097   4.104   6.936  10.362
 8301TIP3    H149098   4.015   6.910  10.337
 8301TIP3    H249099   4.111   7.027  10.334
 8302TIP3   OH249100   4.124   7.501  11.593
 8302TIP3    H149101   4.050   7.547  11.553
 8302TIP3    H249102   4.191   7.499  11.525
 8303TIP3   OH249103   3.908   7.860  10.387
 8303TIP3    H149104   3.903   7.777  10.436
 8303TIP3    H249105   3.985   7.849  10.331
 8304TIP3   OH249106   3.532   7.293  10.993
 8304TIP3    H149107   3.442   7.260  10.993
 8304TIP3    H249108   3.583   7.222  10.954
 8305TIP3   OH249109   2.782   7.747  10.715
 8305TIP3    H149110   2.794   7.834  10.677
 8305TIP3    H249111   2.687   7.736  10.721
 8306TIP3   OH249112   2.304   7.148  10.234
 8306TIP3    H149113   2.343   7.224  10.276
 8306TIP3    H249114   2.211   7.167  10.230
 8307TIP3   OH249115   2.875   7.540  10.557
 8307TIP3    H149116   2.859   7.613  10.617
 8307TIP3    H249117   2.833   7.465  10.597
 8308TIP3   OH249118   2.923   7.981  11.308
 8308TIP3    H149119   2.937   8.067  11.348
 8308TIP3    H249120   2.983   7.923  11.355
 8309TIP3   OH249121   2.777   8.001  10.607
 8309TIP3    H149122   2.688   8.034  10.613
 8309TIP3    H249123   2.832   8.072  10.640
 8310TIP3   OH249124   3.288   7.554  11.189
 8310TIP3    H149125   3.279   7.581  11.280
 8310TIP3    H249126   3.341   7.475  11.193
 8311TIP3   OH249127   3.574   7.621  10.278
 8311TIP3    H149128   3.627   7.561  10.330
 8311TIP3    H249129   3.484   7.605  10.308
 8312TIP3   OH249130   3.654   7.974  11.484
 8312TIP3    H149131   3.593   7.901  11.488
 8312TIP3    H249132   3.629   8.022  11.405
 8313TIP3   OH249133   4.136   8.124  10.176
 8313TIP3    H149134   4.200   8.187  10.207
 8313TIP3    H249135   4.052   8.169  10.186
 8314TIP3   OH249136   2.375   6.592  11.431
 8314TIP3    H149137   2.289   6.624  11.459
 8314TIP3    H249138   2.391   6.514  11.485
 8315TIP3   OH249139   3.802   7.420  10.346
 8315TIP3    H149140   3.768   7.354  10.407
 8315TIP3    H249141   3.894   7.432  10.372
 8316TIP3   OH249142   2.381   7.937  11.245
 8316TIP3    H149143   2.470   7.910  11.268
 8316TIP3    H249144   2.363   8.011  11.303
 8317TIP3   OH249145   2.775   7.672  10.330
 8317TIP3    H149146   2.811   7.623  10.404
 8317TIP3    H249147   2.818   7.757  10.334
 8318TIP3   OH249148   2.415   7.371  10.360
 8318TIP3    H149149   2.347   7.415  10.410
 8318TIP3    H249150   2.457   7.441  10.309
 8319TIP3   OH249151   3.412   6.484  11.295
 8319TIP3    H149152   3.414   6.571  11.336
 8319TIP3    H249153   3.357   6.431  11.352
 8320TIP3   OH249154   3.470   6.490  10.607
 8320TIP3    H149155   3.449   6.533  10.524
 8320TIP3    H249156   3.510   6.559  10.659
 8321TIP3   OH249157   3.158   7.815  10.289
 8321TIP3    H149158   3.070   7.837  10.321
 8321TIP3    H249159   3.189   7.895  10.247
 8322TIP3   OH249160   3.055   6.816  10.550
 8322TIP3    H149161   3.131   6.871  10.569
 8322TIP3    H249162   3.034   6.774  10.633
 8323TIP3   OH249163   3.278   6.890  11.457
 8323TIP3    H149164   3.286   6.955  11.527
 8323TIP3    H249165   3.367   6.856  11.445
 8324TIP3   OH249166   3.194   6.419  10.587
 8324TIP3    H149167   3.154   6.418  10.674
 8324TIP3    H249168   3.286   6.442  10.603
 8325TIP3   OH249169   2.904   7.913  10.376
 8325TIP3    H149170   2.940   7.996  10.345
 8325TIP3    H249171   2.859   7.935  10.457
 8326TIP3   OH249172   2.815   6.575  10.342
 8326TIP3    H149173   2.792   6.658  10.385
 8326TIP3    H249174   2.910   6.568  10.353
 8327TIP3   OH249175   3.788   6.661  11.431
 8327TIP3    H149176   3.774   6.569  11.408
 8327TIP3    H249177   3.877   6.680  11.401
 8328TIP3   OH249178   3.675   7.046  10.899
 8328TIP3    H149179   3.595   6.999  10.880
 8328TIP3    H249180   3.724   6.988  10.958
 8329TIP3   OH249181   2.521   7.591  10.225
 8329TIP3    H149182   2.582   7.642  10.279
 8329TIP3    H249183   2.577   7.548  10.160
 8330TIP3   OH249184   2.402   6.904  10.172
 8330TIP3    H149185   2.367   6.988  10.202
 8330TIP3    H249186   2.382   6.902  10.078
 8331TIP3   OH249187   3.799   8.160  11.046
 8331TIP3    H149188   3.777   8.220  10.975
 8331TIP3    H249189   3.894   8.154  11.043
 8332TIP3   OH249190   2.420   6.291  10.941
 8332TIP3    H149191   2.412   6.281  10.847
 8332TIP3    H249192   2.394   6.206  10.976
 8333TIP3   OH249193   2.287   7.791  10.575
 8333TIP3    H149194   2.249   7.842  10.646
 8333TIP3    H249195   2.290   7.851  10.501
 8334TIP3   OH249196   2.130   8.137  11.803
 8334TIP3    H149197   2.225   8.133  11.819
 8334TIP3    H249198   2.110   8.059  11.753
 8335TIP3   OH249199   2.831   7.932  11.704
 8335TIP3    H149200   2.867   7.870  11.767
 8335TIP3    H249201   2.750   7.891  11.673
 8336TIP3   OH249202   3.252   7.879  19.839
 8336TIP3    H149203   3.229   7.793  19.805
 8336TIP3    H249204   3.282   7.863  19.928
 8337TIP3   OH249205   3.414   7.781  11.798
 8337TIP3    H149206   3.415   7.705  11.856
 8337TIP3    H249207   3.483   7.838  11.832
 8338TIP3   OH249208   3.642   7.893  10.296
 8338TIP3    H149209   3.616   7.802  10.281
 8338TIP3    H249210   3.734   7.888  10.324
 8339TIP3   OH249211   2.218   7.512  11.773
 8339TIP3    H149212   2.154   7.452  11.809
 8339TIP3    H249213   2.171   7.560  11.705
 8340TIP3   OH249214   2.756   7.488  10.122
 8340TIP3    H149215   2.801   7.413  10.161
 8340TIP3    H249216   2.779   7.562  10.177
 8341TIP3   OH249217   2.903   7.484  11.728
 8341TIP3    H149218   2.880   7.531  11.648
 8341TIP3    H249219   2.934   7.399  11.699
 8342TIP3   OH249220   3.673   7.529  11.534
 8342TIP3    H149221   3.759   7.561  11.507
 8342TIP3    H249222   3.617   7.607  11.533
 8343TIP3   OH249223   2.336   7.114  11.685
 8343TIP3    H149224   2.314   7.028  11.720
 8343TIP3    H249225   2.330   7.173  11.760
 8344TIP3   OH249226   2.872   7.291  10.278
 8344TIP3    H149227   2.800   7.266  10.337
 8344TIP3    H249228   2.912   7.208  10.253
 8345TIP3   OH249229   2.798   7.068  11.494
 8345TIP3    H149230   2.710   7.106  11.498
 8345TIP3    H249231   2.832   7.094  11.409
 8346TIP3   OH249232   3.017   7.077  10.182
 8346TIP3    H149233   3.039   7.105  10.093
 8346TIP3    H249234   3.101   7.059  10.223
 8347TIP3   OH249235   3.392   7.337  11.888
 8347TIP3    H149236   3.476   7.292  11.878
 8347TIP3    H249237   3.338   7.276  11.938
 8348TIP3   OH249238   3.995   7.193  19.812
 8348TIP3    H149239   4.062   7.259  19.832
 8348TIP3    H249240   3.912   7.238  19.829
 8349TIP3   OH249241   2.918   6.811  11.533
 8349TIP3    H149242   2.876   6.750  11.472
 8349TIP3    H249243   2.877   6.896  11.514
 8350TIP3   OH249244   2.810   6.633  11.337
 8350TIP3    H149245   2.835   6.706  11.281
 8350TIP3    H249246   2.725   6.605  11.304
 8351TIP3   OH249247   2.934   7.130  11.256
 8351TIP3    H149248   3.027   7.123  11.235
 8351TIP3    H249249   2.908   7.216  11.225
 8352TIP3   OH249250   3.440   6.878  11.824
 8352TIP3    H149251   3.438   6.807  11.888
 8352TIP3    H249252   3.519   6.928  11.846
 8353TIP3   OH249253   3.708   7.267  11.605
 8353TIP3    H149254   3.681   7.355  11.581
 8353TIP3    H249255   3.802   7.275  11.624
 8354TIP3   OH249256   2.736   6.795  11.798
 8354TIP3    H149257   2.642   6.790  11.777
 8354TIP3    H249258   2.779   6.811  11.714
 8355TIP3   OH249259   2.859   6.357  11.428
 8355TIP3    H149260   2.844   6.447  11.398
 8355TIP3    H249261   2.785   6.308  11.393
 8356TIP3   OH249262   3.066   6.666  11.805
 8356TIP3    H149263   3.124   6.637  11.875
 8356TIP3    H249264   2.979   6.635  11.831
 8357TIP3   OH249265   3.348   6.674  11.655
 8357TIP3    H149266   3.393   6.748  11.696
 8357TIP3    H249267   3.404   6.599  11.674
 8358TIP3   OH249268   3.544   6.514  11.790
 8358TIP3    H149269   3.538   6.418  11.796
 8358TIP3    H249270   3.504   6.545  11.871
 8359TIP3   OH249271   2.469   6.763  11.736
 8359TIP3    H149272   2.431   6.675  11.734
 8359TIP3    H249273   2.405   6.816  11.784
 8360TIP3   OH249274   3.023   6.283  11.633
 8360TIP3    H149275   3.032   6.188  11.627
 8360TIP3    H249276   2.957   6.306  11.568
 8361TIP3   OH249277   3.010   6.347  11.905
 8361TIP3    H149278   3.020   6.321  11.813
 8361TIP3    H249279   2.939   6.411  11.904
 8362TIP3   OH249280   3.043   8.143  10.314
 8362TIP3    H149281   3.115   8.118  10.255
 8362TIP3    H249282   3.028   8.235  10.295
 8363TIP3   OH249283   2.253   7.667  10.201
 8363TIP3    H149284   2.347   7.653  10.214
 8363TIP3    H249285   2.241   7.663  10.106
 8364TIP3   OH249286   2.152   8.180  10.596
 8364TIP3    H149287   2.060   8.170  10.572
 8364TIP3    H249288   2.172   8.104  10.650
 8365TIP3   OH249289   2.194   7.969  10.776
 8365TIP3    H149290   2.116   7.925  10.809
 8365TIP3    H249291   2.238   8.003  10.854
 8366TIP3   OH249292   4.081   8.165  11.031
 8366TIP3    H149293   4.122   8.173  11.117
 8366TIP3    H249294   4.126   8.229  10.977
 8367TIP3   OH249295   4.024   8.091  11.445
 8367TIP3    H149296   3.988   8.013  11.403
 8367TIP3    H249297   4.057   8.060  11.529
 8368TIP3   OH249298   3.948   7.595  11.955
 8368TIP3    H149299   3.861   7.625  11.981
 8368TIP3    H249300   4.005   7.671  11.965
 8369TIP3   OH249301   4.073   7.412  10.430
 8369TIP3    H149302   4.145   7.474  10.446
 8369TIP3    H249303   4.073   7.355  10.508
 8370TIP3   OH249304   4.069   7.218  10.623
 8370TIP3    H149305   3.990   7.168  10.645
 8370TIP3    H249306   4.136   7.183  10.682
 8371TIP3   OH249307   4.228   7.493  11.119
 8371TIP3    H149308   4.253   7.421  11.060
 8371TIP3    H249309   4.291   7.563  11.100
 8372TIP3   OH249310   3.879   7.871  11.360
 8372TIP3    H149311   3.806   7.903  11.413
 8372TIP3    H249312   3.843   7.863  11.271
 8373TIP3   OH249313   4.104   7.198  10.259
 8373TIP3    H149314   4.047   7.222  10.185
 8373TIP3    H249315   4.092   7.270  10.321
 8374TIP3   OH249316   3.850   6.859  10.277
 8374TIP3    H149317   3.794   6.912  10.221
 8374TIP3    H249318   3.869   6.780  10.225
 8375TIP3   OH249319   3.838   7.065  10.674
 8375TIP3    H149320   3.827   6.976  10.641
 8375TIP3    H249321   3.789   7.066  10.756
 8376TIP3   OH249322   2.205   7.232  11.111
 8376TIP3    H149323   2.228   7.210  11.020
 8376TIP3    H249324   2.276   7.195  11.163
 8377TIP3   OH249325   3.976   7.280  11.660
 8377TIP3    H149326   4.028   7.202  11.642
 8377TIP3    H249327   4.032   7.353  11.635
 8378TIP3   OH249328   4.110   7.042  11.615
 8378TIP3    H149329   4.043   6.974  11.621
 8378TIP3    H249330   4.176   7.017  11.681
 8379TIP3   OH249331   3.904   6.643  10.118
 8379TIP3    H149332   3.994   6.612  10.118
 8379TIP3    H249333   3.856   6.577  10.068
 8380TIP3   OH249334   3.786   6.812  10.543
 8380TIP3    H149335   3.820   6.724  10.559
 8380TIP3    H249336   3.814   6.833  10.454
 8381TIP3   OH249337   3.873   6.885  11.050
 8381TIP3    H149338   3.956   6.894  11.005
 8381TIP3    H249339   3.891   6.911  11.140
 8382TIP3   OH249340   3.950   6.982  11.299
 8382TIP3    H149341   3.876   7.010  11.354
 8382TIP3    H249342   3.996   7.064  11.279
 8383TIP3   OH249343   2.137   6.687  11.545
 8383TIP3    H149344   2.142   6.765  11.599
 8383TIP3    H249345   2.071   6.632  11.588
 8384TIP3   OH249346   4.101   6.289  11.824
 8384TIP3    H149347   4.178   6.236  11.803
 8384TIP3    H249348   4.102   6.360  11.760
 8385TIP3   OH249349   3.849   6.549  10.590
 8385TIP3    H149350   3.915   6.499  10.639
 8385TIP3    H249351   3.797   6.482  10.546
 8386TIP3   OH249352   2.314   6.548  10.911
 8386TIP3    H149353   2.347   6.461  10.932
 8386TIP3    H249354   2.379   6.608  10.948
 8387TIP3   OH249355   2.063   6.921  10.967
 8387TIP3    H149356   2.148   6.898  10.930
 8387TIP3    H249357   2.082   6.992  11.029
 8388TIP3   OH249358   4.034   6.487  11.635
 8388TIP3    H149359   3.960   6.527  11.679
 8388TIP3    H249360   3.995   6.421  11.578
 8389TIP3   OH249361   4.160   6.546  10.125
 8389TIP3    H149362   4.210   6.465  10.140
 8389TIP3    H249363   4.204   6.611  10.179
 8390TIP3   OH249364   2.260   6.507  10.432
 8390TIP3    H149365   2.228   6.524  10.521
 8390TIP3    H249366   2.240   6.587  10.383
 8391TIP3   OH249367   3.753   8.174  10.620
 8391TIP3    H149368   3.842   8.158  10.589
 8391TIP3    H249369   3.763   8.229  10.697
 8392TIP3   OH249370   2.104   6.253  11.300
 8392TIP3    H149371   2.037   6.243  11.368
 8392TIP3    H249372   2.075   6.328  11.249
 8393TIP3   OH249373   2.341   7.834  11.686
 8393TIP3    H149374   2.255   7.865  11.658
 8393TIP3    H249375   2.324   7.786  11.767
 8394TIP3   OH249376   2.648   7.933  11.326
 8394TIP3    H149377   2.640   8.027  11.306
 8394TIP3    H249378   2.743   7.918  11.325
 8395TIP3   OH249379   3.125   8.068  11.595
 8395TIP3    H149380   3.118   8.021  11.678
 8395TIP3    H249381   3.213   8.106  11.597
 8396TIP3   OH249382   3.379   8.193  11.590
 8396TIP3    H149383   3.448   8.133  11.560
 8396TIP3    H249384   3.418   8.239  11.664
 8397TIP3   OH249385   3.952   6.259  11.482
 8397TIP3    H149386   3.898   6.290  11.410
 8397TIP3    H249387   3.970   6.168  11.461
 8398TIP3   OH249388   2.391   8.183  11.386
 8398TIP3    H149389   2.312   8.236  11.376
 8398TIP3    H249390   2.420   8.199  11.476
 8399TIP3   OH249391   2.642   8.207  11.269
 8399TIP3    H149392   2.553   8.211  11.304
 8399TIP3    H249393   2.642   8.269  11.196
 8400TIP3   OH249394   3.234   8.186  11.183
 8400TIP3    H149395   3.160   8.206  11.125
 8400TIP3    H249396   3.217   8.236  11.262
 8401TIP3   OH249397   3.424   7.996  11.137
 8401TIP3    H149398   3.350   8.053  11.158
 8401TIP3    H249399   3.498   8.034  11.184
 8402TIP3   OH249400   3.630   8.151  11.261
 8402TIP3    H149401   3.585   8.234  11.242
 8402TIP3    H249402   3.693   8.142  11.190
 8403TIP3   OH249403   2.326   8.066  11.007
 8403TIP3    H149404   2.323   8.022  11.092
 8403TIP3    H249405   2.411   8.043  10.971
 8404TIP3   OH249406   2.571   7.965  10.927
 8404TIP3    H149407   2.564   7.872  10.948
 8404TIP3    H249408   2.654   7.992  10.967
 8405TIP3   OH249409   2.828   7.988  11.049
 8405TIP3    H149410   2.849   7.899  11.020
 8405TIP3    H249411   2.859   7.992  11.139
 8406TIP3   OH249412   3.072   6.402  10.842
 8406TIP3    H149413   3.006   6.345  10.880
 8406TIP3    H249414   3.141   6.406  10.908
 8407TIP3   OH249415   3.816   6.246  10.851
 8407TIP3    H149416   3.885   6.302  10.814
 8407TIP3    H249417   3.739   6.302  10.852
 8408TIP3   OH249418   4.032   6.379  10.725
 8408TIP3    H149419   4.086   6.302  10.706
 8408TIP3    H249420   4.094   6.451  10.730
 8409TIP3   OH249421   2.385   6.253  10.670
 8409TIP3    H149422   2.293   6.237  10.648
 8409TIP3    H249423   2.425   6.166  10.668
 8410TIP3   OH249424   2.184   6.315  10.245
 8410TIP3    H149425   2.276   6.298  10.224
 8410TIP3    H249426   2.187   6.369  10.324
 8411TIP3   OH249427   2.886   6.204  10.676
 8411TIP3    H149428   2.957   6.264  10.652
 8411TIP3    H249429   2.882   6.210  10.771
 8412TIP3   OH249430   3.553   6.354  10.855
 8412TIP3    H149431   3.521   6.388  10.771
 8412TIP3    H249432   3.515   6.266  10.860
 8413TIP3   OH249433   3.692   6.348  10.483
 8413TIP3    H149434   3.616   6.396  10.518
 8413TIP3    H249435   3.657   6.261  10.461
 8414TIP3   OH249436   2.290   7.991  10.389
 8414TIP3    H149437   2.205   7.991  10.343
 8414TIP3    H249438   2.321   8.082  10.381
 8415TIP3   OH249439   2.458   6.343  10.314
 8415TIP3    H149440   2.513   6.396  10.258
 8415TIP3    H249441   2.405   6.406  10.362
 8416TIP3   OH249442   3.086   6.595  10.393
 8416TIP3    H149443   3.127   6.529  10.450
 8416TIP3    H249444   3.076   6.671  10.450
 8417TIP3   OH249445   3.254   8.053  10.164
 8417TIP3    H149446   3.334   8.080  10.210
 8417TIP3    H249447   3.282   8.035  10.075
 8418TIP3   OH249448   3.982   8.113  10.477
 8418TIP3    H149449   3.957   8.025  10.451
 8418TIP3    H249450   3.965   8.167  10.400
 8419TIP3   OH249451   2.389   6.361  11.596
 8419TIP3    H149452   2.311   6.318  11.632
 8419TIP3    H249453   2.459   6.339  11.657
 8420TIP3   OH249454   2.537   6.242  11.807
 8420TIP3    H149455   2.602   6.176  11.783
 8420TIP3    H249456   2.468   6.192  11.852
 8421TIP3   OH249457   2.524   8.373  10.272
 8421TIP3    H149458   2.439   8.341  10.301
 8421TIP3    H249459   2.556   8.306  10.211
 8422TIP3   OH249460   3.569   6.232  11.783
 8422TIP3    H149461   3.547   6.178  11.859
 8422TIP3    H249462   3.662   6.219  11.770
 8423TIP3   OH249463   3.811   7.984  11.716
 8423TIP3    H149464   3.757   7.972  11.638
 8423TIP3    H249465   3.812   8.078  11.731
 8424TIP3   OH249466   5.548   7.359  10.607
 8424TIP3    H149467   5.528   7.452  10.615
 8424TIP3    H249468   5.467   7.321  10.573
 8425TIP3   OH249469   5.129   7.151  11.162
 8425TIP3    H149470   5.184   7.092  11.213
 8425TIP3    H249471   5.118   7.108  11.077
 8426TIP3   OH249472   4.476   7.115  11.115
 8426TIP3    H149473   4.491   7.048  11.182
 8426TIP3    H249474   4.563   7.151  11.097
 8427TIP3   OH249475   5.839   7.581  10.866
 8427TIP3    H149476   5.848   7.494  10.907
 8427TIP3    H249477   5.832   7.641  10.940
 8428TIP3   OH249478   4.682   7.678  10.974
 8428TIP3    H149479   4.665   7.591  10.938
 8428TIP3    H249480   4.770   7.674  11.009
 8429TIP3   OH249481   4.218   6.859  10.604
 8429TIP3    H149482   4.210   6.938  10.658
 8429TIP3    H249483   4.176   6.882  10.522
 8430TIP3   OH249484   4.298   7.119  10.759
 8430TIP3    H149485   4.339   7.043  10.802
 8430TIP3    H249486   4.369   7.158  10.708
 8431TIP3   OH249487   5.495   8.046  10.883
 8431TIP3    H149488   5.581   8.008  10.870
 8431TIP3    H249489   5.478   8.039  10.977
 8432TIP3   OH249490   5.118   7.464  11.110
 8432TIP3    H149491   5.141   7.371  11.112
 8432TIP3    H249492   5.195   7.508  11.148
 8433TIP3   OH249493   6.103   6.487  11.187
 8433TIP3    H149494   6.096   6.566  11.241
 8433TIP3    H249495   6.137   6.519  11.103
 8434TIP3   OH249496   5.551   6.819  11.095
 8434TIP3    H149497   5.581   6.729  11.087
 8434TIP3    H249498   5.548   6.853  11.005
 8435TIP3   OH249499   4.764   6.625  10.758
 8435TIP3    H149500   4.762   6.714  10.722
 8435TIP3    H249501   4.705   6.575  10.703
 8436TIP3   OH249502   5.681   6.697  10.689
 8436TIP3    H149503   5.729   6.682  10.770
 8436TIP3    H249504   5.746   6.732  10.628
 8437TIP3   OH249505   4.397   6.891  10.874
 8437TIP3    H149506   4.458   6.863  10.943
 8437TIP3    H249507   4.426   6.843  10.796
 8438TIP3   OH249508   4.868   7.091  10.830
 8438TIP3    H149509   4.949   7.050  10.860
 8438TIP3    H249510   4.821   7.020  10.785
 8439TIP3   OH249511   6.073   6.709  11.346
 8439TIP3    H149512   6.039   6.798  11.331
 8439TIP3    H249513   6.135   6.720  11.418
 8440TIP3   OH249514   4.653   6.578  11.208
 8440TIP3    H149515   4.624   6.631  11.134
 8440TIP3    H249516   4.587   6.593  11.276
 8441TIP3   OH249517   5.501   7.652  10.597
 8441TIP3    H149518   5.459   7.635  10.513
 8441TIP3    H249519   5.458   7.731  10.630
 8442TIP3   OH249520   4.858   7.409  11.186
 8442TIP3    H149521   4.818   7.488  11.222
 8442TIP3    H249522   4.944   7.437  11.156
 8443TIP3   OH249523   5.805   6.685  10.926
 8443TIP3    H149524   5.774   6.621  10.990
 8443TIP3    H249525   5.860   6.745  10.977
 8444TIP3   OH249526   4.621   6.727  10.975
 8444TIP3    H149527   4.677   6.798  11.009
 8444TIP3    H249528   4.674   6.686  10.907
 8445TIP3   OH249529   4.764   7.642  11.306
 8445TIP3    H149530   4.744   7.735  11.299
 8445TIP3    H249531   4.688   7.603  11.350
 8446TIP3   OH249532   4.300   7.587  10.451
 8446TIP3    H149533   4.306   7.629  10.365
 8446TIP3    H249534   4.325   7.656  10.513
 8447TIP3   OH249535   5.788   7.793  11.049
 8447TIP3    H149536   5.698   7.780  11.079
 8447TIP3    H249537   5.780   7.852  10.975
 8448TIP3   OH249538   5.858   6.371  11.247
 8448TIP3    H149539   5.795   6.420  11.194
 8448TIP3    H249540   5.944   6.405  11.220
 8449TIP3   OH249541   4.990   6.220  11.018
 8449TIP3    H149542   4.964   6.128  11.007
 8449TIP3    H249543   4.908   6.266  11.038
 8450TIP3   OH249544   5.742   7.945  10.812
 8450TIP3    H149545   5.754   7.874  10.749
 8450TIP3    H249546   5.772   8.023  10.766
 8451TIP3   OH249547   5.771   7.726  10.641
 8451TIP3    H149548   5.683   7.696  10.619
 8451TIP3    H249549   5.800   7.666  10.710
 8452TIP3   OH249550   5.956   7.573  11.409
 8452TIP3    H149551   5.957   7.509  11.338
 8452TIP3    H249552   5.957   7.658  11.365
 8453TIP3   OH249553   5.326   7.218  10.490
 8453TIP3    H149554   5.266   7.290  10.468
 8453TIP3    H249555   5.325   7.162  10.412
 8454TIP3   OH249556   5.333   7.034  10.278
 8454TIP3    H149557   5.424   7.057  10.259
 8454TIP3    H249558   5.328   6.940  10.264
 8455TIP3   OH249559   6.128   7.188  11.319
 8455TIP3    H149560   6.069   7.259  11.295
 8455TIP3    H249561   6.185   7.178  11.242
 8456TIP3   OH249562   5.756   7.219  10.495
 8456TIP3    H149563   5.691   7.266  10.548
 8456TIP3    H249564   5.811   7.174  10.559
 8457TIP3   OH249565   5.738   7.022  11.466
 8457TIP3    H149566   5.721   7.105  11.512
 8457TIP3    H249567   5.654   6.999  11.426
 8458TIP3   OH249568   4.818   7.316  10.673
 8458TIP3    H149569   4.781   7.284  10.591
 8458TIP3    H249570   4.847   7.237  10.719
 8459TIP3   OH249571   4.963   7.684  11.000
 8459TIP3    H149572   4.967   7.683  10.904
 8459TIP3    H249573   5.023   7.614  11.026
 8460TIP3   OH249574   4.735   7.201  11.047
 8460TIP3    H149575   4.792   7.181  10.973
 8460TIP3    H249576   4.780   7.271  11.094
 8461TIP3   OH249577   5.526   7.772  11.132
 8461TIP3    H149578   5.495   7.862  11.143
 8461TIP3    H249579   5.448   7.718  11.146
 8462TIP3   OH249580   4.920   7.661  11.537
 8462TIP3    H149581   4.850   7.710  11.582
 8462TIP3    H249582   4.884   7.641  11.451
 8463TIP3   OH249583   5.614   7.123  10.278
 8463TIP3    H149584   5.659   7.159  10.354
 8463TIP3    H249585   5.630   7.186  10.208
 8464TIP3   OH249586   4.508   7.159  11.574
 8464TIP3    H149587   4.525   7.246  11.610
 8464TIP3    H249588   4.432   7.172  11.516
 8465TIP3   OH249589   5.382   7.902  10.673
 8465TIP3    H149590   5.408   7.943  10.756
 8465TIP3    H249591   5.309   7.954  10.642
 8466TIP3   OH249592   4.713   7.830  11.608
 8466TIP3    H149593   4.716   7.869  11.521
 8466TIP3    H249594   4.620   7.821  11.627
 8467TIP3   OH249595   6.034   6.287  10.332
 8467TIP3    H149596   5.946   6.311  10.361
 8467TIP3    H249597   6.069   6.366  10.292
 8468TIP3   OH249598   4.713   7.232  10.434
 8468TIP3    H149599   4.632   7.279  10.413
 8468TIP3    H249600   4.705   7.149  10.386
 8469TIP3   OH249601   6.188   7.847  10.290
 8469TIP3    H149602   6.201   7.936  10.257
 8469TIP3    H249603   6.265   7.799  10.261
 8470TIP3   OH249604   4.298   7.459  11.386
 8470TIP3    H149605   4.272   7.474  11.295
 8470TIP3    H249606   4.296   7.364  11.396
 8471TIP3   OH249607   4.420   7.687  11.087
 8471TIP3    H149608   4.507   7.682  11.046
 8471TIP3    H249609   4.424   7.766  11.140
 8472TIP3   OH249610   6.156   7.844  11.628
 8472TIP3    H149611   6.154   7.748  11.618
 8472TIP3    H249612   6.071   7.866  11.666
 8473TIP3   OH249613   5.113   7.866  11.510
 8473TIP3    H149614   5.115   7.934  11.578
 8473TIP3    H249615   5.047   7.804  11.541
 8474TIP3   OH249616   5.241   8.161  10.577
 8474TIP3    H149617   5.192   8.153  10.496
 8474TIP3    H249618   5.204   8.237  10.621
 8475TIP3   OH249619   4.580   8.024  10.658
 8475TIP3    H149620   4.610   7.999  10.746
 8475TIP3    H249621   4.522   7.954  10.631
 8476TIP3   OH249622   5.576   8.126  10.299
 8476TIP3    H149623   5.628   8.048  10.284
 8476TIP3    H249624   5.553   8.123  10.392
 8477TIP3   OH249625   5.513   8.134  10.563
 8477TIP3    H149626   5.419   8.153  10.567
 8477TIP3    H249627   5.522   8.047  10.602
 8478TIP3   OH249628   5.865   6.878  11.662
 8478TIP3    H149629   5.822   6.933  11.597
 8478TIP3    H249630   5.863   6.790  11.624
 8479TIP3   OH249631   4.558   7.536  11.443
 8479TIP3    H149632   4.563   7.497  11.530
 8479TIP3    H249633   4.466   7.525  11.417
 8480TIP3   OH249634   4.744   6.347  11.076
 8480TIP3    H149635   4.668   6.330  11.021
 8480TIP3    H249636   4.722   6.429  11.121
 8481TIP3   OH249637   5.242   6.366  11.396
 8481TIP3    H149638   5.284   6.320  11.468
 8481TIP3    H249639   5.150   6.372  11.421
 8482TIP3   OH249640   5.571   6.671  11.473
 8482TIP3    H149641   5.532   6.672  11.561
 8482TIP3    H249642   5.551   6.758  11.438
 8483TIP3   OH249643   5.708   7.349  10.144
 8483TIP3    H149644   5.669   7.434  10.124
 8483TIP3    H249645   5.781   7.370  10.203
 8484TIP3   OH249646   5.262   6.765  10.229
 8484TIP3    H149647   5.225   6.701  10.290
 8484TIP3    H249648   5.195   6.776  10.162
 8485TIP3   OH249649   4.760   6.929  11.111
 8485TIP3    H149650   4.692   6.919  11.178
 8485TIP3    H249651   4.755   7.021  11.086
 8486TIP3   OH249652   4.731   6.893  10.684
 8486TIP3    H149653   4.640   6.870  10.664
 8486TIP3    H249654   4.777   6.883  10.601
 8487TIP3   OH249655   5.373   6.966  10.616
 8487TIP3    H149656   5.351   7.055  10.590
 8487TIP3    H249657   5.441   6.938  10.555
 8488TIP3   OH249658   5.207   6.983  11.615
 8488TIP3    H149659   5.155   6.912  11.654
 8488TIP3    H249660   5.290   6.980  11.662
 8489TIP3   OH249661   5.553   6.902  10.826
 8489TIP3    H149662   5.484   6.936  10.769
 8489TIP3    H249663   5.589   6.827  10.778
 8490TIP3   OH249664   4.558   6.910  11.293
 8490TIP3    H149665   4.608   6.952  11.363
 8490TIP3    H249666   4.522   6.831  11.334
 8491TIP3   OH249667   5.009   6.786  10.105
 8491TIP3    H149668   4.961   6.727  10.163
 8491TIP3    H249669   4.986   6.758  10.017
 8492TIP3   OH249670   4.208   6.592  10.706
 8492TIP3    H149671   4.273   6.586  10.775
 8492TIP3    H249672   4.203   6.685  10.685
 8493TIP3   OH249673   4.271   6.723  10.307
 8493TIP3    H149674   4.356   6.763  10.286
 8493TIP3    H249675   4.213   6.797  10.325
 8494TIP3   OH249676   5.504   6.916  11.347
 8494TIP3    H149677   5.528   6.887  11.260
 8494TIP3    H249678   5.412   6.943  11.340
 8495TIP3   OH249679   5.052   6.621  10.765
 8495TIP3    H149680   4.956   6.615  10.769
 8495TIP3    H249681   5.082   6.534  10.790
 8496TIP3   OH249682   4.484   6.773  10.638
 8496TIP3    H149683   4.398   6.791  10.599
 8496TIP3    H249684   4.500   6.681  10.620
 8497TIP3   OH249685   4.882   6.844  10.461
 8497TIP3    H149686   4.973   6.849  10.488
 8497TIP3    H249687   4.871   6.917  10.399
 8498TIP3   OH249688   5.667   6.504  11.085
 8498TIP3    H149689   5.593   6.494  11.144
 8498TIP3    H249690   5.646   6.447  11.011
 8499TIP3   OH249691   4.722   7.004  10.280
 8499TIP3    H149692   4.642   6.954  10.263
 8499TIP3    H249693   4.768   7.004  10.196
 8500TIP3   OH249694   5.929   8.218  11.679
 8500TIP3    H149695   5.945   8.245  11.588
 8500TIP3    H249696   6.008   8.246  11.726
 8501TIP3   OH249697   4.547   7.408  11.688
 8501TIP3    H149698   4.619   7.422  11.750
 8501TIP3    H249699   4.469   7.440  11.733
 8502TIP3   OH249700   5.094   6.970  10.944
 8502TIP3    H149701   5.163   6.936  10.886
 8502TIP3    H249702   5.072   6.895  11.000
 8503TIP3   OH249703   4.556   6.507  10.597
 8503TIP3    H149704   4.516   6.429  10.636
 8503TIP3    H249705   4.569   6.483  10.505
 8504TIP3   OH249706   5.007   6.823  11.169
 8504TIP3    H149707   4.921   6.863  11.151
 8504TIP3    H249708   5.050   6.886  11.227
 8505TIP3   OH249709   5.154   7.420  10.399
 8505TIP3    H149710   5.092   7.377  10.340
 8505TIP3    H249711   5.100   7.470  10.460
 8506TIP3   OH249712   5.980   7.393  11.200
 8506TIP3    H149713   6.061   7.426  11.161
 8506TIP3    H249714   5.926   7.369  11.126
 8507TIP3   OH249715   5.483   6.661  10.372
 8507TIP3    H149716   5.419   6.685  10.305
 8507TIP3    H249717   5.521   6.744  10.399
 8508TIP3   OH249718   5.306   7.671  11.496
 8508TIP3    H149719   5.273   7.621  11.571
 8508TIP3    H249720   5.247   7.746  11.489
 8509TIP3   OH249721   5.592   6.904  10.447
 8509TIP3    H149722   5.681   6.883  10.475
 8509TIP3    H249723   5.602   6.976  10.385
 8510TIP3   OH249724   4.665   7.426  10.876
 8510TIP3    H149725   4.713   7.397  10.799
 8510TIP3    H249726   4.660   7.348  10.932
 8511TIP3   OH249727   5.383   7.586  10.356
 8511TIP3    H149728   5.339   7.666  10.325
 8511TIP3    H249729   5.312   7.521  10.362
 8512TIP3   OH249730   4.260   7.187  11.435
 8512TIP3    H149731   4.215   7.133  11.500
 8512TIP3    H249732   4.200   7.190  11.360
 8513TIP3   OH249733   5.043   7.211  11.623
 8513TIP3    H149734   5.001   7.212  11.537
 8513TIP3    H249735   5.105   7.138  11.619
 8514TIP3   OH249736   5.568   7.744  11.554
 8514TIP3    H149737   5.481   7.720  11.524
 8514TIP3    H249738   5.557   7.763  11.647
 8515TIP3   OH249739   6.167   6.947  10.301
 8515TIP3    H149740   6.076   6.921  10.285
 8515TIP3    H249741   6.171   7.039  10.275
 8516TIP3   OH249742   6.174   7.567  11.577
 8516TIP3    H149743   6.091   7.564  11.530
 8516TIP3    H249744   6.240   7.551  11.510
 8517TIP3   OH249745   5.953   7.884  10.435
 8517TIP3    H149746   5.927   7.811  10.491
 8517TIP3    H249747   6.030   7.851  10.388
 8518TIP3   OH249748   5.814   7.317  10.982
 8518TIP3    H149749   5.721   7.336  10.970
 8518TIP3    H249750   5.825   7.227  10.951
 8519TIP3   OH249751   4.880   7.730  10.734
 8519TIP3    H149752   4.884   7.816  10.690
 8519TIP3    H249753   4.789   7.722  10.763
 8520TIP3   OH249754   4.378   7.148  10.264
 8520TIP3    H149755   4.417   7.229  10.297
 8520TIP3    H249756   4.284   7.167  10.259
 8521TIP3   OH249757   4.956   7.531  10.559
 8521TIP3    H149758   4.944   7.602  10.621
 8521TIP3    H249759   4.911   7.456  10.598
 8522TIP3   OH249760   4.997   8.011  11.307
 8522TIP3    H149761   5.011   8.101  11.334
 8522TIP3    H249762   5.053   7.959  11.364
 8523TIP3   OH249763   4.853   7.979  10.612
 8523TIP3    H149764   4.760   8.000  10.606
 8523TIP3    H249765   4.892   8.053  10.657
 8524TIP3   OH249766   5.345   7.571  11.239
 8524TIP3    H149767   5.324   7.608  11.325
 8524TIP3    H249768   5.430   7.529  11.250
 8525TIP3   OH249769   5.655   7.618  10.275
 8525TIP3    H149770   5.710   7.561  10.329
 8525TIP3    H249771   5.566   7.600  10.305
 8526TIP3   OH249772   5.754   7.926  11.459
 8526TIP3    H149773   5.682   7.867  11.480
 8526TIP3    H249774   5.712   7.998  11.410
 8527TIP3   OH249775   6.232   8.129  10.254
 8527TIP3    H149776   6.290   8.203  10.273
 8527TIP3    H249777   6.145   8.168  10.251
 8528TIP3   OH249778   4.487   6.672  11.424
 8528TIP3    H149779   4.393   6.669  11.446
 8528TIP3    H249780   4.531   6.641  11.503
 8529TIP3   OH249781   5.887   7.411  10.346
 8529TIP3    H149782   5.846   7.345  10.403
 8529TIP3    H249783   5.975   7.422  10.382
 8530TIP3   OH249784   4.475   7.926  11.230
 8530TIP3    H149785   4.563   7.906  11.262
 8530TIP3    H249786   4.439   7.987  11.294
 8531TIP3   OH249787   4.835   7.684  10.354
 8531TIP3    H149788   4.879   7.626  10.416
 8531TIP3    H249789   4.891   7.762  10.351
 8532TIP3   OH249790   4.483   7.385  10.367
 8532TIP3    H149791   4.419   7.439  10.414
 8532TIP3    H249792   4.533   7.448  10.314
 8533TIP3   OH249793   5.468   6.496  11.275
 8533TIP3    H149794   5.504   6.547  11.348
 8533TIP3    H249795   5.391   6.452  11.311
 8534TIP3   OH249796   5.545   6.488  10.573
 8534TIP3    H149797   5.519   6.532  10.493
 8534TIP3    H249798   5.588   6.555  10.626
 8535TIP3   OH249799   5.243   7.812  10.288
 8535TIP3    H149800   5.156   7.833  10.323
 8535TIP3    H249801   5.275   7.895  10.253
 8536TIP3   OH249802   5.135   6.809  10.577
 8536TIP3    H149803   5.215   6.857  10.599
 8536TIP3    H249804   5.117   6.755  10.654
 8537TIP3   OH249805   5.212   6.936  11.343
 8537TIP3    H149806   5.205   6.962  11.435
 8537TIP3    H249807   5.217   6.840  11.346
 8538TIP3   OH249808   5.271   6.411  10.566
 8538TIP3    H149809   5.239   6.400  10.655
 8538TIP3    H249810   5.365   6.428  10.577
 8539TIP3   OH249811   4.998   7.912  10.387
 8539TIP3    H149812   5.032   7.999  10.362
 8539TIP3    H249813   4.949   7.928  10.468
 8540TIP3   OH249814   4.885   6.622  10.290
 8540TIP3    H149815   4.857   6.687  10.355
 8540TIP3    H249816   4.967   6.587  10.325
 8541TIP3   OH249817   5.850   6.642  11.516
 8541TIP3    H149818   5.759   6.632  11.490
 8541TIP3    H249819   5.899   6.642  11.434
 8542TIP3   OH249820   5.790   7.045  10.896
 8542TIP3    H149821   5.706   7.002  10.882
 8542TIP3    H249822   5.838   6.985  10.953
 8543TIP3   OH249823   4.617   7.581  10.222
 8543TIP3    H149824   4.681   7.630  10.273
 8543TIP3    H249825   4.670   7.528  10.161
 8544TIP3   OH249826   4.471   6.901  10.206
 8544TIP3    H149827   4.438   6.986  10.234
 8544TIP3    H249828   4.447   6.895  10.113
 8545TIP3   OH249829   5.888   8.254  11.157
 8545TIP3    H149830   5.852   8.289  11.076
 8545TIP3    H249831   5.978   8.231  11.136
 8546TIP3   OH249832   4.503   6.309  10.941
 8546TIP3    H149833   4.492   6.296  10.847
 8546TIP3    H249834   4.473   6.227  10.980
 8547TIP3   OH249835   4.371   7.836  10.595
 8547TIP3    H149836   4.316   7.880  10.661
 8547TIP3    H249837   4.362   7.890  10.517
 8548TIP3   OH249838   4.314   8.102  11.675
 8548TIP3    H149839   4.360   8.107  11.759
 8548TIP3    H249840   4.234   8.054  11.694
 8549TIP3   OH249841   4.700   7.919  11.880
 8549TIP3    H149842   4.760   7.866  11.932
 8549TIP3    H249843   4.716   7.890  11.790
 8550TIP3   OH249844   5.297   7.853  19.783
 8550TIP3    H149845   5.211   7.814  19.767
 8550TIP3    H249846   5.354   7.778  19.802
 8551TIP3   OH249847   5.533   7.785  11.823
 8551TIP3    H149848   5.504   7.705  11.866
 8551TIP3    H249849   5.610   7.812  11.873
 8552TIP3   OH249850   5.715   7.894  10.284
 8552TIP3    H149851   5.694   7.802  10.271
 8552TIP3    H249852   5.798   7.894  10.331
 8553TIP3   OH249853   4.304   7.478  11.802
 8553TIP3    H149854   4.281   7.399  11.852
 8553TIP3    H249855   4.234   7.486  11.737
 8554TIP3   OH249856   4.807   7.433  10.088
 8554TIP3    H149857   4.854   7.380  10.153
 8554TIP3    H249858   4.876   7.471  10.033
 8555TIP3   OH249859   4.998   7.473  11.723
 8555TIP3    H149860   4.978   7.526  11.646
 8555TIP3    H249861   5.020   7.387  11.688
 8556TIP3   OH249862   5.738   7.515  11.573
 8556TIP3    H149863   5.814   7.537  11.519
 8556TIP3    H249864   5.681   7.592  11.566
 8557TIP3   OH249865   4.336   7.043  11.783
 8557TIP3    H149866   4.407   7.071  11.726
 8557TIP3    H249867   4.322   7.117  11.843
 8558TIP3   OH249868   4.943   7.280  10.277
 8558TIP3    H149869   4.871   7.270  10.340
 8558TIP3    H249870   4.977   7.192  10.264
 8559TIP3   OH249871   4.735   7.032  11.463
 8559TIP3    H149872   4.670   7.081  11.514
 8559TIP3    H249873   4.800   7.098  11.437
 8560TIP3   OH249874   5.047   7.027  10.245
 8560TIP3    H149875   5.038   6.947  10.193
 8560TIP3    H249876   5.141   7.036  10.259
 8561TIP3   OH249877   5.426   7.287  11.880
 8561TIP3    H149878   5.448   7.259  11.791
 8561TIP3    H249879   5.362   7.223  11.910
 8562TIP3   OH249880   6.106   7.182  19.873
 8562TIP3    H149881   6.181   7.242  19.868
 8562TIP3    H249882   6.031   7.239  19.891
 8563TIP3   OH249883   4.842   6.787  11.542
 8563TIP3    H149884   4.859   6.731  11.467
 8563TIP3    H249885   4.810   6.869  11.504
 8564TIP3   OH249886   4.897   6.620  11.328
 8564TIP3    H149887   4.948   6.668  11.263
 8564TIP3    H249888   4.815   6.598  11.283
 8565TIP3   OH249889   4.936   7.206  11.361
 8565TIP3    H149890   5.005   7.182  11.300
 8565TIP3    H249891   4.892   7.280  11.320
 8566TIP3   OH249892   5.444   6.946  11.762
 8566TIP3    H149893   5.450   6.850  11.756
 8566TIP3    H249894   5.534   6.976  11.753
 8567TIP3   OH249895   5.738   7.244  11.634
 8567TIP3    H149896   5.728   7.337  11.614
 8567TIP3    H249897   5.825   7.238  11.673
 8568TIP3   OH249898   4.708   6.756  11.778
 8568TIP3    H149899   4.627   6.709  11.757
 8568TIP3    H249900   4.749   6.772  11.693
 8569TIP3   OH249901   4.963   6.369  11.441
 8569TIP3    H149902   4.945   6.459  11.414
 8569TIP3    H249903   4.891   6.318  11.404
 8570TIP3   OH249904   5.064   6.770  11.710
 8570TIP3    H149905   5.040   6.710  11.780
 8570TIP3    H249906   4.987   6.772  11.652
 8571TIP3   OH249907   5.465   6.672  11.738
 8571TIP3    H149908   5.380   6.637  11.765
 8571TIP3    H249909   5.529   6.615  11.780
 8572TIP3   OH249910   5.618   6.487  11.877
 8572TIP3    H149911   5.608   6.401  11.837
 8572TIP3    H249912   5.578   6.478  11.964
 8573TIP3   OH249913   4.490   6.579  11.726
 8573TIP3    H149914   4.471   6.495  11.686
 8573TIP3    H249915   4.513   6.558  11.817
 8574TIP3   OH249916   4.947   6.214  11.677
 8574TIP3    H149917   5.005   6.140  11.659
 8574TIP3    H249918   4.952   6.268  11.598
 8575TIP3   OH249919   5.060   6.364  11.881
 8575TIP3    H149920   5.025   6.308  11.812
 8575TIP3    H249921   5.007   6.444  11.876
 8576TIP3   OH249922   5.124   8.152  10.323
 8576TIP3    H149923   5.198   8.122  10.270
 8576TIP3    H249924   5.095   8.232  10.280
 8577TIP3   OH249925   4.356   7.675  10.187
 8577TIP3    H149926   4.450   7.662  10.203
 8577TIP3    H249927   4.339   7.627  10.106
 8578TIP3   OH249928   4.218   8.200  10.589
 8578TIP3    H149929   4.133   8.178  10.550
 8578TIP3    H249930   4.232   8.133  10.656
 8579TIP3   OH249931   4.245   8.007  10.788
 8579TIP3    H149932   4.166   7.992  10.839
 8579TIP3    H249933   4.313   8.021  10.854
 8580TIP3   OH249934   6.157   8.220  11.106
 8580TIP3    H149935   6.213   8.259  11.172
 8580TIP3    H249936   6.216   8.196  11.034
 8581TIP3   OH249937   6.097   8.023  11.417
 8581TIP3    H149938   6.059   7.960  11.357
 8581TIP3    H249939   6.133   7.970  11.488
 8582TIP3   OH249940   6.000   7.599  11.915
 8582TIP3    H149941   5.941   7.637  11.849
 8582TIP3    H249942   6.061   7.670  11.936
 8583TIP3   OH249943   6.155   7.388  10.449
 8583TIP3    H149944   6.223   7.453  10.465
 8583TIP3    H249945   6.166   7.325  10.520
 8584TIP3   OH249946   6.178   7.178  10.633
 8584TIP3    H149947   6.090   7.140  10.644
 8584TIP3    H249948   6.219   7.168  10.719
 8585TIP3   OH249949   6.242   7.461  11.136
 8585TIP3    H149950   6.280   7.385  11.091
 8585TIP3    H249951   6.295   7.535  11.108
 8586TIP3   OH249952   5.941   7.820  11.285
 8586TIP3    H149953   5.874   7.860  11.341
 8586TIP3    H249954   5.899   7.815  11.199
 8587TIP3   OH249955   6.171   7.217  10.234
 8587TIP3    H149956   6.110   7.253  10.170
 8587TIP3    H249957   6.164   7.276  10.310
 8588TIP3   OH249958   5.908   6.862  10.246
 8588TIP3    H149959   5.845   6.909  10.192
 8588TIP3    H249960   5.922   6.779  10.201
 8589TIP3   OH249961   5.923   7.057  10.653
 8589TIP3    H149962   5.913   6.969  10.616
 8589TIP3    H249963   5.881   7.052  10.739
 8590TIP3   OH249964   4.241   7.211  11.018
 8590TIP3    H149965   4.253   7.200  10.924
 8590TIP3    H249966   4.324   7.181  11.056
 8591TIP3   OH249967   6.013   7.230  11.721
 8591TIP3    H149968   6.056   7.145  11.716
 8591TIP3    H249969   6.061   7.286  11.660
 8592TIP3   OH249970   6.123   6.971  11.693
 8592TIP3    H149971   6.032   6.940  11.690
 8592TIP3    H249972   6.172   6.905  11.644
 8593TIP3   OH249973   5.949   6.626  10.117
 8593TIP3    H149974   6.031   6.581  10.138
 8593TIP3    H249975   5.899   6.561  10.067
 8594TIP3   OH249976   5.869   6.807  10.514
 8594TIP3    H149977   5.915   6.724  10.527
 8594TIP3    H249978   5.887   6.830  10.423
 8595TIP3   OH249979   5.951   6.881  11.054
 8595TIP3    H149980   6.044   6.876  11.032
 8595TIP3    H249981   5.949   6.905  11.147
 8596TIP3   OH249982   5.966   6.962  11.319
 8596TIP3    H149983   5.886   6.983  11.367
 8596TIP3    H249984   6.021   7.039  11.329
 8597TIP3   OH249985   4.241   6.661  11.564
 8597TIP3    H149986   4.299   6.665  11.640
 8597TIP3    H249987   4.173   6.599  11.590
 8598TIP3   OH249988   6.125   6.309  11.801
 8598TIP3    H149989   6.196   6.256  11.766
 8598TIP3    H249990   6.123   6.386  11.744
 8599TIP3   OH249991   5.974   6.549  10.548
 8599TIP3    H149992   6.005   6.513  10.631
 8599TIP3    H249993   5.912   6.483  10.515
 8600TIP3   OH249994   4.396   6.566  10.907
 8600TIP3    H149995   4.427   6.478  10.928
 8600TIP3    H249996   4.468   6.624  10.933
 8601TIP3   OH249997   4.134   6.940  10.974
 8601TIP3    H149998   4.218   6.905  10.943
 8601TIP3    H249999   4.155   7.029  11.003
 8602TIP3   OH250000   6.044   6.561  11.696
 8602TIP3    H150001   5.995   6.577  11.777
 8602TIP3    H250002   5.979   6.572  11.627
 8603TIP3   OH250003   6.184   6.502  10.194
 8603TIP3    H150004   6.251   6.434  10.206
 8603TIP3    H250005   6.227   6.583  10.219
 8604TIP3   OH250006   4.178   6.494  10.446
 8604TIP3    H150007   4.187   6.518  10.538
 8604TIP3    H250008   4.201   6.574  10.398
 8605TIP3   OH250009   5.826   8.180  10.684
 8605TIP3    H150010   5.912   8.170  10.644
 8605TIP3    H250011   5.841   8.240  10.758
 8606TIP3   OH250012   4.199   6.305  11.327
 8606TIP3    H150013   4.142   6.296  11.403
 8606TIP3    H250014   4.161   6.379  11.278
 8607TIP3   OH250015   4.449   7.846  11.669
 8607TIP3    H150016   4.403   7.929  11.659
 8607TIP3    H250017   4.415   7.809  11.750
 8608TIP3   OH250018   4.736   7.929  11.343
 8608TIP3    H150019   4.708   8.020  11.350
 8608TIP3    H250020   4.830   7.934  11.325
 8609TIP3   OH250021   5.148   8.093  11.677
 8609TIP3    H150022   5.178   8.031  11.743
 8609TIP3    H250023   5.224   8.148  11.659
 8610TIP3   OH250024   5.398   8.206  11.600
 8610TIP3    H150025   5.435   8.123  11.570
 8610TIP3    H250026   5.459   8.238  11.665
 8611TIP3   OH250027   6.009   6.214  11.432
 8611TIP3    H150028   5.952   6.254  11.366
 8611TIP3    H250029   6.018   6.123  11.404
 8612TIP3   OH250030   4.420   8.138  11.408
 8612TIP3    H150031   4.347   8.178  11.361
 8612TIP3    H250032   4.390   8.131  11.498
 8613TIP3   OH250033   4.686   8.201  11.339
 8613TIP3    H150034   4.594   8.197  11.365
 8613TIP3    H250035   4.685   8.244  11.254
 8614TIP3   OH250036   5.243   8.209  11.177
 8614TIP3    H150037   5.165   8.229  11.125
 8614TIP3    H250038   5.241   8.272  11.249
 8615TIP3   OH250039   5.459   8.038  11.157
 8615TIP3    H150040   5.382   8.094  11.166
 8615TIP3    H250041   5.526   8.081  11.210
 8616TIP3   OH250042   5.671   8.153  11.305
 8616TIP3    H150043   5.651   8.236  11.348
 8616TIP3    H250044   5.746   8.172  11.249
 8617TIP3   OH250045   4.437   8.050  10.982
 8617TIP3    H150046   4.427   8.014  11.070
 8617TIP3    H250047   4.522   8.016  10.952
 8618TIP3   OH250048   4.677   7.943  10.906
 8618TIP3    H150049   4.668   7.850  10.930
 8618TIP3    H250050   4.761   7.969  10.944
 8619TIP3   OH250051   4.923   7.957  11.047
 8619TIP3    H150052   4.945   7.866  11.027
 8619TIP3    H250053   4.952   7.970  11.138
 8620TIP3   OH250054   5.151   6.352  10.831
 8620TIP3    H150055   5.087   6.314  10.891
 8620TIP3    H250056   5.236   6.337  10.874
 8621TIP3   OH250057   5.902   6.250  10.864
 8621TIP3    H150058   5.965   6.316  10.833
 8621TIP3    H250059   5.818   6.296  10.866
 8622TIP3   OH250060   6.094   6.434  10.770
 8622TIP3    H150061   6.172   6.393  10.734
 8622TIP3    H250062   6.127   6.495  10.837
 8623TIP3   OH250063   4.451   6.255  10.677
 8623TIP3    H150064   4.362   6.222  10.669
 8623TIP3    H250065   4.507   6.178  10.662
 8624TIP3   OH250066   4.324   6.355  10.258
 8624TIP3    H150067   4.416   6.371  10.275
 8624TIP3    H250068   4.278   6.393  10.332
 8625TIP3   OH250069   5.026   6.147  10.660
 8625TIP3    H150070   5.091   6.137  10.591
 8625TIP3    H250071   5.059   6.220  10.713
 8626TIP3   OH250072   5.633   6.343  10.855
 8626TIP3    H150073   5.605   6.361  10.765
 8626TIP3    H250074   5.604   6.253  10.871
 8627TIP3   OH250075   5.784   6.355  10.465
 8627TIP3    H150076   5.705   6.404  10.486
 8627TIP3    H250077   5.758   6.263  10.471
 8628TIP3   OH250078   4.337   8.000  10.383
 8628TIP3    H150079   4.261   7.963  10.338
 8628TIP3    H250080   4.339   8.091  10.356
 8629TIP3   OH250081   4.590   6.403  10.340
 8629TIP3    H150082   4.601   6.309  10.348
 8629TIP3    H250083   4.671   6.434  10.300
 8630TIP3   OH250084   5.136   6.593  10.405
 8630TIP3    H150085   5.181   6.521  10.449
 8630TIP3    H250086   5.133   6.663  10.470
 8631TIP3   OH250087   5.338   8.059  10.178
 8631TIP3    H150088   5.419   8.089  10.219
 8631TIP3    H250089   5.363   8.036  10.089
 8632TIP3   OH250090   6.048   8.129  10.526
 8632TIP3    H150091   6.016   8.044  10.497
 8632TIP3    H250092   6.039   8.185  10.449
 8633TIP3   OH250093   4.458   6.314  11.656
 8633TIP3    H150094   4.398   6.247  11.688
 8633TIP3    H250095   4.541   6.294  11.699
 8634TIP3   OH250096   4.687   6.250  11.799
 8634TIP3    H150097   4.773   6.229  11.763
 8634TIP3    H250098   4.654   6.166  11.831
 8635TIP3   OH250099   4.588   8.357  10.279
 8635TIP3    H150100   4.498   8.328  10.295
 8635TIP3    H250101   4.637   8.275  10.266
 8636TIP3   OH250102   5.610   6.238  11.753
 8636TIP3    H150103   5.601   6.175  11.824
 8636TIP3    H250104   5.700   6.226  11.722
 8637TIP3   OH250105   5.901   7.940  11.700
 8637TIP3    H150106   5.851   7.926  11.619
 8637TIP3    H250107   5.915   8.035  11.703
 8638TIP3   OH250108   7.572   7.335  10.611
 8638TIP3    H150109   7.546   7.427  10.608
 8638TIP3    H250110   7.499   7.288  10.569
 8639TIP3   OH250111   7.273   7.188  11.168
 8639TIP3    H150112   7.350   7.146  11.205
 8639TIP3    H250113   7.259   7.144  11.085
 8640TIP3   OH250114   6.525   7.115  11.231
 8640TIP3    H150115   6.551   7.025  11.250
 8640TIP3    H250116   6.572   7.168  11.296
 8641TIP3   OH250117   7.862   7.585  10.851
 8641TIP3    H150118   7.856   7.500  10.893
 8641TIP3    H250119   7.864   7.648  10.923
 8642TIP3   OH250120   6.818   7.667  10.940
 8642TIP3    H150121   6.784   7.580  10.917
 8642TIP3    H250122   6.895   7.650  10.993
 8643TIP3   OH250123   6.327   6.959  10.529
 8643TIP3    H150124   6.289   7.039  10.566
 8643TIP3    H250125   6.277   6.945  10.448
 8644TIP3   OH250126   6.378   7.136  10.835
 8644TIP3    H150127   6.412   7.047  10.846
 8644TIP3    H250128   6.446   7.182  10.787
 8645TIP3   OH250129   7.510   8.166  10.939
 8645TIP3    H150130   7.538   8.080  10.970
 8645TIP3    H250131   7.442   8.193  11.001
 8646TIP3   OH250132   7.246   7.474  11.153
 8646TIP3    H150133   7.262   7.379  11.154
 8646TIP3    H250134   7.319   7.511  11.203
 8647TIP3   OH250135   8.115   6.524  11.156
 8647TIP3    H150136   8.115   6.591  11.224
 8647TIP3    H250137   8.156   6.566  11.080
 8648TIP3   OH250138   7.553   6.825  11.071
 8648TIP3    H150139   7.569   6.731  11.071
 8648TIP3    H250140   7.558   6.849  10.978
 8649TIP3   OH250141   6.851   6.632  10.760
 8649TIP3    H150142   6.840   6.718  10.721
 8649TIP3    H250143   6.790   6.576  10.712
 8650TIP3   OH250144   7.723   6.686  10.665
 8650TIP3    H150145   7.767   6.673  10.749
 8650TIP3    H250146   7.789   6.728  10.609
 8651TIP3   OH250147   6.473   6.879  10.884
 8651TIP3    H150148   6.540   6.834  10.935
 8651TIP3    H250149   6.489   6.850  10.794
 8652TIP3   OH250150   6.959   7.076  10.804
 8652TIP3    H150151   7.031   7.020  10.835
 8652TIP3    H250152   6.896   7.016  10.766
 8653TIP3   OH250153   8.104   6.716  11.350
 8653TIP3    H150154   8.062   6.801  11.339
 8653TIP3    H250155   8.173   6.732  11.415
 8654TIP3   OH250156   6.762   6.572  11.193
 8654TIP3    H150157   6.734   6.629  11.121
 8654TIP3    H250158   6.698   6.587  11.262
 8655TIP3   OH250159   7.523   7.606  10.555
 8655TIP3    H150160   7.498   7.589  10.464
 8655TIP3    H250161   7.472   7.683  10.580
 8656TIP3   OH250162   6.977   7.407  11.188
 8656TIP3    H150163   6.927   7.481  11.224
 8656TIP3    H250164   7.064   7.442  11.173
 8657TIP3   OH250165   7.824   6.681  10.917
 8657TIP3    H150166   7.760   6.644  10.978
 8657TIP3    H250167   7.872   6.745  10.969
 8658TIP3   OH250168   6.702   6.729  10.974
 8658TIP3    H150169   6.751   6.805  11.006
 8658TIP3    H250170   6.757   6.694  10.903
 8659TIP3   OH250171   6.851   7.628  11.306
 8659TIP3    H150172   6.849   7.723  11.294
 8659TIP3    H250173   6.765   7.606  11.342
 8660TIP3   OH250174   6.376   7.572  10.464
 8660TIP3    H150175   6.370   7.613  10.378
 8660TIP3    H250176   6.407   7.641  10.522
 8661TIP3   OH250177   7.852   7.791  11.046
 8661TIP3    H150178   7.765   7.777  11.084
 8661TIP3    H250179   7.855   7.885  11.028
 8662TIP3   OH250180   7.874   6.397  11.098
 8662TIP3    H150181   7.804   6.461  11.094
 8662TIP3    H250182   7.952   6.447  11.122
 8663TIP3   OH250183   7.061   6.215  10.940
 8663TIP3    H150184   7.053   6.122  10.962
 8663TIP3    H250185   6.988   6.257  10.985
 8664TIP3   OH250186   7.677   7.937  10.668
 8664TIP3    H150187   7.717   7.851  10.657
 8664TIP3    H250188   7.746   7.991  10.705
 8665TIP3   OH250189   7.782   7.681  10.607
 8665TIP3    H150190   7.695   7.644  10.593
 8665TIP3    H250191   7.813   7.640  10.688
 8666TIP3   OH250192   7.981   7.523  11.405
 8666TIP3    H150193   7.986   7.460  11.332
 8666TIP3    H250194   7.985   7.609  11.362
 8667TIP3   OH250195   7.373   7.206  10.462
 8667TIP3    H150196   7.319   7.281  10.437
 8667TIP3    H250197   7.370   7.148  10.385
 8668TIP3   OH250198   7.383   7.019  10.256
 8668TIP3    H150199   7.475   7.040  10.239
 8668TIP3    H250200   7.379   6.923  10.249
 8669TIP3   OH250201   8.209   7.173  11.191
 8669TIP3    H150202   8.129   7.226  11.191
 8669TIP3    H250203   8.263   7.213  11.123
 8670TIP3   OH250204   7.805   7.269  10.491
 8670TIP3    H150205   7.729   7.294  10.543
 8670TIP3    H250206   7.848   7.200  10.543
 8671TIP3   OH250207   7.701   6.997  11.423
 8671TIP3    H150208   7.713   7.076  11.475
 8671TIP3    H250209   7.624   7.015  11.369
 8672TIP3   OH250210   6.904   7.307  10.659
 8672TIP3    H150211   6.864   7.276  10.578
 8672TIP3    H250212   6.935   7.228  10.703
 8673TIP3   OH250213   7.093   7.673  11.013
 8673TIP3    H150214   7.113   7.666  10.920
 8673TIP3    H250215   7.154   7.612  11.055
 8674TIP3   OH250216   6.852   7.207  11.031
 8674TIP3    H150217   6.909   7.179  10.960
 8674TIP3    H250218   6.903   7.272  11.078
 8675TIP3   OH250219   7.612   7.752  11.172
 8675TIP3    H150220   7.571   7.838  11.184
 8675TIP3    H250221   7.554   7.691  11.217
 8676TIP3   OH250222   7.045   7.684  11.507
 8676TIP3    H150223   6.978   7.731  11.556
 8676TIP3    H250224   6.999   7.649  11.431
 8677TIP3   OH250225   7.668   7.145  10.281
 8677TIP3    H150226   7.707   7.190  10.356
 8677TIP3    H250227   7.696   7.197  10.206
 8678TIP3   OH250228   6.625   7.218  11.483
 8678TIP3    H150229   6.648   7.294  11.535
 8678TIP3    H250230   6.530   7.214  11.486
 8679TIP3   OH250231   7.423   7.865  10.587
 8679TIP3    H150232   7.507   7.888  10.627
 8679TIP3    H250233   7.372   7.946  10.591
 8680TIP3   OH250234   6.822   7.825  11.599
 8680TIP3    H150235   6.819   7.857  11.509
 8680TIP3    H250236   6.732   7.798  11.618
 8681TIP3   OH250237   8.035   6.274  10.345
 8681TIP3    H150238   7.944   6.297  10.364
 8681TIP3    H250239   8.086   6.351  10.371
 8682TIP3   OH250240   6.789   7.227  10.421
 8682TIP3    H150241   6.707   7.273  10.404
 8682TIP3    H250242   6.777   7.141  10.383
 8683TIP3   OH250243   8.026   7.786  10.204
 8683TIP3    H150244   8.061   7.874  10.220
 8683TIP3    H250245   8.094   7.743  10.152
 8684TIP3   OH250246   6.356   7.481  11.390
 8684TIP3    H150247   6.314   7.477  11.304
 8684TIP3    H250248   6.360   7.390  11.419
 8685TIP3   OH250249   6.420   7.670  11.096
 8685TIP3    H150250   6.507   7.663  11.056
 8685TIP3    H250251   6.426   7.748  11.151
 8686TIP3   OH250252   8.176   7.847  11.631
 8686TIP3    H150253   8.189   7.753  11.622
 8686TIP3    H250254   8.082   7.857  11.648
 8687TIP3   OH250255   7.275   7.838  11.468
 8687TIP3    H150256   7.256   7.910  11.527
 8687TIP3    H250257   7.207   7.773  11.486
 8688TIP3   OH250258   7.313   8.117  10.552
 8688TIP3    H150259   7.277   8.131  10.465
 8688TIP3    H250260   7.242   8.142  10.611
 8689TIP3   OH250261   6.682   7.995  10.678
 8689TIP3    H150262   6.702   7.969  10.768
 8689TIP3    H250263   6.627   7.924  10.644
 8690TIP3   OH250264   7.626   8.099  10.276
 8690TIP3    H150265   7.672   8.016  10.261
 8690TIP3    H250266   7.621   8.106  10.371
 8691TIP3   OH250267   7.587   8.169  10.547
 8691TIP3    H150268   7.491   8.162  10.550
 8691TIP3    H250269   7.618   8.091  10.593
 8692TIP3   OH250270   7.938   6.879  11.685
 8692TIP3    H150271   7.891   6.888  11.768
 8692TIP3    H250272   7.880   6.825  11.631
 8693TIP3   OH250273   6.604   7.603  11.430
 8693TIP3    H150274   6.626   7.551  11.507
 8693TIP3    H250275   6.516   7.574  11.406
 8694TIP3   OH250276   6.838   6.332  11.070
 8694TIP3    H150277   6.755   6.310  11.027
 8694TIP3    H250278   6.824   6.421  11.103
 8695TIP3   OH250279   7.333   6.320  11.397
 8695TIP3    H150280   7.365   6.271  11.473
 8695TIP3    H250281   7.240   6.332  11.414
 8696TIP3   OH250282   7.736   6.745  11.538
 8696TIP3    H150283   7.656   6.722  11.585
 8696TIP3    H250284   7.715   6.828  11.494
 8697TIP3   OH250285   7.821   7.334  10.134
 8697TIP3    H150286   7.848   7.329  10.043
 8697TIP3    H250287   7.891   7.291  10.183
 8698TIP3   OH250288   7.313   6.744  10.224
 8698TIP3    H150289   7.283   6.680  10.288
 8698TIP3    H250290   7.240   6.754  10.163
 8699TIP3   OH250291   6.821   6.943  11.108
 8699TIP3    H150292   6.752   6.933  11.175
 8699TIP3    H250293   6.817   7.035  11.083
 8700TIP3   OH250294   6.794   6.891  10.674
 8700TIP3    H150295   6.701   6.874  10.657
 8700TIP3    H250296   6.837   6.873  10.590
 8701TIP3   OH250297   7.435   6.955  10.579
 8701TIP3    H150298   7.409   7.044  10.555
 8701TIP3    H250299   7.506   6.934  10.518
 8702TIP3   OH250300   7.277   6.984  11.643
 8702TIP3    H150301   7.235   6.904  11.673
 8702TIP3    H250302   7.361   6.986  11.689
 8703TIP3   OH250303   7.589   6.891  10.803
 8703TIP3    H150304   7.522   6.925  10.743
 8703TIP3    H250305   7.626   6.816  10.756
 8704TIP3   OH250306   6.643   6.878  11.310
 8704TIP3    H150307   6.705   6.910  11.376
 8704TIP3    H250308   6.616   6.792  11.342
 8705TIP3   OH250309   7.056   6.757  10.111
 8705TIP3    H150310   7.010   6.698  10.172
 8705TIP3    H250311   7.026   6.730  10.024
 8706TIP3   OH250312   6.213   6.603  10.959
 8706TIP3    H150313   6.306   6.581  10.963
 8706TIP3    H250314   6.210   6.697  10.972
 8707TIP3   OH250315   6.325   6.723  10.294
 8707TIP3    H150316   6.412   6.758  10.276
 8707TIP3    H250317   6.268   6.800  10.293
 8708TIP3   OH250318   7.471   7.009  11.257
 8708TIP3    H150319   7.504   6.948  11.191
 8708TIP3    H250320   7.397   6.963  11.298
 8709TIP3   OH250321   7.132   6.642  10.781
 8709TIP3    H150322   7.038   6.624  10.778
 8709TIP3    H250323   7.172   6.559  10.806
 8710TIP3   OH250324   6.535   6.806  10.626
 8710TIP3    H150325   6.464   6.853  10.581
 8710TIP3    H250326   6.525   6.715  10.598
 8711TIP3   OH250327   6.942   6.820  10.454
 8711TIP3    H150328   7.034   6.832  10.474
 8711TIP3    H250329   6.921   6.892  10.394
 8712TIP3   OH250330   7.630   6.543  11.069
 8712TIP3    H150331   7.596   6.532  11.158
 8712TIP3    H250332   7.587   6.474  11.018
 8713TIP3   OH250333   6.790   6.988  10.283
 8713TIP3    H150334   6.707   6.946  10.262
 8713TIP3    H250335   6.836   6.994  10.199
 8714TIP3   OH250336   7.969   8.201  11.653
 8714TIP3    H150337   8.009   8.217  11.568
 8714TIP3    H250338   8.022   8.251  11.715
 8715TIP3   OH250339   6.646   7.442  11.654
 8715TIP3    H150340   6.714   7.449  11.721
 8715TIP3    H250341   6.565   7.463  11.701
 8716TIP3   OH250342   7.136   6.891  10.906
 8716TIP3    H150343   7.145   6.807  10.861
 8716TIP3    H250344   7.124   6.867  10.998
 8717TIP3   OH250345   6.654   6.494  10.619
 8717TIP3    H150346   6.619   6.413  10.657
 8717TIP3    H250347   6.657   6.477  10.525
 8718TIP3   OH250348   7.072   6.839  11.170
 8718TIP3    H150349   6.989   6.886  11.158
 8718TIP3    H250350   7.118   6.889  11.237
 8719TIP3   OH250351   7.222   7.420  10.367
 8719TIP3    H150352   7.158   7.373  10.315
 8719TIP3    H250353   7.171   7.465  10.434
 8720TIP3   OH250354   8.008   7.368  11.175
 8720TIP3    H150355   8.077   7.418  11.131
 8720TIP3    H250356   7.941   7.354  11.108
 8721TIP3   OH250357   7.566   6.663  10.310
 8721TIP3    H150358   7.486   6.684  10.261
 8721TIP3    H250359   7.597   6.748  10.341
 8722TIP3   OH250360   7.396   7.532  11.585
 8722TIP3    H150361   7.421   7.450  11.627
 8722TIP3    H250362   7.387   7.594  11.657
 8723TIP3   OH250363   7.657   6.903  10.410
 8723TIP3    H150364   7.746   6.878  10.435
 8723TIP3    H250365   7.669   6.985  10.361
 8724TIP3   OH250366   6.753   7.413  10.869
 8724TIP3    H150367   6.797   7.384  10.789
 8724TIP3    H250368   6.761   7.339  10.929
 8725TIP3   OH250369   7.442   7.574  10.293
 8725TIP3    H150370   7.398   7.659  10.283
 8725TIP3    H250371   7.371   7.511  10.303
 8726TIP3   OH250372   6.347   7.225  11.496
 8726TIP3    H150373   6.331   7.204  11.588
 8726TIP3    H250374   6.270   7.190  11.450
 8727TIP3   OH250375   7.137   7.226  11.623
 8727TIP3    H150376   7.101   7.225  11.535
 8727TIP3    H250377   7.194   7.150  11.628
 8728TIP3   OH250378   7.551   7.846  11.507
 8728TIP3    H150379   7.463   7.829  11.474
 8728TIP3    H250380   7.542   7.840  11.603
 8729TIP3   OH250381   8.110   6.942  10.353
 8729TIP3    H150382   8.118   6.887  10.276
 8729TIP3    H250383   8.195   6.934  10.397
 8730TIP3   OH250384   8.207   7.576  11.560
 8730TIP3    H150385   8.118   7.559  11.528
 8730TIP3    H250386   8.264   7.545  11.490
 8731TIP3   OH250387   8.006   7.821  10.523
 8731TIP3    H150388   7.942   7.792  10.588
 8731TIP3    H250389   8.090   7.820  10.569
 8732TIP3   OH250390   7.820   7.322  10.973
 8732TIP3    H150391   7.727   7.336  10.988
 8732TIP3    H250392   7.826   7.233  10.939
 8733TIP3   OH250393   7.009   7.720  10.737
 8733TIP3    H150394   7.000   7.807  10.699
 8733TIP3    H250395   6.932   7.710  10.793
 8734TIP3   OH250396   6.444   7.152  10.239
 8734TIP3    H150397   6.485   7.227  10.281
 8734TIP3    H250398   6.352   7.175  10.232
 8735TIP3   OH250399   7.040   7.524  10.547
 8735TIP3    H150400   7.040   7.592  10.615
 8735TIP3    H250401   6.995   7.450  10.588
 8736TIP3   OH250402   7.106   7.990  11.305
 8736TIP3    H150403   7.102   8.072  11.355
 8736TIP3    H250404   7.179   7.941  11.344
 8737TIP3   OH250405   6.958   7.970  10.629
 8737TIP3    H150406   6.865   7.993  10.634
 8737TIP3    H250407   7.003   8.048  10.660
 8738TIP3   OH250408   7.467   7.547  11.318
 8738TIP3    H150409   7.423   7.554  11.402
 8738TIP3    H250410   7.551   7.505  11.338
 8739TIP3   OH250411   7.717   7.576  10.241
 8739TIP3    H150412   7.747   7.492  10.206
 8739TIP3    H250413   7.623   7.564  10.253
 8740TIP3   OH250414   7.795   7.925  11.421
 8740TIP3    H150415   7.708   7.890  11.440
 8740TIP3    H250416   7.778   8.007  11.374
 8741TIP3   OH250417   8.130   8.039  10.236
 8741TIP3    H150418   8.223   8.061  10.238
 8741TIP3    H250419   8.086   8.124  10.245
 8742TIP3   OH250420   6.585   6.620  11.407
 8742TIP3    H150421   6.565   6.528  11.389
 8742TIP3    H250422   6.549   6.636  11.494
 8743TIP3   OH250423   7.968   7.479  10.411
 8743TIP3    H150424   7.907   7.409  10.432
 8743TIP3    H250425   8.054   7.438  10.414
 8744TIP3   OH250426   6.496   7.900  11.258
 8744TIP3    H150427   6.536   7.842  11.323
 8744TIP3    H250428   6.483   7.983  11.305
 8745TIP3   OH250429   6.926   7.654  10.328
 8745TIP3    H150430   6.961   7.605  10.403
 8745TIP3    H250431   6.967   7.740  10.336
 8746TIP3   OH250432   6.556   7.378  10.361
 8746TIP3    H150433   6.494   7.426  10.415
 8746TIP3    H250434   6.599   7.445  10.308
 8747TIP3   OH250435   7.529   6.500  11.318
 8747TIP3    H150436   7.554   6.537  11.402
 8747TIP3    H250437   7.458   6.439  11.339
 8748TIP3   OH250438   7.558   6.507  10.533
 8748TIP3    H150439   7.550   6.554  10.450
 8748TIP3    H250440   7.604   6.568  10.591
 8749TIP3   OH250441   7.316   7.817  10.335
 8749TIP3    H150442   7.222   7.830  10.344
 8749TIP3    H250443   7.351   7.829  10.424
 8750TIP3   OH250444   7.205   6.792  10.557
 8750TIP3    H150445   7.280   6.850  10.572
 8750TIP3    H250446   7.186   6.755  10.644
 8751TIP3   OH250447   7.249   6.897  11.383
 8751TIP3    H150448   7.255   6.943  11.467
 8751TIP3    H250449   7.250   6.804  11.405
 8752TIP3   OH250450   7.319   6.367  10.571
 8752TIP3    H150451   7.299   6.382  10.664
 8752TIP3    H250452   7.404   6.408  10.558
 8753TIP3   OH250453   7.054   7.894  10.382
 8753TIP3    H150454   7.052   7.979  10.337
 8753TIP3    H250455   7.020   7.914  10.469
 8754TIP3   OH250456   6.937   6.587  10.300
 8754TIP3    H150457   6.913   6.657  10.361
 8754TIP3    H250458   7.021   6.555  10.332
 8755TIP3   OH250459   7.918   6.548  11.462
 8755TIP3    H150460   7.847   6.606  11.489
 8755TIP3    H250461   7.977   6.604  11.412
 8756TIP3   OH250462   7.806   7.048  10.893
 8756TIP3    H150463   7.724   7.001  10.875
 8756TIP3    H250464   7.854   6.990  10.952
 8757TIP3   OH250465   6.671   7.590  10.219
 8757TIP3    H150466   6.735   7.634  10.274
 8757TIP3    H250467   6.723   7.546  10.152
 8758TIP3   OH250468   6.537   6.900  10.198
 8758TIP3    H150469   6.503   6.986  10.223
 8758TIP3    H250470   6.511   6.889  10.107
 8759TIP3   OH250471   7.936   8.103  11.061
 8759TIP3    H150472   7.919   8.174  10.999
 8759TIP3    H250473   8.031   8.097  11.065
 8760TIP3   OH250474   6.586   6.277  10.970
 8760TIP3    H150475   6.579   6.268  10.875
 8760TIP3    H250476   6.556   6.193  11.005
 8761TIP3   OH250477   6.468   7.822  10.585
 8761TIP3    H150478   6.414   7.865  10.651
 8761TIP3    H250479   6.463   7.879  10.508
 8762TIP3   OH250480   6.428   8.167  11.658
 8762TIP3    H150481   6.482   8.197  11.731
 8762TIP3    H250482   6.419   8.073  11.671
 8763TIP3   OH250483   6.979   7.981  11.771
 8763TIP3    H150484   7.029   7.915  11.820
 8763TIP3    H250485   6.920   7.930  11.716
 8764TIP3   OH250486   7.392   7.847  19.853
 8764TIP3    H150487   7.363   7.760  19.826
 8764TIP3    H250488   7.370   7.853  19.946
 8765TIP3   OH250489   7.528   7.859  11.780
 8765TIP3    H150490   7.507   7.770  11.809
 8765TIP3    H250491   7.607   7.882  11.829
 8766TIP3   OH250492   7.754   7.855  10.234
 8766TIP3    H150493   7.708   7.778  10.201
 8766TIP3    H250494   7.832   7.861  10.180
 8767TIP3   OH250495   6.379   7.484  11.748
 8767TIP3    H150496   6.367   7.390  11.761
 8767TIP3    H250497   6.304   7.512  11.696
 8768TIP3   OH250498   6.902   7.480  10.112
 8768TIP3    H150499   6.946   7.401  10.143
 8768TIP3    H250500   6.926   7.548  10.175
 8769TIP3   OH250501   7.097   7.507  11.715
 8769TIP3    H150502   7.101   7.561  11.636
 8769TIP3    H250503   7.128   7.421  11.687
 8770TIP3   OH250504   7.711   7.484  11.466
 8770TIP3    H150505   7.803   7.506  11.452
 8770TIP3    H250506   7.676   7.559  11.515
 8771TIP3   OH250507   6.371   7.207  11.775
 8771TIP3    H150508   6.458   7.166  11.775
 8771TIP3    H250509   6.336   7.188  11.862
 8772TIP3   OH250510   7.015   7.272  10.261
 8772TIP3    H150511   6.941   7.261  10.321
 8772TIP3    H250512   7.042   7.183  10.239
 8773TIP3   OH250513   6.838   7.032  11.442
 8773TIP3    H150514   6.770   7.097  11.463
 8773TIP3    H250515   6.912   7.085  11.412
 8774TIP3   OH250516   7.101   7.015  10.212
 8774TIP3    H150517   7.089   6.928  10.174
 8774TIP3    H250518   7.195   7.022  10.226
 8775TIP3   OH250519   7.478   7.337  11.771
 8775TIP3    H150520   7.561   7.291  11.779
 8775TIP3    H250521   7.414   7.278  11.811
 8776TIP3   OH250522   8.188   7.328  19.730
 8776TIP3    H150523   8.105   7.370  19.751
 8776TIP3    H250524   8.255   7.392  19.753
 8777TIP3   OH250525   6.950   6.795  11.542
 8777TIP3    H150526   6.959   6.733  11.469
 8777TIP3    H250527   6.919   6.876  11.501
 8778TIP3   OH250528   6.996   6.623  11.326
 8778TIP3    H150529   7.039   6.682  11.263
 8778TIP3    H250530   6.916   6.594  11.282
 8779TIP3   OH250531   7.052   7.195  11.352
 8779TIP3    H150532   7.132   7.179  11.303
 8779TIP3    H250533   7.010   7.267  11.306
 8780TIP3   OH250534   7.496   6.911  11.799
 8780TIP3    H150535   7.494   6.826  11.755
 8780TIP3    H250536   7.577   6.908  11.851
 8781TIP3   OH250537   7.772   7.227  11.567
 8781TIP3    H150538   7.740   7.310  11.533
 8781TIP3    H250539   7.865   7.242  11.584
 8782TIP3   OH250540   6.830   6.811  11.789
 8782TIP3    H150541   6.738   6.798  11.769
 8782TIP3    H250542   6.873   6.811  11.703
 8783TIP3   OH250543   7.055   6.365  11.429
 8783TIP3    H150544   7.046   6.456  11.403
 8783TIP3    H250545   6.973   6.324  11.402
 8784TIP3   OH250546   7.175   6.731  11.695
 8784TIP3    H150547   7.144   6.686  11.774
 8784TIP3    H250548   7.097   6.744  11.642
 8785TIP3   OH250549   7.501   6.660  11.674
 8785TIP3    H150550   7.407   6.645  11.683
 8785TIP3    H250551   7.542   6.591  11.726
 8786TIP3   OH250552   7.624   6.463  11.828
 8786TIP3    H150553   7.629   6.369  11.816
 8786TIP3    H250554   7.607   6.474  11.922
 8787TIP3   OH250555   6.464   6.608  11.661
 8787TIP3    H150556   6.469   6.512  11.660
 8787TIP3    H250557   6.462   6.631  11.754
 8788TIP3   OH250558   7.082   6.243  11.680
 8788TIP3    H150559   7.122   6.158  11.661
 8788TIP3    H250560   7.068   6.283  11.594
 8789TIP3   OH250561   7.143   6.378  11.908
 8789TIP3    H150562   7.125   6.326  11.830
 8789TIP3    H250563   7.088   6.456  11.897
 8790TIP3   OH250564   7.088   8.146  10.277
 8790TIP3    H150565   7.180   8.133  10.252
 8790TIP3    H250566   7.067   8.233  10.242
 8791TIP3   OH250567   6.406   7.680  10.208
 8791TIP3    H150568   6.500   7.665  10.214
 8791TIP3    H250569   6.383   7.652  10.120
 8792TIP3   OH250570   6.306   8.174  10.615
 8792TIP3    H150571   6.215   8.168  10.586
 8792TIP3    H250572   6.317   8.100  10.674
 8793TIP3   OH250573   6.343   7.964  10.794
 8793TIP3    H150574   6.272   7.914  10.834
 8793TIP3    H250575   6.401   7.985  10.867
 8794TIP3   OH250576   8.216   8.092  11.125
 8794TIP3    H150577   8.211   8.043  11.207
 8794TIP3    H250578   8.250   8.178  11.151
 8795TIP3   OH250579   8.175   7.952  11.367
 8795TIP3    H150580   8.113   7.884  11.339
 8795TIP3    H250581   8.198   7.928  11.457
 8796TIP3   OH250582   8.040   7.627  11.907
 8796TIP3    H150583   7.962   7.632  11.962
 8796TIP3    H250584   8.078   7.715  11.912
 8797TIP3   OH250585   8.202   7.329  10.427
 8797TIP3    H150586   8.292   7.362  10.426
 8797TIP3    H250587   8.199   7.269  10.501
 8798TIP3   OH250588   8.173   7.156  10.644
 8798TIP3    H150589   8.082   7.127  10.637
 8798TIP3    H250590   8.180   7.189  10.734
 8799TIP3   OH250591   8.245   7.474  11.088
 8799TIP3    H150592   8.299   7.417  11.033
 8799TIP3    H250593   8.273   7.563  11.065
 8800TIP3   OH250594   7.981   7.773  11.290
 8800TIP3    H150595   7.913   7.820  11.338
 8800TIP3    H250596   7.949   7.770  11.200
 8801TIP3   OH250597   8.031   7.196  10.249
 8801TIP3    H150598   8.044   7.106  10.278
 8801TIP3    H250599   8.093   7.247  10.301
 8802TIP3   OH250600   8.104   6.776  10.137
 8802TIP3    H150601   8.112   6.789  10.042
 8802TIP3    H250602   8.048   6.699  10.146
 8803TIP3   OH250603   7.915   7.060  10.640
 8803TIP3    H150604   7.909   6.971  10.608
 8803TIP3    H250605   7.875   7.057  10.727
 8804TIP3   OH250606   6.295   7.166  11.096
 8804TIP3    H150607   6.318   7.165  11.003
 8804TIP3    H250608   6.378   7.151  11.142
 8805TIP3   OH250609   8.047   7.250  11.619
 8805TIP3    H150610   8.091   7.165  11.616
 8805TIP3    H250611   8.109   7.311  11.580
 8806TIP3   OH250612   8.161   6.989  11.570
 8806TIP3    H150613   8.082   6.958  11.613
 8806TIP3    H250614   8.220   6.914  11.570
 8807TIP3   OH250615   7.935   6.558  10.150
 8807TIP3    H150616   7.944   6.465  10.130
 8807TIP3    H250617   7.846   6.567  10.183
 8808TIP3   OH250618   7.916   6.808  10.496
 8808TIP3    H150619   7.952   6.720  10.495
 8808TIP3    H250620   7.977   6.860  10.445
 8809TIP3   OH250621   7.962   6.881  11.055
 8809TIP3    H150622   8.057   6.887  11.039
 8809TIP3    H250623   7.953   6.902  11.148
 8810TIP3   OH250624   7.958   6.951  11.327
 8810TIP3    H150625   7.867   6.960  11.354
 8810TIP3    H250626   8.006   7.014  11.381
 8811TIP3   OH250627   6.225   6.735  11.581
 8811TIP3    H150628   6.313   6.700  11.594
 8811TIP3    H250629   6.168   6.673  11.626
 8812TIP3   OH250630   8.158   6.283  11.784
 8812TIP3    H150631   8.253   6.281  11.792
 8812TIP3    H250632   8.138   6.372  11.754
 8813TIP3   OH250633   8.008   6.538  10.501
 8813TIP3    H150634   8.040   6.500  10.583
 8813TIP3    H250635   7.929   6.488  10.480
 8814TIP3   OH250636   6.481   6.543  10.976
 8814TIP3    H150637   6.515   6.453  10.981
 8814TIP3    H250638   6.558   6.598  10.969
 8815TIP3   OH250639   6.227   6.889  11.011
 8815TIP3    H150640   6.309   6.879  10.963
 8815TIP3    H250641   6.235   6.973  11.057
 8816TIP3   OH250642   8.093   6.540  11.682
 8816TIP3    H150643   8.029   6.563  11.750
 8816TIP3    H250644   8.041   6.530  11.603
 8817TIP3   OH250645   8.382   6.409  10.238
 8817TIP3    H150646   0.022   6.389  10.269
 8817TIP3    H250647   8.388   6.405  10.143
 8818TIP3   OH250648   6.259   6.531  10.490
 8818TIP3    H150649   6.165   6.542  10.505
 8818TIP3    H250650   6.283   6.605  10.433
 8819TIP3   OH250651   7.879   8.104  10.736
 8819TIP3    H150652   7.947   8.114  10.670
 8819TIP3    H250653   7.884   8.184  10.789
 8820TIP3   OH250654   6.261   6.300  11.325
 8820TIP3    H150655   6.189   6.266  11.380
 8820TIP3    H250656   6.219   6.364  11.268
 8821TIP3   OH250657   6.409   7.901  11.716
 8821TIP3    H150658   6.323   7.882  11.680
 8821TIP3    H250659   6.421   7.837  11.786
 8822TIP3   OH250660   6.847   7.905  11.336
 8822TIP3    H150661   6.803   7.989  11.325
 8822TIP3    H250662   6.940   7.923  11.323
 8823TIP3   OH250663   7.248   8.082  11.596
 8823TIP3    H150664   7.232   8.063  11.689
 8823TIP3    H250665   7.340   8.109  11.593
 8824TIP3   OH250666   7.514   8.154  11.565
 8824TIP3    H150667   7.551   8.065  11.562
 8824TIP3    H250668   7.574   8.204  11.620
 8825TIP3   OH250669   7.966   6.276  11.429
 8825TIP3    H150670   7.938   6.367  11.436
 8825TIP3    H250671   7.905   6.237  11.366
 8826TIP3   OH250672   6.489   8.157  11.383
 8826TIP3    H150673   6.426   8.220  11.347
 8826TIP3    H250674   6.473   8.160  11.478
 8827TIP3   OH250675   6.763   8.167  11.320
 8827TIP3    H150676   6.670   8.172  11.343
 8827TIP3    H250677   6.772   8.218  11.240
 8828TIP3   OH250678   7.329   8.206  11.145
 8828TIP3    H150679   7.240   8.214  11.109
 8828TIP3    H250680   7.323   8.248  11.231
 8829TIP3   OH250681   7.531   8.015  11.193
 8829TIP3    H150682   7.454   8.071  11.188
 8829TIP3    H250683   7.598   8.070  11.233
 8830TIP3   OH250684   7.770   8.157  11.269
 8830TIP3    H150685   7.749   8.250  11.258
 8830TIP3    H250686   7.821   8.134  11.191
 8831TIP3   OH250687   6.513   8.020  11.007
 8831TIP3    H150688   6.497   7.982  11.094
 8831TIP3    H250689   6.602   7.991  10.984
 8832TIP3   OH250690   6.764   7.932  10.937
 8832TIP3    H150691   6.769   7.836  10.939
 8832TIP3    H250692   6.847   7.961  10.974
 8833TIP3   OH250693   7.026   7.945  11.047
 8833TIP3    H150694   7.050   7.855  11.027
 8833TIP3    H250695   7.056   7.959  11.137
 8834TIP3   OH250696   7.255   6.391  10.841
 8834TIP3    H150697   7.191   6.334  10.884
 8834TIP3    H250698   7.338   6.372  10.883
 8835TIP3   OH250699   7.953   6.255  10.875
 8835TIP3    H150700   8.011   6.312  10.825
 8835TIP3    H250701   7.924   6.308  10.949
 8836TIP3   OH250702   8.132   6.411  10.722
 8836TIP3    H150703   8.194   6.339  10.720
 8836TIP3    H250704   8.186   6.490  10.732
 8837TIP3   OH250705   6.561   6.237  10.699
 8837TIP3    H150706   6.470   6.212  10.683
 8837TIP3    H250707   6.612   6.158  10.680
 8838TIP3   OH250708   6.390   6.357  10.315
 8838TIP3    H150709   6.484   6.376  10.320
 8838TIP3    H250710   6.353   6.403  10.390
 8839TIP3   OH250711   7.079   6.168  10.662
 8839TIP3    H150712   7.140   6.232  10.626
 8839TIP3    H250713   7.073   6.192  10.755
 8840TIP3   OH250714   7.522   6.318  10.917
 8840TIP3    H150715   7.573   6.329  10.836
 8840TIP3    H250716   7.530   6.224  10.936
 8841TIP3   OH250717   7.790   6.375  10.438
 8841TIP3    H150718   7.713   6.427  10.463
 8841TIP3    H250719   7.759   6.284  10.440
 8842TIP3   OH250720   6.452   8.014  10.390
 8842TIP3    H150721   6.368   8.026  10.345
 8842TIP3    H250722   6.491   8.101  10.392
 8843TIP3   OH250723   6.669   6.414  10.352
 8843TIP3    H150724   6.682   6.319  10.352
 8843TIP3    H250725   6.749   6.450  10.314
 8844TIP3   OH250726   7.196   6.563  10.404
 8844TIP3    H150727   7.231   6.489  10.453
 8844TIP3    H250728   7.197   6.636  10.466
 8845TIP3   OH250729   7.350   8.083  10.250
 8845TIP3    H150730   7.443   8.103  10.240
 8845TIP3    H250731   7.347   7.987  10.259
 8846TIP3   OH250732   8.060   8.111  10.529
 8846TIP3    H150733   8.045   8.028  10.485
 8846TIP3    H250734   8.059   8.176  10.460
 8847TIP3   OH250735   6.487   6.331  11.674
 8847TIP3    H150736   6.426   6.259  11.690
 8847TIP3    H250737   6.560   6.314  11.733
 8848TIP3   OH250738   6.688   6.257  11.855
 8848TIP3    H150739   6.773   6.224  11.828
 8848TIP3    H250740   6.638   6.179  11.880
 8849TIP3   OH250741   6.640   8.426  10.265
 8849TIP3    H150742   6.563   8.387  10.308
 8849TIP3    H250743   6.674   8.358  10.208
 8850TIP3   OH250744   7.668   6.188  11.787
 8850TIP3    H150745   7.664   6.138  11.868
 8850TIP3    H250746   7.757   6.176  11.754
 8851TIP3   OH250747   7.915   7.929  11.671
 8851TIP3    H150748   7.868   7.919  11.588
 8851TIP3    H250749   7.932   8.023  11.678
 8852TIP3   OH250750   8.318   6.936  10.557
 8852TIP3    H150751   8.268   7.009  10.593
 8852TIP3    H250752   8.299   6.862  10.614
 8853TIP3   OH250753   8.341   7.449  11.353
 8853TIP3    H150754   8.300   7.451  11.267
 8853TIP3    H250755   8.337   7.357  11.380
 8854TIP3   OH250756   8.344   7.737  11.078
 8854TIP3    H150757   8.439   7.733  11.086
 8854TIP3    H250758   8.314   7.777  11.160
 8855TIP3   OH250759   8.274   6.657  10.688
 8855TIP3    H150760   8.363   6.655  10.723
 8855TIP3    H250761   8.285   6.635  10.595
 8856TIP3   OH250762   8.334   7.176  11.433
 8856TIP3    H150763   8.291   7.115  11.493
 8856TIP3    H250764   8.295   7.158  11.348
 8857TIP3   OH250765   8.374   7.462  11.759
 8857TIP3    H150766   8.308   7.421  11.814
 8857TIP3    H250767   8.325   7.515  11.697
 8858TIP3   OH250768   8.302   8.118  10.670
 8858TIP3    H150769   8.215   8.116  10.631
 8858TIP3    H250770   8.296   8.061  10.747
 8859TIP3   OH250771   8.323   7.963  10.903
 8859TIP3    H150772   8.320   7.874  10.938
 8859TIP3    H250773   8.285   8.018  10.973
 8860TIP3   OH250774   8.391   7.252  10.995
 8860TIP3    H150775   8.410   7.159  10.982
 8860TIP3    H250776   0.028   7.295  10.991
 8861TIP3   OH250777   8.283   6.731  11.567
 8861TIP3    H150778   8.374   6.701  11.570
 8861TIP3    H250779   8.235   6.666  11.618
 8862TIP3   OH250780   8.237   6.931  11.055
 8862TIP3    H150781   8.330   6.929  11.034
 8862TIP3    H250782   8.227   7.006  11.114
 8863TIP3   OH250783   8.281   6.589  10.421
 8863TIP3    H150784   8.185   6.584  10.423
 8863TIP3    H250785   8.307   6.527  10.353
 8864TIP3   OH250786   8.210   6.288  11.286
 8864TIP3    H150787   8.139   6.276  11.350
 8864TIP3    H250788   8.183   6.365  11.236
 8865TIP3   OH250789   0.858   8.257  11.015
 8865TIP3    H150790   0.854   8.161  11.023
 8865TIP3    H250791   0.770   8.286  11.042
 8866TIP3   OH250792   1.846   8.254  10.296
 8866TIP3    H150793   1.752   8.258  10.314
 8866TIP3    H250794   1.875   8.345  10.299
 8867TIP3   OH250795   0.599   8.346  11.070
 8867TIP3    H150796   0.508   8.351  11.039
 8867TIP3    H250797   0.634   8.434  11.058
 8868TIP3   OH250798   1.129   8.401  11.461
 8868TIP3    H150799   1.189   8.342  11.506
 8868TIP3    H250800   1.064   8.425  11.528
 8869TIP3   OH250801   0.333   8.369  11.001
 8869TIP3    H150802   0.303   8.349  10.912
 8869TIP3    H250803   0.257   8.353  11.057
 8870TIP3   OH250804   0.786   8.249  11.368
 8870TIP3    H150805   0.778   8.345  11.371
 8870TIP3    H250806   0.703   8.219  11.332
 8871TIP3   OH250807   0.833   8.197  11.634
 8871TIP3    H150808   0.908   8.139  11.644
 8871TIP3    H250809   0.817   8.201  11.540
 8872TIP3   OH250810   1.981   8.368  11.776
 8872TIP3    H150811   2.040   8.293  11.785
 8872TIP3    H250812   2.037   8.444  11.796
 8873TIP3   OH250813   0.133   8.335  11.211
 8873TIP3    H150814   0.038   8.322  11.218
 8873TIP3    H250815   0.145   8.429  11.228
 8874TIP3   OH250816   1.883   8.291  11.400
 8874TIP3    H150817   1.848   8.290  11.311
 8874TIP3    H250818   1.910   8.201  11.417
 8875TIP3   OH250819   1.674   8.356  10.909
 8875TIP3    H150820   1.680   0.002  10.922
 8875TIP3    H250821   1.582   8.341  10.886
 8876TIP3   OH250822   0.292   8.325  10.730
 8876TIP3    H150823   0.216   8.294  10.680
 8876TIP3    H250824   0.355   8.253  10.724
 8877TIP3   OH250825   0.195   8.251  10.236
 8877TIP3    H150826   0.283   8.230  10.206
 8877TIP3    H250827   0.198   8.345  10.256
 8878TIP3   OH250828   0.816   8.242  10.734
 8878TIP3    H150829   0.873   8.309  10.696
 8878TIP3    H250830   0.834   8.246  10.828
 8879TIP3   OH250831   1.421   8.268  10.808
 8879TIP3    H150832   1.439   8.226  10.724
 8879TIP3    H250833   1.378   8.200  10.860
 8880TIP3   OH250834   1.596   8.295  10.426
 8880TIP3    H150835   1.529   8.250  10.375
 8880TIP3    H250836   1.598   8.249  10.509
 8881TIP3   OH250837   0.606   8.343  11.697
 8881TIP3    H150838   0.679   8.282  11.690
 8881TIP3    H250839   0.536   8.292  11.738
 8882TIP3   OH250840   1.492   8.267  11.759
 8882TIP3    H150841   1.482   8.213  11.838
 8882TIP3    H250842   1.584   8.258  11.735
 8883TIP3   OH250843   2.883   8.251  10.977
 8883TIP3    H150844   2.874   8.159  11.001
 8883TIP3    H250845   2.802   8.292  11.006
 8884TIP3   OH250846   3.916   8.278  10.267
 8884TIP3    H150847   3.822   8.276  10.286
 8884TIP3    H250848   3.939   8.371  10.269
 8885TIP3   OH250849   2.655   8.385  11.054
 8885TIP3    H150850   2.568   8.373  11.016
 8885TIP3    H250851   2.676   0.028  11.038
 8886TIP3   OH250852   3.188   8.314  11.426
 8886TIP3    H150853   3.256   8.279  11.483
 8886TIP3    H250854   3.108   8.268  11.452
 8887TIP3   OH250855   2.403   8.335  10.954
 8887TIP3    H150856   2.396   8.332  10.858
 8887TIP3    H250857   2.365   8.252  10.983
 8888TIP3   OH250858   2.889   8.256  11.387
 8888TIP3    H150859   2.898   8.351  11.385
 8888TIP3    H250860   2.806   8.239  11.343
 8889TIP3   OH250861   2.787   8.198  11.641
 8889TIP3    H150862   2.811   8.112  11.677
 8889TIP3    H250863   2.834   8.202  11.557
 8890TIP3   OH250864   4.085   8.300  11.717
 8890TIP3    H150865   4.167   8.257  11.692
 8890TIP3    H250866   4.112   8.384  11.754
 8891TIP3   OH250867   2.164   8.340  11.339
 8891TIP3    H150868   2.077   8.327  11.376
 8891TIP3    H250869   2.178   8.434  11.343
 8892TIP3   OH250870   3.822   8.281  11.443
 8892TIP3    H150871   3.759   8.236  11.387
 8892TIP3    H250872   3.899   8.224  11.443
 8893TIP3   OH250873   3.728   8.341  10.843
 8893TIP3    H150874   3.754   8.433  10.839
 8893TIP3    H250875   3.634   8.342  10.825
 8894TIP3   OH250876   2.382   8.302  10.680
 8894TIP3    H150877   2.297   8.270  10.649
 8894TIP3    H250878   2.442   8.229  10.664
 8895TIP3   OH250879   2.260   8.279  10.353
 8895TIP3    H150880   2.250   8.374  10.344
 8895TIP3    H250881   2.217   8.258  10.436
 8896TIP3   OH250882   2.934   8.205  10.705
 8896TIP3    H150883   2.953   8.293  10.672
 8896TIP3    H250884   2.922   8.217  10.799
 8897TIP3   OH250885   3.453   8.320  10.779
 8897TIP3    H150886   3.447   8.291  10.688
 8897TIP3    H250887   3.415   8.249  10.830
 8898TIP3   OH250888   3.662   8.311  10.392
 8898TIP3    H150889   3.595   8.259  10.348
 8898TIP3    H250890   3.680   8.262  10.473
 8899TIP3   OH250891   2.508   8.233  11.638
 8899TIP3    H150892   2.601   8.211  11.641
 8899TIP3    H250893   2.471   8.193  11.716
 8900TIP3   OH250894   3.543   8.284  11.799
 8900TIP3    H150895   3.523   8.225  11.871
 8900TIP3    H250896   3.637   8.271  11.783
 8901TIP3   OH250897   4.975   8.231  11.026
 8901TIP3    H150898   4.971   8.136  11.027
 8901TIP3    H250899   4.890   8.259  11.059
 8902TIP3   OH250900   6.005   8.291  10.305
 8902TIP3    H150901   5.913   8.289  10.332
 8902TIP3    H250902   6.022   8.382  10.282
 8903TIP3   OH250903   4.724   8.329  11.096
 8903TIP3    H150904   4.653   8.318  11.033
 8903TIP3    H250905   4.746   8.422  11.090
 8904TIP3   OH250906   5.234   8.350  11.420
 8904TIP3    H150907   5.288   8.305  11.484
 8904TIP3    H250908   5.144   8.324  11.441
 8905TIP3   OH250909   4.513   8.309  10.916
 8905TIP3    H150910   4.506   8.305  10.821
 8905TIP3    H250911   4.474   8.227  10.947
 8906TIP3   OH250912   4.942   8.295  11.411
 8906TIP3    H150913   4.933   8.390  11.404
 8906TIP3    H250914   4.857   8.260  11.384
 8907TIP3   OH250915   4.914   8.251  11.685
 8907TIP3    H150916   4.984   8.193  11.712
 8907TIP3    H250917   4.918   8.252  11.590
 8908TIP3   OH250918   6.191   8.287  11.769
 8908TIP3    H150919   6.264   8.251  11.719
 8908TIP3    H250920   6.214   8.379  11.783
 8909TIP3   OH250921   4.193   8.234  11.280
 8909TIP3    H150922   4.130   8.195  11.340
 8909TIP3    H250923   4.173   8.328  11.280
 8910TIP3   OH250924   6.030   8.289  11.411
 8910TIP3    H150925   5.976   8.292  11.332
 8910TIP3    H250926   6.060   8.198  11.416
 8911TIP3   OH250927   5.800   8.357  10.908
 8911TIP3    H150928   5.826   8.448  10.892
 8911TIP3    H250929   5.710   8.352  10.874
 8912TIP3   OH250930   4.476   8.287  10.642
 8912TIP3    H150931   4.385   8.263  10.620
 8912TIP3    H250932   4.525   8.205  10.631
 8913TIP3   OH250933   4.312   8.283  10.334
 8913TIP3    H150934   4.301   8.377  10.317
 8913TIP3    H250935   4.278   8.271  10.423
 8914TIP3   OH250936   4.947   8.198  10.743
 8914TIP3    H150937   5.000   8.267  10.704
 8914TIP3    H250938   4.959   8.209  10.837
 8915TIP3   OH250939   5.549   8.308  10.787
 8915TIP3    H150940   5.562   8.272  10.699
 8915TIP3    H250941   5.515   8.234  10.838
 8916TIP3   OH250942   5.753   8.309  10.429
 8916TIP3    H150943   5.689   8.262  10.375
 8916TIP3    H250944   5.754   8.261  10.512
 8917TIP3   OH250945   4.649   8.288  11.802
 8917TIP3    H150946   4.725   8.250  11.757
 8917TIP3    H250947   4.594   8.214  11.824
 8918TIP3   OH250948   5.638   8.239  11.768
 8918TIP3    H150949   5.632   8.182  11.845
 8918TIP3    H250950   5.730   8.235  11.742
 8919TIP3   OH250951   7.071   8.218  11.014
 8919TIP3    H150952   7.064   8.122  11.016
 8919TIP3    H250953   6.985   8.248  11.044
 8920TIP3   OH250954   8.019   8.284  10.310
 8920TIP3    H150955   7.928   8.301  10.333
 8920TIP3    H250956   8.051   8.368  10.276
 8921TIP3   OH250957   6.825   8.316  11.095
 8921TIP3    H150958   6.748   8.303  11.040
 8921TIP3    H250959   6.839   8.411  11.095
 8922TIP3   OH250960   7.327   8.292  11.409
 8922TIP3    H150961   7.403   8.257  11.455
 8922TIP3    H250962   7.252   8.250  11.452
 8923TIP3   OH250963   6.594   8.282  10.949
 8923TIP3    H150964   6.587   8.277  10.854
 8923TIP3    H250965   6.553   8.202  10.981
 8924TIP3   OH250966   7.019   8.240  11.411
 8924TIP3    H150967   7.017   8.334  11.394
 8924TIP3    H250968   6.931   8.210  11.388
 8925TIP3   OH250969   6.990   8.248  11.691
 8925TIP3    H150970   6.993   8.162  11.734
 8925TIP3    H250971   7.018   8.231  11.601
 8926TIP3   OH250972   8.121   8.346  11.827
 8926TIP3    H150973   8.150   8.287  11.896
 8926TIP3    H250974   8.176   8.424  11.837
 8927TIP3   OH250975   6.298   8.349  11.310
 8927TIP3    H150976   6.217   8.343  11.361
 8927TIP3    H250977   6.319   8.443  11.310
 8928TIP3   OH250978   8.061   8.206  11.388
 8928TIP3    H150979   7.975   8.192  11.349
 8928TIP3    H250980   8.103   8.120  11.385
 8929TIP3   OH250981   7.865   8.330  10.905
 8929TIP3    H150982   7.890   8.418  10.933
 8929TIP3    H250983   7.780   8.342  10.861
 8930TIP3   OH250984   6.566   8.247  10.678
 8930TIP3    H150985   6.476   8.226  10.653
 8930TIP3    H250986   6.614   8.166  10.664
 8931TIP3   OH250987   6.406   8.314  10.391
 8931TIP3    H150988   6.395   8.408  10.406
 8931TIP3    H250989   6.368   8.273  10.469
 8932TIP3   OH250990   7.101   8.188  10.723
 8932TIP3    H150991   7.098   8.280  10.695
 8932TIP3    H250992   7.103   8.192  10.818
 8933TIP3   OH250993   7.623   8.341  10.766
 8933TIP3    H150994   7.617   8.292  10.684
 8933TIP3    H250995   7.579   8.286  10.831
 8934TIP3   OH250996   7.753   8.334  10.380
 8934TIP3    H150997   7.712   8.290  10.305
 8934TIP3    H250998   7.707   8.299  10.456
 8935TIP3   OH250999   6.741   8.360  11.748
 8935TIP3    H151000   6.819   8.310  11.727
 8935TIP3    H251001   6.687   8.299  11.799
 8936TIP3   OH251002   7.709   8.267  11.726
 8936TIP3    H151003   7.700   8.230  11.813
 8936TIP3    H251004   7.798   8.243  11.698
 8937TIP3   OH251005   8.293   8.330  11.255
 8937TIP3    H151006   8.220   8.309  11.313
 8937TIP3    H251007   8.297   8.426  11.255
 8938TIP3   OH251008   1.336   1.069  12.539
 8938TIP3    H151009   1.314   1.161  12.526
 8938TIP3    H251010   1.272   1.021  12.486
 8939TIP3   OH251011   1.604   1.326  12.799
 8939TIP3    H151012   1.542   1.332  12.871
 8939TIP3    H251013   1.690   1.321  12.841
 8940TIP3   OH251014   0.551   1.457  12.892
 8940TIP3    H151015   0.522   1.374  12.855
 8940TIP3    H251016   0.516   1.458  12.981
 8941TIP3   OH251017   0.164   0.884  12.445
 8941TIP3    H151018   0.188   0.871  12.537
 8941TIP3    H251019   0.072   0.861  12.441
 8942TIP3   OH251020   0.212   0.835  12.711
 8942TIP3    H151021   0.232   0.741  12.715
 8942TIP3    H251022   0.257   0.872  12.787
 8943TIP3   OH251023   1.612   0.498  12.642
 8943TIP3    H151024   1.670   0.460  12.576
 8943TIP3    H251025   1.525   0.491  12.604
 8944TIP3   OH251026   0.257   0.543  12.662
 8944TIP3    H151027   0.330   0.501  12.708
 8944TIP3    H251028   0.211   0.470  12.620
 8945TIP3   OH251029   0.723   0.883  12.619
 8945TIP3    H151030   0.765   0.842  12.694
 8945TIP3    H251031   0.705   0.810  12.559
 8946TIP3   OH251032   1.293   1.344  12.486
 8946TIP3    H151033   1.247   1.361  12.404
 8946TIP3    H251034   1.265   1.415  12.544
 8947TIP3   OH251035   0.239   1.453  12.260
 8947TIP3    H151036   0.237   1.481  12.168
 8947TIP3    H251037   0.255   1.533  12.309
 8948TIP3   OH251038   1.575   1.318  12.501
 8948TIP3    H151039   1.480   1.329  12.497
 8948TIP3    H251040   1.596   1.329  12.594
 8949TIP3   OH251041   1.202   0.904  12.351
 8949TIP3    H151042   1.114   0.916  12.316
 8949TIP3    H251043   1.258   0.903  12.273
 8950TIP3   OH251044   1.197   0.891  11.957
 8950TIP3    H151045   1.265   0.860  12.016
 8950TIP3    H251046   1.202   0.833  11.881
 8951TIP3   OH251047   1.541   0.982  12.377
 8951TIP3    H151048   1.481   1.014  12.444
 8951TIP3    H251049   1.617   0.950  12.426
 8952TIP3   OH251050   0.579   1.112  12.572
 8952TIP3    H151051   0.516   1.086  12.506
 8952TIP3    H251052   0.631   1.033  12.589
 8953TIP3   OH251053   1.414   0.893  12.155
 8953TIP3    H151054   1.459   0.929  12.231
 8953TIP3    H251055   1.463   0.925  12.080
 8954TIP3   OH251056   1.866   0.150  12.226
 8954TIP3    H151057   1.773   0.157  12.246
 8954TIP3    H251058   1.876   0.191  12.140
 8955TIP3   OH251059   0.396   1.030  12.381
 8955TIP3    H151060   0.374   1.089  12.309
 8955TIP3    H251061   0.315   0.984  12.400
 8956TIP3   OH251062   2.003   1.592  11.998
 8956TIP3    H151063   2.019   1.687  11.994
 8956TIP3    H251064   2.090   1.553  11.991
 8957TIP3   OH251065   0.096   1.519  12.893
 8957TIP3    H151066   0.059   1.432  12.908
 8957TIP3    H251067   0.170   1.523  12.954
 8958TIP3   OH251068   0.470   1.837  12.522
 8958TIP3    H151069   0.490   1.789  12.603
 8958TIP3    H251070   0.407   1.782  12.476
 8959TIP3   OH251071   1.588   0.980  11.944
 8959TIP3    H151072   1.581   1.011  11.854
 8959TIP3    H251073   1.590   0.885  11.937
 8960TIP3   OH251074   1.151   0.416  12.073
 8960TIP3    H151075   1.092   0.388  12.142
 8960TIP3    H251076   1.095   0.434  11.998
 8961TIP3   OH251077   0.683   0.657  12.441
 8961TIP3    H151078   0.732   0.585  12.481
 8961TIP3    H251079   0.692   0.642  12.347
 8962TIP3   OH251080   1.262   0.651  12.476
 8962TIP3    H151081   1.226   0.738  12.458
 8962TIP3    H251082   1.330   0.639  12.411
 8963TIP3   OH251083   0.720   0.449  11.927
 8963TIP3    H151084   0.737   0.356  11.909
 8963TIP3    H251085   0.684   0.483  11.845
 8964TIP3   OH251086   0.916   0.474  12.788
 8964TIP3    H151087   0.833   0.428  12.801
 8964TIP3    H251088   0.968   0.451  12.866
 8965TIP3   OH251089   0.695   0.601  12.167
 8965TIP3    H151090   0.714   0.537  12.099
 8965TIP3    H251091   0.688   0.685  12.120
 8966TIP3   OH251092   0.669   0.820  12.004
 8966TIP3    H151093   0.603   0.814  11.935
 8966TIP3    H251094   0.749   0.846  11.957
 8967TIP3   OH251095   0.848   0.765  12.837
 8967TIP3    H151096   0.872   0.673  12.838
 8967TIP3    H251097   0.856   0.793  12.928
 8968TIP3   OH251098   0.895   1.300  12.236
 8968TIP3    H151099   0.855   1.224  12.194
 8968TIP3    H251100   0.858   1.299  12.325
 8969TIP3   OH251101   1.406   0.513  12.034
 8969TIP3    H151102   1.315   0.484  12.043
 8969TIP3    H251103   1.429   0.548  12.120
 8970TIP3   OH251104   1.460   0.642  12.277
 8970TIP3    H151105   1.552   0.645  12.303
 8970TIP3    H251106   1.445   0.725  12.232
 8971TIP3   OH251107   0.467   1.206  12.814
 8971TIP3    H151108   0.493   1.172  12.728
 8971TIP3    H251109   0.417   1.135  12.853
 8972TIP3   OH251110   1.164   1.385  12.241
 8972TIP3    H151111   1.189   1.372  12.150
 8972TIP3    H251112   1.071   1.359  12.244
 8973TIP3   OH251113   1.939   0.712  12.170
 8973TIP3    H151114   1.911   0.668  12.090
 8973TIP3    H251115   1.965   0.799  12.142
 8974TIP3   OH251116   1.747   1.640  12.097
 8974TIP3    H151117   1.751   1.662  12.189
 8974TIP3    H251118   1.838   1.630  12.069
 8975TIP3   OH251119   0.701   1.568  12.533
 8975TIP3    H151120   0.726   1.644  12.481
 8975TIP3    H251121   0.641   1.601  12.598
 8976TIP3   OH251122   0.181   1.046  12.006
 8976TIP3    H151123   0.242   1.092  12.063
 8976TIP3    H251124   0.099   1.041  12.056
 8977TIP3   OH251125   0.769   1.303  12.481
 8977TIP3    H151126   0.737   1.391  12.498
 8977TIP3    H251127   0.699   1.245  12.511
 8978TIP3   OH251128   0.726   1.833  12.416
 8978TIP3    H151129   0.634   1.846  12.440
 8978TIP3    H251130   0.773   1.903  12.461
 8979TIP3   OH251131   1.510   1.317  12.029
 8979TIP3    H151132   1.509   1.314  12.125
 8979TIP3    H251133   1.419   1.330  12.004
 8980TIP3   OH251134   2.005   1.877  12.011
 8980TIP3    H151135   2.015   1.938  11.938
 8980TIP3    H251136   1.935   1.916  12.065
 8981TIP3   OH251137   1.643   1.202  12.250
 8981TIP3    H151138   1.612   1.120  12.289
 8981TIP3    H251139   1.647   1.263  12.324
 8982TIP3   OH251140   0.989   1.446  11.891
 8982TIP3    H151141   0.954   1.382  11.829
 8982TIP3    H251142   0.916   1.464  11.950
 8983TIP3   OH251143   0.785   1.495  12.074
 8983TIP3    H151144   0.819   1.431  12.136
 8983TIP3    H251145   0.801   1.580  12.115
 8984TIP3   OH251146   0.336   1.209  12.173
 8984TIP3    H151147   0.289   1.280  12.217
 8984TIP3    H251148   0.410   1.253  12.130
 8985TIP3   OH251149   1.339   0.306  12.287
 8985TIP3    H151150   1.267   0.300  12.224
 8985TIP3    H251151   1.349   0.400  12.303
 8986TIP3   OH251152   1.072   0.444  12.553
 8986TIP3    H151153   1.124   0.523  12.540
 8986TIP3    H251154   1.017   0.463  12.629
 8987TIP3   OH251155   1.221   0.211  12.529
 8987TIP3    H151156   1.162   0.286  12.539
 8987TIP3    H251157   1.262   0.224  12.443
 8988TIP3   OH251158   0.820   1.749  12.169
 8988TIP3    H151159   0.764   1.789  12.102
 8988TIP3    H251160   0.784   1.781  12.252
 8989TIP3   OH251161   0.525   1.375  12.036
 8989TIP3    H151162   0.598   1.429  12.067
 8989TIP3    H251163   0.565   1.316  11.973
 8990TIP3   OH251164   0.261   1.701  12.397
 8990TIP3    H151165   0.193   1.705  12.464
 8990TIP3    H251166   0.245   1.778  12.342
 8991TIP3   OH251167   1.112   1.695  11.856
 8991TIP3    H151168   1.058   1.617  11.867
 8991TIP3    H251169   1.197   1.661  11.829
 8992TIP3   OH251170   1.595   1.690  11.873
 8992TIP3    H151171   1.641   1.680  11.957
 8992TIP3    H251172   1.664   1.684  11.808
 8993TIP3   OH251173   0.657   1.201  11.875
 8993TIP3    H151174   0.695   1.157  11.952
 8993TIP3    H251175   0.733   1.221  11.820
 8994TIP3   OH251176   1.241   1.362  11.963
 8994TIP3    H151177   1.154   1.393  11.938
 8994TIP3    H251178   1.251   1.278  11.917
 8995TIP3   OH251179   0.772   1.086  12.105
 8995TIP3    H151180   0.709   1.023  12.140
 8995TIP3    H251181   0.831   1.032  12.051
 8996TIP3   OH251182   0.920   0.939  11.929
 8996TIP3    H151183   0.924   0.961  11.836
 8996TIP3    H251184   1.011   0.916  11.952
 8997TIP3   OH251185   1.871   1.117  11.868
 8997TIP3    H151186   1.869   1.073  11.783
 8997TIP3    H251187   1.901   1.206  11.848
 8998TIP3   OH251188   0.274   1.481  11.985
 8998TIP3    H151189   0.365   1.454  11.998
 8998TIP3    H251190   0.238   1.415  11.926
 8999TIP3   OH251191   0.104   1.964  12.539
 8999TIP3    H151192   0.011   1.984  12.532
 8999TIP3    H251193   0.110   1.900  12.610
 9000TIP3   OH251194   0.124   1.742  12.727
 9000TIP3    H151195   0.114   1.660  12.777
 9000TIP3    H251196   0.198   1.786  12.768
 9001TIP3   OH251197   2.026   1.135  12.268
 9001TIP3    H151198   2.081   1.213  12.266
 9001TIP3    H251199   2.028   1.106  12.359
 9002TIP3   OH251200   2.007   1.025  12.533
 9002TIP3    H151201   1.969   1.103  12.574
 9002TIP3    H251202   2.080   1.001  12.590
 9003TIP3   OH251203   2.187   1.440  13.012
 9003TIP3    H151204   2.264   1.392  12.981
 9003TIP3    H251205   2.167   1.401  13.097
 9004TIP3   OH251206   2.000   0.960  12.065
 9004TIP3    H151207   1.958   1.007  11.994
 9004TIP3    H251208   2.006   1.025  12.136
 9005TIP3   OH251209   1.864   0.618  11.929
 9005TIP3    H151210   1.893   0.675  11.858
 9005TIP3    H251211   1.828   0.541  11.884
 9006TIP3   OH251212   1.762   0.883  12.502
 9006TIP3    H151213   1.772   0.800  12.455
 9006TIP3    H251214   1.851   0.919  12.506
 9007TIP3   OH251215   0.314   0.994  12.941
 9007TIP3    H151216   0.241   1.029  12.992
 9007TIP3    H251217   0.368   0.949  13.006
 9008TIP3   OH251218   1.762   0.389  11.811
 9008TIP3    H151219   1.798   0.336  11.882
 9008TIP3    H251220   1.668   0.368  11.810
 9009TIP3   OH251221   1.732   0.649  12.345
 9009TIP3    H151222   1.746   0.558  12.371
 9009TIP3    H251223   1.800   0.666  12.280
 9010TIP3   OH251224   1.748   0.380  12.423
 9010TIP3    H151225   1.832   0.334  12.419
 9010TIP3    H251226   1.686   0.319  12.383
 9011TIP3   OH251227   0.051   0.810  13.076
 9011TIP3    H151228   0.125   0.769  13.121
 9011TIP3    H251229   0.065   0.904  13.088
 9012TIP3   OH251230   1.942   0.279  11.997
 9012TIP3    H151231   2.007   0.236  11.941
 9012TIP3    H251232   1.990   0.351  12.038
 9013TIP3   OH251233   0.347   1.844  12.856
 9013TIP3    H151234   0.370   1.854  12.948
 9013TIP3    H251235   0.420   1.795  12.818
 9014TIP3   OH251236   0.561   1.697  12.748
 9014TIP3    H151237   0.562   1.617  12.801
 9014TIP3    H251238   0.645   1.739  12.768
 9015TIP3   OH251239   0.804   1.831  12.761
 9015TIP3    H151240   0.815   1.894  12.690
 9015TIP3    H251241   0.893   1.804  12.784
 9016TIP3   OH251242   1.636   8.440  12.752
 9016TIP3    H151243   1.709   8.422  12.812
 9016TIP3    H251244   1.658   8.391  12.673
 9017TIP3   OH251245   0.219   8.439  12.210
 9017TIP3    H151246   0.153   8.373  12.234
 9017TIP3    H251247   0.235   0.040  12.291
 9018TIP3   OH251248   0.935   0.068  12.392
 9018TIP3    H151249   1.011   0.043  12.443
 9018TIP3    H251250   0.883   8.436  12.383
 9019TIP3   OH251251   1.595   0.183  12.299
 9019TIP3    H151252   1.506   0.215  12.288
 9019TIP3    H251253   1.587   0.088  12.305
 9020TIP3   OH251254   0.209   1.946  12.283
 9020TIP3    H151255   0.167   1.965  12.367
 9020TIP3    H251256   0.224   2.032  12.244
 9021TIP3   OH251257   1.022   0.319  12.298
 9021TIP3    H151258   0.980   0.235  12.318
 9021TIP3    H251259   1.022   0.366  12.382
 9022TIP3   OH251260   1.794   1.949  12.456
 9022TIP3    H151261   1.705   1.954  12.492
 9022TIP3    H251262   1.781   1.944  12.361
 9023TIP3   OH251263   0.256   1.967  11.981
 9023TIP3    H151264   0.243   2.045  12.035
 9023TIP3    H251265   0.251   1.894  12.043
 9024TIP3   OH251266   3.455   1.191  12.476
 9024TIP3    H151267   3.434   1.273  12.432
 9024TIP3    H251268   3.393   1.128  12.440
 9025TIP3   OH251269   3.485   1.370  12.692
 9025TIP3    H151270   3.472   1.294  12.636
 9025TIP3    H251271   3.532   1.432  12.637
 9026TIP3   OH251272   2.081   0.708  12.411
 9026TIP3    H151273   2.091   0.799  12.439
 9026TIP3    H251274   2.037   0.714  12.326
 9027TIP3   OH251275   2.198   0.969  12.717
 9027TIP3    H151276   2.218   0.879  12.740
 9027TIP3    H251277   2.254   1.022  12.775
 9028TIP3   OH251278   3.044   1.260  13.099
 9028TIP3    H151279   3.106   1.191  13.121
 9028TIP3    H251280   3.099   1.338  13.089
 9029TIP3   OH251281   2.566   0.392  12.776
 9029TIP3    H151282   2.632   0.433  12.720
 9029TIP3    H251283   2.601   0.305  12.794
 9030TIP3   OH251284   3.523   0.421  12.560
 9030TIP3    H151285   3.491   0.354  12.619
 9030TIP3    H251286   3.618   0.423  12.573
 9031TIP3   OH251287   2.260   0.712  12.788
 9031TIP3    H151288   2.314   0.666  12.852
 9031TIP3    H251289   2.277   0.667  12.705
 9032TIP3   OH251290   2.983   0.555  12.766
 9032TIP3    H151291   3.042   0.623  12.797
 9032TIP3    H251292   3.028   0.473  12.786
 9033TIP3   OH251293   3.391   1.431  12.361
 9033TIP3    H151294   3.355   1.423  12.273
 9033TIP3    H251295   3.364   1.517  12.391
 9034TIP3   OH251296   2.410   0.545  12.946
 9034TIP3    H151297   2.411   0.495  13.028
 9034TIP3    H251298   2.467   0.497  12.887
 9035TIP3   OH251299   2.198   1.351  12.226
 9035TIP3    H151300   2.199   1.389  12.139
 9035TIP3    H251301   2.209   1.425  12.285
 9036TIP3   OH251302   3.301   1.027  12.299
 9036TIP3    H151303   3.228   1.073  12.258
 9036TIP3    H251304   3.363   1.011  12.227
 9037TIP3   OH251305   3.272   0.888  11.948
 9037TIP3    H151306   3.339   0.904  12.015
 9037TIP3    H251307   3.287   0.798  11.921
 9038TIP3   OH251308   3.657   1.069  12.321
 9038TIP3    H151309   3.601   1.111  12.386
 9038TIP3    H251310   3.712   1.009  12.372
 9039TIP3   OH251311   3.507   0.961  12.115
 9039TIP3    H151312   3.563   1.003  12.179
 9039TIP3    H251313   3.552   0.972  12.031
 9040TIP3   OH251314   3.260   1.673  12.409
 9040TIP3    H151315   3.189   1.658  12.471
 9040TIP3    H251316   3.217   1.681  12.324
 9041TIP3   OH251317   3.919   0.058  12.121
 9041TIP3    H151318   3.840   0.088  12.166
 9041TIP3    H251319   3.959   0.138  12.087
 9042TIP3   OH251320   2.628   1.054  12.188
 9042TIP3    H151321   2.540   1.085  12.164
 9042TIP3    H251322   2.612   0.987  12.254
 9043TIP3   OH251323   3.216   2.073  12.494
 9043TIP3    H151324   3.241   2.014  12.423
 9043TIP3    H251325   3.220   2.160  12.456
 9044TIP3   OH251326   2.499   1.898  12.591
 9044TIP3    H151327   2.531   1.895  12.681
 9044TIP3    H251328   2.430   1.832  12.587
 9045TIP3   OH251329   3.512   1.927  12.025
 9045TIP3    H151330   3.562   1.849  12.000
 9045TIP3    H251331   3.537   1.942  12.117
 9046TIP3   OH251332   3.575   1.944  12.320
 9046TIP3    H151333   3.530   1.862  12.342
 9046TIP3    H251334   3.639   1.955  12.391
 9047TIP3   OH251335   2.622   0.127  12.819
 9047TIP3    H151336   2.545   0.089  12.778
 9047TIP3    H251337   2.660   0.055  12.871
 9048TIP3   OH251338   3.637   0.998  11.873
 9048TIP3    H151339   3.642   0.962  11.784
 9048TIP3    H251340   3.727   1.023  11.894
 9049TIP3   OH251341   2.754   0.538  12.624
 9049TIP3    H151342   2.722   0.628  12.631
 9049TIP3    H251343   2.835   0.537  12.675
 9050TIP3   OH251344   3.292   0.736  12.361
 9050TIP3    H151345   3.284   0.831  12.358
 9050TIP3    H251346   3.375   0.716  12.319
 9051TIP3   OH251347   3.336   0.646  12.630
 9051TIP3    H151348   3.310   0.675  12.542
 9051TIP3    H251349   3.394   0.571  12.614
 9052TIP3   OH251350   2.737   0.395  11.890
 9052TIP3    H151351   2.662   0.338  11.904
 9052TIP3    H251352   2.699   0.480  11.869
 9053TIP3   OH251353   2.094   0.462  12.145
 9053TIP3    H151354   2.152   0.508  12.085
 9053TIP3    H251355   2.043   0.531  12.187
 9054TIP3   OH251356   2.279   0.576  12.552
 9054TIP3    H151357   2.215   0.613  12.492
 9054TIP3    H251358   2.313   0.499  12.506
 9055TIP3   OH251359   2.796   0.716  11.971
 9055TIP3    H151360   2.732   0.703  11.900
 9055TIP3    H251361   2.859   0.778  11.934
 9056TIP3   OH251362   3.170   0.732  12.858
 9056TIP3    H151363   3.241   0.712  12.797
 9056TIP3    H251364   3.214   0.751  12.941
 9057TIP3   OH251365   3.036   1.263  12.148
 9057TIP3    H151366   2.985   1.204  12.092
 9057TIP3    H251367   2.969   1.312  12.197
 9058TIP3   OH251368   3.438   0.473  12.099
 9058TIP3    H151369   3.436   0.405  12.167
 9058TIP3    H251370   3.472   0.550  12.144
 9059TIP3   OH251371   3.534   0.701  12.222
 9059TIP3    H151372   3.625   0.685  12.249
 9059TIP3    H251373   3.536   0.787  12.180
 9060TIP3   OH251374   3.245   1.440  12.124
 9060TIP3    H151375   3.198   1.523  12.133
 9060TIP3    H251376   3.176   1.374  12.129
 9061TIP3   OH251377   4.031   0.717  12.134
 9061TIP3    H151378   3.997   0.686  12.050
 9061TIP3    H251379   4.053   0.809  12.119
 9062TIP3   OH251380   2.730   1.573  12.435
 9062TIP3    H151381   2.734   1.669  12.427
 9062TIP3    H251382   2.675   1.558  12.511
 9063TIP3   OH251383   2.263   0.930  11.983
 9063TIP3    H151384   2.310   0.998  12.031
 9063TIP3    H251385   2.174   0.934  12.018
 9064TIP3   OH251386   2.809   1.389  12.250
 9064TIP3    H151387   2.789   1.453  12.318
 9064TIP3    H251388   2.757   1.312  12.273
 9065TIP3   OH251389   2.734   1.853  12.428
 9065TIP3    H151390   2.654   1.880  12.474
 9065TIP3    H251391   2.804   1.902  12.470
 9066TIP3   OH251392   3.714   1.441  11.980
 9066TIP3    H151393   3.747   1.384  12.050
 9066TIP3    H251394   3.623   1.414  11.968
 9067TIP3   OH251395   3.801   1.261  12.171
 9067TIP3    H151396   3.746   1.199  12.219
 9067TIP3    H251397   3.890   1.238  12.196
 9068TIP3   OH251398   2.989   1.552  11.816
 9068TIP3    H151399   2.980   1.462  11.784
 9068TIP3    H251400   2.928   1.557  11.890
 9069TIP3   OH251401   2.801   1.568  12.034
 9069TIP3    H151402   2.809   1.497  12.099
 9069TIP3    H251403   2.819   1.648  12.084
 9070TIP3   OH251404   2.379   1.163  12.113
 9070TIP3    H151405   2.316   1.207  12.169
 9070TIP3    H251406   2.426   1.234  12.068
 9071TIP3   OH251407   3.452   0.297  12.318
 9071TIP3    H151408   3.476   0.347  12.396
 9071TIP3    H251409   3.385   0.235  12.349
 9072TIP3   OH251410   3.124   1.694  12.169
 9072TIP3    H151411   3.032   1.716  12.177
 9072TIP3    H251412   3.161   1.763  12.113
 9073TIP3   OH251413   2.865   1.795  12.181
 9073TIP3    H151414   2.888   1.879  12.143
 9073TIP3    H251415   2.814   1.817  12.259
 9074TIP3   OH251416   2.516   1.386  12.003
 9074TIP3    H151417   2.567   1.456  12.045
 9074TIP3    H251418   2.577   1.347  11.940
 9075TIP3   OH251419   2.211   0.641  11.973
 9075TIP3    H151420   2.244   0.731  11.971
 9075TIP3    H251421   2.179   0.625  11.883
 9076TIP3   OH251422   2.392   0.022  12.707
 9076TIP3    H151423   2.349   0.019  12.622
 9076TIP3    H251424   2.395   8.380  12.736
 9077TIP3   OH251425   2.229   1.596  12.352
 9077TIP3    H151426   2.252   1.629  12.439
 9077TIP3    H251427   2.225   1.673  12.297
 9078TIP3   OH251428   3.184   1.743  11.772
 9078TIP3    H151429   3.118   1.678  11.797
 9078TIP3    H251430   3.266   1.695  11.770
 9079TIP3   OH251431   3.656   1.708  11.927
 9079TIP3    H151432   3.679   1.621  11.960
 9079TIP3    H251433   3.714   1.722  11.853
 9080TIP3   OH251434   2.703   1.268  11.834
 9080TIP3    H151435   2.738   1.210  11.901
 9080TIP3    H251436   2.780   1.296  11.784
 9081TIP3   OH251437   3.440   1.389  11.936
 9081TIP3    H151438   3.377   1.405  12.006
 9081TIP3    H251439   3.421   1.300  11.906
 9082TIP3   OH251440   2.837   1.111  12.018
 9082TIP3    H151441   2.771   1.079  12.080
 9082TIP3    H251442   2.879   1.032  11.984
 9083TIP3   OH251443   2.986   0.915  11.889
 9083TIP3    H151444   2.988   0.944  11.798
 9083TIP3    H251445   3.078   0.906  11.914
 9084TIP3   OH251446   3.907   1.063  11.873
 9084TIP3    H151447   3.935   1.032  11.787
 9084TIP3    H251448   3.921   1.157  11.871
 9085TIP3   OH251449   2.976   2.021  12.061
 9085TIP3    H151450   3.065   1.991  12.038
 9085TIP3    H251451   2.963   2.098  12.007
 9086TIP3   OH251452   2.246   1.449  11.966
 9086TIP3    H151453   2.339   1.449  11.986
 9086TIP3    H251454   2.237   1.390  11.891
 9087TIP3   OH251455   2.072   1.989  12.479
 9087TIP3    H151456   1.978   1.980  12.489
 9087TIP3    H251457   2.104   1.901  12.464
 9088TIP3   OH251458   2.297   1.701  12.609
 9088TIP3    H151459   2.234   1.722  12.677
 9088TIP3    H251460   2.352   1.632  12.649
 9089TIP3   OH251461   4.050   1.166  12.265
 9089TIP3    H151462   4.133   1.213  12.271
 9089TIP3    H251463   4.051   1.104  12.337
 9090TIP3   OH251464   4.066   0.976  12.463
 9090TIP3    H151465   3.979   0.947  12.489
 9090TIP3    H251466   4.109   0.998  12.546
 9091TIP3   OH251467   4.084   0.978  12.067
 9091TIP3    H151468   4.021   1.000  11.998
 9091TIP3    H251469   4.070   1.045  12.134
 9092TIP3   OH251470   3.955   0.634  11.888
 9092TIP3    H151471   3.979   0.674  11.804
 9092TIP3    H251472   3.921   0.548  11.864
 9093TIP3   OH251473   3.796   0.870  12.468
 9093TIP3    H151474   3.803   0.796  12.408
 9093TIP3    H251475   3.749   0.835  12.544
 9094TIP3   OH251476   3.869   0.376  11.826
 9094TIP3    H151477   3.913   0.336  11.901
 9094TIP3    H251478   3.776   0.371  11.848
 9095TIP3   OH251479   3.805   0.653  12.292
 9095TIP3    H151480   3.809   0.558  12.304
 9095TIP3    H251481   3.881   0.673  12.238
 9096TIP3   OH251482   3.827   0.372  12.323
 9096TIP3    H151483   3.823   0.352  12.417
 9096TIP3    H251484   3.779   0.301  12.282
 9097TIP3   OH251485   2.309   0.283  12.745
 9097TIP3    H151486   2.334   0.192  12.732
 9097TIP3    H251487   2.392   0.331  12.752
 9098TIP3   OH251488   4.055   0.273  12.009
 9098TIP3    H151489   4.112   0.222  11.951
 9098TIP3    H251490   4.109   0.346  12.038
 9099TIP3   OH251491   2.140   0.203  12.253
 9099TIP3    H151492   2.049   0.175  12.259
 9099TIP3    H251493   2.135   0.296  12.230
 9100TIP3   OH251494   3.723   0.101  12.761
 9100TIP3    H151495   3.636   0.134  12.735
 9100TIP3    H251496   3.711   0.071  12.851
 9101TIP3   OH251497   3.827   0.304  12.589
 9101TIP3    H151498   3.801   0.226  12.638
 9101TIP3    H251499   3.920   0.316  12.611
 9102TIP3   OH251500   2.269   0.038  12.457
 9102TIP3    H151501   2.232   0.097  12.392
 9102TIP3    H251502   2.276   8.402  12.413
 9103TIP3   OH251503   2.294   0.113  12.040
 9103TIP3    H151504   2.230   0.126  11.971
 9103TIP3    H251505   2.250   0.144  12.120
 9104TIP3   OH251506   3.468   0.214  12.732
 9104TIP3    H151507   3.383   0.172  12.720
 9104TIP3    H251508   3.474   0.231  12.826
 9105TIP3   OH251509   3.676   0.134  12.242
 9105TIP3    H151510   3.596   0.183  12.264
 9105TIP3    H251511   3.659   0.045  12.275
 9106TIP3   OH251512   2.210   1.827  12.198
 9106TIP3    H151513   2.141   1.844  12.135
 9106TIP3    H251514   2.273   1.898  12.184
 9107TIP3   OH251515   2.506   0.237  11.902
 9107TIP3    H151516   2.521   0.170  11.835
 9107TIP3    H251517   2.448   0.194  11.965
 9108TIP3   OH251518   3.226   1.896  12.003
 9108TIP3    H151519   3.319   1.915  12.008
 9108TIP3    H251520   3.215   1.854  11.917
 9109TIP3   OH251521   2.495   1.949  11.921
 9109TIP3    H151522   2.467   1.961  12.013
 9109TIP3    H251523   2.531   1.861  11.918
 9110TIP3   OH251524   4.215   0.763  12.357
 9110TIP3    H151525   4.172   0.841  12.393
 9110TIP3    H251526   4.157   0.734  12.287
 9111TIP3   OH251527   4.221   1.046  12.683
 9111TIP3    H151528   4.250   1.018  12.770
 9111TIP3    H251529   4.286   1.111  12.655
 9112TIP3   OH251530   5.676   0.464  12.513
 9112TIP3    H151531   5.686   0.482  12.607
 9112TIP3    H251532   5.764   0.440  12.484
 9113TIP3   OH251533   4.307   0.543  12.703
 9113TIP3    H151534   4.368   0.480  12.741
 9113TIP3    H251535   4.349   0.571  12.622
 9114TIP3   OH251536   4.824   0.666  12.743
 9114TIP3    H151537   4.871   0.583  12.739
 9114TIP3    H251538   4.787   0.677  12.655
 9115TIP3   OH251539   5.722   0.501  12.784
 9115TIP3    H151540   5.710   0.444  12.860
 9115TIP3    H251541   5.690   0.586  12.813
 9116TIP3   OH251542   4.298   1.290  12.275
 9116TIP3    H151543   4.310   1.350  12.201
 9116TIP3    H251544   4.333   1.338  12.351
 9117TIP3   OH251545   5.126   0.034  12.714
 9117TIP3    H151546   5.131   8.390  12.739
 9117TIP3    H251547   5.064   0.036  12.641
 9118TIP3   OH251548   5.343   1.001  12.194
 9118TIP3    H151549   5.260   1.043  12.219
 9118TIP3    H251550   5.407   1.071  12.193
 9119TIP3   OH251551   5.266   0.883  11.952
 9119TIP3    H151552   5.299   0.906  12.039
 9119TIP3    H251553   5.329   0.819  11.919
 9120TIP3   OH251554   4.713   1.094  12.573
 9120TIP3    H151555   4.716   1.068  12.481
 9120TIP3    H251556   4.778   1.164  12.580
 9121TIP3   OH251557   6.021   0.050  12.166
 9121TIP3    H151558   5.951   0.090  12.217
 9121TIP3    H251559   6.059   0.122  12.116
 9122TIP3   OH251560   4.725   1.011  12.304
 9122TIP3    H151561   4.638   1.018  12.263
 9122TIP3    H251562   4.749   0.919  12.294
 9123TIP3   OH251563   6.076   1.635  12.000
 9123TIP3    H151564   5.995   1.619  11.952
 9123TIP3    H251565   6.145   1.614  11.938
 9124TIP3   OH251566   4.451   1.881  12.419
 9124TIP3    H151567   4.541   1.860  12.444
 9124TIP3    H251568   4.435   1.967  12.458
 9125TIP3   OH251569   5.591   2.018  12.067
 9125TIP3    H151570   5.661   1.965  12.028
 9125TIP3    H251571   5.617   2.028  12.159
 9126TIP3   OH251572   5.520   1.843  12.468
 9126TIP3    H151573   5.503   1.873  12.557
 9126TIP3    H251574   5.521   1.747  12.474
 9127TIP3   OH251575   5.271   0.395  12.001
 9127TIP3    H151576   5.224   0.402  12.085
 9127TIP3    H251577   5.204   0.367  11.939
 9128TIP3   OH251578   4.693   0.714  12.508
 9128TIP3    H151579   4.606   0.681  12.485
 9128TIP3    H251580   4.739   0.722  12.425
 9129TIP3   OH251581   5.339   0.735  12.274
 9129TIP3    H151582   5.355   0.827  12.254
 9129TIP3    H251583   5.427   0.697  12.281
 9130TIP3   OH251584   4.827   0.417  11.990
 9130TIP3    H151585   4.831   0.385  12.080
 9130TIP3    H251586   4.830   0.512  11.998
 9131TIP3   OH251587   4.100   0.367  12.624
 9131TIP3    H151588   4.163   0.431  12.657
 9131TIP3    H251589   4.110   0.371  12.528
 9132TIP3   OH251590   4.204   0.496  12.096
 9132TIP3    H151591   4.280   0.532  12.050
 9132TIP3    H251592   4.146   0.571  12.107
 9133TIP3   OH251593   4.963   0.415  12.722
 9133TIP3    H151594   4.914   0.372  12.652
 9133TIP3    H251595   5.049   0.374  12.720
 9134TIP3   OH251596   4.428   0.626  12.461
 9134TIP3    H151597   4.358   0.682  12.428
 9134TIP3    H251598   4.431   0.553  12.399
 9135TIP3   OH251599   4.829   0.753  12.269
 9135TIP3    H151600   4.917   0.725  12.293
 9135TIP3    H251601   4.818   0.725  12.179
 9136TIP3   OH251602   5.644   0.338  12.992
 9136TIP3    H151603   5.591   0.407  13.032
 9136TIP3    H251604   5.582   0.286  12.942
 9137TIP3   OH251605   4.815   0.699  11.996
 9137TIP3    H151606   4.748   0.699  11.928
 9137TIP3    H251607   4.877   0.767  11.968
 9138TIP3   OH251608   5.136   1.186  12.248
 9138TIP3    H151609   5.061   1.171  12.190
 9138TIP3    H251610   5.099   1.228  12.325
 9139TIP3   OH251611   5.517   0.392  12.132
 9139TIP3    H151612   5.432   0.398  12.089
 9139TIP3    H251613   5.530   0.479  12.171
 9140TIP3   OH251614   5.591   0.613  12.292
 9140TIP3    H151615   5.598   0.571  12.378
 9140TIP3    H251616   5.681   0.633  12.269
 9141TIP3   OH251617   4.453   1.200  12.665
 9141TIP3    H151618   4.544   1.186  12.641
 9141TIP3    H251619   4.457   1.235  12.754
 9142TIP3   OH251620   5.405   1.277  12.209
 9142TIP3    H151621   5.447   1.305  12.289
 9142TIP3    H251622   5.313   1.265  12.233
 9143TIP3   OH251623   6.087   0.679  12.118
 9143TIP3    H151624   6.054   0.666  12.029
 9143TIP3    H251625   6.128   0.765  12.116
 9144TIP3   OH251626   6.097   1.679  12.272
 9144TIP3    H151627   6.062   1.764  12.300
 9144TIP3    H251628   6.088   1.680  12.176
 9145TIP3   OH251629   5.691   0.958  12.900
 9145TIP3    H151630   5.610   0.997  12.866
 9145TIP3    H251631   5.671   0.864  12.907
 9146TIP3   OH251632   4.350   0.940  11.989
 9146TIP3    H151633   4.398   0.981  12.061
 9146TIP3    H251634   4.258   0.948  12.015
 9147TIP3   OH251635   5.165   1.474  11.865
 9147TIP3    H151636   5.110   1.408  11.822
 9147TIP3    H251637   5.241   1.425  11.897
 9148TIP3   OH251638   4.484   1.100  12.178
 9148TIP3    H151639   4.412   1.141  12.226
 9148TIP3    H251640   4.528   1.172  12.134
 9149TIP3   OH251641   5.540   0.265  12.380
 9149TIP3    H151642   5.528   0.301  12.292
 9149TIP3    H251643   5.581   0.336  12.429
 9150TIP3   OH251644   5.086   0.669  12.348
 9150TIP3    H151645   5.170   0.698  12.312
 9150TIP3    H251646   5.102   0.657  12.441
 9151TIP3   OH251647   5.275   0.334  12.469
 9151TIP3    H151648   5.264   0.320  12.563
 9151TIP3    H251649   5.360   0.295  12.448
 9152TIP3   OH251650   4.868   0.337  12.254
 9152TIP3    H151651   4.851   0.320  12.346
 9152TIP3    H251652   4.963   0.352  12.250
 9153TIP3   OH251653   4.608   1.333  12.076
 9153TIP3    H151654   4.670   1.370  12.138
 9153TIP3    H251655   4.661   1.310  11.999
 9154TIP3   OH251656   4.399   0.658  11.962
 9154TIP3    H151657   4.380   0.751  11.966
 9154TIP3    H251658   4.478   0.652  11.908
 9155TIP3   OH251659   5.316   1.701  11.844
 9155TIP3    H151660   5.255   1.629  11.856
 9155TIP3    H251661   5.397   1.659  11.815
 9156TIP3   OH251662   5.771   1.886  11.905
 9156TIP3    H151663   5.774   1.791  11.889
 9156TIP3    H251664   5.842   1.922  11.852
 9157TIP3   OH251665   4.798   1.260  11.890
 9157TIP3    H151666   4.833   1.207  11.962
 9157TIP3    H251667   4.873   1.276  11.834
 9158TIP3   OH251668   5.401   1.348  11.941
 9158TIP3    H151669   5.407   1.330  12.035
 9158TIP3    H251670   5.399   1.261  11.900
 9159TIP3   OH251671   4.902   1.111  12.106
 9159TIP3    H151672   4.846   1.075  12.174
 9159TIP3    H251673   4.929   1.035  12.055
 9160TIP3   OH251674   4.992   0.911  11.931
 9160TIP3    H151675   4.992   0.946  11.842
 9160TIP3    H251676   5.083   0.891  11.949
 9161TIP3   OH251677   4.355   1.444  12.052
 9161TIP3    H151678   4.446   1.415  12.057
 9161TIP3    H251679   4.328   1.422  11.962
 9162TIP3   OH251680   6.130   0.962  12.404
 9162TIP3    H151681   6.042   0.930  12.423
 9162TIP3    H251682   6.185   0.925  12.473
 9163TIP3   OH251683   6.209   0.933  12.146
 9163TIP3    H151684   6.178   1.014  12.105
 9163TIP3    H251685   6.186   0.943  12.239
 9164TIP3   OH251686   5.993   0.618  11.868
 9164TIP3    H151687   5.981   0.648  11.777
 9164TIP3    H251688   5.967   0.526  11.866
 9165TIP3   OH251689   5.887   0.847  12.449
 9165TIP3    H151690   5.875   0.770  12.394
 9165TIP3    H251691   5.824   0.836  12.520
 9166TIP3   OH251692   5.931   0.347  11.850
 9166TIP3    H151693   5.986   0.303  11.915
 9166TIP3    H251694   5.842   0.320  11.873
 9167TIP3   OH251695   5.871   0.624  12.284
 9167TIP3    H151696   5.887   0.535  12.315
 9167TIP3    H251697   5.943   0.642  12.225
 9168TIP3   OH251698   5.905   0.367  12.385
 9168TIP3    H151699   5.979   0.340  12.439
 9168TIP3    H251700   5.871   0.286  12.348
 9169TIP3   OH251701   4.201   0.602  12.953
 9169TIP3    H151702   4.232   0.588  12.864
 9169TIP3    H251703   4.188   0.697  12.960
 9170TIP3   OH251704   6.135   0.243  12.008
 9170TIP3    H151705   6.203   0.194  11.961
 9170TIP3    H251706   6.183   0.312  12.053
 9171TIP3   OH251707   4.110   0.394  12.348
 9171TIP3    H151708   4.018   0.386  12.324
 9171TIP3    H251709   4.154   0.420  12.267
 9172TIP3   OH251710   5.236   0.277  12.754
 9172TIP3    H151711   5.196   0.191  12.741
 9172TIP3    H251712   5.326   0.258  12.781
 9173TIP3   OH251713   5.877   0.218  12.755
 9173TIP3    H151714   5.820   0.295  12.758
 9173TIP3    H251715   5.826   0.149  12.797
 9174TIP3   OH251716   6.105   0.279  12.554
 9174TIP3    H151717   6.044   0.240  12.617
 9174TIP3    H251718   6.172   0.320  12.608
 9175TIP3   OH251719   5.508   0.165  12.811
 9175TIP3    H151720   5.510   0.147  12.717
 9175TIP3    H251721   5.582   0.118  12.847
 9176TIP3   OH251722   5.778   0.134  12.291
 9176TIP3    H151723   5.696   0.166  12.329
 9176TIP3    H251724   5.755   0.050  12.252
 9177TIP3   OH251725   4.606   0.318  11.821
 9177TIP3    H151726   4.662   0.241  11.834
 9177TIP3    H251727   4.648   0.387  11.873
 9178TIP3   OH251728   5.136   0.413  12.246
 9178TIP3    H151729   5.183   0.377  12.321
 9178TIP3    H251730   5.115   0.503  12.271
 9179TIP3   OH251731   5.340   1.946  11.979
 9179TIP3    H151732   5.425   1.967  12.017
 9179TIP3    H251733   5.353   1.862  11.935
 9180TIP3   OH251734   4.656   1.867  11.810
 9180TIP3    H151735   4.596   1.804  11.849
 9180TIP3    H251736   4.702   1.817  11.742
 9181TIP3   OH251737   7.584   1.123  12.451
 9181TIP3    H151738   7.562   1.214  12.433
 9181TIP3    H251739   7.514   1.073  12.409
 9182TIP3   OH251740   7.391   1.042  12.907
 9182TIP3    H151741   7.444   1.005  12.837
 9182TIP3    H251742   7.307   0.996  12.902
 9183TIP3   OH251743   6.374   0.677  12.366
 9183TIP3    H151744   6.341   0.745  12.425
 9183TIP3    H251745   6.309   0.674  12.296
 9184TIP3   OH251746   6.297   0.836  12.587
 9184TIP3    H151747   6.311   0.751  12.627
 9184TIP3    H251748   6.339   0.898  12.647
 9185TIP3   OH251749   7.612   2.098  12.759
 9185TIP3    H151750   7.583   2.023  12.707
 9185TIP3    H251751   7.656   2.058  12.835
 9186TIP3   OH251752   7.173   1.395  12.963
 9186TIP3    H151753   7.119   1.332  13.011
 9186TIP3    H251754   7.263   1.371  12.988
 9187TIP3   OH251755   6.904   0.411  12.612
 9187TIP3    H151756   6.897   0.504  12.592
 9187TIP3    H251757   6.831   0.370  12.564
 9188TIP3   OH251758   7.722   0.487  12.532
 9188TIP3    H151759   7.759   0.463  12.617
 9188TIP3    H251760   7.795   0.528  12.485
 9189TIP3   OH251761   6.439   0.642  12.738
 9189TIP3    H151762   6.476   0.601  12.817
 9189TIP3    H251763   6.501   0.621  12.669
 9190TIP3   OH251764   6.890   0.917  12.628
 9190TIP3    H151765   6.854   0.920  12.717
 9190TIP3    H251766   6.876   0.827  12.599
 9191TIP3   OH251767   7.513   1.386  12.380
 9191TIP3    H151768   7.463   1.386  12.299
 9191TIP3    H251769   7.458   1.434  12.442
 9192TIP3   OH251770   6.380   1.353  12.160
 9192TIP3    H151771   6.396   1.411  12.086
 9192TIP3    H251772   6.361   1.413  12.233
 9193TIP3   OH251773   7.724   1.740  12.459
 9193TIP3    H151774   7.747   1.653  12.429
 9193TIP3    H251775   7.803   1.774  12.500
 9194TIP3   OH251776   7.777   1.489  12.349
 9194TIP3    H151777   7.826   1.410  12.325
 9194TIP3    H251778   7.686   1.459  12.359
 9195TIP3   OH251779   7.429   0.967  12.271
 9195TIP3    H151780   7.356   1.009  12.227
 9195TIP3    H251781   7.499   0.963  12.206
 9196TIP3   OH251782   7.412   0.886  11.926
 9196TIP3    H151783   7.477   0.890  11.996
 9196TIP3    H251784   7.451   0.828  11.860
 9197TIP3   OH251785   7.789   1.006  12.312
 9197TIP3    H151786   7.727   1.041  12.375
 9197TIP3    H251787   7.851   0.954  12.364
 9198TIP3   OH251788   6.920   1.111  12.434
 9198TIP3    H151789   6.871   1.070  12.363
 9198TIP3    H251790   6.914   1.049  12.507
 9199TIP3   OH251791   7.018   1.580  12.817
 9199TIP3    H151792   6.994   1.544  12.732
 9199TIP3    H251793   7.065   1.509  12.861
 9200TIP3   OH251794   7.640   0.920  12.094
 9200TIP3    H151795   7.700   0.946  12.164
 9200TIP3    H251796   7.685   0.943  12.013
 9201TIP3   OH251797   7.526   1.896  12.579
 9201TIP3    H151798   7.588   1.832  12.545
 9201TIP3    H251799   7.472   1.920  12.504
 9202TIP3   OH251800   7.982   0.111  12.241
 9202TIP3    H151801   7.888   0.124  12.224
 9202TIP3    H251802   8.026   0.158  12.171
 9203TIP3   OH251803   6.779   0.998  12.217
 9203TIP3    H151804   6.706   1.055  12.192
 9203TIP3    H251805   6.742   0.909  12.213
 9204TIP3   OH251806   8.161   1.648  11.944
 9204TIP3    H151807   8.134   1.739  11.936
 9204TIP3    H251808   8.228   1.649  12.013
 9205TIP3   OH251809   7.411   1.971  12.323
 9205TIP3    H151810   7.373   1.947  12.239
 9205TIP3    H251811   7.369   2.053  12.347
 9206TIP3   OH251812   6.715   1.926  12.601
 9206TIP3    H151813   6.758   1.990  12.657
 9206TIP3    H251814   6.622   1.930  12.626
 9207TIP3   OH251815   7.659   1.911  11.993
 9207TIP3    H151816   7.709   1.832  11.971
 9207TIP3    H251817   7.677   1.925  12.086
 9208TIP3   OH251818   7.677   1.935  12.268
 9208TIP3    H151819   7.586   1.954  12.289
 9208TIP3    H251820   7.701   1.863  12.325
 9209TIP3   OH251821   7.760   1.003  11.858
 9209TIP3    H151822   7.768   0.986  11.764
 9209TIP3    H251823   7.846   1.036  11.883
 9210TIP3   OH251824   7.324   0.356  12.054
 9210TIP3    H151825   7.252   0.359  12.118
 9210TIP3    H251826   7.280   0.347  11.970
 9211TIP3   OH251827   6.837   0.667  12.522
 9211TIP3    H151828   6.744   0.645  12.525
 9211TIP3    H251829   6.858   0.668  12.429
 9212TIP3   OH251830   7.462   0.705  12.367
 9212TIP3    H151831   7.444   0.795  12.342
 9212TIP3    H251832   7.530   0.676  12.306
 9213TIP3   OH251833   7.543   0.670  12.633
 9213TIP3    H151834   7.513   0.703  12.548
 9213TIP3    H251835   7.604   0.599  12.610
 9214TIP3   OH251836   6.968   0.402  11.942
 9214TIP3    H151837   6.938   0.398  12.033
 9214TIP3    H251838   6.911   0.466  11.901
 9215TIP3   OH251839   6.297   0.395  12.716
 9215TIP3    H151840   6.328   0.359  12.799
 9215TIP3    H251841   6.333   0.483  12.713
 9216TIP3   OH251842   6.252   0.458  12.141
 9216TIP3    H151843   6.326   0.503  12.100
 9216TIP3    H251844   6.182   0.522  12.142
 9217TIP3   OH251845   6.581   0.571  12.511
 9217TIP3    H151846   6.512   0.598  12.451
 9217TIP3    H251847   6.604   0.483  12.484
 9218TIP3   OH251848   6.928   0.662  12.259
 9218TIP3    H151849   7.015   0.692  12.286
 9218TIP3    H251850   6.918   0.695  12.169
 9219TIP3   OH251851   6.929   0.745  11.999
 9219TIP3    H151852   6.881   0.699  11.931
 9219TIP3    H251853   6.996   0.795  11.953
 9220TIP3   OH251854   7.296   0.587  12.724
 9220TIP3    H151855   7.386   0.614  12.707
 9220TIP3    H251856   7.269   0.637  12.800
 9221TIP3   OH251857   6.697   0.328  12.437
 9221TIP3    H151858   6.638   0.252  12.438
 9221TIP3    H251859   6.741   0.323  12.352
 9222TIP3   OH251860   7.083   1.335  12.121
 9222TIP3    H151861   7.046   1.251  12.094
 9222TIP3    H251862   7.075   1.336  12.216
 9223TIP3   OH251863   7.588   0.374  12.127
 9223TIP3    H151864   7.496   0.372  12.099
 9223TIP3    H251865   7.608   0.468  12.134
 9224TIP3   OH251866   7.656   0.646  12.160
 9224TIP3    H151867   7.750   0.630  12.148
 9224TIP3    H251868   7.642   0.735  12.128
 9225TIP3   OH251869   7.352   1.410  12.157
 9225TIP3    H151870   7.332   1.503  12.166
 9225TIP3    H251871   7.267   1.370  12.136
 9226TIP3   OH251872   8.252   0.745  12.196
 9226TIP3    H151873   8.190   0.678  12.167
 9226TIP3    H251874   8.212   0.827  12.168
 9227TIP3   OH251875   7.977   1.656  12.224
 9227TIP3    H151876   7.908   1.605  12.265
 9227TIP3    H251877   7.986   1.619  12.136
 9228TIP3   OH251878   6.939   1.548  12.547
 9228TIP3    H151879   6.951   1.637  12.516
 9228TIP3    H251880   6.850   1.525  12.519
 9229TIP3   OH251881   6.465   0.913  12.043
 9229TIP3    H151882   6.508   0.994  12.071
 9229TIP3    H251883   6.380   0.914  12.088
 9230TIP3   OH251884   7.059   1.341  12.391
 9230TIP3    H151885   7.031   1.406  12.456
 9230TIP3    H251886   7.014   1.261  12.416
 9231TIP3   OH251887   6.936   1.819  12.471
 9231TIP3    H151888   6.851   1.850  12.502
 9231TIP3    H251889   6.999   1.881  12.508
 9232TIP3   OH251890   7.849   1.428  12.033
 9232TIP3    H151891   7.871   1.371  12.107
 9232TIP3    H251892   7.756   1.412  12.017
 9233TIP3   OH251893   8.117   1.920  11.946
 9233TIP3    H151894   8.146   1.991  11.888
 9233TIP3    H251895   8.077   1.965  12.021
 9234TIP3   OH251896   7.898   1.260  12.249
 9234TIP3    H151897   7.849   1.178  12.256
 9234TIP3    H251898   7.988   1.237  12.273
 9235TIP3   OH251899   7.129   1.537  11.811
 9235TIP3    H151900   7.123   1.448  11.777
 9235TIP3    H251901   7.063   1.542  11.879
 9236TIP3   OH251902   6.950   1.561  12.032
 9236TIP3    H151903   6.999   1.487  12.067
 9236TIP3    H251904   6.970   1.633  12.093
 9237TIP3   OH251905   6.578   1.164  12.116
 9237TIP3    H151906   6.502   1.215  12.146
 9237TIP3    H251907   6.635   1.229  12.075
 9238TIP3   OH251908   7.560   0.304  12.405
 9238TIP3    H151909   7.560   0.342  12.318
 9238TIP3    H251910   7.613   0.364  12.458
 9239TIP3   OH251911   7.277   1.668  12.180
 9239TIP3    H151912   7.187   1.697  12.195
 9239TIP3    H251913   7.319   1.745  12.140
 9240TIP3   OH251914   7.262   0.527  12.454
 9240TIP3    H151915   7.329   0.586  12.419
 9240TIP3    H251916   7.254   0.552  12.546
 9241TIP3   OH251917   7.301   0.250  12.497
 9241TIP3    H151918   7.278   0.343  12.501
 9241TIP3    H251919   7.394   0.249  12.472
 9242TIP3   OH251920   7.020   1.773  12.201
 9242TIP3    H151921   7.040   1.859  12.164
 9242TIP3    H251922   6.986   1.793  12.289
 9243TIP3   OH251923   6.872   0.394  12.209
 9243TIP3    H151924   6.871   0.487  12.232
 9243TIP3    H251925   6.958   0.363  12.236
 9244TIP3   OH251926   7.801   0.790  12.709
 9244TIP3    H151927   7.712   0.754  12.712
 9244TIP3    H251928   7.842   0.758  12.790
 9245TIP3   OH251929   6.723   1.383  11.991
 9245TIP3    H151930   6.786   1.451  12.017
 9245TIP3    H251931   6.769   1.332  11.925
 9246TIP3   OH251932   6.409   0.635  12.000
 9246TIP3    H151933   6.441   0.724  12.013
 9246TIP3    H251934   6.372   0.636  11.912
 9247TIP3   OH251935   6.519   0.062  12.718
 9247TIP3    H151936   6.522   0.131  12.652
 9247TIP3    H251937   6.481   8.436  12.672
 9248TIP3   OH251938   6.319   1.544  12.352
 9248TIP3    H151939   6.235   1.584  12.327
 9248TIP3    H251940   6.359   1.609  12.410
 9249TIP3   OH251941   7.326   1.724  11.829
 9249TIP3    H151942   7.257   1.658  11.828
 9249TIP3    H251943   7.407   1.674  11.820
 9250TIP3   OH251944   7.799   1.684  11.921
 9250TIP3    H151945   7.833   1.602  11.956
 9250TIP3    H251946   7.858   1.704  11.847
 9251TIP3   OH251947   6.866   1.224  11.819
 9251TIP3    H151948   6.897   1.171  11.892
 9251TIP3    H251949   6.945   1.252  11.774
 9252TIP3   OH251950   7.576   1.377  12.000
 9252TIP3    H151951   7.502   1.389  12.060
 9252TIP3    H251952   7.557   1.295  11.954
 9253TIP3   OH251953   6.971   1.093  12.038
 9253TIP3    H151954   6.914   1.051  12.103
 9253TIP3    H251955   7.023   1.021  12.002
 9254TIP3   OH251956   7.128   0.914  11.889
 9254TIP3    H151957   7.123   0.954  11.802
 9254TIP3    H251958   7.221   0.901  11.905
 9255TIP3   OH251959   8.017   1.103  11.899
 9255TIP3    H151960   8.040   1.076  11.810
 9255TIP3    H251961   8.051   1.192  11.907
 9256TIP3   OH251962   7.129   2.004  12.085
 9256TIP3    H151963   7.217   1.974  12.062
 9256TIP3    H251964   7.118   2.085  12.035
 9257TIP3   OH251965   6.473   1.468  11.912
 9257TIP3    H151966   6.560   1.444  11.945
 9257TIP3    H251967   6.445   1.391  11.861
 9258TIP3   OH251968   8.128   1.131  12.324
 9258TIP3    H151969   8.116   1.063  12.259
 9258TIP3    H251970   8.151   1.084  12.404
 9259TIP3   OH251971   8.184   0.975  12.564
 9259TIP3    H151972   8.098   0.938  12.546
 9259TIP3    H251973   8.246   0.914  12.525
 9260TIP3   OH251974   8.076   0.945  12.123
 9260TIP3    H151975   8.055   0.997  12.045
 9260TIP3    H251976   8.024   0.865  12.114
 9261TIP3   OH251977   8.021   0.751  11.797
 9261TIP3    H151978   8.007   0.725  11.889
 9261TIP3    H251979   7.942   0.721  11.752
 9262TIP3   OH251980   7.949   0.847  12.488
 9262TIP3    H151981   7.954   0.759  12.450
 9262TIP3    H251982   7.895   0.836  12.567
 9263TIP3   OH251983   6.429   0.925  12.814
 9263TIP3    H151984   6.445   0.831  12.808
 9263TIP3    H251985   6.461   0.950  12.900
 9264TIP3   OH251986   7.987   0.415  11.876
 9264TIP3    H151987   7.986   0.491  11.934
 9264TIP3    H251988   7.894   0.396  11.860
 9265TIP3   OH251989   7.946   0.582  12.394
 9265TIP3    H151990   7.983   0.494  12.402
 9265TIP3    H251991   7.951   0.602  12.300
 9266TIP3   OH251992   7.938   0.704  12.937
 9266TIP3    H151993   8.025   0.737  12.960
 9266TIP3    H251994   7.922   0.633  12.998
 9267TIP3   OH251995   8.037   0.320  12.419
 9267TIP3    H151996   8.062   0.277  12.501
 9267TIP3    H251997   8.010   0.248  12.362
 9268TIP3   OH251998   8.126   0.248  12.050
 9268TIP3    H151999   8.178   0.199  11.986
 9268TIP3    H252000   8.079   0.313  11.998
 9269TIP3   OH252001   6.295   0.261  12.333
 9269TIP3    H152002   6.228   0.261  12.401
 9269TIP3    H252003   6.276   0.338  12.280
 9270TIP3   OH252004   7.936   1.894  12.551
 9270TIP3    H152005   7.996   1.889  12.477
 9270TIP3    H252006   7.912   1.986  12.557
 9271TIP3   OH252007   7.899   0.156  12.747
 9271TIP3    H152008   7.976   0.142  12.691
 9271TIP3    H252009   7.831   0.100  12.709
 9272TIP3   OH252010   8.143   0.136  12.608
 9272TIP3    H152011   8.163   0.051  12.568
 9272TIP3    H252012   8.222   0.188  12.595
 9273TIP3   OH252013   6.509   0.123  12.440
 9273TIP3    H152014   6.432   0.168  12.405
 9273TIP3    H252015   6.480   0.033  12.455
 9274TIP3   OH252016   6.434   0.156  12.107
 9274TIP3    H152017   6.508   0.215  12.090
 9274TIP3    H252018   6.392   0.193  12.185
 9275TIP3   OH252019   7.175   8.444  12.486
 9275TIP3    H152020   7.211   0.082  12.506
 9275TIP3    H252021   7.121   8.423  12.563
 9276TIP3   OH252022   7.701   8.440  12.639
 9276TIP3    H152023   7.608   0.015  12.634
 9276TIP3    H252024   7.701   8.347  12.661
 9277TIP3   OH252025   7.701   0.132  12.233
 9277TIP3    H152026   7.670   0.198  12.171
 9277TIP3    H252027   7.669   0.162  12.318
 9278TIP3   OH252028   6.662   0.308  12.039
 9278TIP3    H152029   6.715   0.252  11.982
 9278TIP3    H252030   6.724   0.343  12.103
 9279TIP3   OH252031   7.139   0.351  12.276
 9279TIP3    H152032   7.167   0.276  12.329
 9279TIP3    H252033   7.169   0.427  12.326
 9280TIP3   OH252034   7.381   1.890  12.040
 9280TIP3    H152035   7.474   1.910  12.025
 9280TIP3    H252036   7.355   1.839  11.963
 9281TIP3   OH252037   8.094   1.884  12.326
 9281TIP3    H152038   8.059   1.804  12.288
 9281TIP3    H252039   8.077   1.951  12.260
 9282TIP3   OH252040   8.351   0.784  12.446
 9282TIP3    H152041   8.320   0.774  12.356
 9282TIP3    H252042   8.341   0.696  12.484
 9283TIP3   OH252043   8.362   0.278  12.528
 9283TIP3    H152044   0.008   0.290  12.539
 9283TIP3    H252045   8.345   0.302  12.437
 9284TIP3   OH252046   8.269   1.960  12.525
 9284TIP3    H152047   8.219   1.937  12.447
 9284TIP3    H252048   8.268   1.880  12.578
 9285TIP3   OH252049   8.307   1.717  12.651
 9285TIP3    H152050   8.303   1.637  12.598
 9285TIP3    H252051   8.399   1.723  12.678
 9286TIP3   OH252052   8.280   0.778  12.912
 9286TIP3    H152053   8.288   0.689  12.878
 9286TIP3    H252054   8.349   0.785  12.979
 9287TIP3   OH252055   8.272   0.354  12.274
 9287TIP3    H152056   8.192   0.367  12.325
 9287TIP3    H252057   8.242   0.323  12.189
 9288TIP3   OH252058   1.415   3.182  12.538
 9288TIP3    H152059   1.445   3.258  12.588
 9288TIP3    H252060   1.355   3.218  12.473
 9289TIP3   OH252061   1.254   3.076  12.839
 9289TIP3    H152062   1.228   3.034  12.921
 9289TIP3    H252063   1.265   3.168  12.862
 9290TIP3   OH252064   1.492   3.367  12.731
 9290TIP3    H152065   1.409   3.355  12.777
 9290TIP3    H252066   1.557   3.370  12.801
 9291TIP3   OH252067   0.155   2.809  12.327
 9291TIP3    H152068   0.187   2.896  12.353
 9291TIP3    H252069   0.060   2.816  12.334
 9292TIP3   OH252070   0.247   3.107  12.648
 9292TIP3    H152071   0.238   3.015  12.674
 9292TIP3    H252072   0.256   3.104  12.553
 9293TIP3   OH252073   1.306   3.980  12.717
 9293TIP3    H152074   1.399   3.956  12.720
 9293TIP3    H252075   1.276   3.972  12.807
 9294TIP3   OH252076   0.864   3.402  12.851
 9294TIP3    H152077   0.904   3.323  12.814
 9294TIP3    H252078   0.937   3.447  12.895
 9295TIP3   OH252079   1.386   2.372  12.507
 9295TIP3    H152080   1.384   2.345  12.599
 9295TIP3    H252081   1.422   2.460  12.509
 9296TIP3   OH252082   0.222   2.835  12.687
 9296TIP3    H152083   0.203   2.765  12.750
 9296TIP3    H252084   0.274   2.792  12.619
 9297TIP3   OH252085   0.683   2.900  12.767
 9297TIP3    H152086   0.706   2.828  12.827
 9297TIP3    H252087   0.667   2.856  12.684
 9298TIP3   OH252088   1.341   3.578  12.417
 9298TIP3    H152089   1.297   3.544  12.339
 9298TIP3    H252090   1.303   3.665  12.430
 9299TIP3   OH252091   0.185   3.464  12.133
 9299TIP3    H152092   0.213   3.491  12.046
 9299TIP3    H252093   0.119   3.529  12.159
 9300TIP3   OH252094   0.785   2.163  12.813
 9300TIP3    H152095   0.766   2.078  12.851
 9300TIP3    H252096   0.723   2.223  12.855
 9301TIP3   OH252097   1.565   3.881  12.725
 9301TIP3    H152098   1.561   3.795  12.684
 9301TIP3    H252099   1.635   3.927  12.678
 9302TIP3   OH252100   1.516   3.626  12.625
 9302TIP3    H152101   1.461   3.618  12.547
 9302TIP3    H252102   1.520   3.537  12.660
 9303TIP3   OH252103   1.230   3.158  12.312
 9303TIP3    H152104   1.149   3.205  12.288
 9303TIP3    H252105   1.281   3.156  12.231
 9304TIP3   OH252106   1.230   3.010  11.936
 9304TIP3    H152107   1.292   3.033  12.005
 9304TIP3    H252108   1.269   2.934  11.892
 9305TIP3   OH252109   1.597   3.123  12.327
 9305TIP3    H152110   1.547   3.147  12.405
 9305TIP3    H252111   1.625   3.033  12.343
 9306TIP3   OH252112   0.649   3.562  12.764
 9306TIP3    H152113   0.676   3.592  12.677
 9306TIP3    H252114   0.724   3.512  12.796
 9307TIP3   OH252115   1.437   3.085  12.105
 9307TIP3    H152116   1.496   3.110  12.176
 9307TIP3    H252117   1.483   3.111  12.025
 9308TIP3   OH252118   1.264   3.836  12.476
 9308TIP3    H152119   1.269   3.882  12.560
 9308TIP3    H252120   1.223   3.899  12.416
 9309TIP3   OH252121   1.821   2.015  12.172
 9309TIP3    H152122   1.728   2.038  12.181
 9309TIP3    H252123   1.867   2.083  12.220
 9310TIP3   OH252124   0.304   3.053  12.377
 9310TIP3    H152125   0.318   3.124  12.315
 9310TIP3    H252126   0.386   3.003  12.376
 9311TIP3   OH252127   2.032   3.702  12.026
 9311TIP3    H152128   2.037   3.798  12.021
 9311TIP3    H252129   2.122   3.674  12.008
 9312TIP3   OH252130   0.046   3.667  12.858
 9312TIP3    H152131   8.404   3.649  12.833
 9312TIP3    H252132   0.060   3.615  12.937
 9313TIP3   OH252133   1.194   4.033  12.295
 9313TIP3    H152134   1.164   4.013  12.206
 9313TIP3    H252135   1.168   4.124  12.309
 9314TIP3   OH252136   0.517   3.953  12.640
 9314TIP3    H152137   0.475   4.032  12.674
 9314TIP3    H252138   0.454   3.919  12.576
 9315TIP3   OH252139   1.432   3.987  12.020
 9315TIP3    H152140   1.485   3.913  11.990
 9315TIP3    H252141   1.456   3.999  12.111
 9316TIP3   OH252142   1.471   4.004  12.297
 9316TIP3    H152143   1.377   4.017  12.305
 9316TIP3    H252144   1.492   3.938  12.363
 9317TIP3   OH252145   0.588   2.293  12.957
 9317TIP3    H152146   0.509   2.253  12.921
 9317TIP3    H252147   0.560   2.380  12.987
 9318TIP3   OH252148   1.560   3.151  11.862
 9318TIP3    H152149   1.572   3.113  11.775
 9318TIP3    H252150   1.643   3.196  11.880
 9319TIP3   OH252151   1.107   2.396  12.050
 9319TIP3    H152152   1.048   2.368  12.120
 9319TIP3    H252153   1.052   2.399  11.972
 9320TIP3   OH252154   0.619   2.767  12.530
 9320TIP3    H152155   0.526   2.742  12.523
 9320TIP3    H252156   0.666   2.693  12.493
 9321TIP3   OH252157   1.271   2.916  12.446
 9321TIP3    H152158   1.239   2.994  12.401
 9321TIP3    H252159   1.317   2.867  12.378
 9322TIP3   OH252160   0.693   2.468  11.836
 9322TIP3    H152161   0.690   2.451  11.930
 9322TIP3    H252162   0.603   2.459  11.806
 9323TIP3   OH252163   0.167   2.370  12.508
 9323TIP3    H152164   0.261   2.383  12.519
 9323TIP3    H252165   0.152   2.374  12.414
 9324TIP3   OH252166   0.160   2.625  12.119
 9324TIP3    H152167   0.181   2.676  12.041
 9324TIP3    H252168   0.160   2.689  12.190
 9325TIP3   OH252169   1.017   2.451  12.513
 9325TIP3    H152170   0.927   2.472  12.488
 9325TIP3    H252171   1.010   2.422  12.604
 9326TIP3   OH252172   0.354   2.687  12.489
 9326TIP3    H152173   0.287   2.702  12.423
 9326TIP3    H252174   0.372   2.593  12.484
 9327TIP3   OH252175   0.894   2.716  12.211
 9327TIP3    H152176   0.982   2.697  12.243
 9327TIP3    H252177   0.837   2.655  12.258
 9328TIP3   OH252178   1.388   2.312  12.794
 9328TIP3    H152179   1.446   2.304  12.870
 9328TIP3    H252180   1.387   2.225  12.755
 9329TIP3   OH252181   0.711   2.917  12.169
 9329TIP3    H152182   0.631   2.870  12.195
 9329TIP3    H252183   0.781   2.853  12.184
 9330TIP3   OH252184   0.443   2.411  12.485
 9330TIP3    H152185   0.456   2.318  12.506
 9330TIP3    H252186   0.529   2.442  12.457
 9331TIP3   OH252187   0.996   3.295  12.225
 9331TIP3    H152188   0.941   3.244  12.165
 9331TIP3    H252189   0.934   3.346  12.277
 9332TIP3   OH252190   1.289   2.631  12.055
 9332TIP3    H152191   1.219   2.576  12.091
 9332TIP3    H252192   1.321   2.680  12.131
 9333TIP3   OH252193   1.422   2.829  12.230
 9333TIP3    H152194   1.504   2.828  12.279
 9333TIP3    H252195   1.427   2.907  12.175
 9334TIP3   OH252196   1.193   3.489  12.192
 9334TIP3    H152197   1.144   3.571  12.185
 9334TIP3    H252198   1.125   3.422  12.200
 9335TIP3   OH252199   1.910   3.749  12.275
 9335TIP3    H152200   1.829   3.700  12.284
 9335TIP3    H252201   1.942   3.727  12.188
 9336TIP3   OH252202   0.699   3.658  12.505
 9336TIP3    H152203   0.744   3.742  12.506
 9336TIP3    H252204   0.612   3.678  12.470
 9337TIP3   OH252205   0.195   3.063  12.037
 9337TIP3    H152206   0.253   3.118  12.089
 9337TIP3    H252207   0.118   3.049  12.093
 9338TIP3   OH252208   0.794   3.440  12.355
 9338TIP3    H152209   0.781   3.518  12.409
 9338TIP3    H252210   0.731   3.377  12.388
 9339TIP3   OH252211   0.758   3.932  12.496
 9339TIP3    H152212   0.677   3.948  12.545
 9339TIP3    H252213   0.816   4.005  12.521
 9340TIP3   OH252214   1.641   3.526  12.017
 9340TIP3    H152215   1.672   3.462  12.081
 9340TIP3    H252216   1.548   3.507  12.006
 9341TIP3   OH252217   2.026   3.983  12.038
 9341TIP3    H152218   2.051   4.031  11.959
 9341TIP3    H252219   1.960   4.039  12.080
 9342TIP3   OH252220   1.728   3.329  12.187
 9342TIP3    H152221   1.682   3.262  12.238
 9342TIP3    H252222   1.821   3.310  12.201
 9343TIP3   OH252223   0.930   3.580  11.883
 9343TIP3    H152224   0.903   3.504  11.831
 9343TIP3    H252225   0.874   3.577  11.961
 9344TIP3   OH252226   0.754   3.571  12.111
 9344TIP3    H152227   0.778   3.518  12.187
 9344TIP3    H252228   0.760   3.662  12.142
 9345TIP3   OH252229   0.346   3.249  12.182
 9345TIP3    H152230   0.281   3.319  12.182
 9345TIP3    H252231   0.423   3.288  12.140
 9346TIP3   OH252232   1.341   2.242  12.267
 9346TIP3    H152233   1.284   2.303  12.220
 9346TIP3    H252234   1.355   2.283  12.352
 9347TIP3   OH252235   1.057   3.725  12.179
 9347TIP3    H152236   0.969   3.752  12.206
 9347TIP3    H252237   1.093   3.802  12.136
 9348TIP3   OH252238   1.130   2.642  12.342
 9348TIP3    H152239   1.155   2.710  12.404
 9348TIP3    H252240   1.099   2.570  12.396
 9349TIP3   OH252241   1.063   2.166  12.455
 9349TIP3    H152242   1.088   2.255  12.481
 9349TIP3    H252243   1.140   2.113  12.475
 9350TIP3   OH252244   0.800   3.824  12.232
 9350TIP3    H152245   0.812   3.896  12.171
 9350TIP3    H252246   0.784   3.866  12.317
 9351TIP3   OH252247   0.690   2.378  12.100
 9351TIP3    H152248   0.676   2.432  12.178
 9351TIP3    H252249   0.769   2.328  12.119
 9352TIP3   OH252250   0.534   3.404  12.032
 9352TIP3    H152251   0.601   3.468  12.058
 9352TIP3    H252252   0.579   3.347  11.970
 9353TIP3   OH252253   0.222   2.811  11.918
 9353TIP3    H152254   0.214   2.895  11.962
 9353TIP3    H252255   0.247   2.833  11.828
 9354TIP3   OH252256   1.684   3.887  12.986
 9354TIP3    H152257   1.657   3.899  12.895
 9354TIP3    H252258   1.740   3.962  13.005
 9355TIP3   OH252259   0.394   2.130  12.836
 9355TIP3    H152260   0.391   2.143  12.741
 9355TIP3    H252261   0.368   2.038  12.849
 9356TIP3   OH252262   0.319   3.869  12.471
 9356TIP3    H152263   0.236   3.855  12.516
 9356TIP3    H252264   0.295   3.911  12.389
 9357TIP3   OH252265   1.112   3.778  11.825
 9357TIP3    H152266   1.048   3.710  11.848
 9357TIP3    H252267   1.194   3.730  11.812
 9358TIP3   OH252268   1.584   3.782  11.919
 9358TIP3    H152269   1.617   3.702  11.960
 9358TIP3    H252270   1.648   3.801  11.850
 9359TIP3   OH252271   0.668   3.241  11.853
 9359TIP3    H152272   0.720   3.204  11.925
 9359TIP3    H252273   0.731   3.292  11.802
 9360TIP3   OH252274   1.372   3.472  11.984
 9360TIP3    H152275   1.315   3.477  12.061
 9360TIP3    H252276   1.339   3.397  11.935
 9361TIP3   OH252277   0.822   3.142  12.061
 9361TIP3    H152278   0.772   3.078  12.111
 9361TIP3    H252279   0.879   3.089  12.006
 9362TIP3   OH252280   0.962   2.962  11.911
 9362TIP3    H152281   1.056   2.980  11.918
 9362TIP3    H252282   0.950   2.879  11.959
 9363TIP3   OH252283   1.817   3.259  11.844
 9363TIP3    H152284   1.842   3.224  11.759
 9363TIP3    H252285   1.835   3.353  11.838
 9364TIP3   OH252286   0.867   4.015  12.047
 9364TIP3    H152287   0.961   4.011  12.034
 9364TIP3    H252288   0.839   4.093  12.000
 9365TIP3   OH252289   0.314   3.484  11.881
 9365TIP3    H152290   0.391   3.462  11.934
 9365TIP3    H252291   0.279   3.400  11.853
 9366TIP3   OH252292   0.066   4.068  12.469
 9366TIP3    H152293   8.420   4.079  12.466
 9366TIP3    H252294   0.081   4.001  12.535
 9367TIP3   OH252295   0.081   3.853  12.647
 9367TIP3    H152296   0.093   3.772  12.697
 9367TIP3    H252297   8.446   3.888  12.678
 9368TIP3   OH252298   1.999   3.276  12.241
 9368TIP3    H152299   2.067   3.343  12.236
 9368TIP3    H252300   2.006   3.240  12.329
 9369TIP3   OH252301   2.051   3.201  11.980
 9369TIP3    H152302   1.966   3.207  11.936
 9369TIP3    H252303   2.032   3.224  12.071
 9370TIP3   OH252304   0.086   2.394  12.245
 9370TIP3    H152305   8.441   2.403  12.258
 9370TIP3    H252306   0.112   2.472  12.197
 9371TIP3   OH252307   1.768   4.018  12.606
 9371TIP3    H152308   1.829   4.020  12.532
 9371TIP3    H252309   1.801   4.084  12.666
 9372TIP3   OH252310   0.476   3.771  12.848
 9372TIP3    H152311   0.499   3.833  12.779
 9372TIP3    H252312   0.534   3.696  12.834
 9373TIP3   OH252313   1.016   2.312  12.758
 9373TIP3    H152314   0.931   2.273  12.780
 9373TIP3    H252315   1.078   2.239  12.766
 9374TIP3   OH252316   2.042   2.262  12.421
 9374TIP3    H152317   2.054   2.170  12.445
 9374TIP3    H252318   2.041   2.309  12.504
 9375TIP3   OH252319   0.369   2.101  12.560
 9375TIP3    H152320   0.276   2.083  12.545
 9375TIP3    H252321   0.413   2.019  12.538
 9376TIP3   OH252322   0.240   2.188  12.146
 9376TIP3    H152323   0.311   2.238  12.104
 9376TIP3    H252324   0.182   2.254  12.183
 9377TIP3   OH252325   0.849   2.030  12.571
 9377TIP3    H152326   0.920   2.074  12.524
 9377TIP3    H252327   0.818   2.095  12.633
 9378TIP3   OH252328   1.568   2.080  12.256
 9378TIP3    H152329   1.500   2.147  12.247
 9378TIP3    H252330   1.556   2.046  12.345
 9379TIP3   OH252331   0.229   4.038  12.243
 9379TIP3    H152332   0.158   4.043  12.306
 9379TIP3    H252333   0.249   4.130  12.222
 9380TIP3   OH252334   0.447   2.299  11.996
 9380TIP3    H152335   0.471   2.222  11.945
 9380TIP3    H252336   0.527   2.324  12.042
 9381TIP3   OH252337   0.928   2.300  12.241
 9381TIP3    H152338   0.968   2.245  12.308
 9381TIP3    H252339   0.875   2.363  12.290
 9382TIP3   OH252340   1.151   3.954  12.031
 9382TIP3    H152341   1.244   3.976  12.021
 9382TIP3    H252342   1.132   3.899  11.955
 9383TIP3   OH252343   1.936   4.009  12.377
 9383TIP3    H152344   1.923   3.920  12.345
 9383TIP3    H252345   1.906   4.065  12.306
 9384TIP3   OH252346   0.277   3.966  11.966
 9384TIP3    H152347   0.265   3.977  12.061
 9384TIP3    H252348   0.369   3.942  11.956
 9385TIP3   OH252349   3.416   3.211  12.469
 9385TIP3    H152350   3.399   3.301  12.440
 9385TIP3    H252351   3.355   3.197  12.541
 9386TIP3   OH252352   2.108   2.766  12.561
 9386TIP3    H152353   2.120   2.805  12.648
 9386TIP3    H252354   2.016   2.783  12.540
 9387TIP3   OH252355   3.413   4.275  12.702
 9387TIP3    H152356   3.496   4.309  12.670
 9387TIP3    H252357   3.417   4.181  12.686
 9388TIP3   OH252358   3.614   2.543  12.560
 9388TIP3    H152359   3.645   2.552  12.650
 9388TIP3    H252360   3.694   2.537  12.508
 9389TIP3   OH252361   2.335   2.869  12.750
 9389TIP3    H152362   2.377   2.828  12.826
 9389TIP3    H252363   2.359   2.813  12.676
 9390TIP3   OH252364   2.706   2.901  12.758
 9390TIP3    H152365   2.720   2.834  12.825
 9390TIP3    H252366   2.680   2.852  12.680
 9391TIP3   OH252367   3.380   3.474  12.386
 9391TIP3    H152368   3.323   3.464  12.310
 9391TIP3    H252369   3.372   3.566  12.411
 9392TIP3   OH252370   2.208   3.451  12.209
 9392TIP3    H152371   2.220   3.489  12.122
 9392TIP3    H252372   2.205   3.526  12.268
 9393TIP3   OH252373   3.586   3.829  12.635
 9393TIP3    H152374   3.644   3.887  12.587
 9393TIP3    H252375   3.610   3.842  12.727
 9394TIP3   OH252376   3.647   3.456  12.459
 9394TIP3    H152377   3.564   3.456  12.410
 9394TIP3    H252378   3.710   3.418  12.398
 9395TIP3   OH252379   3.281   2.983  12.156
 9395TIP3    H152380   3.251   3.070  12.183
 9395TIP3    H252381   3.376   2.992  12.148
 9396TIP3   OH252382   3.239   2.926  11.887
 9396TIP3    H152383   3.246   2.935  11.982
 9396TIP3    H252384   3.301   2.856  11.864
 9397TIP3   OH252385   3.643   3.100  12.359
 9397TIP3    H152386   3.565   3.138  12.400
 9397TIP3    H252387   3.682   3.046  12.427
 9398TIP3   OH252388   2.713   3.232  12.476
 9398TIP3    H152389   2.677   3.172  12.411
 9398TIP3    H252390   2.721   3.179  12.556
 9399TIP3   OH252391   2.985   3.629  12.813
 9399TIP3    H152392   2.982   3.533  12.821
 9399TIP3    H252393   3.065   3.654  12.860
 9400TIP3   OH252394   2.700   3.166  12.833
 9400TIP3    H152395   2.702   3.072  12.813
 9400TIP3    H252396   2.788   3.186  12.864
 9401TIP3   OH252397   3.554   2.979  12.126
 9401TIP3    H152398   3.595   3.027  12.198
 9401TIP3    H252399   3.596   3.012  12.047
 9402TIP3   OH252400   3.383   3.738  12.460
 9402TIP3    H152401   3.443   3.787  12.517
 9402TIP3    H252402   3.333   3.806  12.415
 9403TIP3   OH252403   2.590   3.084  12.272
 9403TIP3    H152404   2.523   3.144  12.240
 9403TIP3    H252405   2.543   3.001  12.288
 9404TIP3   OH252406   4.104   3.672  12.061
 9404TIP3    H152407   4.141   3.740  12.118
 9404TIP3    H252408   4.179   3.616  12.040
 9405TIP3   OH252409   3.239   3.935  12.313
 9405TIP3    H152410   3.237   3.959  12.220
 9405TIP3    H252411   3.187   4.003  12.356
 9406TIP3   OH252412   2.543   3.953  12.540
 9406TIP3    H152413   2.558   3.893  12.613
 9406TIP3    H252414   2.473   3.912  12.489
 9407TIP3   OH252415   3.654   3.082  11.883
 9407TIP3    H152416   3.656   3.069  11.788
 9407TIP3    H252417   3.736   3.127  11.902
 9408TIP3   OH252418   3.099   2.451  11.969
 9408TIP3    H152419   3.071   2.452  12.061
 9408TIP3    H252420   3.063   2.370  11.934
 9409TIP3   OH252421   2.624   2.759  12.529
 9409TIP3    H152422   2.534   2.725  12.533
 9409TIP3    H252423   2.654   2.734  12.441
 9410TIP3   OH252424   3.314   2.767  12.336
 9410TIP3    H152425   3.285   2.843  12.285
 9410TIP3    H252426   3.395   2.739  12.293
 9411TIP3   OH252427   3.417   2.737  12.599
 9411TIP3    H152428   3.374   2.762  12.517
 9411TIP3    H252429   3.472   2.662  12.576
 9412TIP3   OH252430   2.781   2.501  11.840
 9412TIP3    H152431   2.772   2.492  11.934
 9412TIP3    H252432   2.709   2.558  11.814
 9413TIP3   OH252433   2.054   2.397  12.665
 9413TIP3    H152434   2.005   2.461  12.716
 9413TIP3    H252435   2.118   2.360  12.727
 9414TIP3   OH252436   3.112   2.509  12.682
 9414TIP3    H152437   3.063   2.438  12.640
 9414TIP3    H252438   3.190   2.467  12.718
 9415TIP3   OH252439   2.363   2.663  12.539
 9415TIP3    H152440   2.271   2.691  12.541
 9415TIP3    H252441   2.359   2.570  12.519
 9416TIP3   OH252442   2.733   2.697  12.271
 9416TIP3    H152443   2.822   2.720  12.295
 9416TIP3    H252444   2.721   2.738  12.185
 9417TIP3   OH252445   2.728   2.794  12.016
 9417TIP3    H152446   2.676   2.758  11.943
 9417TIP3    H252447   2.789   2.854  11.974
 9418TIP3   OH252448   2.370   2.392  12.448
 9418TIP3    H152449   2.328   2.305  12.455
 9418TIP3    H252450   2.463   2.373  12.441
 9419TIP3   OH252451   2.979   3.322  12.187
 9419TIP3    H152452   2.909   3.274  12.142
 9419TIP3    H252453   2.933   3.372  12.255
 9420TIP3   OH252454   3.513   2.531  11.976
 9420TIP3    H152455   3.473   2.568  12.055
 9420TIP3    H252456   3.607   2.538  11.992
 9421TIP3   OH252457   3.548   2.711  12.198
 9421TIP3    H152458   3.635   2.681  12.172
 9421TIP3    H252459   3.547   2.803  12.174
 9422TIP3   OH252460   3.216   3.460  12.165
 9422TIP3    H152461   3.180   3.548  12.171
 9422TIP3    H252462   3.140   3.402  12.165
 9423TIP3   OH252463   4.107   2.743  12.103
 9423TIP3    H152464   4.030   2.686  12.097
 9423TIP3    H252465   4.093   2.793  12.183
 9424TIP3   OH252466   3.831   3.744  12.071
 9424TIP3    H152467   3.790   3.659  12.084
 9424TIP3    H252468   3.925   3.726  12.070
 9425TIP3   OH252469   3.704   2.983  12.973
 9425TIP3    H152470   3.646   2.961  13.046
 9425TIP3    H252471   3.676   2.926  12.902
 9426TIP3   OH252472   2.825   3.655  12.576
 9426TIP3    H152473   2.888   3.652  12.648
 9426TIP3    H252474   2.837   3.742  12.536
 9427TIP3   OH252475   2.282   3.056  12.010
 9427TIP3    H152476   2.334   3.117  12.063
 9427TIP3    H252477   2.200   3.102  11.994
 9428TIP3   OH252478   2.815   3.463  12.367
 9428TIP3    H152479   2.822   3.528  12.437
 9428TIP3    H252480   2.778   3.386  12.410
 9429TIP3   OH252481   2.815   3.914  12.461
 9429TIP3    H152482   2.727   3.944  12.484
 9429TIP3    H252483   2.872   3.984  12.493
 9430TIP3   OH252484   3.710   3.497  12.067
 9430TIP3    H152485   3.733   3.433  12.135
 9430TIP3    H252486   3.619   3.477  12.046
 9431TIP3   OH252487   4.136   4.134  12.159
 9431TIP3    H152488   4.229   4.147  12.177
 9431TIP3    H252489   4.108   4.215  12.117
 9432TIP3   OH252490   3.789   3.315  12.259
 9432TIP3    H152491   3.746   3.235  12.289
 9432TIP3    H252492   3.880   3.291  12.246
 9433TIP3   OH252493   2.968   3.576  11.901
 9433TIP3    H152494   2.946   3.497  11.851
 9433TIP3    H252495   2.910   3.574  11.976
 9434TIP3   OH252496   2.771   3.582  12.118
 9434TIP3    H152497   2.785   3.535  12.200
 9434TIP3    H252498   2.793   3.673  12.138
 9435TIP3   OH252499   2.405   3.260  12.158
 9435TIP3    H152500   2.334   3.312  12.196
 9435TIP3    H252501   2.461   3.324  12.113
 9436TIP3   OH252502   3.498   2.429  12.335
 9436TIP3    H152503   3.523   2.502  12.278
 9436TIP3    H252504   3.531   2.454  12.422
 9437TIP3   OH252505   3.112   3.707  12.207
 9437TIP3    H152506   3.021   3.739  12.200
 9437TIP3    H252507   3.157   3.776  12.255
 9438TIP3   OH252508   3.132   2.574  12.410
 9438TIP3    H152509   3.190   2.645  12.381
 9438TIP3    H252510   3.127   2.585  12.505
 9439TIP3   OH252511   3.245   2.322  12.381
 9439TIP3    H152512   3.206   2.409  12.395
 9439TIP3    H252513   3.336   2.341  12.355
 9440TIP3   OH252514   2.862   3.831  12.199
 9440TIP3    H152515   2.874   3.912  12.149
 9440TIP3    H252516   2.841   3.861  12.287
 9441TIP3   OH252517   2.743   2.457  12.112
 9441TIP3    H152518   2.718   2.531  12.168
 9441TIP3    H252519   2.827   2.427  12.147
 9442TIP3   OH252520   3.632   2.799  12.768
 9442TIP3    H152521   3.546   2.791  12.726
 9442TIP3    H252522   3.638   2.720  12.823
 9443TIP3   OH252523   2.530   3.472  12.018
 9443TIP3    H152524   2.603   3.521  12.057
 9443TIP3    H252525   2.571   3.417  11.952
 9444TIP3   OH252526   2.181   2.808  11.923
 9444TIP3    H152527   2.200   2.888  11.972
 9444TIP3    H252528   2.259   2.793  11.870
 9445TIP3   OH252529   2.178   3.686  12.341
 9445TIP3    H152530   2.085   3.709  12.351
 9445TIP3    H252531   2.218   3.766  12.307
 9446TIP3   OH252532   3.173   3.765  11.867
 9446TIP3    H152533   3.105   3.700  11.887
 9446TIP3    H252534   3.253   3.714  11.856
 9447TIP3   OH252535   3.649   3.820  11.878
 9447TIP3    H152536   3.705   3.796  11.951
 9447TIP3    H252537   3.705   3.811  11.801
 9448TIP3   OH252538   2.656   3.285  11.858
 9448TIP3    H152539   2.691   3.241  11.936
 9448TIP3    H252540   2.734   3.319  11.813
 9449TIP3   OH252541   3.441   3.436  12.007
 9449TIP3    H152542   3.367   3.448  12.065
 9449TIP3    H252543   3.427   3.350  11.968
 9450TIP3   OH252544   2.772   3.163  12.076
 9450TIP3    H152545   2.720   3.127  12.148
 9450TIP3    H252546   2.816   3.087  12.038
 9451TIP3   OH252547   2.909   2.981  11.912
 9451TIP3    H152548   2.898   3.029  11.829
 9451TIP3    H252549   3.003   2.971  11.922
 9452TIP3   OH252550   3.901   3.208  11.867
 9452TIP3    H152551   3.926   3.185  11.777
 9452TIP3    H252552   3.916   3.302  11.872
 9453TIP3   OH252553   2.942   4.053  12.052
 9453TIP3    H152554   3.035   4.032  12.053
 9453TIP3    H252555   2.936   4.137  12.006
 9454TIP3   OH252556   2.272   3.556  11.946
 9454TIP3    H152557   2.364   3.548  11.973
 9454TIP3    H252558   2.256   3.480  11.890
 9455TIP3   OH252559   2.193   4.068  12.464
 9455TIP3    H152560   2.100   4.067  12.443
 9455TIP3    H252561   2.197   4.036  12.554
 9456TIP3   OH252562   2.204   3.990  12.722
 9456TIP3    H152563   2.151   4.040  12.784
 9456TIP3    H252564   2.272   3.950  12.776
 9457TIP3   OH252565   4.059   3.231  12.243
 9457TIP3    H152566   4.129   3.291  12.268
 9457TIP3    H252567   4.046   3.176  12.320
 9458TIP3   OH252568   3.992   3.068  12.458
 9458TIP3    H152569   3.909   3.027  12.483
 9458TIP3    H252570   4.049   3.052  12.533
 9459TIP3   OH252571   4.143   3.149  11.988
 9459TIP3    H152572   4.057   3.152  11.946
 9459TIP3    H252573   4.127   3.175  12.079
 9460TIP3   OH252574   3.969   2.798  11.857
 9460TIP3    H152575   4.035   2.830  11.918
 9460TIP3    H252576   3.917   2.735  11.908
 9461TIP3   OH252577   3.762   2.922  12.544
 9461TIP3    H152578   3.761   2.837  12.501
 9461TIP3    H252579   3.725   2.906  12.631
 9462TIP3   OH252580   3.886   2.353  11.906
 9462TIP3    H152581   3.874   2.435  11.952
 9462TIP3    H252582   3.801   2.309  11.913
 9463TIP3   OH252583   3.820   2.512  12.379
 9463TIP3    H152584   3.869   2.430  12.382
 9463TIP3    H252585   3.825   2.539  12.287
 9464TIP3   OH252586   3.930   2.247  12.378
 9464TIP3    H152587   3.958   2.160  12.408
 9464TIP3    H252588   3.843   2.232  12.340
 9465TIP3   OH252589   4.090   2.209  12.032
 9465TIP3    H152590   4.111   2.164  11.950
 9465TIP3    H252591   4.018   2.269  12.009
 9466TIP3   OH252592   2.405   3.890  12.879
 9466TIP3    H152593   2.370   3.844  12.955
 9466TIP3    H252594   2.469   3.829  12.842
 9467TIP3   OH252595   2.606   3.757  12.729
 9467TIP3    H152596   2.657   3.700  12.672
 9467TIP3    H252597   2.669   3.788  12.794
 9468TIP3   OH252598   2.807   3.827  12.896
 9468TIP3    H152599   2.874   3.761  12.877
 9468TIP3    H252600   2.846   3.881  12.965
 9469TIP3   OH252601   3.302   2.356  12.801
 9469TIP3    H152602   3.352   2.284  12.764
 9469TIP3    H252603   3.359   2.392  12.870
 9470TIP3   OH252604   2.344   2.094  12.443
 9470TIP3    H152605   2.255   2.066  12.465
 9470TIP3    H252606   2.400   2.040  12.497
 9471TIP3   OH252607   2.385   2.049  12.168
 9471TIP3    H152608   2.406   2.135  12.132
 9471TIP3    H252609   2.378   2.063  12.262
 9472TIP3   OH252610   2.953   1.972  12.552
 9472TIP3    H152611   3.039   2.011  12.532
 9472TIP3    H252612   2.964   1.935  12.640
 9473TIP3   OH252613   3.411   2.117  12.694
 9473TIP3    H152614   3.493   2.089  12.653
 9473TIP3    H252615   3.344   2.099  12.628
 9474TIP3   OH252616   3.675   2.209  12.280
 9474TIP3    H152617   3.607   2.274  12.293
 9474TIP3    H252618   3.630   2.125  12.291
 9475TIP3   OH252619   2.233   3.933  12.225
 9475TIP3    H152620   2.156   3.956  12.174
 9475TIP3    H252621   2.228   3.989  12.303
 9476TIP3   OH252622   2.532   2.329  11.967
 9476TIP3    H152623   2.579   2.267  11.910
 9476TIP3    H252624   2.601   2.366  12.023
 9477TIP3   OH252625   2.997   2.417  12.226
 9477TIP3    H152626   3.037   2.334  12.253
 9477TIP3    H252627   3.032   2.481  12.287
 9478TIP3   OH252628   3.213   3.981  12.037
 9478TIP3    H152629   3.250   4.038  11.969
 9478TIP3    H252630   3.196   3.898  11.992
 9479TIP3   OH252631   2.347   4.065  12.006
 9479TIP3    H152632   2.320   4.150  12.041
 9479TIP3    H252633   2.335   4.004  12.078
 9480TIP3   OH252634   5.525   3.173  12.475
 9480TIP3    H152635   5.514   3.268  12.476
 9480TIP3    H252636   5.441   3.139  12.444
 9481TIP3   OH252637   5.832   3.534  12.789
 9481TIP3    H152638   5.784   3.567  12.865
 9481TIP3    H252639   5.916   3.506  12.824
 9482TIP3   OH252640   4.680   3.489  12.986
 9482TIP3    H152641   4.694   3.583  12.987
 9482TIP3    H252642   4.768   3.452  12.989
 9483TIP3   OH252643   4.503   3.042  12.621
 9483TIP3    H152644   4.530   2.951  12.607
 9483TIP3    H252645   4.574   3.094  12.583
 9484TIP3   OH252646   5.588   3.891  12.810
 9484TIP3    H152647   5.616   3.856  12.725
 9484TIP3    H252648   5.540   3.820  12.851
 9485TIP3   OH252649   5.664   2.482  12.494
 9485TIP3    H152650   5.683   2.439  12.577
 9485TIP3    H252651   5.748   2.518  12.465
 9486TIP3   OH252652   4.822   2.915  12.623
 9486TIP3    H152653   4.887   2.855  12.589
 9486TIP3    H252654   4.740   2.866  12.619
 9487TIP3   OH252655   5.476   3.446  12.437
 9487TIP3    H152656   5.432   3.438  12.352
 9487TIP3    H252657   5.449   3.531  12.470
 9488TIP3   OH252658   5.741   2.406  12.750
 9488TIP3    H152659   5.735   2.363  12.836
 9488TIP3    H252660   5.788   2.488  12.768
 9489TIP3   OH252661   4.274   3.409  12.266
 9489TIP3    H152662   4.281   3.450  12.180
 9489TIP3    H252663   4.283   3.482  12.328
 9490TIP3   OH252664   5.635   3.868  12.507
 9490TIP3    H152665   5.650   3.774  12.517
 9490TIP3    H252666   5.723   3.906  12.511
 9491TIP3   OH252667   5.696   3.608  12.558
 9491TIP3    H152668   5.648   3.531  12.528
 9491TIP3    H252669   5.750   3.577  12.631
 9492TIP3   OH252670   5.296   3.076  12.331
 9492TIP3    H152671   5.225   3.139  12.339
 9492TIP3    H252672   5.324   3.084  12.240
 9493TIP3   OH252673   5.327   2.963  11.965
 9493TIP3    H152674   5.400   2.970  12.026
 9493TIP3    H252675   5.348   2.886  11.912
 9494TIP3   OH252676   5.721   3.071  12.308
 9494TIP3    H152677   5.664   3.111  12.374
 9494TIP3    H252678   5.778   3.013  12.357
 9495TIP3   OH252679   4.744   3.159  12.517
 9495TIP3    H152680   4.807   3.230  12.523
 9495TIP3    H252681   4.785   3.085  12.561
 9496TIP3   OH252682   5.565   2.982  12.102
 9496TIP3    H152683   5.614   3.016  12.176
 9496TIP3    H252684   5.605   3.023  12.025
 9497TIP3   OH252685   5.386   3.706  12.453
 9497TIP3    H152686   5.440   3.784  12.466
 9497TIP3    H252687   5.325   3.730  12.383
 9498TIP3   OH252688   4.696   3.090  12.249
 9498TIP3    H152689   4.615   3.135  12.222
 9498TIP3    H252690   4.707   3.113  12.341
 9499TIP3   OH252691   6.125   3.703  11.965
 9499TIP3    H152692   6.131   3.798  11.957
 9499TIP3    H252693   6.215   3.672  11.956
 9500TIP3   OH252694   5.349   4.087  12.276
 9500TIP3    H152695   5.304   4.057  12.197
 9500TIP3    H252696   5.313   4.174  12.292
 9501TIP3   OH252697   4.604   3.961  12.603
 9501TIP3    H152698   4.639   3.968  12.692
 9501TIP3    H252699   4.529   3.901  12.611
 9502TIP3   OH252700   5.572   3.969  11.988
 9502TIP3    H152701   5.619   3.889  11.962
 9502TIP3    H252702   5.595   3.981  12.080
 9503TIP3   OH252703   5.606   4.005  12.262
 9503TIP3    H152704   5.515   4.034  12.273
 9503TIP3    H252705   5.622   3.948  12.337
 9504TIP3   OH252706   4.706   2.349  12.885
 9504TIP3    H152707   4.673   2.420  12.829
 9504TIP3    H252708   4.744   2.286  12.824
 9505TIP3   OH252709   5.676   3.114  11.887
 9505TIP3    H152710   5.713   3.114  11.798
 9505TIP3    H252711   5.742   3.160  11.940
 9506TIP3   OH252712   5.100   2.401  11.916
 9506TIP3    H152713   5.062   2.417  12.003
 9506TIP3    H252714   5.188   2.368  11.934
 9507TIP3   OH252715   5.331   2.780  12.390
 9507TIP3    H152716   5.310   2.873  12.382
 9507TIP3    H252717   5.394   2.763  12.319
 9508TIP3   OH252718   5.490   2.673  12.595
 9508TIP3    H152719   5.431   2.709  12.529
 9508TIP3    H252720   5.535   2.601  12.551
 9509TIP3   OH252721   4.135   2.367  12.753
 9509TIP3    H152722   4.189   2.289  12.750
 9509TIP3    H252723   4.191   2.437  12.721
 9510TIP3   OH252724   5.098   3.283  12.303
 9510TIP3    H152725   5.031   3.268  12.237
 9510TIP3    H252726   5.049   3.308  12.382
 9511TIP3   OH252727   5.478   2.472  12.099
 9511TIP3    H152728   5.487   2.408  12.170
 9511TIP3    H252729   5.488   2.557  12.142
 9512TIP3   OH252730   5.537   2.729  12.209
 9512TIP3    H152731   5.623   2.716  12.250
 9512TIP3    H252732   5.545   2.812  12.163
 9513TIP3   OH252733   5.299   3.467  12.216
 9513TIP3    H152734   5.266   3.556  12.225
 9513TIP3    H252735   5.227   3.412  12.246
 9514TIP3   OH252736   6.239   2.769  12.051
 9514TIP3    H152737   6.162   2.732  12.007
 9514TIP3    H252738   6.221   2.863  12.053
 9515TIP3   OH252739   6.075   3.711  12.238
 9515TIP3    H152740   5.990   3.674  12.262
 9515TIP3    H252741   6.076   3.711  12.142
 9516TIP3   OH252742   5.553   3.019  12.798
 9516TIP3    H152743   5.556   3.099  12.746
 9516TIP3    H252744   5.620   2.963  12.758
 9517TIP3   OH252745   4.829   3.617  12.448
 9517TIP3    H152746   4.858   3.708  12.454
 9517TIP3    H252747   4.748   3.614  12.500
 9518TIP3   OH252748   4.393   3.022  11.966
 9518TIP3    H152749   4.442   3.080  12.024
 9518TIP3    H252750   4.304   3.057  11.967
 9519TIP3   OH252751   4.941   3.365  12.525
 9519TIP3    H152752   4.912   3.453  12.499
 9519TIP3    H252753   4.978   3.377  12.612
 9520TIP3   OH252754   4.855   3.902  12.473
 9520TIP3    H152755   4.772   3.926  12.515
 9520TIP3    H252756   4.919   3.964  12.508
 9521TIP3   OH252757   5.748   3.476  11.995
 9521TIP3    H152758   5.775   3.396  12.040
 9521TIP3    H252759   5.652   3.474  11.997
 9522TIP3   OH252760   6.138   3.979  11.977
 9522TIP3    H152761   6.159   4.046  11.912
 9522TIP3    H252762   6.082   4.024  12.040
 9523TIP3   OH252763   5.830   3.226  12.098
 9523TIP3    H152764   5.790   3.181  12.172
 9523TIP3    H252765   5.923   3.231  12.119
 9524TIP3   OH252766   4.979   3.628  11.915
 9524TIP3    H152767   4.983   3.543  11.871
 9524TIP3    H252768   4.935   3.610  11.998
 9525TIP3   OH252769   4.828   3.615  12.161
 9525TIP3    H152770   4.828   3.582  12.251
 9525TIP3    H252771   4.867   3.702  12.167
 9526TIP3   OH252772   4.476   3.239  12.151
 9526TIP3    H152773   4.406   3.274  12.205
 9526TIP3    H252774   4.524   3.316  12.119
 9527TIP3   OH252775   5.519   2.304  12.326
 9527TIP3    H152776   5.561   2.218  12.329
 9527TIP3    H252777   5.568   2.357  12.389
 9528TIP3   OH252778   5.220   3.748  12.225
 9528TIP3    H152779   5.127   3.769  12.232
 9528TIP3    H252780   5.256   3.816  12.168
 9529TIP3   OH252781   5.144   2.562  12.361
 9529TIP3    H152782   5.205   2.633  12.377
 9529TIP3    H252783   5.187   2.484  12.396
 9530TIP3   OH252784   5.251   2.310  12.429
 9530TIP3    H152785   5.269   2.273  12.516
 9530TIP3    H252786   5.334   2.302  12.382
 9531TIP3   OH252787   4.958   3.850  12.218
 9531TIP3    H152788   4.967   3.930  12.166
 9531TIP3    H252789   4.923   3.880  12.302
 9532TIP3   OH252790   5.709   2.821  12.682
 9532TIP3    H152791   5.633   2.769  12.655
 9532TIP3    H252792   5.758   2.764  12.741
 9533TIP3   OH252793   4.599   3.478  12.054
 9533TIP3    H152794   4.661   3.536  12.098
 9533TIP3    H252795   4.652   3.431  11.989
 9534TIP3   OH252796   4.361   2.740  11.980
 9534TIP3    H152797   4.379   2.834  11.976
 9534TIP3    H252798   4.276   2.733  12.023
 9535TIP3   OH252799   5.772   4.093  12.914
 9535TIP3    H152800   5.795   4.142  12.836
 9535TIP3    H252801   5.731   4.013  12.881
 9536TIP3   OH252802   4.297   3.657  12.397
 9536TIP3    H152803   4.322   3.695  12.482
 9536TIP3    H252804   4.266   3.731  12.346
 9537TIP3   OH252805   5.205   3.785  11.844
 9537TIP3    H152806   5.131   3.730  11.871
 9537TIP3    H252807   5.279   3.724  11.837
 9538TIP3   OH252808   5.706   3.742  11.894
 9538TIP3    H152809   5.736   3.660  11.932
 9538TIP3    H252810   5.774   3.767  11.831
 9539TIP3   OH252811   4.761   3.326  11.893
 9539TIP3    H152812   4.800   3.283  11.968
 9539TIP3    H252813   4.835   3.350  11.837
 9540TIP3   OH252814   5.469   3.454  11.998
 9540TIP3    H152815   5.414   3.459  12.076
 9540TIP3    H252816   5.443   3.372  11.956
 9541TIP3   OH252817   4.902   3.208  12.106
 9541TIP3    H152818   4.839   3.153  12.152
 9541TIP3    H252819   4.955   3.147  12.056
 9542TIP3   OH252820   5.062   3.051  11.946
 9542TIP3    H152821   5.057   3.053  11.851
 9542TIP3    H252822   5.150   3.019  11.966
 9543TIP3   OH252823   6.110   3.213  11.827
 9543TIP3    H152824   6.059   3.193  11.749
 9543TIP3    H252825   6.074   3.296  11.859
 9544TIP3   OH252826   5.008   4.071  12.061
 9544TIP3    H152827   5.099   4.061  12.034
 9544TIP3    H252828   4.972   4.137  12.001
 9545TIP3   OH252829   4.325   3.512  12.010
 9545TIP3    H152830   4.420   3.515  12.023
 9545TIP3    H252831   4.313   3.450  11.938
 9546TIP3   OH252832   4.361   3.806  12.642
 9546TIP3    H152833   4.359   3.754  12.723
 9546TIP3    H252834   4.293   3.872  12.655
 9547TIP3   OH252835   6.088   3.223  12.201
 9547TIP3    H152836   6.140   3.302  12.215
 9547TIP3    H252837   6.098   3.173  12.282
 9548TIP3   OH252838   6.104   3.021  12.392
 9548TIP3    H152839   6.020   2.981  12.416
 9548TIP3    H252840   6.170   2.963  12.430
 9549TIP3   OH252841   6.201   3.041  12.023
 9549TIP3    H152842   6.164   3.099  11.957
 9549TIP3    H252843   6.173   3.079  12.106
 9550TIP3   OH252844   6.010   2.689  11.910
 9550TIP3    H152845   5.993   2.742  11.832
 9550TIP3    H252846   5.942   2.622  11.908
 9551TIP3   OH252847   5.863   2.875  12.457
 9551TIP3    H152848   5.890   2.784  12.448
 9551TIP3    H252849   5.814   2.877  12.539
 9552TIP3   OH252850   5.799   2.524  11.814
 9552TIP3    H152851   5.833   2.475  11.739
 9552TIP3    H252852   5.710   2.491  11.826
 9553TIP3   OH252853   5.923   2.588  12.443
 9553TIP3    H152854   5.964   2.531  12.507
 9553TIP3    H252855   5.979   2.582  12.365
 9554TIP3   OH252856   5.838   2.651  12.855
 9554TIP3    H152857   5.932   2.653  12.875
 9554TIP3    H252858   5.796   2.633  12.939
 9555TIP3   OH252859   4.193   2.297  12.272
 9555TIP3    H152860   4.113   2.294  12.325
 9555TIP3    H252861   4.164   2.269  12.185
 9556TIP3   OH252862   5.876   3.990  12.518
 9556TIP3    H152863   5.965   3.987  12.483
 9556TIP3    H252864   5.875   4.068  12.572
 9557TIP3   OH252865   4.815   3.747  12.998
 9557TIP3    H152866   4.882   3.699  12.949
 9557TIP3    H252867   4.860   3.775  13.078
 9558TIP3   OH252868   5.327   2.195  12.665
 9558TIP3    H152869   5.292   2.129  12.725
 9558TIP3    H252870   5.422   2.181  12.666
 9559TIP3   OH252871   4.982   2.212  12.355
 9559TIP3    H152872   5.066   2.234  12.397
 9559TIP3    H252873   4.961   2.125  12.389
 9560TIP3   OH252874   5.607   2.177  12.644
 9560TIP3    H152875   5.657   2.245  12.689
 9560TIP3    H252876   5.674   2.118  12.608
 9561TIP3   OH252877   5.664   2.041  12.337
 9561TIP3    H152878   5.613   1.972  12.378
 9561TIP3    H252879   5.751   2.034  12.377
 9562TIP3   OH252880   4.231   3.877  12.217
 9562TIP3    H152881   4.174   3.952  12.197
 9562TIP3    H252882   4.318   3.915  12.226
 9563TIP3   OH252883   5.005   2.418  12.172
 9563TIP3    H152884   4.991   2.340  12.226
 9563TIP3    H252885   5.052   2.479  12.230
 9564TIP3   OH252886   5.288   3.967  12.031
 9564TIP3    H152887   5.380   3.977  12.010
 9564TIP3    H252888   5.254   3.909  11.963
 9565TIP3   OH252889   6.111   3.966  12.354
 9565TIP3    H152890   6.100   3.876  12.323
 9565TIP3    H252891   6.068   4.020  12.287
 9566TIP3   OH252892   4.550   3.977  11.894
 9566TIP3    H152893   4.529   3.938  11.979
 9566TIP3    H252894   4.625   3.926  11.863
 9567TIP3   OH252895   7.541   3.153  12.492
 9567TIP3    H152896   7.485   3.230  12.507
 9567TIP3    H252897   7.493   3.102  12.428
 9568TIP3   OH252898   8.042   3.534  12.637
 9568TIP3    H152899   8.117   3.486  12.673
 9568TIP3    H252900   8.021   3.598  12.704
 9569TIP3   OH252901   6.520   3.565  12.982
 9569TIP3    H152902   6.436   3.534  12.947
 9569TIP3    H252903   6.516   3.546  13.076
 9570TIP3   OH252904   6.274   2.833  12.509
 9570TIP3    H152905   6.332   2.765  12.475
 9570TIP3    H252906   6.275   2.820  12.604
 9571TIP3   OH252907   7.695   2.467  12.568
 9571TIP3    H152908   7.757   2.437  12.635
 9571TIP3    H252909   7.705   2.562  12.568
 9572TIP3   OH252910   7.348   3.362  12.450
 9572TIP3    H152911   7.364   3.346  12.357
 9572TIP3    H252912   7.367   3.455  12.461
 9573TIP3   OH252913   7.794   2.448  12.835
 9573TIP3    H152914   7.707   2.412  12.851
 9573TIP3    H252915   7.849   2.408  12.903
 9574TIP3   OH252916   6.229   3.468  12.193
 9574TIP3    H152917   6.273   3.496  12.112
 9574TIP3    H252918   6.189   3.548  12.227
 9575TIP3   OH252919   7.911   3.570  12.393
 9575TIP3    H152920   7.898   3.480  12.364
 9575TIP3    H252921   7.955   3.563  12.477
 9576TIP3   OH252922   7.424   3.047  12.267
 9576TIP3    H152923   7.363   3.108  12.226
 9576TIP3    H252924   7.497   3.042  12.206
 9577TIP3   OH252925   7.460   3.014  11.922
 9577TIP3    H152926   7.522   3.003  11.994
 9577TIP3    H252927   7.481   2.942  11.862
 9578TIP3   OH252928   7.774   3.071  12.368
 9578TIP3    H152929   7.703   3.100  12.425
 9578TIP3    H252930   7.820   3.004  12.419
 9579TIP3   OH252931   7.024   3.093  12.692
 9579TIP3    H152932   6.952   3.051  12.739
 9579TIP3    H252933   7.096   3.030  12.697
 9580TIP3   OH252934   7.662   2.997  12.124
 9580TIP3    H152935   7.708   3.025  12.203
 9580TIP3    H252936   7.719   3.022  12.052
 9581TIP3   OH252937   7.414   3.630  12.425
 9581TIP3    H152938   7.509   3.641  12.422
 9581TIP3    H252939   7.384   3.661  12.340
 9582TIP3   OH252940   8.032   2.090  12.150
 9582TIP3    H152941   7.952   2.125  12.189
 9582TIP3    H252942   8.083   2.168  12.126
 9583TIP3   OH252943   8.143   3.734  11.949
 9583TIP3    H152944   8.158   3.828  11.937
 9583TIP3    H252945   8.106   3.727  12.037
 9584TIP3   OH252946   6.864   2.097  12.768
 9584TIP3    H152947   6.803   2.169  12.757
 9584TIP3    H252948   6.898   2.107  12.857
 9585TIP3   OH252949   7.813   3.072  11.911
 9585TIP3    H152950   7.800   3.087  11.818
 9585TIP3    H252951   7.900   3.107  11.930
 9586TIP3   OH252952   7.325   2.387  12.018
 9586TIP3    H152953   7.270   2.393  12.095
 9586TIP3    H252954   7.282   2.322  11.962
 9587TIP3   OH252955   7.400   2.768  12.292
 9587TIP3    H152956   7.400   2.864  12.294
 9587TIP3    H252957   7.489   2.745  12.264
 9588TIP3   OH252958   6.997   2.471  11.899
 9588TIP3    H152959   6.969   2.446  11.987
 9588TIP3    H252960   6.922   2.517  11.862
 9589TIP3   OH252961   6.357   2.563  12.194
 9589TIP3    H152962   6.312   2.638  12.154
 9589TIP3    H252963   6.380   2.594  12.282
 9590TIP3   OH252964   7.149   2.651  12.624
 9590TIP3    H152965   7.109   2.580  12.674
 9590TIP3    H252966   7.213   2.689  12.684
 9591TIP3   OH252967   7.319   2.737  12.819
 9591TIP3    H152968   7.354   2.818  12.855
 9591TIP3    H252969   7.357   2.668  12.875
 9592TIP3   OH252970   7.228   3.235  12.186
 9592TIP3    H152971   7.195   3.188  12.109
 9592TIP3    H252972   7.162   3.220  12.253
 9593TIP3   OH252973   7.575   2.456  12.117
 9593TIP3    H152974   7.484   2.450  12.086
 9593TIP3    H252975   7.589   2.550  12.131
 9594TIP3   OH252976   7.658   2.717  12.193
 9594TIP3    H152977   7.741   2.694  12.234
 9594TIP3    H252978   7.671   2.806  12.160
 9595TIP3   OH252979   6.700   3.158  12.961
 9595TIP3    H152980   6.770   3.210  13.002
 9595TIP3    H252981   6.746   3.084  12.921
 9596TIP3   OH252982   7.410   3.440  12.157
 9596TIP3    H152983   7.365   3.524  12.159
 9596TIP3    H252984   7.339   3.376  12.150
 9597TIP3   OH252985   8.108   2.769  12.162
 9597TIP3    H152986   8.095   2.734  12.074
 9597TIP3    H252987   8.106   2.864  12.151
 9598TIP3   OH252988   7.948   3.715  12.162
 9598TIP3    H152989   7.937   3.689  12.253
 9598TIP3    H252990   7.923   3.638  12.111
 9599TIP3   OH252991   7.098   3.225  12.440
 9599TIP3    H152992   7.184   3.261  12.462
 9599TIP3    H252993   7.071   3.178  12.519
 9600TIP3   OH252994   6.942   3.986  12.418
 9600TIP3    H152995   6.933   3.985  12.514
 9600TIP3    H252996   7.001   4.059  12.400
 9601TIP3   OH252997   7.871   3.474  12.057
 9601TIP3    H152998   7.878   3.413  12.131
 9601TIP3    H252999   7.781   3.464  12.026
 9602TIP3   OH253000   8.161   4.011  11.959
 9602TIP3    H153001   8.207   4.074  11.904
 9602TIP3    H253002   8.131   4.063  12.034
 9603TIP3   OH253003   7.900   3.308  12.281
 9603TIP3    H153004   7.845   3.234  12.306
 9603TIP3    H253005   7.989   3.279  12.301
 9604TIP3   OH253006   7.183   3.568  11.842
 9604TIP3    H153007   7.146   3.488  11.805
 9604TIP3    H253008   7.120   3.596  11.908
 9605TIP3   OH253009   7.011   3.649  12.043
 9605TIP3    H153010   6.984   3.581  12.105
 9605TIP3    H253011   7.036   3.722  12.099
 9606TIP3   OH253012   7.579   2.325  12.362
 9606TIP3    H153013   7.576   2.379  12.283
 9606TIP3    H253014   7.617   2.382  12.429
 9607TIP3   OH253015   7.321   3.709  12.171
 9607TIP3    H153016   7.239   3.755  12.192
 9607TIP3    H253017   7.341   3.736  12.081
 9608TIP3   OH253018   7.188   2.607  12.355
 9608TIP3    H153019   7.260   2.664  12.332
 9608TIP3    H253020   7.170   2.627  12.447
 9609TIP3   OH253021   7.325   2.219  12.407
 9609TIP3    H153022   7.310   2.217  12.501
 9609TIP3    H253023   7.412   2.256  12.397
 9610TIP3   OH253024   7.084   3.849  12.217
 9610TIP3    H153025   7.117   3.931  12.182
 9610TIP3    H253026   7.027   3.874  12.289
 9611TIP3   OH253027   6.899   2.364  12.137
 9611TIP3    H153028   6.849   2.360  12.219
 9611TIP3    H253029   6.990   2.354  12.165
 9612TIP3   OH253030   6.637   3.559  11.982
 9612TIP3    H153031   6.685   3.639  11.959
 9612TIP3    H253032   6.682   3.490  11.934
 9613TIP3   OH253033   7.937   4.018  12.747
 9613TIP3    H153034   7.842   4.023  12.753
 9613TIP3    H253035   7.958   4.055  12.662
 9614TIP3   OH253036   6.659   2.274  12.706
 9614TIP3    H153037   6.646   2.347  12.646
 9614TIP3    H253038   6.570   2.245  12.729
 9615TIP3   OH253039   7.362   3.769  11.895
 9615TIP3    H153040   7.307   3.695  11.869
 9615TIP3    H253041   7.450   3.747  11.862
 9616TIP3   OH253042   7.836   3.855  11.927
 9616TIP3    H153043   7.881   3.820  12.004
 9616TIP3    H253044   7.898   3.844  11.856
 9617TIP3   OH253045   6.788   3.365  11.843
 9617TIP3    H153046   6.799   3.285  11.894
 9617TIP3    H253047   6.873   3.379  11.802
 9618TIP3   OH253048   7.610   3.462  11.968
 9618TIP3    H153049   7.545   3.452  12.038
 9618TIP3    H253050   7.591   3.390  11.907
 9619TIP3   OH253051   7.185   3.092  11.954
 9619TIP3    H153052   7.146   3.091  11.867
 9619TIP3    H253053   7.275   3.061  11.941
 9620TIP3   OH253054   8.066   3.190  11.900
 9620TIP3    H153055   8.078   3.158  11.811
 9620TIP3    H253056   8.080   3.284  11.894
 9621TIP3   OH253057   7.175   4.099  12.160
 9621TIP3    H153058   7.153   4.150  12.238
 9621TIP3    H253059   7.142   4.151  12.087
 9622TIP3   OH253060   6.365   3.563  11.950
 9622TIP3    H153061   6.459   3.565  11.972
 9622TIP3    H253062   6.358   3.494  11.885
 9623TIP3   OH253063   8.146   3.203  12.357
 9623TIP3    H153064   8.199   3.265  12.407
 9623TIP3    H253065   8.149   3.122  12.408
 9624TIP3   OH253066   8.153   2.971  12.508
 9624TIP3    H153067   8.065   2.932  12.509
 9624TIP3    H253068   8.182   2.967  12.599
 9625TIP3   OH253069   8.258   3.420  12.773
 9625TIP3    H153070   8.322   3.350  12.762
 9625TIP3    H253071   8.262   3.443  12.866
 9626TIP3   OH253072   8.111   3.040  12.129
 9626TIP3    H153073   8.101   3.093  12.050
 9626TIP3    H253074   8.126   3.104  12.199
 9627TIP3   OH253075   8.038   2.666  11.915
 9627TIP3    H153076   8.016   2.708  11.832
 9627TIP3    H253077   7.985   2.587  11.917
 9628TIP3   OH253078   7.900   2.850  12.504
 9628TIP3    H153079   7.900   2.783  12.436
 9628TIP3    H253080   7.865   2.806  12.581
 9629TIP3   OH253081   7.909   2.421  11.913
 9629TIP3    H153082   7.903   2.391  12.004
 9629TIP3    H253083   7.821   2.407  11.878
 9630TIP3   OH253084   7.908   2.647  12.312
 9630TIP3    H153085   7.935   2.558  12.334
 9630TIP3    H253086   7.982   2.683  12.262
 9631TIP3   OH253087   7.988   2.369  12.370
 9631TIP3    H153088   8.025   2.318  12.442
 9631TIP3    H253089   7.917   2.314  12.336
 9632TIP3   OH253090   8.178   2.301  12.035
 9632TIP3    H153091   8.192   2.245  11.959
 9632TIP3    H253092   8.170   2.389  11.999
 9633TIP3   OH253093   6.696   3.701  12.822
 9633TIP3    H153094   6.641   3.642  12.874
 9633TIP3    H253095   6.654   3.787  12.830
 9634TIP3   OH253096   7.289   2.202  12.684
 9634TIP3    H153097   7.270   2.157  12.766
 9634TIP3    H253098   7.355   2.268  12.708
 9635TIP3   OH253099   8.133   2.206  12.545
 9635TIP3    H153100   8.174   2.120  12.542
 9635TIP3    H253101   8.204   2.266  12.569
 9636TIP3   OH253102   7.082   2.005  12.625
 9636TIP3    H153103   7.151   2.071  12.618
 9636TIP3    H253104   7.007   2.054  12.660
 9637TIP3   OH253105   7.521   2.353  12.764
 9637TIP3    H153106   7.562   2.390  12.685
 9637TIP3    H253107   7.553   2.263  12.767
 9638TIP3   OH253108   7.800   2.181  12.275
 9638TIP3    H153109   7.724   2.232  12.303
 9638TIP3    H253110   7.768   2.091  12.270
 9639TIP3   OH253111   6.724   2.290  11.921
 9639TIP3    H153112   6.749   2.204  11.886
 9639TIP3    H253113   6.784   2.306  11.993
 9640TIP3   OH253114   7.155   2.365  12.238
 9640TIP3    H153115   7.204   2.306  12.295
 9640TIP3    H253116   7.162   2.451  12.281
 9641TIP3   OH253117   8.094   3.914  12.304
 9641TIP3    H153118   8.048   3.848  12.252
 9641TIP3    H253119   8.093   3.992  12.249
 9642TIP3   OH253120   6.668   3.993  11.984
 9642TIP3    H153121   6.673   4.052  11.908
 9642TIP3    H253122   6.716   3.914  11.956
 9643TIP3   OH253123   8.329   2.838  12.332
 9643TIP3    H153124   8.275   2.889  12.393
 9643TIP3    H253125   8.267   2.802  12.269
 9644TIP3   OH253126   8.290   3.499  13.036
 9644TIP3    H153127   8.380   3.519  13.062
 9644TIP3    H253128   8.242   3.496  13.119
 9645TIP3   OH253129   8.351   2.384  12.563
 9645TIP3    H153130   8.445   2.372  12.548
 9645TIP3    H253131   8.315   2.402  12.476
 9646TIP3   OH253132   8.240   4.039  12.500
 9646TIP3    H153133   8.194   3.976  12.444
 9646TIP3    H253134   8.245   3.996  12.585
 9647TIP3   OH253135   8.281   3.938  12.753
 9647TIP3    H153136   8.196   3.933  12.796
 9647TIP3    H253137   8.337   3.987  12.814
 9648TIP3   OH253138   8.446   3.211  12.748
 9648TIP3    H153139   0.085   3.199  12.711
 9648TIP3    H253140   8.420   3.123  12.776
 9649TIP3   OH253141   8.429   2.941  12.806
 9649TIP3    H153142   0.050   2.903  12.753
 9649TIP3    H253143   8.443   2.905  12.893
 9650TIP3   OH253144   8.256   2.387  12.292
 9650TIP3    H153145   8.166   2.400  12.322
 9650TIP3    H253146   8.247   2.348  12.205
 9651TIP3   OH253147   1.388   5.248  12.452
 9651TIP3    H153148   1.377   5.342  12.465
 9651TIP3    H253149   1.303   5.218  12.419
 9652TIP3   OH253150   1.636   5.574  12.804
 9652TIP3    H153151   1.570   5.541  12.865
 9652TIP3    H253152   1.710   5.598  12.859
 9653TIP3   OH253153   0.166   4.860  12.401
 9653TIP3    H153154   0.201   4.947  12.386
 9653TIP3    H253155   0.071   4.871  12.398
 9654TIP3   OH253156   0.318   5.136  12.646
 9654TIP3    H153157   0.338   5.141  12.552
 9654TIP3    H253158   0.377   5.198  12.687
 9655TIP3   OH253159   1.245   5.979  12.617
 9655TIP3    H153160   1.331   5.976  12.577
 9655TIP3    H253161   1.262   5.995  12.710
 9656TIP3   OH253162   0.686   4.547  12.685
 9656TIP3    H153163   0.679   4.636  12.650
 9656TIP3    H253164   0.605   4.504  12.657
 9657TIP3   OH253165   1.473   4.591  12.523
 9657TIP3    H153166   1.511   4.554  12.603
 9657TIP3    H253167   1.432   4.673  12.552
 9658TIP3   OH253168   0.639   5.030  12.648
 9658TIP3    H153169   0.668   5.015  12.738
 9658TIP3    H253170   0.648   4.945  12.605
 9659TIP3   OH253171   1.344   5.524  12.441
 9659TIP3    H153172   1.304   5.513  12.354
 9659TIP3    H253173   1.293   5.595  12.481
 9660TIP3   OH253174   1.578   4.499  12.756
 9660TIP3    H153175   1.520   4.512  12.830
 9660TIP3    H253176   1.636   4.427  12.782
 9661TIP3   OH253177   0.207   5.631  12.256
 9661TIP3    H153178   0.219   5.643  12.162
 9661TIP3    H253179   0.211   5.720  12.292
 9662TIP3   OH253180   1.497   5.952  12.505
 9662TIP3    H153181   1.523   5.861  12.522
 9662TIP3    H253182   1.575   6.003  12.527
 9663TIP3   OH253183   1.564   5.687  12.556
 9663TIP3    H153184   1.503   5.623  12.520
 9663TIP3    H253185   1.594   5.649  12.638
 9664TIP3   OH253186   1.157   5.158  12.309
 9664TIP3    H153187   1.081   5.215  12.322
 9664TIP3    H253188   1.179   5.169  12.216
 9665TIP3   OH253189   1.226   5.022  11.977
 9665TIP3    H153190   1.297   5.020  12.041
 9665TIP3    H253191   1.255   4.963  11.907
 9666TIP3   OH253192   1.607   5.134  12.341
 9666TIP3    H153193   1.535   5.181  12.383
 9666TIP3    H253194   1.633   5.068  12.405
 9667TIP3   OH253195   0.604   5.278  12.528
 9667TIP3    H153196   0.532   5.247  12.472
 9667TIP3    H253197   0.633   5.199  12.574
 9668TIP3   OH253198   1.461   5.045  12.121
 9668TIP3    H153199   1.507   5.078  12.198
 9668TIP3    H253200   1.503   5.087  12.047
 9669TIP3   OH253201   1.183   5.741  12.486
 9669TIP3    H153202   1.191   5.823  12.534
 9669TIP3    H253203   1.149   5.767  12.400
 9670TIP3   OH253204   1.856   4.167  12.161
 9670TIP3    H153205   1.772   4.192  12.201
 9670TIP3    H253206   1.887   4.247  12.120
 9671TIP3   OH253207   0.391   5.172  12.373
 9671TIP3    H153208   0.364   5.250  12.325
 9671TIP3    H253209   0.435   5.118  12.307
 9672TIP3   OH253210   2.010   5.762  12.030
 9672TIP3    H153211   2.014   5.856  12.018
 9672TIP3    H253212   2.101   5.732  12.023
 9673TIP3   OH253213   1.205   6.187  12.251
 9673TIP3    H153214   1.123   6.153  12.218
 9673TIP3    H253215   1.181   6.268  12.297
 9674TIP3   OH253216   0.466   5.957  12.560
 9674TIP3    H153217   0.503   5.956  12.648
 9674TIP3    H253218   0.489   5.871  12.524
 9675TIP3   OH253219   1.451   6.010  11.993
 9675TIP3    H153220   1.510   5.936  11.976
 9675TIP3    H253221   1.465   6.032  12.085
 9676TIP3   OH253222   1.459   6.084  12.261
 9676TIP3    H153223   1.369   6.116  12.261
 9676TIP3    H253224   1.465   6.029  12.340
 9677TIP3   OH253225   1.576   5.188  11.918
 9677TIP3    H153226   1.612   5.180  11.829
 9677TIP3    H253227   1.644   5.232  11.968
 9678TIP3   OH253228   1.089   4.531  12.001
 9678TIP3    H153229   1.054   4.506  12.086
 9678TIP3    H253230   1.013   4.534  11.943
 9679TIP3   OH253231   0.624   4.774  12.537
 9679TIP3    H153232   0.528   4.771  12.531
 9679TIP3    H253233   0.654   4.764  12.447
 9680TIP3   OH253234   1.197   4.884  12.391
 9680TIP3    H153235   1.177   4.974  12.367
 9680TIP3    H253236   1.263   4.856  12.327
 9681TIP3   OH253237   1.392   4.848  12.589
 9681TIP3    H153238   1.312   4.865  12.540
 9681TIP3    H253239   1.378   4.890  12.674
 9682TIP3   OH253240   0.828   4.519  11.897
 9682TIP3    H153241   0.787   4.527  11.983
 9682TIP3    H253242   0.756   4.523  11.835
 9683TIP3   OH253243   0.091   4.428  12.671
 9683TIP3    H153244   0.106   4.376  12.750
 9683TIP3    H253245   0.145   4.386  12.604
 9684TIP3   OH253246   0.194   4.688  12.178
 9684TIP3    H153247   0.232   4.743  12.110
 9684TIP3    H253248   0.189   4.745  12.255
 9685TIP3   OH253249   0.967   4.568  12.655
 9685TIP3    H153250   0.874   4.560  12.676
 9685TIP3    H253251   1.004   4.616  12.729
 9686TIP3   OH253252   0.341   4.738  12.585
 9686TIP3    H153253   0.278   4.763  12.518
 9686TIP3    H253254   0.359   4.646  12.569
 9687TIP3   OH253255   0.739   4.735  12.286
 9687TIP3    H153256   0.828   4.730  12.320
 9687TIP3    H253257   0.745   4.795  12.211
 9688TIP3   OH253258   1.401   4.545  12.960
 9688TIP3    H153259   1.368   4.635  12.958
 9688TIP3    H253260   1.367   4.508  13.041
 9689TIP3   OH253261   0.759   4.894  12.060
 9689TIP3    H153262   0.679   4.938  12.029
 9689TIP3    H253263   0.830   4.939  12.015
 9690TIP3   OH253264   1.068   4.715  12.869
 9690TIP3    H153265   1.015   4.791  12.893
 9690TIP3    H253266   1.156   4.736  12.900
 9691TIP3   OH253267   0.439   4.482  12.526
 9691TIP3    H153268   0.375   4.411  12.528
 9691TIP3    H253269   0.480   4.474  12.440
 9692TIP3   OH253270   0.947   5.353  12.274
 9692TIP3    H153271   0.889   5.311  12.211
 9692TIP3    H253272   0.888   5.401  12.332
 9693TIP3   OH253273   1.346   4.554  12.102
 9693TIP3    H153274   1.257   4.555  12.067
 9693TIP3    H253275   1.359   4.643  12.136
 9694TIP3   OH253276   1.416   4.795  12.224
 9694TIP3    H153277   1.499   4.767  12.262
 9694TIP3    H253278   1.435   4.878  12.181
 9695TIP3   OH253279   0.443   5.309  12.827
 9695TIP3    H153280   0.524   5.350  12.798
 9695TIP3    H253281   0.471   5.243  12.890
 9696TIP3   OH253282   1.170   5.519  12.217
 9696TIP3    H153283   1.138   5.609  12.221
 9696TIP3    H253284   1.093   5.465  12.235
 9697TIP3   OH253285   2.024   4.876  12.023
 9697TIP3    H153286   1.943   4.857  11.974
 9697TIP3    H253287   2.023   4.971  12.035
 9698TIP3   OH253288   1.880   5.849  12.271
 9698TIP3    H153289   1.811   5.788  12.297
 9698TIP3    H253290   1.924   5.805  12.198
 9699TIP3   OH253291   0.656   5.711  12.570
 9699TIP3    H153292   0.710   5.786  12.545
 9699TIP3    H253293   0.672   5.700  12.663
 9700TIP3   OH253294   0.283   5.285  11.960
 9700TIP3    H153295   0.361   5.230  11.961
 9700TIP3    H253296   0.279   5.321  12.049
 9701TIP3   OH253297   0.735   5.494  12.403
 9701TIP3    H153298   0.708   5.568  12.458
 9701TIP3    H253299   0.694   5.418  12.443
 9702TIP3   OH253300   0.740   5.962  12.465
 9702TIP3    H153301   0.653   6.001  12.472
 9702TIP3    H253302   0.795   6.013  12.524
 9703TIP3   OH253303   1.635   5.538  12.023
 9703TIP3    H153304   1.665   5.462  12.073
 9703TIP3    H253305   1.540   5.532  12.024
 9704TIP3   OH253306   2.006   6.053  12.021
 9704TIP3    H153307   2.016   6.097  11.937
 9704TIP3    H253308   1.944   6.108  12.070
 9705TIP3   OH253309   1.727   5.299  12.141
 9705TIP3    H153310   1.686   5.247  12.210
 9705TIP3    H253311   1.817   5.312  12.171
 9706TIP3   OH253312   0.933   5.613  11.912
 9706TIP3    H153313   0.919   5.527  11.873
 9706TIP3    H253314   0.881   5.612  11.993
 9707TIP3   OH253315   0.766   5.624  12.147
 9707TIP3    H153316   0.762   5.576  12.230
 9707TIP3    H253317   0.784   5.714  12.173
 9708TIP3   OH253318   0.341   5.394  12.215
 9708TIP3    H153319   0.288   5.467  12.245
 9708TIP3    H253320   0.414   5.435  12.169
 9709TIP3   OH253321   1.406   4.409  12.328
 9709TIP3    H153322   1.392   4.462  12.250
 9709TIP3    H253323   1.427   4.473  12.397
 9710TIP3   OH253324   1.090   5.789  12.223
 9710TIP3    H153325   0.998   5.813  12.225
 9710TIP3    H253326   1.130   5.853  12.164
 9711TIP3   OH253327   0.992   4.685  12.402
 9711TIP3    H153328   1.059   4.754  12.406
 9711TIP3    H253329   0.989   4.650  12.491
 9712TIP3   OH253330   1.155   4.299  12.359
 9712TIP3    H153331   1.157   4.274  12.451
 9712TIP3    H253332   1.241   4.337  12.343
 9713TIP3   OH253333   0.832   5.889  12.216
 9713TIP3    H153334   0.856   5.972  12.176
 9713TIP3    H253335   0.799   5.912  12.302
 9714TIP3   OH253336   0.701   4.497  12.145
 9714TIP3    H153337   0.690   4.582  12.189
 9714TIP3    H253338   0.783   4.462  12.180
 9715TIP3   OH253339   0.525   5.525  12.045
 9715TIP3    H153340   0.606   5.561  12.082
 9715TIP3    H253341   0.554   5.468  11.973
 9716TIP3   OH253342   0.294   4.874  11.999
 9716TIP3    H153343   0.378   4.919  12.003
 9716TIP3    H253344   0.244   4.921  11.932
 9717TIP3   OH253345   0.361   4.166  12.718
 9717TIP3    H153346   0.331   4.203  12.635
 9717TIP3    H253347   0.298   4.198  12.783
 9718TIP3   OH253348   0.223   5.899  12.323
 9718TIP3    H153349   0.164   5.955  12.373
 9718TIP3    H253350   0.267   5.959  12.262
 9719TIP3   OH253351   1.104   5.806  11.813
 9719TIP3    H153352   1.044   5.741  11.848
 9719TIP3    H253353   1.189   5.761  11.810
 9720TIP3   OH253354   1.612   5.797  11.907
 9720TIP3    H153355   1.634   5.716  11.953
 9720TIP3    H253356   1.685   5.811  11.847
 9721TIP3   OH253357   0.613   5.360  11.841
 9721TIP3    H153358   0.596   5.273  11.877
 9721TIP3    H253359   0.708   5.362  11.828
 9722TIP3   OH253360   1.358   5.512  12.015
 9722TIP3    H153361   1.296   5.518  12.089
 9722TIP3    H253362   1.334   5.430  11.971
 9723TIP3   OH253363   0.781   5.221  12.096
 9723TIP3    H153364   0.693   5.189  12.076
 9723TIP3    H253365   0.839   5.161  12.050
 9724TIP3   OH253366   0.955   5.069  11.940
 9724TIP3    H153367   0.969   5.141  11.879
 9724TIP3    H253368   1.043   5.040  11.964
 9725TIP3   OH253369   2.006   5.308  11.818
 9725TIP3    H153370   1.966   5.271  11.740
 9725TIP3    H253371   1.954   5.387  11.836
 9726TIP3   OH253372   0.948   6.120  12.100
 9726TIP3    H153373   1.022   6.076  12.058
 9726TIP3    H253374   0.929   6.194  12.042
 9727TIP3   OH253375   0.279   5.642  11.992
 9727TIP3    H153376   0.369   5.613  12.006
 9727TIP3    H253377   0.254   5.602  11.909
 9728TIP3   OH253378   0.128   6.161  12.437
 9728TIP3    H153379   0.084   6.242  12.461
 9728TIP3    H253380   0.120   6.105  12.514
 9729TIP3   OH253381   0.189   5.960  12.623
 9729TIP3    H153382   0.271   5.945  12.576
 9729TIP3    H253383   0.216   5.988  12.710
 9730TIP3   OH253384   1.990   5.317  12.246
 9730TIP3    H153385   2.049   5.391  12.249
 9730TIP3    H253386   2.006   5.270  12.328
 9731TIP3   OH253387   2.029   5.160  12.475
 9731TIP3    H153388   1.947   5.114  12.490
 9731TIP3    H253389   2.069   5.168  12.561
 9732TIP3   OH253390   2.060   5.151  12.038
 9732TIP3    H153391   2.040   5.201  11.959
 9732TIP3    H253392   2.028   5.206  12.110
 9733TIP3   OH253393   1.810   4.799  11.873
 9733TIP3    H153394   1.798   4.815  11.780
 9733TIP3    H253395   1.785   4.708  11.886
 9734TIP3   OH253396   1.652   4.915  12.537
 9734TIP3    H153397   1.680   4.851  12.471
 9734TIP3    H253398   1.559   4.897  12.550
 9735TIP3   OH253399   0.168   5.271  12.852
 9735TIP3    H153400   0.168   5.219  12.772
 9735TIP3    H253401   0.259   5.297  12.863
 9736TIP3   OH253402   1.752   4.529  11.874
 9736TIP3    H153403   1.799   4.479  11.940
 9736TIP3    H253404   1.661   4.500  11.880
 9737TIP3   OH253405   1.654   4.702  12.352
 9737TIP3    H153406   1.596   4.654  12.411
 9737TIP3    H253407   1.722   4.638  12.329
 9738TIP3   OH253408   1.811   4.464  12.344
 9738TIP3    H153409   1.856   4.463  12.429
 9738TIP3    H253410   1.758   4.385  12.344
 9739TIP3   OH253411   0.037   4.872  12.879
 9739TIP3    H153412   8.439   4.797  12.840
 9739TIP3    H253413   8.420   4.913  12.936
 9740TIP3   OH253414   1.942   4.384  12.012
 9740TIP3    H153415   1.972   4.333  11.937
 9740TIP3    H253416   2.009   4.451  12.024
 9741TIP3   OH253417   0.021   4.478  12.179
 9741TIP3    H153418   8.393   4.516  12.223
 9741TIP3    H253419   0.082   4.552  12.170
 9742TIP3   OH253420   1.702   6.144  12.514
 9742TIP3    H153421   1.791   6.119  12.488
 9742TIP3    H253422   1.671   6.201  12.444
 9743TIP3   OH253423   0.312   6.031  12.858
 9743TIP3    H153424   0.286   6.023  12.950
 9743TIP3    H253425   0.400   5.995  12.855
 9744TIP3   OH253426   0.573   5.942  12.815
 9744TIP3    H153427   0.609   5.855  12.831
 9744TIP3    H253428   0.640   6.002  12.848
 9745TIP3   OH253429   0.245   4.279  12.485
 9745TIP3    H153430   0.180   4.208  12.488
 9745TIP3    H253431   0.253   4.298  12.391
 9746TIP3   OH253432   0.252   4.317  12.210
 9746TIP3    H153433   0.316   4.351  12.148
 9746TIP3    H253434   0.174   4.370  12.195
 9747TIP3   OH253435   0.903   4.163  12.582
 9747TIP3    H153436   0.997   4.169  12.596
 9747TIP3    H253437   0.879   4.248  12.543
 9748TIP3   OH253438   1.181   4.207  12.617
 9748TIP3    H153439   1.231   4.277  12.660
 9748TIP3    H253440   1.225   4.126  12.642
 9749TIP3   OH253441   1.624   4.241  12.291
 9749TIP3    H153442   1.552   4.303  12.305
 9749TIP3    H253443   1.583   4.155  12.301
 9750TIP3   OH253444   0.275   6.151  12.197
 9750TIP3    H153445   0.208   6.153  12.265
 9750TIP3    H253446   0.306   6.241  12.191
 9751TIP3   OH253447   0.450   4.396  12.026
 9751TIP3    H153448   0.482   4.321  11.975
 9751TIP3    H253449   0.530   4.435  12.062
 9752TIP3   OH253450   0.965   4.462  12.241
 9752TIP3    H153451   1.023   4.398  12.281
 9752TIP3    H253452   0.973   4.540  12.297
 9753TIP3   OH253453   1.169   5.975  12.020
 9753TIP3    H153454   1.262   5.996  12.012
 9753TIP3    H253455   1.150   5.919  11.945
 9754TIP3   OH253456   1.937   6.100  12.369
 9754TIP3    H153457   1.924   6.010  12.337
 9754TIP3    H253458   1.921   6.155  12.292
 9755TIP3   OH253459   0.369   6.099  11.931
 9755TIP3    H153460   0.343   6.097  12.023
 9755TIP3    H253461   0.428   6.024  11.921
 9756TIP3   OH253462   3.416   5.265  12.466
 9756TIP3    H153463   3.386   5.356  12.457
 9756TIP3    H253464   3.346   5.212  12.428
 9757TIP3   OH253465   3.581   5.472  12.599
 9757TIP3    H153466   3.542   5.393  12.561
 9757TIP3    H253467   3.509   5.512  12.649
 9758TIP3   OH253468   2.261   4.988  12.516
 9758TIP3    H153469   2.249   5.036  12.598
 9758TIP3    H253470   2.200   5.028  12.455
 9759TIP3   OH253471   2.161   5.158  12.722
 9759TIP3    H153472   2.195   5.114  12.800
 9759TIP3    H253473   2.174   5.252  12.740
 9760TIP3   OH253474   3.419   5.952  12.676
 9760TIP3    H153475   3.486   5.940  12.608
 9760TIP3    H253476   3.347   5.895  12.648
 9761TIP3   OH253477   3.186   5.361  12.895
 9761TIP3    H153478   3.132   5.361  12.816
 9761TIP3    H253479   3.160   5.283  12.943
 9762TIP3   OH253480   2.638   4.692  12.772
 9762TIP3    H153481   2.657   4.735  12.688
 9762TIP3    H253482   2.591   4.612  12.748
 9763TIP3   OH253483   3.597   4.548  12.464
 9763TIP3    H153484   3.620   4.475  12.521
 9763TIP3    H253485   3.679   4.595  12.449
 9764TIP3   OH253486   2.860   5.018  12.575
 9764TIP3    H153487   2.934   4.982  12.527
 9764TIP3    H253488   2.790   4.953  12.564
 9765TIP3   OH253489   3.325   5.515  12.426
 9765TIP3    H153490   3.297   5.520  12.334
 9765TIP3    H253491   3.320   5.606  12.457
 9766TIP3   OH253492   2.185   5.520  12.240
 9766TIP3    H153493   2.197   5.560  12.154
 9766TIP3    H253494   2.185   5.593  12.301
 9767TIP3   OH253495   2.961   4.223  12.821
 9767TIP3    H153496   2.970   4.167  12.899
 9767TIP3    H253497   2.873   4.261  12.830
 9768TIP3   OH253498   3.574   5.892  12.438
 9768TIP3    H153499   3.620   5.810  12.422
 9768TIP3    H253500   3.643   5.954  12.463
 9769TIP3   OH253501   3.695   5.638  12.401
 9769TIP3    H153502   3.711   5.566  12.340
 9769TIP3    H253503   3.664   5.595  12.481
 9770TIP3   OH253504   3.210   5.180  12.287
 9770TIP3    H153505   3.138   5.243  12.282
 9770TIP3    H253506   3.258   5.193  12.205
 9771TIP3   OH253507   3.259   5.064  11.939
 9771TIP3    H153508   3.322   5.065  12.011
 9771TIP3    H253509   3.293   5.000  11.877
 9772TIP3   OH253510   3.627   5.169  12.313
 9772TIP3    H153511   3.564   5.199  12.378
 9772TIP3    H253512   3.675   5.099  12.356
 9773TIP3   OH253513   2.763   5.270  12.482
 9773TIP3    H153514   2.708   5.246  12.408
 9773TIP3    H253515   2.802   5.188  12.512
 9774TIP3   OH253516   2.849   5.109  12.847
 9774TIP3    H153517   2.874   5.078  12.760
 9774TIP3    H253518   2.931   5.119  12.894
 9775TIP3   OH253519   3.487   5.062  12.099
 9775TIP3    H153520   3.534   5.107  12.169
 9775TIP3    H253521   3.546   5.065  12.024
 9776TIP3   OH253522   3.312   5.790  12.455
 9776TIP3    H153523   3.398   5.828  12.434
 9776TIP3    H253524   3.258   5.808  12.378
 9777TIP3   OH253525   2.609   5.182  12.263
 9777TIP3    H153526   2.543   5.248  12.241
 9777TIP3    H253527   2.561   5.099  12.265
 9778TIP3   OH253528   4.054   5.773  12.008
 9778TIP3    H153529   4.064   5.867  12.016
 9778TIP3    H253530   4.130   5.744  11.957
 9779TIP3   OH253531   3.246   6.184  12.303
 9779TIP3    H153532   3.171   6.175  12.244
 9779TIP3    H253533   3.230   6.266  12.350
 9780TIP3   OH253534   2.558   5.999  12.572
 9780TIP3    H153535   2.588   5.938  12.639
 9780TIP3    H253536   2.489   5.952  12.525
 9781TIP3   OH253537   3.510   6.062  11.990
 9781TIP3    H153538   3.566   5.986  11.973
 9781TIP3    H253539   3.520   6.078  12.084
 9782TIP3   OH253540   3.505   6.105  12.264
 9782TIP3    H153541   3.413   6.127  12.278
 9782TIP3    H253542   3.521   6.030  12.321
 9783TIP3   OH253543   2.705   4.314  12.892
 9783TIP3    H153544   2.635   4.249  12.887
 9783TIP3    H253545   2.669   4.391  12.850
 9784TIP3   OH253546   3.661   5.064  11.879
 9784TIP3    H153547   3.660   5.089  11.787
 9784TIP3    H253548   3.728   5.119  11.919
 9785TIP3   OH253549   3.150   4.445  12.057
 9785TIP3    H153550   3.092   4.454  12.132
 9785TIP3    H253551   3.104   4.387  11.997
 9786TIP3   OH253552   2.676   4.812  12.522
 9786TIP3    H153553   2.581   4.801  12.518
 9786TIP3    H253554   2.707   4.785  12.436
 9787TIP3   OH253555   3.190   4.911  12.365
 9787TIP3    H153556   3.189   5.004  12.343
 9787TIP3    H253557   3.261   4.874  12.313
 9788TIP3   OH253558   2.868   4.539  11.884
 9788TIP3    H153559   2.837   4.521  11.973
 9788TIP3    H253560   2.812   4.609  11.853
 9789TIP3   OH253561   1.988   4.466  12.552
 9789TIP3    H153562   2.016   4.464  12.644
 9789TIP3    H253563   2.067   4.445  12.503
 9790TIP3   OH253564   2.117   4.612  12.046
 9790TIP3    H153565   2.203   4.643  12.017
 9790TIP3    H253566   2.062   4.690  12.047
 9791TIP3   OH253567   3.028   4.629  12.697
 9791TIP3    H153568   2.939   4.596  12.705
 9791TIP3    H253569   3.084   4.552  12.706
 9792TIP3   OH253570   2.408   4.757  12.535
 9792TIP3    H153571   2.363   4.840  12.519
 9792TIP3    H253572   2.344   4.703  12.582
 9793TIP3   OH253573   2.789   4.747  12.278
 9793TIP3    H153574   2.875   4.733  12.316
 9793TIP3    H253575   2.805   4.795  12.197
 9794TIP3   OH253576   2.836   4.870  12.037
 9794TIP3    H153577   2.792   4.829  11.962
 9794TIP3    H253578   2.889   4.939  11.998
 9795TIP3   OH253579   2.966   4.802  12.912
 9795TIP3    H153580   3.002   4.752  12.839
 9795TIP3    H253581   3.044   4.831  12.960
 9796TIP3   OH253582   2.526   4.461  12.653
 9796TIP3    H153583   2.494   4.372  12.640
 9796TIP3    H253584   2.510   4.505  12.570
 9797TIP3   OH253585   3.012   5.374  12.223
 9797TIP3    H153586   2.947   5.336  12.165
 9797TIP3    H253587   2.961   5.427  12.284
 9798TIP3   OH253588   3.391   4.560  12.103
 9798TIP3    H153589   3.302   4.531  12.084
 9798TIP3    H253590   3.380   4.650  12.134
 9799TIP3   OH253591   3.411   4.820  12.216
 9799TIP3    H153592   3.487   4.798  12.268
 9799TIP3    H253593   3.436   4.900  12.169
 9800TIP3   OH253594   2.736   5.351  12.751
 9800TIP3    H153595   2.733   5.329  12.658
 9800TIP3    H253596   2.758   5.269  12.795
 9801TIP3   OH253597   3.222   5.548  12.171
 9801TIP3    H153598   3.191   5.638  12.180
 9801TIP3    H253599   3.143   5.494  12.178
 9802TIP3   OH253600   3.904   5.826  12.249
 9802TIP3    H153601   3.848   5.756  12.284
 9802TIP3    H253602   3.945   5.787  12.172
 9803TIP3   OH253603   2.852   5.756  12.554
 9803TIP3    H153604   2.862   5.841  12.511
 9803TIP3    H253605   2.779   5.767  12.614
 9804TIP3   OH253606   2.333   5.120  12.059
 9804TIP3    H153607   2.364   5.201  12.098
 9804TIP3    H253608   2.238   5.128  12.057
 9805TIP3   OH253609   2.847   5.530  12.381
 9805TIP3    H153610   2.853   5.600  12.446
 9805TIP3    H253611   2.811   5.456  12.430
 9806TIP3   OH253612   2.817   6.026  12.468
 9806TIP3    H153613   2.726   6.030  12.497
 9806TIP3    H253614   2.855   6.109  12.496
 9807TIP3   OH253615   3.668   5.599  12.040
 9807TIP3    H153616   3.686   5.546  12.117
 9807TIP3    H253617   3.579   5.574  12.014
 9808TIP3   OH253618   4.095   6.058  12.032
 9808TIP3    H153619   4.124   6.124  11.969
 9808TIP3    H253620   4.025   6.100  12.081
 9809TIP3   OH253621   3.740   5.417  12.233
 9809TIP3    H153622   3.699   5.334  12.259
 9809TIP3    H253623   3.822   5.390  12.191
 9810TIP3   OH253624   2.981   5.642  11.912
 9810TIP3    H153625   2.957   5.563  11.863
 9810TIP3    H253626   2.918   5.645  11.984
 9811TIP3   OH253627   2.803   5.673  12.138
 9811TIP3    H153628   2.815   5.621  12.218
 9811TIP3    H253629   2.831   5.761  12.163
 9812TIP3   OH253630   2.410   5.360  12.180
 9812TIP3    H153631   2.333   5.401  12.219
 9812TIP3    H253632   2.457   5.433  12.138
 9813TIP3   OH253633   3.390   4.411  12.341
 9813TIP3    H153634   3.389   4.457  12.257
 9813TIP3    H253635   3.455   4.458  12.393
 9814TIP3   OH253636   3.163   5.818  12.218
 9814TIP3    H153637   3.072   5.844  12.228
 9814TIP3    H253638   3.198   5.880  12.153
 9815TIP3   OH253639   3.023   4.701  12.424
 9815TIP3    H153640   3.085   4.772  12.404
 9815TIP3    H253641   3.032   4.687  12.518
 9816TIP3   OH253642   3.156   4.315  12.454
 9816TIP3    H153643   3.166   4.350  12.542
 9816TIP3    H253644   3.238   4.336  12.410
 9817TIP3   OH253645   2.907   5.929  12.223
 9817TIP3    H153646   2.936   6.009  12.179
 9817TIP3    H253647   2.870   5.959  12.306
 9818TIP3   OH253648   2.758   4.505  12.133
 9818TIP3    H153649   2.739   4.586  12.180
 9818TIP3    H253650   2.828   4.464  12.184
 9819TIP3   OH253651   2.542   5.570  12.044
 9819TIP3    H153652   2.613   5.620  12.083
 9819TIP3    H253653   2.584   5.514  11.979
 9820TIP3   OH253654   2.292   4.841  11.986
 9820TIP3    H153655   2.332   4.913  12.035
 9820TIP3    H253656   2.198   4.852  11.998
 9821TIP3   OH253657   2.488   4.154  12.850
 9821TIP3    H153658   2.454   4.171  12.762
 9821TIP3    H253659   2.465   4.063  12.867
 9822TIP3   OH253660   2.189   5.762  12.374
 9822TIP3    H153661   2.148   5.792  12.455
 9822TIP3    H253662   2.196   5.841  12.320
 9823TIP3   OH253663   3.162   5.825  11.815
 9823TIP3    H153664   3.102   5.759  11.850
 9823TIP3    H253665   3.246   5.778  11.806
 9824TIP3   OH253666   3.658   5.844  11.911
 9824TIP3    H153667   3.679   5.766  11.963
 9824TIP3    H253668   3.734   5.856  11.855
 9825TIP3   OH253669   2.680   5.394  11.882
 9825TIP3    H153670   2.715   5.342  11.955
 9825TIP3    H253671   2.756   5.413  11.827
 9826TIP3   OH253672   3.413   5.524  11.976
 9826TIP3    H153673   3.348   5.528  12.046
 9826TIP3    H253674   3.390   5.445  11.926
 9827TIP3   OH253675   2.811   5.248  12.077
 9827TIP3    H153676   2.751   5.206  12.139
 9827TIP3    H253677   2.856   5.175  12.035
 9828TIP3   OH253678   2.977   5.081  11.919
 9828TIP3    H153679   2.969   5.116  11.830
 9828TIP3    H253680   3.071   5.076  11.935
 9829TIP3   OH253681   3.867   5.242  11.931
 9829TIP3    H153682   3.911   5.217  11.850
 9829TIP3    H253683   3.892   5.334  11.944
 9830TIP3   OH253684   3.040   6.155  12.111
 9830TIP3    H153685   3.108   6.102  12.070
 9830TIP3    H253686   3.019   6.222  12.046
 9831TIP3   OH253687   2.264   5.628  11.993
 9831TIP3    H153688   2.358   5.625  12.012
 9831TIP3    H253689   2.254   5.574  11.915
 9832TIP3   OH253690   2.090   6.122  12.597
 9832TIP3    H153691   2.048   6.124  12.511
 9832TIP3    H253692   2.086   6.030  12.624
 9833TIP3   OH253693   2.051   5.845  12.615
 9833TIP3    H153694   2.057   5.800  12.699
 9833TIP3    H253695   1.963   5.825  12.583
 9834TIP3   OH253696   4.191   5.134  12.169
 9834TIP3    H153697   4.113   5.182  12.142
 9834TIP3    H253698   4.216   5.174  12.252
 9835TIP3   OH253699   3.783   4.790  11.909
 9835TIP3    H153700   3.752   4.879  11.924
 9835TIP3    H253701   3.812   4.790  11.817
 9836TIP3   OH253702   3.772   4.957  12.429
 9836TIP3    H153703   3.783   4.863  12.417
 9836TIP3    H253704   3.858   4.988  12.457
 9837TIP3   OH253705   3.810   4.516  11.965
 9837TIP3    H153706   3.815   4.612  11.956
 9837TIP3    H253707   3.723   4.494  11.932
 9838TIP3   OH253708   3.836   4.684  12.386
 9838TIP3    H153709   3.910   4.640  12.427
 9838TIP3    H253710   3.844   4.663  12.293
 9839TIP3   OH253711   2.102   4.459  12.808
 9839TIP3    H153712   2.179   4.404  12.823
 9839TIP3    H253713   2.038   4.429  12.873
 9840TIP3   OH253714   4.038   4.356  12.019
 9840TIP3    H153715   4.055   4.318  11.932
 9840TIP3    H253716   3.973   4.425  12.002
 9841TIP3   OH253717   2.095   4.452  12.271
 9841TIP3    H153718   2.001   4.449  12.290
 9841TIP3    H253719   2.105   4.521  12.206
 9842TIP3   OH253720   3.744   6.101  12.495
 9842TIP3    H153721   3.835   6.085  12.470
 9842TIP3    H253722   3.724   6.188  12.458
 9843TIP3   OH253723   3.163   4.391  12.722
 9843TIP3    H153724   3.105   4.328  12.766
 9843TIP3    H253725   3.250   4.353  12.730
 9844TIP3   OH253726   2.425   4.204  12.581
 9844TIP3    H153727   2.342   4.185  12.538
 9844TIP3    H253728   2.481   4.129  12.559
 9845TIP3   OH253729   2.264   4.306  12.096
 9845TIP3    H153730   2.315   4.379  12.063
 9845TIP3    H253731   2.210   4.344  12.166
 9846TIP3   OH253732   2.977   4.119  12.553
 9846TIP3    H153733   3.033   4.185  12.511
 9846TIP3    H253734   2.970   4.147  12.644
 9847TIP3   OH253735   2.209   5.990  12.205
 9847TIP3    H153736   2.132   6.006  12.150
 9847TIP3    H253737   2.251   6.075  12.213
 9848TIP3   OH253738   2.498   4.424  11.913
 9848TIP3    H153739   2.522   4.335  11.888
 9848TIP3    H253740   2.567   4.451  11.974
 9849TIP3   OH253741   2.992   4.462  12.284
 9849TIP3    H153742   3.036   4.398  12.340
 9849TIP3    H253743   3.001   4.545  12.331
 9850TIP3   OH253744   3.239   5.996  12.015
 9850TIP3    H153745   3.329   6.024  11.999
 9850TIP3    H253746   3.217   5.943  11.939
 9851TIP3   OH253747   3.981   6.067  12.354
 9851TIP3    H153748   3.962   5.979  12.321
 9851TIP3    H253749   3.956   6.125  12.282
 9852TIP3   OH253750   2.329   6.098  11.931
 9852TIP3    H153751   2.316   6.153  12.009
 9852TIP3    H253752   2.336   6.009  11.966
 9853TIP3   OH253753   5.690   5.487  12.824
 9853TIP3    H153754   5.683   5.395  12.851
 9853TIP3    H253755   5.710   5.534  12.905
 9854TIP3   OH253756   5.564   6.038  12.946
 9854TIP3    H153757   5.495   5.990  12.900
 9854TIP3    H253758   5.591   5.979  13.016
 9855TIP3   OH253759   5.203   5.301  12.936
 9855TIP3    H153760   5.276   5.243  12.914
 9855TIP3    H253761   5.244   5.374  12.983
 9856TIP3   OH253762   4.785   4.604  12.564
 9856TIP3    H153763   4.846   4.670  12.532
 9856TIP3    H253764   4.752   4.561  12.485
 9857TIP3   OH253765   5.757   4.617  12.391
 9857TIP3    H153766   5.807   4.544  12.428
 9857TIP3    H253767   5.815   4.693  12.401
 9858TIP3   OH253768   5.544   5.591  12.343
 9858TIP3    H153769   5.473   5.563  12.285
 9858TIP3    H253770   5.543   5.687  12.338
 9859TIP3   OH253771   4.537   4.607  12.688
 9859TIP3    H153772   4.551   4.663  12.764
 9859TIP3    H253773   4.624   4.597  12.650
 9860TIP3   OH253774   5.597   5.917  12.630
 9860TIP3    H153775   5.601   5.822  12.626
 9860TIP3    H253776   5.559   5.944  12.546
 9861TIP3   OH253777   5.621   5.650  12.610
 9861TIP3    H153778   5.603   5.600  12.531
 9861TIP3    H253779   5.640   5.583  12.676
 9862TIP3   OH253780   5.624   5.092  12.490
 9862TIP3    H153781   5.588   5.097  12.578
 9862TIP3    H253782   5.719   5.085  12.503
 9863TIP3   OH253783   4.770   5.267  12.404
 9863TIP3    H153784   4.682   5.235  12.383
 9863TIP3    H253785   4.785   5.237  12.493
 9864TIP3   OH253786   5.448   5.863  12.384
 9864TIP3    H153787   5.404   5.818  12.456
 9864TIP3    H253788   5.383   5.867  12.314
 9865TIP3   OH253789   6.002   4.137  12.165
 9865TIP3    H153790   5.916   4.168  12.191
 9865TIP3    H253791   6.051   4.216  12.142
 9866TIP3   OH253792   6.158   5.771  12.028
 9866TIP3    H153793   6.174   5.865  12.025
 9866TIP3    H253794   6.245   5.731  12.029
 9867TIP3   OH253795   5.309   6.200  12.267
 9867TIP3    H153796   5.237   6.185  12.206
 9867TIP3    H253797   5.280   6.272  12.322
 9868TIP3   OH253798   4.579   6.079  12.522
 9868TIP3    H153799   4.599   6.026  12.599
 9868TIP3    H253800   4.537   6.019  12.461
 9869TIP3   OH253801   5.586   6.062  11.964
 9869TIP3    H153802   5.633   5.982  11.941
 9869TIP3    H253803   5.594   6.069  12.059
 9870TIP3   OH253804   5.558   6.087  12.244
 9870TIP3    H153805   5.474   6.133  12.248
 9870TIP3    H253806   5.543   6.006  12.294
 9871TIP3   OH253807   5.666   5.055  11.837
 9871TIP3    H153808   5.702   5.077  11.752
 9871TIP3    H253809   5.741   5.052  11.896
 9872TIP3   OH253810   5.245   4.610  12.067
 9872TIP3    H153811   5.177   4.571  12.122
 9872TIP3    H253812   5.213   4.601  11.978
 9873TIP3   OH253813   4.917   4.557  11.887
 9873TIP3    H153814   4.886   4.551  11.977
 9873TIP3    H253815   4.931   4.650  11.873
 9874TIP3   OH253816   4.051   4.530  12.465
 9874TIP3    H153817   4.128   4.520  12.520
 9874TIP3    H253818   3.999   4.452  12.480
 9875TIP3   OH253819   4.979   4.521  12.748
 9875TIP3    H153820   4.905   4.537  12.689
 9875TIP3    H253821   5.042   4.590  12.726
 9876TIP3   OH253822   4.826   4.779  12.277
 9876TIP3    H153823   4.883   4.789  12.353
 9876TIP3    H253824   4.843   4.858  12.225
 9877TIP3   OH253825   4.872   4.981  12.085
 9877TIP3    H153826   4.788   4.987  12.040
 9877TIP3    H253827   4.933   4.950  12.018
 9878TIP3   OH253828   4.662   4.450  12.360
 9878TIP3    H153829   4.649   4.357  12.377
 9878TIP3    H253830   4.717   4.454  12.282
 9879TIP3   OH253831   5.051   5.488  12.184
 9879TIP3    H153832   5.037   5.394  12.174
 9879TIP3    H253833   4.993   5.514  12.256
 9880TIP3   OH253834   5.515   4.582  12.041
 9880TIP3    H153835   5.420   4.586  12.053
 9880TIP3    H253836   5.537   4.666  12.000
 9881TIP3   OH253837   5.319   5.579  12.164
 9881TIP3    H153838   5.300   5.673  12.166
 9881TIP3    H253839   5.233   5.537  12.169
 9882TIP3   OH253840   6.088   4.917  12.174
 9882TIP3    H153841   6.060   4.874  12.093
 9882TIP3    H253842   6.122   5.001  12.145
 9883TIP3   OH253843   6.001   5.786  12.260
 9883TIP3    H153844   5.951   5.705  12.265
 9883TIP3    H253845   6.053   5.777  12.180
 9884TIP3   OH253846   4.720   5.776  12.454
 9884TIP3    H153847   4.780   5.849  12.435
 9884TIP3    H253848   4.639   5.800  12.409
 9885TIP3   OH253849   4.461   5.095  12.114
 9885TIP3    H153850   4.500   5.127  12.195
 9885TIP3    H253851   4.367   5.105  12.128
 9886TIP3   OH253852   4.859   5.540  12.369
 9886TIP3    H153853   4.806   5.609  12.408
 9886TIP3    H253854   4.812   5.459  12.390
 9887TIP3   OH253855   4.836   6.028  12.409
 9887TIP3    H153856   4.752   6.064  12.437
 9887TIP3    H253857   4.900   6.092  12.440
 9888TIP3   OH253858   5.767   5.603  12.000
 9888TIP3    H153859   5.799   5.579  12.087
 9888TIP3    H253860   5.681   5.562  11.994
 9889TIP3   OH253861   6.171   6.054  12.033
 9889TIP3    H153862   6.172   6.106  11.953
 9889TIP3    H253863   6.098   6.090  12.084
 9890TIP3   OH253864   5.881   5.531  12.243
 9890TIP3    H153865   5.820   5.492  12.306
 9890TIP3    H253866   5.959   5.475  12.249
 9891TIP3   OH253867   5.081   5.647  11.812
 9891TIP3    H153868   5.038   5.566  11.785
 9891TIP3    H253869   5.035   5.673  11.891
 9892TIP3   OH253870   4.946   5.719  12.041
 9892TIP3    H153871   4.972   5.642  12.092
 9892TIP3    H253872   4.960   5.793  12.100
 9893TIP3   OH253873   5.569   4.448  12.276
 9893TIP3    H153874   5.553   4.491  12.192
 9893TIP3    H253875   5.624   4.510  12.324
 9894TIP3   OH253876   5.259   5.851  12.186
 9894TIP3    H153877   5.167   5.872  12.204
 9894TIP3    H253878   5.282   5.908  12.112
 9895TIP3   OH253879   5.302   4.361  12.341
 9895TIP3    H153880   5.301   4.324  12.429
 9895TIP3    H253881   5.393   4.388  12.327
 9896TIP3   OH253882   4.997   5.942  12.199
 9896TIP3    H153883   5.020   6.026  12.159
 9896TIP3    H253884   4.938   5.965  12.271
 9897TIP3   OH253885   4.837   4.537  12.152
 9897TIP3    H153886   4.822   4.624  12.190
 9897TIP3    H253887   4.921   4.509  12.188
 9898TIP3   OH253888   4.533   5.662  11.868
 9898TIP3    H153889   4.599   5.729  11.888
 9898TIP3    H253890   4.580   5.579  11.876
 9899TIP3   OH253891   4.483   5.890  12.340
 9899TIP3    H153892   4.412   5.826  12.351
 9899TIP3    H253893   4.458   5.941  12.263
 9900TIP3   OH253894   5.273   5.833  11.769
 9900TIP3    H153895   5.205   5.768  11.783
 9900TIP3    H253896   5.353   5.783  11.760
 9901TIP3   OH253897   5.715   5.838  11.869
 9901TIP3    H153898   5.748   5.763  11.918
 9901TIP3    H253899   5.784   5.858  11.806
 9902TIP3   OH253900   4.706   5.442  11.865
 9902TIP3    H153901   4.724   5.392  11.945
 9902TIP3    H253902   4.789   5.442  11.817
 9903TIP3   OH253903   5.505   5.506  11.964
 9903TIP3    H153904   5.440   5.529  12.031
 9903TIP3    H253905   5.490   5.413  11.947
 9904TIP3   OH253906   4.966   5.215  12.209
 9904TIP3    H153907   4.901   5.238  12.276
 9904TIP3    H253908   4.928   5.141  12.163
 9905TIP3   OH253909   6.118   5.313  11.886
 9905TIP3    H153910   6.079   5.268  11.810
 9905TIP3    H253911   6.075   5.398  11.887
 9906TIP3   OH253912   5.110   6.166  12.075
 9906TIP3    H153913   5.177   6.117  12.026
 9906TIP3    H253914   5.086   6.238  12.017
 9907TIP3   OH253915   4.258   5.689  11.832
 9907TIP3    H153916   4.349   5.696  11.861
 9907TIP3    H253917   4.247   5.598  11.807
 9908TIP3   OH253918   4.177   6.186  12.506
 9908TIP3    H153919   4.116   6.142  12.447
 9908TIP3    H253920   4.188   6.125  12.579
 9909TIP3   OH253921   4.201   5.984  12.689
 9909TIP3    H153922   4.163   5.896  12.682
 9909TIP3    H253923   4.280   5.972  12.742
 9910TIP3   OH253924   6.109   5.375  12.278
 9910TIP3    H153925   6.197   5.413  12.272
 9910TIP3    H253926   6.115   5.313  12.351
 9911TIP3   OH253927   6.126   5.183  12.471
 9911TIP3    H153928   6.046   5.153  12.515
 9911TIP3    H253929   6.190   5.190  12.542
 9912TIP3   OH253930   6.194   5.166  12.103
 9912TIP3    H153931   6.170   5.208  12.020
 9912TIP3    H253932   6.164   5.227  12.171
 9913TIP3   OH253933   6.005   4.802  11.934
 9913TIP3    H153934   5.982   4.818  11.843
 9913TIP3    H253935   6.003   4.707  11.944
 9914TIP3   OH253936   5.894   5.055  12.574
 9914TIP3    H153937   5.910   4.966  12.542
 9914TIP3    H253938   5.926   5.054  12.664
 9915TIP3   OH253939   5.983   4.523  11.956
 9915TIP3    H153940   6.042   4.466  12.006
 9915TIP3    H253941   5.897   4.509  11.995
 9916TIP3   OH253942   5.962   4.819  12.413
 9916TIP3    H153943   6.049   4.803  12.450
 9916TIP3    H253944   5.980   4.855  12.326
 9917TIP3   OH253945   5.884   4.377  12.457
 9917TIP3    H153946   5.979   4.371  12.445
 9917TIP3    H253947   5.848   4.327  12.383
 9918TIP3   OH253948   4.285   4.504  12.623
 9918TIP3    H153949   4.253   4.463  12.703
 9918TIP3    H253950   4.373   4.535  12.645
 9919TIP3   OH253951   6.162   4.339  12.062
 9919TIP3    H153952   6.194   4.299  11.981
 9919TIP3    H253953   6.240   4.374  12.104
 9920TIP3   OH253954   5.982   6.090  12.654
 9920TIP3    H153955   5.995   6.060  12.564
 9920TIP3    H253956   6.031   6.172  12.659
 9921TIP3   OH253957   4.414   5.906  12.838
 9921TIP3    H153958   4.410   5.831  12.898
 9921TIP3    H253959   4.502   5.901  12.800
 9922TIP3   OH253960   4.660   5.891  12.709
 9922TIP3    H153961   4.688   5.830  12.642
 9922TIP3    H253962   4.736   5.900  12.768
 9923TIP3   OH253963   5.289   4.233  12.585
 9923TIP3    H153964   5.275   4.290  12.660
 9923TIP3    H253965   5.373   4.190  12.603
 9924TIP3   OH253966   5.796   4.216  12.665
 9924TIP3    H153967   5.825   4.287  12.608
 9924TIP3    H253968   5.702   4.207  12.647
 9925TIP3   OH253969   6.149   4.332  12.409
 9925TIP3    H153970   6.187   4.244  12.410
 9925TIP3    H253971   6.221   4.389  12.383
 9926TIP3   OH253972   4.547   4.190  12.449
 9926TIP3    H153973   4.509   4.242  12.521
 9926TIP3    H253974   4.578   4.110  12.491
 9927TIP3   OH253975   4.412   4.124  12.213
 9927TIP3    H153976   4.477   4.156  12.150
 9927TIP3    H253977   4.452   4.143  12.298
 9928TIP3   OH253978   5.032   4.095  12.573
 9928TIP3    H153979   5.121   4.125  12.554
 9928TIP3    H253980   5.005   4.147  12.649
 9929TIP3   OH253981   5.534   4.105  12.632
 9929TIP3    H153982   5.554   4.039  12.566
 9929TIP3    H253983   5.536   4.058  12.715
 9930TIP3   OH253984   5.755   4.239  12.251
 9930TIP3    H153985   5.687   4.305  12.253
 9930TIP3    H253986   5.708   4.155  12.254
 9931TIP3   OH253987   4.374   6.033  12.122
 9931TIP3    H153988   4.280   6.021  12.106
 9931TIP3    H253989   4.387   6.127  12.119
 9932TIP3   OH253990   4.563   4.483  11.890
 9932TIP3    H153991   4.583   4.394  11.861
 9932TIP3    H253992   4.639   4.509  11.942
 9933TIP3   OH253993   5.082   4.516  12.277
 9933TIP3    H153994   5.152   4.453  12.296
 9933TIP3    H253995   5.076   4.570  12.355
 9934TIP3   OH253996   5.312   6.015  11.969
 9934TIP3    H153997   5.404   6.043  11.960
 9934TIP3    H253998   5.298   5.955  11.895
 9935TIP3   OH253999   6.049   6.025  12.391
 9935TIP3    H154000   6.031   5.938  12.355
 9935TIP3    H254001   6.024   6.085  12.321
 9936TIP3   OH254002   4.538   6.023  11.889
 9936TIP3    H154003   4.498   6.017  11.976
 9936TIP3    H254004   4.607   5.957  11.890
 9937TIP3   OH254005   7.617   5.361  12.470
 9937TIP3    H154006   7.621   5.450  12.436
 9937TIP3    H254007   7.535   5.358  12.519
 9938TIP3   OH254008   7.824   5.482  12.801
 9938TIP3    H154009   7.777   5.489  12.718
 9938TIP3    H254010   7.816   5.569  12.841
 9939TIP3   OH254011   6.236   4.931  12.411
 9939TIP3    H154012   6.204   5.020  12.425
 9939TIP3    H254013   6.207   4.908  12.323
 9940TIP3   OH254014   6.333   5.175  12.651
 9940TIP3    H154015   6.298   5.173  12.740
 9940TIP3    H254016   6.378   5.091  12.641
 9941TIP3   OH254017   7.543   6.178  12.794
 9941TIP3    H154018   7.556   6.087  12.819
 9941TIP3    H254019   7.449   6.193  12.804
 9942TIP3   OH254020   7.829   4.790  12.942
 9942TIP3    H154021   7.903   4.816  12.996
 9942TIP3    H254022   7.825   4.694  12.951
 9943TIP3   OH254023   6.420   4.913  12.618
 9943TIP3    H154024   6.496   4.864  12.585
 9943TIP3    H254025   6.355   4.906  12.549
 9944TIP3   OH254026   7.591   5.619  12.370
 9944TIP3    H154027   7.527   5.595  12.304
 9944TIP3    H254028   7.562   5.705  12.403
 9945TIP3   OH254029   6.369   5.461  12.236
 9945TIP3    H154030   6.386   5.513  12.158
 9945TIP3    H254031   6.445   5.402  12.242
 9946TIP3   OH254032   7.064   4.160  12.687
 9946TIP3    H154033   7.139   4.179  12.744
 9946TIP3    H254034   6.997   4.222  12.715
 9947TIP3   OH254035   7.700   5.981  12.592
 9947TIP3    H154036   7.788   6.018  12.601
 9947TIP3    H254037   7.674   5.957  12.680
 9948TIP3   OH254038   7.871   5.649  12.332
 9948TIP3    H154039   7.885   5.560  12.299
 9948TIP3    H254040   7.778   5.653  12.351
 9949TIP3   OH254041   7.745   5.179  12.302
 9949TIP3    H154042   7.698   5.234  12.364
 9949TIP3    H254043   7.794   5.117  12.356
 9950TIP3   OH254044   6.912   5.642  12.778
 9950TIP3    H154045   6.903   5.688  12.695
 9950TIP3    H254046   6.924   5.550  12.753
 9951TIP3   OH254047   7.657   5.031  12.079
 9951TIP3    H154048   7.679   5.082  12.157
 9951TIP3    H254049   7.708   5.072  12.008
 9952TIP3   OH254050   7.500   5.870  12.439
 9952TIP3    H154051   7.563   5.904  12.502
 9952TIP3    H254052   7.453   5.947  12.408
 9953TIP3   OH254053   8.097   4.169  12.189
 9953TIP3    H154054   8.162   4.225  12.147
 9953TIP3    H254055   8.091   4.203  12.279
 9954TIP3   OH254056   8.185   5.799  12.021
 9954TIP3    H154057   8.156   5.887  11.996
 9954TIP3    H254058   8.280   5.808  12.030
 9955TIP3   OH254059   7.412   6.116  12.316
 9955TIP3    H154060   7.369   6.099  12.233
 9955TIP3    H254061   7.372   6.197  12.348
 9956TIP3   OH254062   6.648   5.912  12.567
 9956TIP3    H154063   6.727   5.858  12.560
 9956TIP3    H254064   6.593   5.884  12.494
 9957TIP3   OH254065   7.666   6.038  12.027
 9957TIP3    H154066   7.721   5.964  12.001
 9957TIP3    H254067   7.690   6.055  12.118
 9958TIP3   OH254068   7.687   6.098  12.313
 9958TIP3    H154069   7.592   6.109  12.313
 9958TIP3    H254070   7.705   6.042  12.388
 9959TIP3   OH254071   6.868   4.334  12.764
 9959TIP3    H154072   6.787   4.282  12.770
 9959TIP3    H254073   6.837   4.422  12.743
 9960TIP3   OH254074   7.784   5.156  11.867
 9960TIP3    H154075   7.796   5.136  11.774
 9960TIP3    H254076   7.867   5.196  11.893
 9961TIP3   OH254077   7.288   4.595  11.987
 9961TIP3    H154078   7.212   4.538  11.990
 9961TIP3    H254079   7.268   4.660  11.919
 9962TIP3   OH254080   7.008   4.519  11.950
 9962TIP3    H154081   6.968   4.520  12.037
 9962TIP3    H254082   6.935   4.532  11.890
 9963TIP3   OH254083   7.261   4.688  12.640
 9963TIP3    H154084   7.197   4.618  12.647
 9963TIP3    H254085   7.340   4.646  12.605
 9964TIP3   OH254086   6.854   4.798  12.063
 9964TIP3    H154087   6.766   4.824  12.036
 9964TIP3    H254088   6.912   4.861  12.021
 9965TIP3   OH254089   7.266   4.881  12.841
 9965TIP3    H154090   7.253   4.823  12.766
 9965TIP3    H254091   7.339   4.842  12.889
 9966TIP3   OH254092   7.560   4.523  12.008
 9966TIP3    H154093   7.467   4.547  12.007
 9966TIP3    H254094   7.604   4.597  12.050
 9967TIP3   OH254095   7.672   4.756  12.118
 9967TIP3    H154096   7.745   4.744  12.179
 9967TIP3    H254097   7.666   4.851  12.106
 9968TIP3   OH254098   7.384   5.554  12.196
 9968TIP3    H154099   7.338   5.637  12.183
 9968TIP3    H254100   7.316   5.492  12.222
 9969TIP3   OH254101   8.150   4.843  12.178
 9969TIP3    H154102   8.142   4.806  12.090
 9969TIP3    H254103   8.133   4.937  12.165
 9970TIP3   OH254104   8.091   5.809  12.289
 9970TIP3    H154105   8.010   5.761  12.303
 9970TIP3    H254106   8.112   5.793  12.197
 9971TIP3   OH254107   6.887   5.767  12.533
 9971TIP3    H154108   6.936   5.847  12.516
 9971TIP3    H254109   6.907   5.711  12.457
 9972TIP3   OH254110   6.468   5.102  12.063
 9972TIP3    H154111   6.510   5.153  12.132
 9972TIP3    H254112   6.374   5.117  12.076
 9973TIP3   OH254113   6.994   6.016  12.480
 9973TIP3    H154114   6.924   6.068  12.519
 9973TIP3    H254115   7.075   6.055  12.514
 9974TIP3   OH254116   7.854   5.561  12.008
 9974TIP3    H154117   7.879   5.507  12.083
 9974TIP3    H254118   7.760   5.547  12.000
 9975TIP3   OH254119   8.133   6.068  11.974
 9975TIP3    H154120   8.136   6.128  11.900
 9975TIP3    H254121   8.110   6.123  12.049
 9976TIP3   OH254122   7.909   5.395  12.225
 9976TIP3    H154123   7.848   5.322  12.238
 9976TIP3    H254124   7.992   5.362  12.259
 9977TIP3   OH254125   7.123   5.674  11.825
 9977TIP3    H154126   7.092   5.588  11.797
 9977TIP3    H254127   7.056   5.705  11.886
 9978TIP3   OH254128   6.931   5.761  12.024
 9978TIP3    H154129   6.954   5.684  12.077
 9978TIP3    H254130   6.956   5.836  12.077
 9979TIP3   OH254131   6.568   5.256  12.282
 9979TIP3    H154132   6.527   5.226  12.362
 9979TIP3    H254133   6.661   5.261  12.303
 9980TIP3   OH254134   7.252   5.792  12.161
 9980TIP3    H154135   7.173   5.839  12.186
 9980TIP3    H254136   7.311   5.860  12.128
 9981TIP3   OH254137   7.028   5.951  12.207
 9981TIP3    H154138   7.062   6.031  12.168
 9981TIP3    H254139   7.012   5.974  12.299
 9982TIP3   OH254140   6.856   4.549  12.177
 9982TIP3    H154141   6.842   4.641  12.151
 9982TIP3    H254142   6.776   4.525  12.223
 9983TIP3   OH254143   7.896   4.945  12.724
 9983TIP3    H154144   7.853   4.885  12.785
 9983TIP3    H254145   7.968   4.982  12.775
 9984TIP3   OH254146   6.668   5.644  11.968
 9984TIP3    H154147   6.746   5.697  11.986
 9984TIP3    H254148   6.700   5.571  11.915
 9985TIP3   OH254149   6.600   4.864  11.987
 9985TIP3    H154150   6.543   4.930  12.026
 9985TIP3    H254151   6.556   4.781  12.003
 9986TIP3   OH254152   6.488   5.846  12.355
 9986TIP3    H154153   6.458   5.918  12.299
 9986TIP3    H254154   6.450   5.768  12.316
 9987TIP3   OH254155   7.336   5.848  11.824
 9987TIP3    H154156   7.267   5.782  11.829
 9987TIP3    H254157   7.417   5.798  11.813
 9988TIP3   OH254158   7.814   5.826  11.917
 9988TIP3    H154159   7.844   5.745  11.958
 9988TIP3    H254160   7.877   5.841  11.846
 9989TIP3   OH254161   6.760   5.434  11.810
 9989TIP3    H154162   6.747   5.346  11.843
 9989TIP3    H254163   6.851   5.436  11.781
 9990TIP3   OH254164   7.578   5.521  11.998
 9990TIP3    H154165   7.515   5.529  12.070
 9990TIP3    H254166   7.559   5.437  11.958
 9991TIP3   OH254167   7.033   4.959  11.926
 9991TIP3    H154168   7.064   4.886  11.872
 9991TIP3    H254169   7.039   5.035  11.869
 9992TIP3   OH254170   8.040   5.265  11.901
 9992TIP3    H154171   8.068   5.233  11.815
 9992TIP3    H254172   8.073   5.355  11.905
 9993TIP3   OH254173   7.160   6.165  12.093
 9993TIP3    H154174   7.239   6.122  12.059
 9993TIP3    H254175   7.150   6.242  12.038
 9994TIP3   OH254176   6.398   5.629  12.004
 9994TIP3    H154177   6.492   5.642  11.996
 9994TIP3    H254178   6.374   5.577  11.927
 9995TIP3   OH254179   6.302   6.123  12.465
 9995TIP3    H154180   6.217   6.080  12.454
 9995TIP3    H254181   6.347   6.108  12.381
 9996TIP3   OH254182   8.143   5.285  12.330
 9996TIP3    H154183   8.224   5.335  12.342
 9996TIP3    H254184   8.147   5.217  12.397
 9997TIP3   OH254185   8.142   5.072  12.511
 9997TIP3    H154186   8.055   5.046  12.483
 9997TIP3    H254187   8.144   5.053  12.605
 9998TIP3   OH254188   8.199   5.427  13.053
 9998TIP3    H154189   8.267   5.359  13.055
 9998TIP3    H254190   8.198   5.463  13.142
 9999TIP3   OH254191   8.098   5.105  12.124
 9999TIP3    H154192   8.075   5.153  12.044
 9999TIP3    H254193   8.111   5.173  12.190
10000TIP3   OH254194   8.100   4.739  11.933
10000TIP3    H154195   8.062   4.767  11.849
10000TIP3    H254196   8.090   4.644  11.932
10001TIP3   OH254197   7.883   4.989  12.453
10001TIP3    H154198   7.876   4.906  12.407
10001TIP3    H254199   7.872   4.966  12.545
10002TIP3   OH254200   8.076   4.464  11.937
10002TIP3    H154201   8.140   4.420  11.992
10002TIP3    H254202   7.992   4.428  11.965
10003TIP3   OH254203   7.903   4.758  12.288
10003TIP3    H154204   7.927   4.669  12.314
10003TIP3    H254205   7.982   4.793  12.247
10004TIP3   OH254206   7.967   4.494  12.357
10004TIP3    H154207   8.016   4.419  12.391
10004TIP3    H254208   7.877   4.478  12.387
10005TIP3   OH254209   8.278   4.321  12.056
10005TIP3    H154210   8.315   4.284  11.976
10005TIP3    H254211   8.351   4.369  12.096
10006TIP3   OH254212   7.949   6.114  12.575
10006TIP3    H154213   8.026   6.082  12.529
10006TIP3    H254214   7.983   6.154  12.655
10007TIP3   OH254215   6.892   5.893  12.923
10007TIP3    H154216   6.896   5.802  12.893
10007TIP3    H254217   6.894   5.887  13.018
10008TIP3   OH254218   8.118   4.278  12.447
10008TIP3    H154219   8.155   4.194  12.473
10008TIP3    H254220   8.176   4.344  12.485
10009TIP3   OH254221   7.139   4.186  12.424
10009TIP3    H154222   7.220   4.236  12.430
10009TIP3    H254223   7.108   4.179  12.515
10010TIP3   OH254224   6.393   6.059  12.200
10010TIP3    H154225   6.316   6.053  12.144
10010TIP3    H254226   6.419   6.151  12.195
10011TIP3   OH254227   6.587   4.573  12.017
10011TIP3    H154228   6.680   4.560  11.998
10011TIP3    H254229   6.577   4.546  12.108
10012TIP3   OH254230   7.387   6.015  12.037
10012TIP3    H154231   7.482   6.028  12.035
10012TIP3    H254232   7.368   5.964  11.958
10013TIP3   OH254233   8.144   6.068  12.378
10013TIP3    H154234   8.128   5.979  12.346
10013TIP3    H254235   8.136   6.122  12.299
10014TIP3   OH254236   6.532   6.025  11.901
10014TIP3    H154237   6.515   5.999  11.992
10014TIP3    H254238   6.610   5.976  11.876
10015TIP3   OH254239   8.345   4.923  12.375
10015TIP3    H154240   8.285   4.978  12.426
10015TIP3    H254241   8.293   4.892  12.301
10016TIP3   OH254242   8.210   5.740  12.532
10016TIP3    H154243   8.186   5.761  12.442
10016TIP3    H254244   8.128   5.719  12.575
10017TIP3   OH254245   8.295   4.461  12.539
10017TIP3    H154246   8.375   4.456  12.592
10017TIP3    H254247   8.314   4.528  12.473
10018TIP3   OH254248   8.288   6.169  12.590
10018TIP3    H154249   8.249   6.136  12.509
10018TIP3    H254250   8.313   6.090  12.638
10019TIP3   OH254251   8.367   5.919  12.671
10019TIP3    H154252   8.322   5.854  12.617
10019TIP3    H254253   0.009   5.918  12.639
10020TIP3   OH254254   8.398   5.242  13.029
10020TIP3    H154255   8.373   5.150  13.040
10020TIP3    H254256   0.028   5.239  12.974
10021TIP3   OH254257   8.238   4.595  12.286
10021TIP3    H154258   8.152   4.560  12.309
10021TIP3    H254259   8.219   4.683  12.252
10022TIP3   OH254260   1.299   7.256  12.478
10022TIP3    H154261   1.301   7.351  12.490
10022TIP3    H254262   1.238   7.243  12.405
10023TIP3   OH254263   1.654   7.569  12.721
10023TIP3    H154264   1.619   7.489  12.760
10023TIP3    H254265   1.734   7.587  12.771
10024TIP3   OH254266   0.134   7.001  12.431
10024TIP3    H154267   0.155   7.052  12.509
10024TIP3    H254268   0.039   7.009  12.422
10025TIP3   OH254269   0.182   7.127  12.678
10025TIP3    H154270   0.234   7.052  12.706
10025TIP3    H254271   0.208   7.198  12.737
10026TIP3   OH254272   1.380   7.003  12.861
10026TIP3    H154273   1.343   6.978  12.776
10026TIP3    H254274   1.320   7.069  12.895
10027TIP3   OH254275   0.593   6.715  12.584
10027TIP3    H154276   0.518   6.766  12.554
10027TIP3    H254277   0.583   6.630  12.541
10028TIP3   OH254278   1.523   6.740  12.433
10028TIP3    H154279   1.519   6.708  12.523
10028TIP3    H254280   1.615   6.763  12.421
10029TIP3   OH254281   0.289   6.883  12.750
10029TIP3    H154282   0.343   6.819  12.797
10029TIP3    H254283   0.292   6.854  12.659
10030TIP3   OH254284   1.307   7.527  12.439
10030TIP3    H154285   1.264   7.574  12.368
10030TIP3    H254286   1.390   7.572  12.452
10031TIP3   OH254287   1.553   6.628  12.685
10031TIP3    H154288   1.526   6.632  12.777
10031TIP3    H254289   1.592   6.541  12.675
10032TIP3   OH254290   0.442   6.668  12.823
10032TIP3    H154291   0.477   6.617  12.896
10032TIP3    H254292   0.515   6.673  12.760
10033TIP3   OH254293   0.275   7.618  12.145
10033TIP3    H154294   0.187   7.582  12.157
10033TIP3    H254295   0.281   7.690  12.207
10034TIP3   OH254296   1.558   7.635  12.469
10034TIP3    H154297   1.614   7.587  12.408
10034TIP3    H254298   1.594   7.615  12.555
10035TIP3   OH254299   1.136   7.239  12.255
10035TIP3    H154300   1.075   7.312  12.262
10035TIP3    H254301   1.185   7.257  12.175
10036TIP3   OH254302   1.214   7.071  11.970
10036TIP3    H154303   1.276   7.067  12.043
10036TIP3    H254304   1.254   7.017  11.902
10037TIP3   OH254305   1.549   7.233  12.358
10037TIP3    H154306   1.464   7.248  12.400
10037TIP3    H254307   1.601   7.189  12.426
10038TIP3   OH254308   0.645   7.361  12.494
10038TIP3    H154309   0.628   7.315  12.412
10038TIP3    H254310   0.591   7.316  12.558
10039TIP3   OH254311   1.446   7.094  12.133
10039TIP3    H154312   1.484   7.145  12.204
10039TIP3    H254313   1.489   7.128  12.054
10040TIP3   OH254314   1.276   8.034  12.429
10040TIP3    H154315   1.250   7.951  12.388
10040TIP3    H254316   1.195   8.085  12.433
10041TIP3   OH254317   1.855   6.256  12.149
10041TIP3    H154318   1.772   6.267  12.194
10041TIP3    H254319   1.866   6.336  12.098
10042TIP3   OH254320   0.574   7.228  12.261
10042TIP3    H154321   0.503   7.260  12.206
10042TIP3    H254322   0.544   7.142  12.292
10043TIP3   OH254323   2.011   7.827  12.047
10043TIP3    H154324   2.020   7.922  12.050
10043TIP3    H254325   2.101   7.794  12.041
10044TIP3   OH254326   0.117   7.722  12.955
10044TIP3    H154327   0.186   7.756  13.012
10044TIP3    H254328   0.057   7.796  12.943
10045TIP3   OH254329   1.437   8.107  11.990
10045TIP3    H154330   1.491   8.032  11.964
10045TIP3    H254331   1.455   8.118  12.083
10046TIP3   OH254332   1.490   8.105  12.267
10046TIP3    H154333   1.416   8.088  12.324
10046TIP3    H254334   1.552   8.034  12.286
10047TIP3   OH254335   1.545   7.235  11.902
10047TIP3    H154336   1.540   7.220  11.807
10047TIP3    H254337   1.633   7.269  11.916
10048TIP3   OH254338   1.062   6.552  12.004
10048TIP3    H154339   1.019   6.562  12.089
10048TIP3    H254340   1.028   6.469  11.970
10049TIP3   OH254341   0.494   6.985  12.358
10049TIP3    H154342   0.427   6.933  12.403
10049TIP3    H254343   0.559   6.921  12.329
10050TIP3   OH254344   1.133   6.966  12.368
10050TIP3    H154345   1.121   7.050  12.323
10050TIP3    H254346   1.199   6.920  12.316
10051TIP3   OH254347   1.218   7.030  12.625
10051TIP3    H154348   1.255   7.116  12.604
10051TIP3    H254349   1.197   6.992  12.539
10052TIP3   OH254350   0.769   6.578  11.892
10052TIP3    H154351   0.746   6.574  11.985
10052TIP3    H254352   0.717   6.651  11.858
10053TIP3   OH254353   0.058   6.417  12.524
10053TIP3    H154354   0.113   6.464  12.586
10053TIP3    H254355   0.070   6.464  12.441
10054TIP3   OH254356   0.164   6.802  12.248
10054TIP3    H154357   0.188   6.836  12.161
10054TIP3    H254358   0.146   6.880  12.300
10055TIP3   OH254359   0.839   6.768  12.701
10055TIP3    H154360   0.757   6.766  12.652
10055TIP3    H254361   0.831   6.698  12.765
10056TIP3   OH254362   0.336   6.780  12.491
10056TIP3    H154363   0.262   6.801  12.434
10056TIP3    H254364   0.350   6.686  12.479
10057TIP3   OH254365   0.688   6.808  12.274
10057TIP3    H154366   0.770   6.803  12.322
10057TIP3    H254367   0.713   6.847  12.189
10058TIP3   OH254368   0.744   6.907  12.026
10058TIP3    H154369   0.701   6.878  11.946
10058TIP3    H254370   0.809   6.970  11.997
10059TIP3   OH254371   0.421   6.512  12.450
10059TIP3    H154372   0.425   6.428  12.496
10059TIP3    H254373   0.396   6.489  12.361
10060TIP3   OH254374   0.962   7.466  12.245
10060TIP3    H154375   0.900   7.419  12.190
10060TIP3    H254376   0.908   7.507  12.313
10061TIP3   OH254377   1.320   6.608  12.085
10061TIP3    H154378   1.230   6.595  12.055
10061TIP3    H254379   1.321   6.698  12.118
10062TIP3   OH254380   1.351   6.850  12.236
10062TIP3    H154381   1.410   6.818  12.304
10062TIP3    H254382   1.396   6.926  12.198
10063TIP3   OH254383   1.172   7.652  12.228
10063TIP3    H154384   1.132   7.739  12.237
10063TIP3    H254385   1.097   7.592  12.228
10064TIP3   OH254386   2.022   6.953  12.157
10064TIP3    H154387   1.991   6.904  12.081
10064TIP3    H254388   2.020   7.044  12.130
10065TIP3   OH254389   1.786   7.882  12.214
10065TIP3    H154390   1.727   7.809  12.196
10065TIP3    H254391   1.867   7.858  12.169
10066TIP3   OH254392   1.581   7.339  12.863
10066TIP3    H154393   1.486   7.349  12.872
10066TIP3    H254394   1.614   7.338  12.952
10067TIP3   OH254395   0.220   7.203  11.977
10067TIP3    H154396   0.291   7.253  12.018
10067TIP3    H254397   0.154   7.196  12.045
10068TIP3   OH254398   0.796   7.582  12.437
10068TIP3    H154399   0.803   7.634  12.517
10068TIP3    H254400   0.743   7.506  12.464
10069TIP3   OH254401   1.631   7.669  12.102
10069TIP3    H154402   1.651   7.602  12.167
10069TIP3    H254403   1.540   7.653  12.078
10070TIP3   OH254404   2.020   8.108  12.060
10070TIP3    H154405   2.049   8.134  11.972
10070TIP3    H254406   1.964   8.180  12.089
10071TIP3   OH254407   1.691   7.468  12.281
10071TIP3    H154408   1.642   7.387  12.299
10071TIP3    H254409   1.782   7.440  12.280
10072TIP3   OH254410   0.977   7.646  11.789
10072TIP3    H154411   0.931   7.668  11.707
10072TIP3    H254412   0.948   7.556  11.809
10073TIP3   OH254413   0.412   7.377  12.072
10073TIP3    H154414   0.379   7.462  12.099
10073TIP3    H254415   0.484   7.397  12.013
10074TIP3   OH254416   1.434   6.504  12.311
10074TIP3    H154417   1.402   6.535  12.226
10074TIP3    H254418   1.463   6.584  12.356
10075TIP3   OH254419   1.080   7.914  12.249
10075TIP3    H154420   1.047   7.979  12.311
10075TIP3    H254421   1.103   7.965  12.170
10076TIP3   OH254422   0.927   6.779  12.417
10076TIP3    H154423   0.997   6.844  12.407
10076TIP3    H254424   0.916   6.769  12.511
10077TIP3   OH254425   1.173   6.431  12.387
10077TIP3    H154426   1.173   6.422  12.482
10077TIP3    H254427   1.263   6.453  12.364
10078TIP3   OH254428   0.685   6.559  12.152
10078TIP3    H154429   0.664   6.639  12.200
10078TIP3    H254430   0.765   6.526  12.193
10079TIP3   OH254431   1.624   7.092  12.739
10079TIP3    H154432   1.623   7.182  12.771
10079TIP3    H254433   1.543   7.053  12.774
10080TIP3   OH254434   0.231   6.916  12.005
10080TIP3    H154435   0.235   7.010  11.986
10080TIP3    H254436   0.282   6.875  11.935
10081TIP3   OH254437   0.296   6.289  12.770
10081TIP3    H154438   0.338   6.279  12.685
10081TIP3    H254439   0.293   6.201  12.806
10082TIP3   OH254440   0.263   7.830  12.319
10082TIP3    H154441   0.246   7.864  12.407
10082TIP3    H254442   0.251   7.906  12.262
10083TIP3   OH254443   1.135   7.867  11.830
10083TIP3    H154444   1.076   7.792  11.826
10083TIP3    H254445   1.222   7.829  11.821
10084TIP3   OH254446   1.604   7.899  11.910
10084TIP3    H154447   1.645   7.839  11.972
10084TIP3    H254448   1.673   7.917  11.845
10085TIP3   OH254449   0.637   7.404  11.897
10085TIP3    H154450   0.687   7.373  11.972
10085TIP3    H254451   0.702   7.415  11.828
10086TIP3   OH254452   1.365   7.601  12.036
10086TIP3    H154453   1.303   7.627  12.104
10086TIP3    H254454   1.341   7.511  12.014
10087TIP3   OH254455   0.791   7.298  12.101
10087TIP3    H154456   0.728   7.258  12.162
10087TIP3    H254457   0.838   7.224  12.063
10088TIP3   OH254458   0.932   7.102  11.955
10088TIP3    H154459   0.926   7.117  11.861
10088TIP3    H254460   1.026   7.087  11.971
10089TIP3   OH254461   1.983   7.390  11.862
10089TIP3    H154462   1.930   7.354  11.791
10089TIP3    H254463   1.938   7.471  11.887
10090TIP3   OH254464   0.874   8.121  12.016
10090TIP3    H154465   0.968   8.106  12.015
10090TIP3    H254466   0.862   8.194  12.077
10091TIP3   OH254467   0.314   7.678  11.872
10091TIP3    H154468   0.303   7.672  11.966
10091TIP3    H254469   0.272   7.599  11.837
10092TIP3   OH254470   0.087   8.224  12.325
10092TIP3    H154471   0.004   8.210  12.372
10092TIP3    H254472   0.151   8.239  12.394
10093TIP3   OH254473   0.222   8.000  12.535
10093TIP3    H154474   0.147   8.002  12.595
10093TIP3    H254475   0.249   8.092  12.528
10094TIP3   OH254476   1.958   7.381  12.285
10094TIP3    H154477   2.029   7.444  12.272
10094TIP3    H254478   1.983   7.332  12.363
10095TIP3   OH254479   2.011   7.216  12.503
10095TIP3    H154480   1.934   7.163  12.522
10095TIP3    H254481   2.043   7.244  12.589
10096TIP3   OH254482   2.024   7.217  12.071
10096TIP3    H154483   2.008   7.272  11.995
10096TIP3    H254484   1.995   7.270  12.146
10097TIP3   OH254485   1.636   6.873  11.831
10097TIP3    H154486   1.727   6.893  11.853
10097TIP3    H254487   1.631   6.778  11.834
10098TIP3   OH254488   1.825   7.016  12.564
10098TIP3    H154489   1.801   6.940  12.510
10098TIP3    H254490   1.747   7.034  12.616
10099TIP3   OH254491   1.642   6.601  11.847
10099TIP3    H154492   1.702   6.552  11.904
10099TIP3    H254493   1.563   6.548  11.844
10100TIP3   OH254494   1.799   6.786  12.402
10100TIP3    H154495   1.818   6.693  12.415
10100TIP3    H254496   1.846   6.810  12.322
10101TIP3   OH254497   1.854   6.510  12.411
10101TIP3    H154498   1.876   6.460  12.490
10101TIP3    H254499   1.787   6.458  12.367
10102TIP3   OH254500   0.206   6.542  12.726
10102TIP3    H154501   0.231   6.453  12.752
10102TIP3    H254502   0.278   6.597  12.755
10103TIP3   OH254503   0.091   6.964  12.936
10103TIP3    H154504   0.160   6.918  12.889
10103TIP3    H254505   0.057   7.027  12.873
10104TIP3   OH254506   1.869   6.484  11.984
10104TIP3    H154507   1.909   6.432  11.914
10104TIP3    H254508   1.902   6.573  11.971
10105TIP3   OH254509   0.073   6.547  12.280
10105TIP3    H154510   8.426   6.547  12.272
10105TIP3    H254511   0.098   6.639  12.267
10106TIP3   OH254512   1.716   8.250  12.553
10106TIP3    H154513   1.767   8.199  12.490
10106TIP3    H254514   1.743   8.215  12.638
10107TIP3   OH254515   1.676   6.380  12.666
10107TIP3    H154516   1.772   6.383  12.675
10107TIP3    H254517   1.658   6.291  12.634
10108TIP3   OH254518   1.950   6.365  12.631
10108TIP3    H154519   1.998   6.282  12.630
10108TIP3    H254520   2.015   6.430  12.659
10109TIP3   OH254521   0.390   6.231  12.518
10109TIP3    H154522   0.309   6.217  12.469
10109TIP3    H254523   0.431   6.145  12.522
10110TIP3   OH254524   0.312   6.426  12.206
10110TIP3    H154525   0.344   6.466  12.125
10110TIP3    H254526   0.227   6.467  12.220
10111TIP3   OH254527   0.863   6.112  12.654
10111TIP3    H154528   0.955   6.136  12.663
10111TIP3    H254529   0.827   6.121  12.742
10112TIP3   OH254530   1.623   6.302  12.296
10112TIP3    H154531   1.561   6.374  12.306
10112TIP3    H254532   1.569   6.227  12.274
10113TIP3   OH254533   0.252   8.062  12.174
10113TIP3    H154534   0.302   8.131  12.130
10113TIP3    H254535   0.184   8.108  12.221
10114TIP3   OH254536   0.467   6.507  11.981
10114TIP3    H154537   0.495   6.431  11.930
10114TIP3    H254538   0.538   6.522  12.043
10115TIP3   OH254539   0.952   6.552  12.258
10115TIP3    H154540   1.019   6.500  12.302
10115TIP3    H254541   0.942   6.630  12.313
10116TIP3   OH254542   1.150   8.060  12.020
10116TIP3    H154543   1.240   8.092  12.012
10116TIP3    H254544   1.143   7.991  11.954
10117TIP3   OH254545   1.858   8.100  12.369
10117TIP3    H154546   1.834   8.019  12.324
10117TIP3    H254547   1.874   8.163  12.298
10118TIP3   OH254548   0.418   8.174  11.820
10118TIP3    H154549   0.399   8.215  11.904
10118TIP3    H254550   0.496   8.121  11.836
10119TIP3   OH254551   3.456   7.357  12.468
10119TIP3    H154552   3.403   7.435  12.449
10119TIP3    H254553   3.507   7.382  12.545
10120TIP3   OH254554   3.614   7.478  12.670
10120TIP3    H154555   3.640   7.401  12.719
10120TIP3    H254556   3.606   7.547  12.735
10121TIP3   OH254557   2.139   6.983  12.414
10121TIP3    H154558   2.112   7.073  12.433
10121TIP3    H254559   2.101   6.964  12.329
10122TIP3   OH254560   2.130   7.241  12.756
10122TIP3    H154561   2.205   7.300  12.755
10122TIP3    H254562   2.098   7.244  12.846
10123TIP3   OH254563   3.403   8.065  12.690
10123TIP3    H154564   3.471   8.038  12.627
10123TIP3    H254565   3.443   8.053  12.776
10124TIP3   OH254566   3.425   6.901  13.003
10124TIP3    H154567   3.360   6.834  13.027
10124TIP3    H254568   3.439   6.888  12.909
10125TIP3   OH254569   2.856   6.674  12.589
10125TIP3    H154570   2.788   6.741  12.595
10125TIP3    H254571   2.811   6.597  12.553
10126TIP3   OH254572   3.611   6.706  12.549
10126TIP3    H154573   3.674   6.684  12.618
10126TIP3    H254574   3.665   6.747  12.481
10127TIP3   OH254575   2.256   6.797  12.757
10127TIP3    H154576   2.308   6.774  12.834
10127TIP3    H254577   2.321   6.804  12.686
10128TIP3   OH254578   2.730   7.101  12.575
10128TIP3    H154579   2.780   7.085  12.656
10128TIP3    H254580   2.694   7.015  12.552
10129TIP3   OH254581   3.306   7.576  12.417
10129TIP3    H154582   3.287   7.590  12.325
10129TIP3    H254583   3.285   7.659  12.459
10130TIP3   OH254584   3.800   6.666  12.743
10130TIP3    H154585   3.888   6.629  12.735
10130TIP3    H254586   3.811   6.738  12.806
10131TIP3   OH254587   2.386   6.714  12.985
10131TIP3    H154588   2.397   6.628  13.026
10131TIP3    H254589   2.346   6.768  13.053
10132TIP3   OH254590   2.172   7.552  12.228
10132TIP3    H154591   2.183   7.596  12.143
10132TIP3    H254592   2.176   7.622  12.292
10133TIP3   OH254593   3.544   7.932  12.467
10133TIP3    H154594   3.579   7.843  12.462
10133TIP3    H254595   3.622   7.988  12.476
10134TIP3   OH254596   3.652   7.669  12.452
10134TIP3    H154597   3.690   7.613  12.384
10134TIP3    H254598   3.635   7.609  12.525
10135TIP3   OH254599   3.239   7.230  12.312
10135TIP3    H154600   3.170   7.296  12.301
10135TIP3    H254601   3.303   7.271  12.371
10136TIP3   OH254602   3.271   7.146  12.052
10136TIP3    H154603   3.357   7.107  12.062
10136TIP3    H254604   3.249   7.179  12.139
10137TIP3   OH254605   3.638   7.236  12.300
10137TIP3    H154606   3.572   7.273  12.359
10137TIP3    H254607   3.694   7.183  12.358
10138TIP3   OH254608   2.737   7.336  12.424
10138TIP3    H154609   2.683   7.302  12.353
10138TIP3    H254610   2.743   7.265  12.487
10139TIP3   OH254611   3.538   7.081  12.094
10139TIP3    H154612   3.572   7.135  12.165
10139TIP3    H254613   3.579   7.116  12.015
10140TIP3   OH254614   3.250   7.845  12.490
10140TIP3    H154615   3.337   7.885  12.484
10140TIP3    H254616   3.210   7.864  12.405
10141TIP3   OH254617   3.890   6.240  12.160
10141TIP3    H154618   3.810   6.266  12.206
10141TIP3    H254619   3.914   6.317  12.109
10142TIP3   OH254620   2.586   7.228  12.217
10142TIP3    H154621   2.513   7.283  12.190
10142TIP3    H254622   2.547   7.141  12.229
10143TIP3   OH254623   4.121   7.809  12.018
10143TIP3    H154624   4.116   7.904  12.017
10143TIP3    H254625   4.206   7.789  11.981
10144TIP3   OH254626   2.055   8.009  12.763
10144TIP3    H154627   2.148   7.993  12.781
10144TIP3    H254628   2.010   7.949  12.823
10145TIP3   OH254629   3.191   8.165  12.362
10145TIP3    H154630   3.116   8.158  12.303
10145TIP3    H254631   3.178   8.247  12.409
10146TIP3   OH254632   2.528   8.214  12.537
10146TIP3    H154633   2.600   8.277  12.546
10146TIP3    H254634   2.491   8.208  12.625
10147TIP3   OH254635   3.483   8.105  12.001
10147TIP3    H154636   3.539   8.030  11.983
10147TIP3    H254637   3.479   8.110  12.097
10148TIP3   OH254638   3.444   8.110  12.274
10148TIP3    H154639   3.356   8.133  12.304
10148TIP3    H254640   3.475   8.046  12.338
10149TIP3   OH254641   3.640   7.207  11.868
10149TIP3    H154642   3.648   7.215  11.773
10149TIP3    H254643   3.718   7.248  11.903
10150TIP3   OH254644   3.177   6.535  12.027
10150TIP3    H154645   3.126   6.544  12.108
10150TIP3    H254646   3.141   6.458  11.984
10151TIP3   OH254647   2.634   6.847  12.502
10151TIP3    H154648   2.540   6.831  12.498
10151TIP3    H254649   2.666   6.828  12.414
10152TIP3   OH254650   3.243   6.943  12.359
10152TIP3    H154651   3.239   7.038  12.349
10152TIP3    H254652   3.325   6.918  12.316
10153TIP3   OH254653   3.458   6.863  12.724
10153TIP3    H154654   3.371   6.880  12.687
10153TIP3    H254655   3.497   6.800  12.663
10154TIP3   OH254656   2.832   6.563  11.915
10154TIP3    H154657   2.797   6.553  12.003
10154TIP3    H254658   2.785   6.638  11.878
10155TIP3   OH254659   2.131   6.568  12.664
10155TIP3    H154660   2.166   6.647  12.705
10155TIP3    H254661   2.132   6.587  12.570
10156TIP3   OH254662   2.157   6.707  12.146
10156TIP3    H154663   2.121   6.690  12.059
10156TIP3    H254664   2.136   6.799  12.164
10157TIP3   OH254665   3.063   6.485  12.676
10157TIP3    H154666   3.001   6.558  12.672
10157TIP3    H254667   3.105   6.493  12.762
10158TIP3   OH254668   2.345   6.805  12.485
10158TIP3    H154669   2.286   6.876  12.461
10158TIP3    H254670   2.306   6.727  12.444
10159TIP3   OH254671   2.768   6.800  12.256
10159TIP3    H154672   2.854   6.802  12.298
10159TIP3    H254673   2.777   6.856  12.179
10160TIP3   OH254674   2.825   6.942  12.022
10160TIP3    H154675   2.786   6.894  11.948
10160TIP3    H254676   2.907   6.976  11.987
10161TIP3   OH254677   2.731   6.456  12.472
10161TIP3    H154678   2.790   6.382  12.486
10161TIP3    H254679   2.711   6.453  12.378
10162TIP3   OH254680   3.025   7.415  12.205
10162TIP3    H154681   2.962   7.363  12.154
10162TIP3    H254682   2.970   7.469  12.262
10163TIP3   OH254683   3.421   6.664  12.000
10163TIP3    H154684   3.338   6.621  12.017
10163TIP3    H254685   3.441   6.711  12.081
10164TIP3   OH254686   3.501   6.832  12.214
10164TIP3    H154687   3.586   6.819  12.255
10164TIP3    H254688   3.510   6.916  12.168
10165TIP3   OH254689   3.220   7.611  12.156
10165TIP3    H154690   3.179   7.695  12.175
10165TIP3    H254691   3.149   7.547  12.163
10166TIP3   OH254692   3.934   6.913  12.125
10166TIP3    H154693   3.899   6.898  12.037
10166TIP3    H254694   3.970   7.002  12.121
10167TIP3   OH254695   3.952   7.853  12.242
10167TIP3    H154696   3.882   7.788  12.247
10167TIP3    H254697   4.007   7.823  12.170
10168TIP3   OH254698   3.671   7.255  12.823
10168TIP3    H154699   3.673   7.229  12.915
10168TIP3    H254700   3.681   7.173  12.775
10169TIP3   OH254701   2.809   7.787  12.524
10169TIP3    H154702   2.786   7.873  12.490
10169TIP3    H254703   2.781   7.788  12.615
10170TIP3   OH254704   2.280   7.171  11.972
10170TIP3    H154705   2.329   7.240  12.017
10170TIP3    H254706   2.191   7.179  12.005
10171TIP3   OH254707   2.845   7.577  12.343
10171TIP3    H154708   2.839   7.646  12.408
10171TIP3    H254709   2.804   7.501  12.384
10172TIP3   OH254710   2.734   8.042  12.442
10172TIP3    H154711   2.648   8.077  12.465
10172TIP3    H254712   2.795   8.112  12.466
10173TIP3   OH254713   3.698   7.659  12.057
10173TIP3    H154714   3.718   7.603  12.132
10173TIP3    H254715   3.609   7.635  12.033
10174TIP3   OH254716   4.102   8.094  12.042
10174TIP3    H154717   4.129   8.183  12.019
10174TIP3    H254718   4.012   8.105  12.075
10175TIP3   OH254719   3.769   7.485  12.262
10175TIP3    H154720   3.719   7.404  12.266
10175TIP3    H254721   3.860   7.457  12.270
10176TIP3   OH254722   2.935   7.726  11.867
10176TIP3    H154723   2.930   7.638  11.830
10176TIP3    H254724   2.887   7.720  11.950
10177TIP3   OH254725   2.786   7.713  12.108
10177TIP3    H154726   2.805   7.657  12.183
10177TIP3    H254727   2.806   7.802  12.138
10178TIP3   OH254728   2.380   7.389  12.127
10178TIP3    H154729   2.308   7.428  12.176
10178TIP3    H254730   2.432   7.463  12.097
10179TIP3   OH254731   3.461   6.531  12.397
10179TIP3    H154732   3.445   6.593  12.327
10179TIP3    H254733   3.510   6.581  12.463
10180TIP3   OH254734   3.132   7.865  12.227
10180TIP3    H154735   3.038   7.884  12.233
10180TIP3    H254736   3.167   7.932  12.168
10181TIP3   OH254737   3.016   6.783  12.377
10181TIP3    H154738   3.091   6.843  12.380
10181TIP3    H254739   2.992   6.771  12.469
10182TIP3   OH254740   3.200   6.421  12.442
10182TIP3    H154741   3.166   6.447  12.528
10182TIP3    H254742   3.289   6.456  12.440
10183TIP3   OH254743   2.865   7.955  12.215
10183TIP3    H154744   2.901   8.039  12.185
10183TIP3    H254745   2.812   7.977  12.292
10184TIP3   OH254746   2.758   6.530  12.182
10184TIP3    H154747   2.739   6.620  12.211
10184TIP3    H254748   2.849   6.516  12.206
10185TIP3   OH254749   3.698   7.003  12.708
10185TIP3    H154750   3.613   6.962  12.722
10185TIP3    H254751   3.755   6.961  12.773
10186TIP3   OH254752   2.531   7.605  12.025
10186TIP3    H154753   2.599   7.659  12.066
10186TIP3    H254754   2.578   7.546  11.967
10187TIP3   OH254755   2.268   6.908  11.857
10187TIP3    H154756   2.272   6.984  11.914
10187TIP3    H254757   2.182   6.869  11.873
10188TIP3   OH254758   2.183   7.788  12.368
10188TIP3    H154759   2.168   7.837  12.448
10188TIP3    H254760   2.206   7.855  12.303
10189TIP3   OH254761   3.155   7.890  11.805
10189TIP3    H154762   3.088   7.827  11.830
10189TIP3    H254763   3.235   7.839  11.799
10190TIP3   OH254764   3.638   7.894  11.917
10190TIP3    H154765   3.671   7.822  11.970
10190TIP3    H254766   3.710   7.915  11.858
10191TIP3   OH254767   2.680   7.424  11.879
10191TIP3    H154768   2.719   7.365  11.944
10191TIP3    H254769   2.754   7.452  11.825
10192TIP3   OH254770   3.438   7.586  11.989
10192TIP3    H154771   3.367   7.597  12.053
10192TIP3    H254772   3.422   7.500  11.951
10193TIP3   OH254773   2.817   7.257  12.068
10193TIP3    H154774   2.743   7.256  12.129
10193TIP3    H254775   2.837   7.165  12.054
10194TIP3   OH254776   3.039   7.086  11.915
10194TIP3    H154777   3.008   7.167  11.876
10194TIP3    H254778   3.112   7.112  11.970
10195TIP3   OH254779   3.885   7.329  11.915
10195TIP3    H154780   3.919   7.314  11.826
10195TIP3    H254781   3.906   7.421  11.933
10196TIP3   OH254782   3.005   8.181  12.149
10196TIP3    H154783   3.077   8.146  12.096
10196TIP3    H254784   3.004   8.274  12.129
10197TIP3   OH254785   2.259   7.678  11.990
10197TIP3    H154786   2.352   7.672  12.010
10197TIP3    H254787   2.246   7.617  11.917
10198TIP3   OH254788   2.106   8.095  12.501
10198TIP3    H154789   2.021   8.094  12.458
10198TIP3    H254790   2.089   8.074  12.592
10199TIP3   OH254791   4.032   7.384  12.289
10199TIP3    H154792   4.100   7.451  12.278
10199TIP3    H254793   4.059   7.334  12.366
10200TIP3   OH254794   4.048   7.171  12.489
10200TIP3    H154795   3.961   7.136  12.467
10200TIP3    H254796   4.040   7.199  12.580
10201TIP3   OH254797   4.150   7.496  13.063
10201TIP3    H154798   4.202   7.484  12.983
10201TIP3    H254799   4.140   7.591  13.069
10202TIP3   OH254800   4.029   7.182  12.097
10202TIP3    H154801   3.973   7.222  12.031
10202TIP3    H254802   4.027   7.243  12.170
10203TIP3   OH254803   3.846   6.843  11.873
10203TIP3    H154804   3.857   6.881  11.786
10203TIP3    H254805   3.838   6.749  11.858
10204TIP3   OH254806   3.792   7.060  12.456
10204TIP3    H154807   3.785   6.974  12.415
10204TIP3    H254808   3.759   7.046  12.545
10205TIP3   OH254809   3.819   6.574  11.792
10205TIP3    H154810   3.847   6.528  11.871
10205TIP3    H254811   3.725   6.555  11.785
10206TIP3   OH254812   3.765   6.806  12.322
10206TIP3    H154813   3.799   6.717  12.335
10206TIP3    H254814   3.822   6.843  12.255
10207TIP3   OH254815   3.849   6.884  12.907
10207TIP3    H154816   3.942   6.881  12.929
10207TIP3    H254817   3.809   6.932  12.979
10208TIP3   OH254818   3.849   6.548  12.368
10208TIP3    H154819   3.933   6.519  12.404
10208TIP3    H254820   3.799   6.467  12.355
10209TIP3   OH254821   3.961   6.457  12.002
10209TIP3    H154822   4.028   6.406  11.955
10209TIP3    H254823   4.009   6.533  12.036
10210TIP3   OH254824   2.121   6.606  12.395
10210TIP3    H154825   2.033   6.569  12.389
10210TIP3    H254826   2.141   6.633  12.305
10211TIP3   OH254827   3.752   8.122  12.487
10211TIP3    H154828   3.842   8.105  12.460
10211TIP3    H254829   3.760   8.173  12.568
10212TIP3   OH254830   4.091   6.448  12.471
10212TIP3    H154831   4.110   6.355  12.478
10212TIP3    H254832   4.137   6.488  12.545
10213TIP3   OH254833   2.313   6.250  12.162
10213TIP3    H154834   2.399   6.288  12.143
10213TIP3    H254835   2.264   6.322  12.201
10214TIP3   OH254836   2.939   6.277  12.527
10214TIP3    H154837   3.015   6.268  12.469
10214TIP3    H254838   2.969   6.335  12.596
10215TIP3   OH254839   3.660   6.325  12.326
10215TIP3    H154840   3.596   6.392  12.350
10215TIP3    H254841   3.608   6.251  12.296
10216TIP3   OH254842   2.233   8.001  12.201
10216TIP3    H154843   2.162   8.045  12.155
10216TIP3    H254844   2.278   8.072  12.248
10217TIP3   OH254845   2.548   6.362  12.078
10217TIP3    H154846   2.570   6.343  11.987
10217TIP3    H254847   2.621   6.416  12.109
10218TIP3   OH254848   3.025   6.538  12.259
10218TIP3    H154849   3.080   6.488  12.320
10218TIP3    H254850   3.021   6.626  12.296
10219TIP3   OH254851   3.208   8.051  12.022
10219TIP3    H154852   3.299   8.077  12.011
10219TIP3    H254853   3.188   8.002  11.943
10220TIP3   OH254854   4.003   8.094  12.358
10220TIP3    H154855   3.989   8.005  12.326
10220TIP3    H254856   3.964   8.150  12.291
10221TIP3   OH254857   2.400   8.131  11.874
10221TIP3    H154858   2.387   8.190  11.948
10221TIP3    H254859   2.438   8.052  11.913
10222TIP3   OH254860   5.361   7.395  12.472
10222TIP3    H154861   5.370   7.484  12.439
10222TIP3    H254862   5.372   7.403  12.567
10223TIP3   OH254863   4.770   7.574  12.782
10223TIP3    H154864   4.759   7.519  12.704
10223TIP3    H254865   4.861   7.560  12.808
10224TIP3   OH254866   4.258   6.987  12.448
10224TIP3    H154867   4.184   7.047  12.464
10224TIP3    H254868   4.241   6.950  12.362
10225TIP3   OH254869   4.350   7.172  12.686
10225TIP3    H154870   4.357   7.093  12.741
10225TIP3    H254871   4.330   7.139  12.599
10226TIP3   OH254872   4.826   6.627  12.575
10226TIP3    H154873   4.811   6.720  12.559
10226TIP3    H254874   4.741   6.586  12.563
10227TIP3   OH254875   5.636   6.684  12.510
10227TIP3    H154876   5.674   6.706  12.595
10227TIP3    H254877   5.686   6.737  12.448
10228TIP3   OH254878   4.382   6.929  12.803
10228TIP3    H154879   4.383   6.866  12.876
10228TIP3    H254880   4.426   6.883  12.732
10229TIP3   OH254881   4.845   7.108  12.628
10229TIP3    H154882   4.927   7.080  12.670
10229TIP3    H254883   4.812   7.029  12.585
10230TIP3   OH254884   5.384   7.645  12.360
10230TIP3    H154885   5.330   7.638  12.281
10230TIP3    H254886   5.378   7.737  12.385
10231TIP3   OH254887   5.741   6.748  12.763
10231TIP3    H154888   5.828   6.719  12.791
10231TIP3    H254889   5.741   6.842  12.781
10232TIP3   OH254890   4.216   7.591  12.216
10232TIP3    H154891   4.170   7.634  12.143
10232TIP3    H254892   4.256   7.663  12.265
10233TIP3   OH254893   4.925   6.313  12.758
10233TIP3    H154894   4.921   6.231  12.808
10233TIP3    H254895   4.840   6.354  12.771
10234TIP3   OH254896   5.535   7.958  12.656
10234TIP3    H154897   5.470   7.952  12.586
10234TIP3    H254898   5.612   7.997  12.613
10235TIP3   OH254899   5.271   7.064  11.948
10235TIP3    H154900   5.284   7.024  12.034
10235TIP3    H254901   5.324   7.010  11.889
10236TIP3   OH254902   4.764   7.366  12.592
10236TIP3    H154903   4.822   7.409  12.529
10236TIP3    H254904   4.796   7.277  12.598
10237TIP3   OH254905   5.185   7.954  12.695
10237TIP3    H154906   5.229   7.873  12.721
10237TIP3    H254907   5.217   7.972  12.607
10238TIP3   OH254908   5.980   6.200  12.180
10238TIP3    H154909   5.893   6.221  12.214
10238TIP3    H254910   6.011   6.282  12.143
10239TIP3   OH254911   4.626   7.248  12.197
10239TIP3    H154912   4.553   7.304  12.172
10239TIP3    H254913   4.611   7.229  12.290
10240TIP3   OH254914   6.163   7.822  11.961
10240TIP3    H154915   6.163   7.917  11.951
10240TIP3    H254916   6.254   7.796  11.950
10241TIP3   OH254917   5.117   8.153  12.301
10241TIP3    H154918   5.192   8.102  12.331
10241TIP3    H254919   5.077   8.185  12.382
10242TIP3   OH254920   4.582   7.994  12.591
10242TIP3    H154921   4.602   7.937  12.666
10242TIP3    H254922   4.487   7.988  12.581
10243TIP3   OH254923   5.606   8.087  12.003
10243TIP3    H154924   5.660   8.009  11.989
10243TIP3    H254925   5.596   8.093  12.098
10244TIP3   OH254926   5.572   8.114  12.278
10244TIP3    H154927   5.491   8.072  12.307
10244TIP3    H254928   5.630   8.108  12.354
10245TIP3   OH254929   4.675   6.412  12.818
10245TIP3    H154930   4.595   6.365  12.795
10245TIP3    H254931   4.644   6.497  12.848
10246TIP3   OH254932   5.252   6.537  11.994
10246TIP3    H154933   5.189   6.554  12.065
10246TIP3    H254934   5.210   6.469  11.942
10247TIP3   OH254935   4.748   6.882  12.501
10247TIP3    H154936   4.654   6.871  12.516
10247TIP3    H254937   4.759   6.865  12.408
10248TIP3   OH254938   5.354   6.946  12.191
10248TIP3    H154939   5.383   7.000  12.264
10248TIP3    H254940   5.432   6.898  12.163
10249TIP3   OH254941   4.912   6.599  11.880
10249TIP3    H154942   4.886   6.587  11.972
10249TIP3    H254943   4.839   6.648  11.842
10250TIP3   OH254944   4.260   6.493  12.685
10250TIP3    H154945   4.286   6.501  12.777
10250TIP3    H254946   4.323   6.431  12.648
10251TIP3   OH254947   4.101   6.688  12.082
10251TIP3    H154948   4.171   6.729  12.032
10251TIP3    H254949   4.044   6.760  12.107
10252TIP3   OH254950   5.068   6.511  12.631
10252TIP3    H154951   4.993   6.563  12.602
10252TIP3    H254952   5.031   6.441  12.685
10253TIP3   OH254953   4.481   6.825  12.558
10253TIP3    H154954   4.401   6.859  12.518
10253TIP3    H254955   4.480   6.732  12.538
10254TIP3   OH254956   4.831   6.818  12.240
10254TIP3    H154957   4.926   6.822  12.253
10254TIP3    H254958   4.816   6.859  12.155
10255TIP3   OH254959   4.819   6.913  11.985
10255TIP3    H154960   4.777   6.869  11.912
10255TIP3    H254961   4.877   6.978  11.945
10256TIP3   OH254962   5.075   7.043  12.766
10256TIP3    H154963   5.099   7.132  12.793
10256TIP3    H254964   5.148   6.988  12.794
10257TIP3   OH254965   4.555   6.553  12.488
10257TIP3    H154966   4.510   6.476  12.522
10257TIP3    H254967   4.567   6.535  12.394
10258TIP3   OH254968   4.964   7.527  12.169
10258TIP3    H154969   4.931   7.445  12.133
10258TIP3    H254970   4.955   7.517  12.264
10259TIP3   OH254971   5.494   6.567  12.122
10259TIP3    H154972   5.410   6.561  12.078
10259TIP3    H254973   5.520   6.659  12.113
10260TIP3   OH254974   5.599   6.834  12.119
10260TIP3    H154975   5.653   6.831  12.198
10260TIP3    H254976   5.661   6.845  12.048
10261TIP3   OH254977   4.567   7.317  12.779
10261TIP3    H154978   4.621   7.337  12.703
10261TIP3    H254979   4.497   7.262  12.745
10262TIP3   OH254980   5.234   7.591  12.123
10262TIP3    H154981   5.219   7.686  12.121
10262TIP3    H254982   5.147   7.553  12.135
10263TIP3   OH254983   5.995   6.882  12.150
10263TIP3    H154984   5.938   6.890  12.073
10263TIP3    H254985   6.031   6.970  12.162
10264TIP3   OH254986   5.974   7.846  12.161
10264TIP3    H154987   6.002   7.787  12.231
10264TIP3    H254988   6.045   7.843  12.097
10265TIP3   OH254989   4.891   7.764  12.531
10265TIP3    H154990   4.864   7.840  12.478
10265TIP3    H254991   4.895   7.797  12.620
10266TIP3   OH254992   4.273   7.249  11.961
10266TIP3    H154993   4.328   7.296  12.024
10266TIP3    H254994   4.198   7.219  12.012
10267TIP3   OH254995   4.955   7.512  12.448
10267TIP3    H154996   4.930   7.601  12.474
10267TIP3    H254997   5.042   7.498  12.486
10268TIP3   OH254998   4.807   8.021  12.440
10268TIP3    H154999   4.728   8.015  12.494
10268TIP3    H255000   4.864   8.082  12.487
10269TIP3   OH255001   6.139   8.101  11.971
10269TIP3    H155002   6.156   8.161  11.899
10269TIP3    H255003   6.066   8.141  12.019
10270TIP3   OH255004   5.074   7.714  11.848
10270TIP3    H155005   5.055   7.625  11.817
10270TIP3    H255006   5.005   7.733  11.912
10271TIP3   OH255007   4.864   7.756  12.045
10271TIP3    H155008   4.898   7.679  12.091
10271TIP3    H255009   4.889   7.830  12.100
10272TIP3   OH255010   4.422   7.427  12.124
10272TIP3    H155011   4.353   7.478  12.165
10272TIP3    H255012   4.483   7.493  12.089
10273TIP3   OH255013   5.487   6.488  12.390
10273TIP3    H155014   5.494   6.509  12.297
10273TIP3    H255015   5.540   6.555  12.433
10274TIP3   OH255016   5.187   7.852  12.158
10274TIP3    H155017   5.101   7.893  12.167
10274TIP3    H255018   5.238   7.888  12.231
10275TIP3   OH255019   5.112   6.827  12.289
10275TIP3    H155020   5.187   6.863  12.241
10275TIP3    H255021   5.109   6.878  12.370
10276TIP3   OH255022   5.218   6.422  12.417
10276TIP3    H155023   5.183   6.463  12.496
10276TIP3    H255024   5.311   6.446  12.417
10277TIP3   OH255025   4.934   7.973  12.202
10277TIP3    H155026   4.997   8.043  12.216
10277TIP3    H255027   4.879   7.974  12.281
10278TIP3   OH255028   4.807   6.559  12.133
10278TIP3    H155029   4.793   6.644  12.176
10278TIP3    H255030   4.891   6.529  12.168
10279TIP3   OH255031   4.600   7.620  12.013
10279TIP3    H155032   4.665   7.681  12.048
10279TIP3    H255033   4.649   7.563  11.954
10280TIP3   OH255034   4.305   6.820  11.949
10280TIP3    H155035   4.397   6.803  11.972
10280TIP3    H255036   4.308   6.895  11.890
10281TIP3   OH255037   4.322   7.825  12.317
10281TIP3    H155038   4.325   7.856  12.407
10281TIP3    H255039   4.346   7.901  12.264
10282TIP3   OH255040   5.276   7.902  11.825
10282TIP3    H155041   5.212   7.834  11.846
10282TIP3    H255042   5.360   7.858  11.827
10283TIP3   OH255043   5.775   7.871  11.947
10283TIP3    H155044   5.837   7.864  12.019
10283TIP3    H255045   5.830   7.894  11.871
10284TIP3   OH255046   4.759   7.453  11.862
10284TIP3    H155047   4.787   7.396  11.934
10284TIP3    H255048   4.839   7.469  11.812
10285TIP3   OH255049   5.430   7.559  11.933
10285TIP3    H155050   5.360   7.573  11.997
10285TIP3    H255051   5.425   7.466  11.912
10286TIP3   OH255052   4.860   7.294  12.061
10286TIP3    H155053   4.785   7.260  12.110
10286TIP3    H255054   4.899   7.217  12.020
10287TIP3   OH255055   4.996   7.110  11.891
10287TIP3    H155056   5.000   7.152  11.805
10287TIP3    H255057   5.088   7.095  11.914
10288TIP3   OH255058   6.000   7.331  11.983
10288TIP3    H155059   6.005   7.292  11.896
10288TIP3    H255060   6.011   7.425  11.968
10289TIP3   OH255061   5.107   8.250  12.044
10289TIP3    H155062   5.122   8.225  12.135
10289TIP3    H255063   5.188   8.225  11.998
10290TIP3   OH255064   4.362   7.724  11.907
10290TIP3    H155065   4.444   7.707  11.953
10290TIP3    H255066   4.338   7.639  11.869
10291TIP3   OH255067   4.260   8.166  12.427
10291TIP3    H155068   4.167   8.156  12.406
10291TIP3    H255069   4.279   8.093  12.487
10292TIP3   OH255070   4.289   7.936  12.581
10292TIP3    H155071   4.322   7.917  12.668
10292TIP3    H255072   4.198   7.908  12.582
10293TIP3   OH255073   6.077   7.148  12.178
10293TIP3    H155074   6.046   7.219  12.121
10293TIP3    H255075   6.047   7.173  12.265
10294TIP3   OH255076   5.813   6.855  11.935
10294TIP3    H155077   5.828   6.883  11.845
10294TIP3    H255078   5.835   6.762  11.935
10295TIP3   OH255079   4.312   7.426  12.844
10295TIP3    H155080   4.281   7.346  12.801
10295TIP3    H255081   4.407   7.424  12.833
10296TIP3   OH255082   5.872   6.588  11.913
10296TIP3    H155083   5.915   6.529  11.975
10296TIP3    H255084   5.786   6.549  11.898
10297TIP3   OH255085   5.779   6.842  12.328
10297TIP3    H155086   5.863   6.840  12.282
10297TIP3    H255087   5.789   6.910  12.394
10298TIP3   OH255088   6.030   6.431  12.386
10298TIP3    H155089   6.049   6.380  12.464
10298TIP3    H255090   5.944   6.401  12.357
10299TIP3   OH255091   4.127   6.862  12.933
10299TIP3    H155092   4.193   6.810  12.978
10299TIP3    H255093   4.177   6.915  12.870
10300TIP3   OH255094   6.061   6.429  12.044
10300TIP3    H155095   6.095   6.390  11.964
10300TIP3    H255096   6.114   6.508  12.058
10301TIP3   OH255097   4.219   6.476  12.219
10301TIP3    H155098   4.177   6.468  12.305
10301TIP3    H255099   4.180   6.554  12.180
10302TIP3   OH255100   5.744   8.098  12.502
10302TIP3    H155101   5.826   8.085  12.454
10302TIP3    H255102   5.765   8.164  12.568
10303TIP3   OH255103   4.661   7.825  12.803
10303TIP3    H155104   4.681   7.731  12.798
10303TIP3    H255105   4.747   7.868  12.796
10304TIP3   OH255106   4.912   7.936  12.755
10304TIP3    H155107   5.005   7.937  12.733
10304TIP3    H255108   4.898   8.017  12.804
10305TIP3   OH255109   6.148   6.307  12.607
10305TIP3    H155110   6.215   6.253  12.566
10305TIP3    H255111   6.192   6.389  12.630
10306TIP3   OH255112   4.426   6.311  12.550
10306TIP3    H155113   4.343   6.272  12.525
10306TIP3    H255114   4.489   6.239  12.543
10307TIP3   OH255115   4.386   6.304  12.083
10307TIP3    H155116   4.451   6.362  12.044
10307TIP3    H255117   4.329   6.361  12.133
10308TIP3   OH255118   5.003   6.225  12.499
10308TIP3    H155119   5.068   6.286  12.466
10308TIP3    H255120   4.976   6.261  12.584
10309TIP3   OH255121   5.743   6.289  12.300
10309TIP3    H155122   5.683   6.356  12.333
10309TIP3    H255123   5.687   6.214  12.281
10310TIP3   OH255124   4.349   8.077  12.173
10310TIP3    H155125   4.264   8.079  12.127
10310TIP3    H255126   4.332   8.121  12.256
10311TIP3   OH255127   4.596   6.461  11.962
10311TIP3    H155128   4.637   6.390  11.913
10311TIP3    H255129   4.663   6.490  12.024
10312TIP3   OH255130   5.079   6.560  12.214
10312TIP3    H155131   5.121   6.505  12.281
10312TIP3    H255132   5.089   6.649  12.247
10313TIP3   OH255133   5.343   8.150  11.933
10313TIP3    H155134   5.433   8.136  11.963
10313TIP3    H255135   5.313   8.063  11.906
10314TIP3   OH255136   5.970   8.076  12.333
10314TIP3    H155137   5.967   7.995  12.283
10314TIP3    H255138   5.966   8.145  12.267
10315TIP3   OH255139   4.479   8.081  11.906
10315TIP3    H155140   4.443   8.071  11.994
10315TIP3    H255141   4.550   8.017  11.901
10316TIP3   OH255142   7.595   7.276  12.499
10316TIP3    H155143   7.557   7.213  12.560
10316TIP3    H255144   7.523   7.296  12.438
10317TIP3   OH255145   7.488   7.090  12.672
10317TIP3    H155146   7.447   7.119  12.753
10317TIP3    H255147   7.549   7.021  12.700
10318TIP3   OH255148   6.500   7.064  12.710
10318TIP3    H155149   6.518   6.970  12.698
10318TIP3    H255150   6.415   7.078  12.669
10319TIP3   OH255151   6.898   6.574  12.590
10319TIP3    H155152   6.861   6.655  12.556
10319TIP3    H255153   6.829   6.509  12.577
10320TIP3   OH255154   7.733   6.680  12.495
10320TIP3    H155155   7.782   6.632  12.562
10320TIP3    H255156   7.799   6.728  12.446
10321TIP3   OH255157   6.553   6.797  12.655
10321TIP3    H155158   6.644   6.808  12.626
10321TIP3    H255159   6.514   6.740  12.589
10322TIP3   OH255160   7.900   6.582  12.689
10322TIP3    H155161   7.855   6.508  12.730
10322TIP3    H255162   7.935   6.633  12.762
10323TIP3   OH255163   6.368   7.601  12.183
10323TIP3    H155164   6.364   7.642  12.097
10323TIP3    H255165   6.348   7.672  12.244
10324TIP3   OH255166   7.409   7.269  12.287
10324TIP3    H155167   7.335   7.328  12.271
10324TIP3    H255168   7.456   7.267  12.203
10325TIP3   OH255169   7.367   7.126  11.923
10325TIP3    H155170   7.429   7.159  11.988
10325TIP3    H255171   7.409   7.046  11.889
10326TIP3   OH255172   7.755   7.233  12.279
10326TIP3    H155173   7.714   7.252  12.363
10326TIP3    H255174   7.761   7.137  12.277
10327TIP3   OH255175   7.132   7.829  12.798
10327TIP3    H155176   7.223   7.800  12.802
10327TIP3    H255177   7.088   7.778  12.866
10328TIP3   OH255178   7.578   7.242  12.069
10328TIP3    H155179   7.646   7.246  12.136
10328TIP3    H255180   7.625   7.226  11.987
10329TIP3   OH255181   8.073   6.257  12.170
10329TIP3    H155182   8.002   6.271  12.233
10329TIP3    H255183   8.085   6.342  12.128
10330TIP3   OH255184   6.753   7.240  12.138
10330TIP3    H155185   6.661   7.269  12.142
10330TIP3    H255186   6.747   7.146  12.123
10331TIP3   OH255187   8.128   7.899  11.919
10331TIP3    H155188   8.142   7.989  11.948
10331TIP3    H255189   8.164   7.897  11.830
10332TIP3   OH255190   6.365   7.872  12.846
10332TIP3    H155191   6.456   7.903  12.839
10332TIP3    H255192   6.343   7.885  12.938
10333TIP3   OH255193   6.565   8.078  12.601
10333TIP3    H155194   6.578   8.052  12.692
10333TIP3    H255195   6.652   8.073  12.562
10334TIP3   OH255196   7.705   8.161  11.974
10334TIP3    H155197   7.725   8.067  11.980
10334TIP3    H255198   7.708   8.192  12.064
10335TIP3   OH255199   7.697   7.165  11.831
10335TIP3    H155200   7.730   7.171  11.742
10335TIP3    H255201   7.728   7.081  11.863
10336TIP3   OH255202   7.325   6.557  12.021
10336TIP3    H155203   7.270   6.570  12.098
10336TIP3    H255204   7.281   6.489  11.970
10337TIP3   OH255205   6.762   6.782  12.465
10337TIP3    H155206   6.683   6.740  12.430
10337TIP3    H255207   6.810   6.812  12.388
10338TIP3   OH255208   7.479   7.004  12.373
10338TIP3    H155209   7.453   7.090  12.341
10338TIP3    H255210   7.561   6.985  12.327
10339TIP3   OH255211   7.603   6.841  12.678
10339TIP3    H155212   7.655   6.788  12.618
10339TIP3    H255213   7.582   6.781  12.750
10340TIP3   OH255214   7.000   6.617  11.892
10340TIP3    H155215   6.969   6.601  11.981
10340TIP3    H255216   6.938   6.682  11.857
10341TIP3   OH255217   6.261   6.566  12.603
10341TIP3    H155218   6.193   6.634  12.607
10341TIP3    H255219   6.283   6.560  12.510
10342TIP3   OH255220   6.184   6.684  12.089
10342TIP3    H155221   6.231   6.740  12.027
10342TIP3    H255222   6.113   6.739  12.122
10343TIP3   OH255223   7.173   6.537  12.578
10343TIP3    H155224   7.078   6.542  12.587
10343TIP3    H255225   7.206   6.532  12.668
10344TIP3   OH255226   6.527   6.630  12.429
10344TIP3    H155227   6.453   6.600  12.376
10344TIP3    H255228   6.573   6.550  12.453
10345TIP3   OH255229   6.916   6.845  12.241
10345TIP3    H155230   7.002   6.874  12.270
10345TIP3    H255231   6.900   6.894  12.160
10346TIP3   OH255232   6.900   6.980  12.002
10346TIP3    H155233   6.876   6.924  11.929
10346TIP3    H255234   6.967   7.039  11.967
10347TIP3   OH255235   7.329   6.785  12.758
10347TIP3    H155236   7.315   6.693  12.780
10347TIP3    H255237   7.340   6.828  12.843
10348TIP3   OH255238   6.679   6.406  12.497
10348TIP3    H155239   6.636   6.334  12.543
10348TIP3    H255240   6.715   6.366  12.418
10349TIP3   OH255241   7.200   7.445  12.216
10349TIP3    H155242   7.136   7.415  12.152
10349TIP3    H255243   7.148   7.466  12.294
10350TIP3   OH255244   7.590   6.603  12.082
10350TIP3    H155245   7.498   6.605  12.054
10350TIP3    H255246   7.627   6.684  12.047
10351TIP3   OH255247   7.734   6.956  12.253
10351TIP3    H155248   7.803   6.903  12.293
10351TIP3    H255249   7.737   6.933  12.160
10352TIP3   OH255250   7.550   7.620  12.129
10352TIP3    H155251   7.538   7.688  12.194
10352TIP3    H255252   7.515   7.541  12.169
10353TIP3   OH255253   8.120   6.950  12.217
10353TIP3    H155254   8.115   6.891  12.142
10353TIP3    H255255   8.127   7.037  12.178
10354TIP3   OH255256   8.002   7.876  12.171
10354TIP3    H155257   7.933   7.810  12.163
10354TIP3    H255258   8.045   7.877  12.086
10355TIP3   OH255259   7.080   7.759  12.529
10355TIP3    H155260   7.094   7.792  12.618
10355TIP3    H255261   7.149   7.800  12.477
10356TIP3   OH255262   6.322   7.148  12.039
10356TIP3    H155263   6.378   7.216  12.075
10356TIP3    H255264   6.245   7.147  12.096
10357TIP3   OH255265   7.025   7.519  12.413
10357TIP3    H155266   7.050   7.600  12.457
10357TIP3    H255267   6.930   7.522  12.410
10358TIP3   OH255268   7.824   7.667  12.083
10358TIP3    H155269   7.860   7.593  12.131
10358TIP3    H255270   7.729   7.659  12.095
10359TIP3   OH255271   8.174   8.157  12.031
10359TIP3    H155272   8.243   8.138  12.095
10359TIP3    H255273   8.104   8.196  12.083
10360TIP3   OH255274   7.920   7.445  12.211
10360TIP3    H155275   7.858   7.374  12.227
10360TIP3    H255276   7.999   7.419  12.259
10361TIP3   OH255277   7.128   7.768  11.889
10361TIP3    H155278   7.126   7.680  11.851
10361TIP3    H255279   7.144   7.754  11.982
10362TIP3   OH255280   7.189   7.730  12.156
10362TIP3    H155281   7.205   7.637  12.176
10362TIP3    H255282   7.215   7.776  12.236
10363TIP3   OH255283   6.497   7.367  12.106
10363TIP3    H155284   6.441   7.427  12.156
10363TIP3    H255285   6.551   7.425  12.051
10364TIP3   OH255286   7.522   6.558  12.353
10364TIP3    H155287   7.551   6.562  12.262
10364TIP3    H255288   7.598   6.590  12.403
10365TIP3   OH255289   7.318   6.719  12.443
10365TIP3    H155290   7.388   6.665  12.406
10365TIP3    H255291   7.269   6.659  12.499
10366TIP3   OH255292   7.322   6.366  12.418
10366TIP3    H155293   7.274   6.415  12.485
10366TIP3    H255294   7.401   6.418  12.403
10367TIP3   OH255295   6.906   6.580  12.149
10367TIP3    H155296   6.892   6.667  12.186
10367TIP3    H255297   6.989   6.550  12.186
10368TIP3   OH255298   6.653   7.581  11.994
10368TIP3    H155299   6.698   7.615  12.071
10368TIP3    H255300   6.724   7.550  11.937
10369TIP3   OH255301   6.276   6.892  11.922
10369TIP3    H155302   6.300   6.972  11.970
10369TIP3    H255303   6.224   6.923  11.849
10370TIP3   OH255304   6.608   6.101  12.860
10370TIP3    H155305   6.599   6.141  12.773
10370TIP3    H255306   6.698   6.069  12.863
10371TIP3   OH255307   6.310   7.840  12.309
10371TIP3    H155308   6.313   7.866  12.401
10371TIP3    H255309   6.330   7.921  12.261
10372TIP3   OH255310   7.293   7.989  11.852
10372TIP3    H155311   7.239   7.912  11.869
10372TIP3    H255312   7.380   7.953  11.833
10373TIP3   OH255313   7.769   7.890  11.913
10373TIP3    H155314   7.795   7.816  11.968
10373TIP3    H255315   7.834   7.892  11.842
10374TIP3   OH255316   6.857   7.473  11.845
10374TIP3    H155317   6.895   7.429  11.921
10374TIP3    H255318   6.932   7.495  11.790
10375TIP3   OH255319   7.476   7.605  11.860
10375TIP3    H155320   7.496   7.611  11.953
10375TIP3    H255321   7.480   7.511  11.841
10376TIP3   OH255322   6.990   7.348  12.056
10376TIP3    H155323   6.913   7.310  12.098
10376TIP3    H255324   7.027   7.275  12.005
10377TIP3   OH255325   7.093   7.151  11.892
10377TIP3    H155326   7.092   7.181  11.801
10377TIP3    H255327   7.186   7.137  11.911
10378TIP3   OH255328   8.136   7.370  11.877
10378TIP3    H155329   8.079   7.331  11.811
10378TIP3    H255330   8.100   7.457  11.891
10379TIP3   OH255331   6.415   7.699  11.914
10379TIP3    H155332   6.502   7.678  11.949
10379TIP3    H255333   6.393   7.625  11.858
10380TIP3   OH255334   6.190   8.160  12.499
10380TIP3    H155335   6.113   8.140  12.446
10380TIP3    H255336   6.225   8.075  12.524
10381TIP3   OH255337   6.330   7.933  12.574
10381TIP3    H155338   6.322   7.895  12.662
10381TIP3    H255339   6.413   7.980  12.576
10382TIP3   OH255340   8.139   7.339  12.352
10382TIP3    H155341   8.208   7.400  12.381
10382TIP3    H255342   8.130   7.277  12.424
10383TIP3   OH255343   8.156   7.168  12.579
10383TIP3    H155344   8.093   7.100  12.603
10383TIP3    H255345   8.220   7.168  12.651
10384TIP3   OH255346   8.153   7.199  12.105
10384TIP3    H155347   8.148   7.257  12.029
10384TIP3    H255348   8.146   7.257  12.181
10385TIP3   OH255349   8.068   6.797  11.993
10385TIP3    H155350   7.975   6.820  11.993
10385TIP3    H255351   8.099   6.821  11.906
10386TIP3   OH255352   7.994   6.952  12.641
10386TIP3    H155353   7.973   6.899  12.564
10386TIP3    H255354   7.997   6.889  12.713
10387TIP3   OH255355   6.457   7.446  12.962
10387TIP3    H155356   6.420   7.533  12.948
10387TIP3    H255357   6.503   7.453  13.046
10388TIP3   OH255358   7.877   6.580  11.852
10388TIP3    H155359   7.847   6.665  11.884
10388TIP3    H255360   7.796   6.533  11.831
10389TIP3   OH255361   7.960   6.804  12.388
10389TIP3    H155362   8.007   6.720  12.387
10389TIP3    H255363   8.014   6.862  12.336
10390TIP3   OH255364   8.033   6.767  12.859
10390TIP3    H155365   8.113   6.819  12.858
10390TIP3    H255366   8.038   6.717  12.941
10391TIP3   OH255367   8.036   6.506  12.463
10391TIP3    H155368   7.985   6.534  12.539
10391TIP3    H255369   7.983   6.438  12.423
10392TIP3   OH255370   8.070   6.524  12.056
10392TIP3    H155371   7.999   6.506  11.994
10392TIP3    H255372   8.087   6.618  12.047
10393TIP3   OH255373   6.276   6.538  12.311
10393TIP3    H155374   6.192   6.495  12.330
10393TIP3    H255375   6.256   6.595  12.236
10394TIP3   OH255376   7.010   8.082  12.777
10394TIP3    H155377   7.058   8.000  12.779
10394TIP3    H255378   6.930   8.064  12.826
10395TIP3   OH255379   7.992   6.295  12.782
10395TIP3    H155380   7.899   6.302  12.761
10395TIP3    H255381   7.998   6.315  12.875
10396TIP3   OH255382   6.557   6.171  12.587
10396TIP3    H155383   6.466   6.163  12.557
10396TIP3    H255384   6.593   6.083  12.579
10397TIP3   OH255385   6.441   6.328  12.197
10397TIP3    H155386   6.515   6.372  12.156
10397TIP3    H255387   6.387   6.399  12.232
10398TIP3   OH255388   7.197   6.164  12.589
10398TIP3    H155389   7.252   6.217  12.531
10398TIP3    H255390   7.219   6.193  12.677
10399TIP3   OH255391   7.737   6.341  12.694
10399TIP3    H155392   7.728   6.300  12.608
10399TIP3    H255393   7.671   6.298  12.748
10400TIP3   OH255394   7.884   6.288  12.373
10400TIP3    H155395   7.808   6.246  12.333
10400TIP3    H255396   7.909   6.230  12.445
10401TIP3   OH255397   6.353   8.068  12.147
10401TIP3    H155398   6.277   8.069  12.089
10401TIP3    H255399   6.380   8.159  12.154
10402TIP3   OH255400   6.663   6.440  12.077
10402TIP3    H155401   6.683   6.387  11.999
10402TIP3    H255402   6.746   6.484  12.097
10403TIP3   OH255403   7.164   6.550  12.252
10403TIP3    H155404   7.195   6.468  12.291
10403TIP3    H255405   7.191   6.617  12.314
10404TIP3   OH255406   8.106   8.068  12.340
10404TIP3    H155407   8.070   7.992  12.294
10404TIP3    H255408   8.061   8.143  12.302
10405TIP3   OH255409   6.560   8.208  11.899
10405TIP3    H155410   6.502   8.262  11.953
10405TIP3    H255411   6.565   8.125  11.946
10406TIP3   OH255412   8.314   7.025  12.402
10406TIP3    H155413   8.256   7.076  12.458
10406TIP3    H255414   8.257   6.989  12.334
10407TIP3   OH255415   8.320   8.164  12.483
10407TIP3    H155416   8.243   8.127  12.440
10407TIP3    H255417   8.347   8.097  12.546
10408TIP3   OH255418   0.002   8.047  12.706
10408TIP3    H155419   8.445   7.994  12.786
10408TIP3    H255420   8.432   8.136  12.734
10409TIP3   OH255421   8.373   7.159  12.771
10409TIP3    H155422   0.002   7.151  12.714
10409TIP3    H255423   8.393   7.234  12.827
10410TIP3   OH255424   8.266   6.909  12.854
10410TIP3    H155425   8.289   6.995  12.818
10410TIP3    H255426   8.339   6.888  12.913
10411TIP3   OH255427   8.243   6.544  12.277
10411TIP3    H155428   8.177   6.529  12.344
10411TIP3    H255429   8.197   6.530  12.194
10412TIP3   OH255430   1.858   8.311  12.185
10412TIP3    H155431   1.766   8.320  12.208
10412TIP3    H255432   1.894   8.400  12.196
10413TIP3   OH255433   0.286   8.276  12.512
10413TIP3    H155434   0.271   8.369  12.494
10413TIP3    H255435   0.342   8.276  12.589
10414TIP3   OH255436   1.806   8.147  12.787
10414TIP3    H155437   1.779   8.108  12.871
10414TIP3    H255438   1.895   8.115  12.773
10415TIP3   OH255439   0.584   8.302  12.277
10415TIP3    H155440   0.537   8.356  12.341
10415TIP3    H255441   0.672   8.295  12.313
10416TIP3   OH255442   0.395   8.278  12.075
10416TIP3    H155443   0.334   8.345  12.105
10416TIP3    H255444   0.472   8.288  12.132
10417TIP3   OH255445   1.608   8.353  12.317
10417TIP3    H155446   1.556   8.277  12.290
10417TIP3    H255447   1.639   8.331  12.405
10418TIP3   OH255448   2.879   8.078  12.768
10418TIP3    H155449   2.926   8.139  12.826
10418TIP3    H255450   2.790   8.077  12.804
10419TIP3   OH255451   3.875   8.234  12.157
10419TIP3    H155452   3.787   8.242  12.195
10419TIP3    H255453   3.899   8.323  12.133
10420TIP3   OH255454   3.789   8.282  12.704
10420TIP3    H155455   3.769   8.375  12.712
10420TIP3    H255456   3.757   8.243  12.786
10421TIP3   OH255457   2.311   8.223  12.364
10421TIP3    H155458   2.242   8.182  12.416
10421TIP3    H255459   2.389   8.215  12.417
10422TIP3   OH255460   2.353   8.291  12.090
10422TIP3    H155461   2.342   8.385  12.079
10422TIP3    H255462   2.345   8.277  12.184
10423TIP3   OH255463   2.893   8.248  12.524
10423TIP3    H155464   2.968   8.303  12.499
10423TIP3    H255465   2.913   8.220  12.613
10424TIP3   OH255466   3.678   8.197  12.939
10424TIP3    H155467   3.647   8.271  12.991
10424TIP3    H255468   3.608   8.133  12.945
10425TIP3   OH255469   3.644   8.304  12.299
10425TIP3    H155470   3.562   8.257  12.281
10425TIP3    H255471   3.679   8.261  12.377
10426TIP3   OH255472   5.111   8.211  12.777
10426TIP3    H155473   5.150   8.125  12.761
10426TIP3    H255474   5.037   8.193  12.835
10427TIP3   OH255475   5.947   8.245  12.114
10427TIP3    H155476   5.853   8.262  12.119
10427TIP3    H255477   5.988   8.329  12.130
10428TIP3   OH255478   4.875   8.160  12.915
10428TIP3    H155479   4.813   8.231  12.895
10428TIP3    H255480   4.845   8.125  12.999
10429TIP3   OH255481   4.328   8.400  12.868
10429TIP3    H155482   4.324   8.400  12.772
10429TIP3    H255483   4.322   8.307  12.892
10430TIP3   OH255484   4.315   8.386  12.594
10430TIP3    H155485   4.299   8.310  12.537
10430TIP3    H255486   4.301   0.013  12.537
10431TIP3   OH255487   4.149   8.367  12.029
10431TIP3    H155488   4.171   8.427  11.958
10431TIP3    H255489   4.076   8.410  12.075
10432TIP3   OH255490   4.979   8.222  12.532
10432TIP3    H155491   4.963   8.316  12.525
10432TIP3    H255492   5.031   8.213  12.612
10433TIP3   OH255493   5.692   8.348  12.167
10433TIP3    H155494   5.641   8.382  12.093
10433TIP3    H255495   5.636   8.280  12.205
10434TIP3   OH255496   7.021   8.351  12.700
10434TIP3    H155497   7.029   8.259  12.725
10434TIP3    H255498   6.931   8.374  12.725
10435TIP3   OH255499   7.995   8.283  12.201
10435TIP3    H155500   7.900   8.275  12.198
10435TIP3    H255501   8.011   8.375  12.223
10436TIP3   OH255502   6.766   8.406  12.793
10436TIP3    H155503   6.689   0.006  12.765
10436TIP3    H255504   6.732   8.338  12.852
10437TIP3   OH255505   6.418   8.313  12.552
10437TIP3    H155506   6.332   8.278  12.526
10437TIP3    H255507   6.472   8.235  12.565
10438TIP3   OH255508   6.380   8.341  12.063
10438TIP3    H155509   6.413   8.429  12.081
10438TIP3    H255510   6.286   8.351  12.055
10439TIP3   OH255511   7.719   8.299  12.221
10439TIP3    H155512   7.709   8.395  12.220
10439TIP3    H255513   7.687   8.273  12.307
   8.44854   8.44854  30.00000
