Title
55513
    1DOPE     N    1   4.501   4.562  16.966
    1DOPE   HN1    2   4.568   4.533  17.040
    1DOPE   HN2    3   4.461   4.655  16.987
    1DOPE   HN3    4   4.426   4.490  16.964
    1DOPE   C12    5   4.578   4.558  16.837
    1DOPE  H12A    6   4.676   4.609  16.856
    1DOPE  H12B    7   4.522   4.616  16.760
    1DOPE   C11    8   4.603   4.413  16.790
    1DOPE  H11A    9   4.688   4.411  16.718
    1DOPE  H11B   10   4.513   4.379  16.734
    1DOPE     P   11   4.751   4.335  16.992
    1DOPE   O13   12   4.785   4.203  17.049
    1DOPE   O14   13   4.717   4.443  17.087
    1DOPE   O11   14   4.862   4.384  16.892
    1DOPE   O12   15   4.625   4.321  16.898
    1DOPE    C1   16   4.980   4.447  16.942
    1DOPE    HA   17   5.030   4.382  17.017
    1DOPE    HB   18   4.955   4.544  16.990
    1DOPE    C2   19   5.085   4.476  16.830
    1DOPE    HS   20   5.172   4.521  16.881
    1DOPE   O21   21   5.028   4.569  16.735
    1DOPE   C21   22   5.119   4.624  16.655
    1DOPE   O22   23   5.239   4.612  16.667
    1DOPE   C22   24   5.049   4.708  16.548
    1DOPE   H2R   25   4.982   4.779  16.602
    1DOPE   H2S   26   4.986   4.641  16.486
    1DOPE    C3   27   5.134   4.345  16.760
    1DOPE    HX   28   5.172   4.281  16.842
    1DOPE    HY   29   5.219   4.368  16.693
    1DOPE   O31   30   5.028   4.284  16.683
    1DOPE   C31   31   5.004   4.155  16.705
    1DOPE   O32   32   5.074   4.080  16.771
    1DOPE   C32   33   4.874   4.112  16.636
    1DOPE   H2X   34   4.869   4.002  16.648
    1DOPE   H2Y   35   4.789   4.157  16.692
    1DOPE   C23   36   5.148   4.788  16.460
    1DOPE   H3R   37   5.228   4.832  16.524
    1DOPE   H3S   38   5.094   4.872  16.412
    1DOPE   C24   39   5.214   4.705  16.349
    1DOPE   H4R   40   5.254   4.610  16.391
    1DOPE   H4S   41   5.301   4.761  16.310
    1DOPE   C25   42   5.120   4.676  16.231
    1DOPE   H5R   43   5.077   4.773  16.198
    1DOPE   H5S   44   5.036   4.612  16.264
    1DOPE   C26   45   5.190   4.612  16.110
    1DOPE   H6R   46   5.279   4.673  16.086
    1DOPE   H6S   47   5.122   4.616  16.022
    1DOPE   C27   48   5.234   4.466  16.130
    1DOPE   H7R   49   5.288   4.458  16.227
    1DOPE   H7S   50   5.306   4.438  16.050
    1DOPE   C28   51   5.116   4.367  16.125
    1DOPE   H8R   52   5.074   4.367  16.022
    1DOPE   H8S   53   5.036   4.405  16.192
    1DOPE   C29   54   5.155   4.228  16.171
    1DOPE   H9R   55   5.194   4.225  16.274
    1DOPE  C210   56   5.150   4.113  16.101
    1DOPE  H10R   57   5.183   4.021  16.151
    1DOPE  C211   58   5.105   4.092  15.959
    1DOPE  H11R   59   5.049   4.180  15.920
    1DOPE  H11S   60   5.035   4.005  15.954
    1DOPE  C212   61   5.221   4.064  15.861
    1DOPE  H12R   62   5.289   4.152  15.861
    1DOPE  H12S   63   5.180   4.057  15.758
    1DOPE  C213   64   5.305   3.938  15.891
    1DOPE  H13R   65   5.274   3.893  15.988
    1DOPE  H13S   66   5.410   3.970  15.904
    1DOPE  C214   67   5.298   3.828  15.783
    1DOPE  H14R   68   5.262   3.872  15.688
    1DOPE  H14S   69   5.224   3.752  15.815
    1DOPE  C215   70   5.434   3.760  15.755
    1DOPE  H15R   71   5.415   3.674  15.688
    1DOPE  H15S   72   5.477   3.720  15.849
    1DOPE  C216   73   5.535   3.853  15.686
    1DOPE  H16R   74   5.572   3.929  15.759
    1DOPE  H16S   75   5.484   3.908  15.605
    1DOPE  C217   76   5.655   3.781  15.624
    1DOPE  H17R   77   5.618   3.701  15.556
    1DOPE  H17S   78   5.715   3.731  15.703
    1DOPE  C218   79   5.747   3.874  15.544
    1DOPE  H18R   80   5.787   3.955  15.609
    1DOPE  H18S   81   5.691   3.921  15.460
    1DOPE  H18T   82   5.833   3.818  15.502
    1DOPE   C33   83   4.865   4.146  16.485
    1DOPE   H3X   84   4.788   4.080  16.441
    1DOPE   H3Y   85   4.960   4.125  16.433
    1DOPE   C34   86   4.820   4.291  16.458
    1DOPE   H4X   87   4.732   4.314  16.522
    1DOPE   H4Y   88   4.902   4.360  16.486
    1DOPE   C35   89   4.780   4.316  16.312
    1DOPE   H5X   90   4.692   4.253  16.286
    1DOPE   H5Y   91   4.864   4.284  16.246
    1DOPE   C36   92   4.747   4.463  16.284
    1DOPE   H6X   93   4.835   4.525  16.314
    1DOPE   H6Y   94   4.661   4.493  16.348
    1DOPE   C37   95   4.713   4.490  16.137
    1DOPE   H7X   96   4.799   4.463  16.073
    1DOPE   H7Y   97   4.629   4.423  16.109
    1DOPE   C38   98   4.670   4.636  16.108
    1DOPE   H8X   99   4.588   4.663  16.179
    1DOPE   H8Y  100   4.625   4.637  16.007
    1DOPE   C39  101   4.784   4.735  16.120
    1DOPE   H9X  102   4.832   4.735  16.219
    1DOPE  C310  103   4.831   4.818  16.025
    1DOPE  H10X  104   4.916   4.883  16.050
    1DOPE  C311  105   4.781   4.834  15.883
    1DOPE  H11X  106   4.691   4.772  15.864
    1DOPE  H11Y  107   4.751   4.939  15.865
    1DOPE  C312  108   4.886   4.795  15.777
    1DOPE  H12X  109   4.834   4.791  15.679
    1DOPE  H12Y  110   4.926   4.693  15.797
    1DOPE  C313  111   5.003   4.895  15.763
    1DOPE  H13X  112   4.961   4.998  15.758
    1DOPE  H13Y  113   5.069   4.890  15.852
    1DOPE  C314  114   5.084   4.870  15.635
    1DOPE  H14X  115   5.013   4.865  15.550
    1DOPE  H14Y  116   5.136   4.772  15.641
    1DOPE  C315  117   5.187   4.980  15.603
    1DOPE  H15X  118   5.141   5.080  15.618
    1DOPE  H15Y  119   5.214   4.972  15.496
    1DOPE  C316  120   5.317   4.969  15.684
    1DOPE  H16X  121   5.358   4.867  15.668
    1DOPE  H16Y  122   5.296   4.981  15.792
    1DOPE  C317  123   5.424   5.070  15.640
    1DOPE  H17X  124   5.437   5.064  15.530
    1DOPE  H17Y  125   5.388   5.173  15.664
    1DOPE  C318  126   5.561   5.049  15.707
    1DOPE  H18X  127   5.632   5.128  15.676
    1DOPE  H18Y  128   5.551   5.050  15.817
    1DOPE  H18Z  129   5.604   4.951  15.677
    2DOPE     N  130   5.598   5.265  16.872
    2DOPE   HN1  131   5.668   5.242  16.945
    2DOPE   HN2  132   5.631   5.227  16.782
    2DOPE   HN3  133   5.593   5.369  16.865
    2DOPE   C12  134   5.466   5.202  16.909
    2DOPE  H12A  135   5.387   5.248  16.846
    2DOPE  H12B  136   5.447   5.226  17.016
    2DOPE   C11  137   5.468   5.050  16.889
    2DOPE  H11A  138   5.479   5.024  16.782
    2DOPE  H11B  139   5.370   5.009  16.921
    2DOPE     P  140   5.709   4.943  16.916
    2DOPE   O13  141   5.712   4.798  16.893
    2DOPE   O14  142   5.813   5.001  17.005
    2DOPE   O11  143   5.719   5.022  16.778
    2DOPE   O12  144   5.569   4.990  16.970
    2DOPE    C1  145   5.841   5.002  16.703
    2DOPE    HA  146   5.865   4.894  16.695
    2DOPE    HB  147   5.925   5.052  16.755
    2DOPE    C2  148   5.838   5.057  16.556
    2DOPE    HS  149   5.872   5.162  16.558
    2DOPE   O21  150   5.709   5.046  16.495
    2DOPE   C21  151   5.621   5.137  16.528
    2DOPE   O22  152   5.639   5.231  16.605
    2DOPE   C22  153   5.488   5.108  16.457
    2DOPE   H2R  154   5.434   5.034  16.521
    2DOPE   H2S  155   5.509   5.059  16.360
    2DOPE    C3  156   5.940   4.976  16.469
    2DOPE    HX  157   6.038   4.978  16.521
    2DOPE    HY  158   5.952   5.029  16.373
    2DOPE   O31  159   5.897   4.838  16.457
    2DOPE   C31  160   5.854   4.801  16.336
    2DOPE   O32  161   5.870   4.865  16.234
    2DOPE   C32  162   5.778   4.668  16.349
    2DOPE   H2X  163   5.842   4.599  16.408
    2DOPE   H2Y  164   5.685   4.687  16.407
    2DOPE   C23  165   5.400   5.234  16.438
    2DOPE   H3R  166   5.400   5.295  16.531
    2DOPE   H3S  167   5.295   5.201  16.420
    2DOPE   C24  168   5.442   5.321  16.319
    2DOPE   H4R  169   5.552   5.335  16.319
    2DOPE   H4S  170   5.396   5.422  16.330
    2DOPE   C25  171   5.398   5.264  16.183
    2DOPE   H5R  172   5.287   5.257  16.180
    2DOPE   H5S  173   5.438   5.161  16.171
    2DOPE   C26  174   5.445   5.348  16.063
    2DOPE   H6R  175   5.556   5.352  16.066
    2DOPE   H6S  176   5.408   5.453  16.071
    2DOPE   C27  177   5.403   5.287  15.928
    2DOPE   H7R  178   5.399   5.177  15.941
    2DOPE   H7S  179   5.481   5.307  15.852
    2DOPE   C28  180   5.266   5.335  15.875
    2DOPE   H8R  181   5.196   5.347  15.961
    2DOPE   H8S  182   5.225   5.254  15.812
    2DOPE   C29  183   5.276   5.465  15.797
    2DOPE   H9R  184   5.311   5.551  15.856
    2DOPE  C210  185   5.250   5.482  15.666
    2DOPE  H10R  186   5.263   5.582  15.622
    2DOPE  C211  187   5.203   5.375  15.570
    2DOPE  H11R  188   5.136   5.303  15.622
    2DOPE  H11S  189   5.290   5.317  15.533
    2DOPE  C212  190   5.125   5.428  15.448
    2DOPE  H12R  191   5.042   5.493  15.483
    2DOPE  H12S  192   5.080   5.341  15.395
    2DOPE  C213  193   5.210   5.506  15.345
    2DOPE  H13R  194   5.258   5.593  15.393
    2DOPE  H13S  195   5.141   5.544  15.266
    2DOPE  C214  196   5.318   5.421  15.275
    2DOPE  H14R  197   5.271   5.329  15.234
    2DOPE  H14S  198   5.394   5.389  15.350
    2DOPE  C215  199   5.389   5.497  15.162
    2DOPE  H15R  200   5.428   5.592  15.203
    2DOPE  H15S  201   5.314   5.522  15.083
    2DOPE  C216  202   5.505   5.419  15.097
    2DOPE  H16R  203   5.580   5.394  15.175
    2DOPE  H16S  204   5.555   5.486  15.024
    2DOPE  C217  205   5.463   5.291  15.025
    2DOPE  H17R  206   5.383   5.315  14.952
    2DOPE  H17S  207   5.419   5.220  15.099
    2DOPE  C218  208   5.578   5.221  14.953
    2DOPE  H18R  209   5.543   5.129  14.902
    2DOPE  H18S  210   5.659   5.194  15.024
    2DOPE  H18T  211   5.622   5.288  14.876
    2DOPE   C33  212   5.742   4.603  16.213
    2DOPE   H3X  213   5.701   4.502  16.233
    2DOPE   H3Y  214   5.834   4.590  16.152
    2DOPE   C34  215   5.637   4.681  16.132
    2DOPE   H4X  216   5.547   4.697  16.194
    2DOPE   H4Y  217   5.678   4.781  16.107
    2DOPE   C35  218   5.597   4.612  16.001
    2DOPE   H5X  219   5.538   4.521  16.026
    2DOPE   H5Y  220   5.687   4.581  15.945
    2DOPE   C36  221   5.513   4.705  15.912
    2DOPE   H6X  222   5.577   4.786  15.871
    2DOPE   H6Y  223   5.438   4.755  15.977
    2DOPE   C37  224   5.437   4.634  15.799
    2DOPE   H7X  225   5.414   4.529  15.828
    2DOPE   H7Y  226   5.340   4.686  15.787
    2DOPE   C38  227   5.512   4.638  15.664
    2DOPE   H8X  228   5.599   4.569  15.669
    2DOPE   H8Y  229   5.553   4.740  15.650
    2DOPE   C39  230   5.421   4.599  15.550
    2DOPE   H9X  231   5.360   4.510  15.571
    2DOPE  C310  232   5.404   4.661  15.432
    2DOPE  H10X  233   5.333   4.618  15.359
    2DOPE  C311  234   5.473   4.787  15.383
    2DOPE  H11X  235   5.397   4.859  15.346
    2DOPE  H11Y  236   5.525   4.839  15.466
    2DOPE  C312  237   5.577   4.762  15.272
    2DOPE  H12X  238   5.656   4.695  15.312
    2DOPE  H12Y  239   5.625   4.859  15.248
    2DOPE  C313  240   5.522   4.702  15.141
    2DOPE  H13X  241   5.606   4.694  15.069
    2DOPE  H13Y  242   5.485   4.598  15.160
    2DOPE  C314  243   5.410   4.784  15.076
    2DOPE  H14X  244   5.439   4.891  15.072
    2DOPE  H14Y  245   5.319   4.777  15.141
    2DOPE  C315  246   5.374   4.736  14.934
    2DOPE  H15X  247   5.263   4.727  14.928
    2DOPE  H15Y  248   5.415   4.635  14.917
    2DOPE  C316  249   5.419   4.832  14.822
    2DOPE  H16X  250   5.372   4.931  14.841
    2DOPE  H16Y  251   5.379   4.795  14.725
    2DOPE  C317  252   5.571   4.851  14.809
    2DOPE  H17X  253   5.589   4.933  14.737
    2DOPE  H17Y  254   5.612   4.883  14.907
    2DOPE  C318  255   5.646   4.726  14.761
    2DOPE  H18X  256   5.754   4.748  14.750
    2DOPE  H18Y  257   5.633   4.642  14.832
    2DOPE  H18Z  258   5.607   4.694  14.661
    3DOPE     N  259   4.477   6.180  16.856
    3DOPE   HN1  260   4.501   6.181  16.958
    3DOPE   HN2  261   4.498   6.086  16.817
    3DOPE   HN3  262   4.538   6.250  16.809
    3DOPE   C12  263   4.331   6.214  16.842
    3DOPE  H12A  264   4.309   6.233  16.735
    3DOPE  H12B  265   4.313   6.307  16.900
    3DOPE   C11  266   4.245   6.099  16.897
    3DOPE  H11A  267   4.285   6.065  16.994
    3DOPE  H11B  268   4.250   6.014  16.825
    3DOPE     P  269   3.998   6.036  16.937
    3DOPE   O13  270   3.873   6.105  16.974
    3DOPE   O14  271   4.051   5.933  17.030
    3DOPE   O11  272   3.987   5.974  16.793
    3DOPE   O12  273   4.111   6.145  16.915
    3DOPE    C1  274   3.860   5.950  16.732
    3DOPE    HA  275   3.820   6.045  16.690
    3DOPE    HB  276   3.786   5.911  16.805
    3DOPE    C2  277   3.871   5.847  16.616
    3DOPE    HS  278   3.907   5.751  16.660
    3DOPE   O21  279   3.960   5.897  16.516
    3DOPE   C21  280   4.088   5.869  16.536
    3DOPE   O22  281   4.133   5.790  16.616
    3DOPE   C22  282   4.174   5.957  16.444
    3DOPE   H2R  283   4.228   6.028  16.511
    3DOPE   H2S  284   4.108   6.016  16.377
    3DOPE    C3  285   3.732   5.817  16.552
    3DOPE    HX  286   3.667   5.776  16.632
    3DOPE    HY  287   3.745   5.735  16.477
    3DOPE   O31  288   3.669   5.935  16.499
    3DOPE   C31  289   3.679   5.952  16.367
    3DOPE   O32  290   3.728   5.873  16.289
    3DOPE   C32  291   3.612   6.085  16.329
    3DOPE   H2X  292   3.503   6.068  16.337
    3DOPE   H2Y  293   3.643   6.162  16.404
    3DOPE   C23  294   4.276   5.875  16.362
    3DOPE   H3R  295   4.318   5.794  16.425
    3DOPE   H3S  296   4.360   5.940  16.332
    3DOPE   C24  297   4.215   5.815  16.234
    3DOPE   H4R  298   4.113   5.777  16.256
    3DOPE   H4S  299   4.276   5.729  16.201
    3DOPE   C25  300   4.210   5.916  16.118
    3DOPE   H5R  301   4.314   5.941  16.089
    3DOPE   H5S  302   4.161   6.010  16.151
    3DOPE   C26  303   4.135   5.864  15.994
    3DOPE   H6R  304   4.167   5.760  15.972
    3DOPE   H6S  305   4.163   5.927  15.907
    3DOPE   C27  306   3.982   5.870  16.009
    3DOPE   H7R  307   3.955   5.976  16.031
    3DOPE   H7S  308   3.951   5.809  16.097
    3DOPE   C28  309   3.908   5.823  15.883
    3DOPE   H8R  310   3.931   5.716  15.867
    3DOPE   H8S  311   3.947   5.879  15.796
    3DOPE   C29  312   3.759   5.842  15.899
    3DOPE   H9R  313   3.718   5.808  15.996
    3DOPE  C210  314   3.675   5.897  15.809
    3DOPE  H10R  315   3.568   5.905  15.833
    3DOPE  C211  316   3.716   5.949  15.673
    3DOPE  H11R  317   3.780   5.876  15.620
    3DOPE  H11S  318   3.777   6.041  15.686
    3DOPE  C212  319   3.596   5.985  15.583
    3DOPE  H12R  320   3.635   6.028  15.488
    3DOPE  H12S  321   3.536   6.065  15.632
    3DOPE  C213  322   3.502   5.868  15.547
    3DOPE  H13R  323   3.419   5.908  15.486
    3DOPE  H13S  324   3.458   5.825  15.640
    3DOPE  C214  325   3.571   5.756  15.468
    3DOPE  H14R  326   3.651   5.710  15.530
    3DOPE  H14S  327   3.619   5.799  15.377
    3DOPE  C215  328   3.473   5.646  15.424
    3DOPE  H15R  329   3.395   5.691  15.358
    3DOPE  H15S  330   3.421   5.606  15.514
    3DOPE  C216  331   3.542   5.530  15.351
    3DOPE  H16R  332   3.621   5.489  15.418
    3DOPE  H16S  333   3.592   5.568  15.260
    3DOPE  C217  334   3.446   5.416  15.312
    3DOPE  H17R  335   3.396   5.378  15.404
    3DOPE  H17S  336   3.507   5.332  15.271
    3DOPE  C218  337   3.341   5.454  15.208
    3DOPE  H18R  338   3.389   5.491  15.115
    3DOPE  H18S  339   3.274   5.534  15.247
    3DOPE  H18T  340   3.278   5.366  15.182
    3DOPE   C33  341   3.647   6.132  16.186
    3DOPE   H3X  342   3.578   6.214  16.158
    3DOPE   H3Y  343   3.633   6.049  16.113
    3DOPE   C34  344   3.790   6.186  16.175
    3DOPE   H4X  345   3.804   6.270  16.246
    3DOPE   H4Y  346   3.862   6.105  16.204
    3DOPE   C35  347   3.825   6.233  16.033
    3DOPE   H5X  348   3.755   6.315  16.004
    3DOPE   H5Y  349   3.810   6.149  15.963
    3DOPE   C36  350   3.969   6.283  16.022
    3DOPE   H6X  351   4.038   6.203  16.056
    3DOPE   H6Y  352   3.983   6.371  16.088
    3DOPE   C37  353   4.006   6.322  15.878
    3DOPE   H7X  354   3.997   6.233  15.812
    3DOPE   H7Y  355   3.933   6.397  15.842
    3DOPE   C38  356   4.148   6.382  15.864
    3DOPE   H8X  357   4.156   6.469  15.931
    3DOPE   H8Y  358   4.158   6.421  15.761
    3DOPE   C39  359   4.258   6.283  15.895
    3DOPE   H9X  360   4.291   6.282  15.999
    3DOPE  C310  361   4.314   6.197  15.808
    3DOPE  H10X  362   4.393   6.130  15.844
    3DOPE  C311  363   4.280   6.181  15.661
    3DOPE  H11X  364   4.206   6.257  15.629
    3DOPE  H11Y  365   4.371   6.196  15.599
    3DOPE  C312  366   4.221   6.042  15.630
    3DOPE  H12X  367   4.178   6.045  15.527
    3DOPE  H12Y  368   4.136   6.021  15.699
    3DOPE  C313  369   4.323   5.927  15.636
    3DOPE  H13X  370   4.398   5.941  15.555
    3DOPE  H13Y  371   4.378   5.932  15.732
    3DOPE  C314  372   4.260   5.787  15.625
    3DOPE  H14X  373   4.196   5.772  15.715
    3DOPE  H14Y  374   4.341   5.711  15.630
    3DOPE  C315  375   4.173   5.761  15.501
    3DOPE  H15X  376   4.091   5.835  15.493
    3DOPE  H15Y  377   4.125   5.662  15.517
    3DOPE  C316  378   4.250   5.752  15.368
    3DOPE  H16X  379   4.198   5.680  15.302
    3DOPE  H16Y  380   4.352   5.712  15.386
    3DOPE  C317  381   4.259   5.885  15.291
    3DOPE  H17X  382   4.156   5.925  15.279
    3DOPE  H17Y  383   4.316   5.959  15.351
    3DOPE  C318  384   4.323   5.870  15.153
    3DOPE  H18X  385   4.427   5.831  15.163
    3DOPE  H18Y  386   4.265   5.800  15.090
    3DOPE  H18Z  387   4.328   5.969  15.102
    4DOPE     N  388   5.217   3.176  16.854
    4DOPE   HN1  389   5.253   3.274  16.852
    4DOPE   HN2  390   5.227   3.135  16.758
    4DOPE   HN3  391   5.115   3.182  16.874
    4DOPE   C12  392   5.284   3.092  16.959
    4DOPE  H12A  393   5.238   2.991  16.955
    4DOPE  H12B  394   5.262   3.138  17.057
    4DOPE   C11  395   5.436   3.084  16.938
    4DOPE  H11A  396   5.477   3.186  16.918
    4DOPE  H11B  397   5.461   3.022  16.849
    4DOPE     P  398   5.477   2.888  17.106
    4DOPE   O13  399   5.344   2.885  17.173
    4DOPE   O14  400   5.591   2.842  17.188
    4DOPE   O11  401   5.468   2.806  16.972
    4DOPE   O12  402   5.501   3.035  17.055
    4DOPE    C1  403   5.427   2.669  16.973
    4DOPE    HA  404   5.317   2.664  16.963
    4DOPE    HB  405   5.457   2.616  17.066
    4DOPE    C2  406   5.490   2.591  16.853
    4DOPE    HS  407   5.599   2.581  16.874
    4DOPE   O21  408   5.463   2.663  16.731
    4DOPE   C21  409   5.568   2.717  16.672
    4DOPE   O22  410   5.684   2.707  16.706
    4DOPE   C22  411   5.519   2.790  16.547
    4DOPE   H2R  412   5.439   2.861  16.577
    4DOPE   H2S  413   5.475   2.714  16.479
    4DOPE    C3  414   5.432   2.447  16.842
    4DOPE    HX  415   5.321   2.452  16.849
    4DOPE    HY  416   5.467   2.390  16.931
    4DOPE   O31  417   5.479   2.380  16.723
    4DOPE   C31  418   5.399   2.390  16.617
    4DOPE   O32  419   5.284   2.429  16.617
    4DOPE   C32  420   5.475   2.343  16.493
    4DOPE   H2X  421   5.582   2.369  16.506
    4DOPE   H2Y  422   5.466   2.232  16.486
    4DOPE   C23  423   5.632   2.865  16.473
    4DOPE   H3R  424   5.716   2.797  16.451
    4DOPE   H3S  425   5.671   2.947  16.538
    4DOPE   C24  426   5.583   2.925  16.340
    4DOPE   H4R  427   5.492   2.986  16.359
    4DOPE   H4S  428   5.555   2.843  16.271
    4DOPE   C25  429   5.688   3.015  16.273
    4DOPE   H5R  430   5.782   2.957  16.257
    4DOPE   H5S  431   5.712   3.099  16.340
    4DOPE   C26  432   5.640   3.070  16.138
    4DOPE   H6R  433   5.542   3.119  16.152
    4DOPE   H6S  434   5.626   2.986  16.067
    4DOPE   C27  435   5.738   3.172  16.077
    4DOPE   H7R  436   5.839   3.125  16.072
    4DOPE   H7S  437   5.745   3.260  16.144
    4DOPE   C28  438   5.699   3.217  15.934
    4DOPE   H8R  439   5.698   3.127  15.869
    4DOPE   H8S  440   5.780   3.282  15.896
    4DOPE   C29  441   5.568   3.291  15.929
    4DOPE   H9R  442   5.572   3.394  15.969
    4DOPE  C210  443   5.450   3.245  15.883
    4DOPE  H10R  444   5.363   3.312  15.884
    4DOPE  C211  445   5.423   3.107  15.828
    4DOPE  H11R  446   5.333   3.065  15.878
    4DOPE  H11S  447   5.506   3.036  15.848
    4DOPE  C212  448   5.397   3.107  15.676
    4DOPE  H12R  449   5.317   3.180  15.651
    4DOPE  H12S  450   5.360   3.006  15.646
    4DOPE  C213  451   5.522   3.139  15.592
    4DOPE  H13R  452   5.600   3.062  15.609
    4DOPE  H13S  453   5.563   3.236  15.627
    4DOPE  C214  454   5.493   3.152  15.441
    4DOPE  H14R  455   5.580   3.200  15.392
    4DOPE  H14S  456   5.407   3.221  15.429
    4DOPE  C215  457   5.464   3.020  15.370
    4DOPE  H15R  458   5.403   3.041  15.279
    4DOPE  H15S  459   5.402   2.955  15.436
    4DOPE  C216  460   5.589   2.943  15.324
    4DOPE  H16R  461   5.559   2.840  15.294
    4DOPE  H16S  462   5.660   2.933  15.410
    4DOPE  C217  463   5.660   3.008  15.205
    4DOPE  H17R  464   5.697   3.109  15.234
    4DOPE  H17S  465   5.586   3.023  15.123
    4DOPE  C218  466   5.778   2.926  15.151
    4DOPE  H18R  467   5.744   2.826  15.118
    4DOPE  H18S  468   5.855   2.912  15.230
    4DOPE  H18T  469   5.825   2.978  15.065
    4DOPE   C33  470   5.422   2.408  16.363
    4DOPE   H3X  471   5.423   2.519  16.375
    4DOPE   H3Y  472   5.316   2.378  16.346
    4DOPE   C34  473   5.506   2.371  16.240
    4DOPE   H4X  474   5.611   2.401  16.257
    4DOPE   H4Y  475   5.504   2.261  16.228
    4DOPE   C35  476   5.457   2.435  16.109
    4DOPE   H5X  477   5.350   2.407  16.092
    4DOPE   H5Y  478   5.516   2.392  16.025
    4DOPE   C36  479   5.470   2.588  16.105
    4DOPE   H6X  480   5.575   2.617  16.129
    4DOPE   H6Y  481   5.404   2.631  16.183
    4DOPE   C37  482   5.431   2.650  15.969
    4DOPE   H7X  483   5.334   2.607  15.937
    4DOPE   H7Y  484   5.417   2.759  15.984
    4DOPE   C38  485   5.537   2.628  15.859
    4DOPE   H8X  486   5.558   2.520  15.851
    4DOPE   H8Y  487   5.632   2.676  15.893
    4DOPE   C39  488   5.495   2.688  15.727
    4DOPE   H9X  489   5.474   2.796  15.731
    4DOPE  C310  490   5.482   2.625  15.609
    4DOPE  H10X  491   5.451   2.684  15.521
    4DOPE  C311  492   5.507   2.479  15.579
    4DOPE  H11X  493   5.526   2.421  15.672
    4DOPE  H11Y  494   5.417   2.433  15.532
    4DOPE  C312  495   5.628   2.458  15.486
    4DOPE  H12X  496   5.661   2.352  15.493
    4DOPE  H12Y  497   5.713   2.520  15.522
    4DOPE  C313  498   5.601   2.490  15.338
    4DOPE  H13X  499   5.541   2.583  15.330
    4DOPE  H13Y  500   5.698   2.509  15.288
    4DOPE  C314  501   5.531   2.375  15.263
    4DOPE  H14X  502   5.435   2.349  15.313
    4DOPE  H14Y  503   5.597   2.286  15.269
    4DOPE  C315  504   5.505   2.407  15.115
    4DOPE  H15X  505   5.501   2.313  15.057
    4DOPE  H15Y  506   5.591   2.466  15.077
    4DOPE  C316  507   5.375   2.485  15.092
    4DOPE  H16X  508   5.385   2.547  15.000
    4DOPE  H16Y  509   5.357   2.555  15.177
    4DOPE  C317  510   5.253   2.393  15.073
    4DOPE  H17X  511   5.273   2.327  14.986
    4DOPE  H17Y  512   5.243   2.328  15.162
    4DOPE  C318  513   5.122   2.470  15.049
    4DOPE  H18X  514   5.039   2.399  15.030
    4DOPE  H18Y  515   5.097   2.531  15.138
    4DOPE  H18Z  516   5.132   2.537  14.961
    5DOPE     N  517   1.990   5.128  16.966
    5DOPE   HN1  518   1.912   5.068  16.998
    5DOPE   HN2  519   1.963   5.228  16.976
    5DOPE   HN3  520   2.014   5.110  16.867
    5DOPE   C12  521   2.112   5.108  17.051
    5DOPE  H12A  522   2.081   5.109  17.158
    5DOPE  H12B  523   2.179   5.195  17.033
    5DOPE   C11  524   2.182   4.976  17.016
    5DOPE  H11A  525   2.220   4.978  16.911
    5DOPE  H11B  526   2.109   4.893  17.021
    5DOPE     P  527   2.411   5.047  17.123
    5DOPE   O13  528   2.533   4.970  17.152
    5DOPE   O14  529   2.368   5.150  17.221
    5DOPE   O11  530   2.419   5.114  16.981
    5DOPE   O12  531   2.288   4.947  17.107
    5DOPE    C1  532   2.481   5.046  16.871
    5DOPE    HA  533   2.436   4.946  16.854
    5DOPE    HB  534   2.590   5.032  16.891
    5DOPE    C2  535   2.465   5.128  16.740
    5DOPE    HS  536   2.518   5.224  16.758
    5DOPE   O21  537   2.324   5.153  16.717
    5DOPE   C21  538   2.300   5.249  16.630
    5DOPE   O22  539   2.383   5.318  16.574
    5DOPE   C22  540   2.149   5.264  16.614
    5DOPE   H2R  541   2.131   5.371  16.588
    5DOPE   H2S  542   2.100   5.244  16.711
    5DOPE    C3  543   2.533   5.059  16.618
    5DOPE    HX  544   2.639   5.037  16.646
    5DOPE    HY  545   2.535   5.130  16.533
    5DOPE   O31  546   2.465   4.936  16.582
    5DOPE   C31  547   2.514   4.882  16.470
    5DOPE   O32  548   2.607   4.927  16.406
    5DOPE   C32  549   2.436   4.754  16.439
    5DOPE   H2X  550   2.496   4.670  16.481
    5DOPE   H2Y  551   2.338   4.757  16.490
    5DOPE   C23  552   2.092   5.173  16.503
    5DOPE   H3R  553   2.106   5.067  16.530
    5DOPE   H3S  554   2.147   5.191  16.408
    5DOPE   C24  555   1.942   5.201  16.478
    5DOPE   H4R  556   1.931   5.304  16.438
    5DOPE   H4S  557   1.889   5.196  16.575
    5DOPE   C25  558   1.875   5.102  16.382
    5DOPE   H5R  559   1.767   5.127  16.373
    5DOPE   H5S  560   1.882   4.999  16.424
    5DOPE   C26  561   1.934   5.099  16.239
    5DOPE   H6R  562   1.875   5.026  16.180
    5DOPE   H6S  563   2.038   5.061  16.242
    5DOPE   C27  564   1.932   5.234  16.167
    5DOPE   H7R  565   2.001   5.303  16.221
    5DOPE   H7S  566   1.830   5.278  16.172
    5DOPE   C28  567   1.977   5.227  16.020
    5DOPE   H8R  568   2.076   5.176  16.016
    5DOPE   H8S  569   1.995   5.331  15.984
    5DOPE   C29  570   1.877   5.161  15.929
    5DOPE   H9R  571   1.793   5.225  15.898
    5DOPE  C210  572   1.880   5.034  15.884
    5DOPE  H10R  573   1.799   5.000  15.817
    5DOPE  C211  574   1.984   4.929  15.914
    5DOPE  H11R  575   1.934   4.838  15.954
    5DOPE  H11S  576   2.055   4.962  15.993
    5DOPE  C212  577   2.067   4.888  15.790
    5DOPE  H12R  578   2.140   4.810  15.822
    5DOPE  H12S  579   2.126   4.975  15.754
    5DOPE  C213  580   1.983   4.831  15.674
    5DOPE  H13R  581   1.923   4.913  15.631
    5DOPE  H13S  582   1.914   4.754  15.713
    5DOPE  C214  583   2.071   4.768  15.564
    5DOPE  H14R  584   2.125   4.681  15.608
    5DOPE  H14S  585   2.148   4.841  15.532
    5DOPE  C215  586   1.991   4.719  15.442
    5DOPE  H15R  587   1.915   4.645  15.476
    5DOPE  H15S  588   2.060   4.666  15.373
    5DOPE  C216  589   1.919   4.831  15.363
    5DOPE  H16R  590   1.842   4.877  15.428
    5DOPE  H16S  591   1.865   4.784  15.277
    5DOPE  C217  592   2.011   4.941  15.309
    5DOPE  H17R  593   2.065   4.989  15.393
    5DOPE  H17S  594   1.948   5.020  15.263
    5DOPE  C218  595   2.112   4.893  15.204
    5DOPE  H18R  596   2.175   4.978  15.168
    5DOPE  H18S  597   2.060   4.849  15.117
    5DOPE  H18T  598   2.180   4.816  15.247
    5DOPE   C33  599   2.416   4.728  16.288
    5DOPE   H3X  600   2.381   4.623  16.278
    5DOPE   H3Y  601   2.513   4.733  16.233
    5DOPE   C34  602   2.309   4.817  16.221
    5DOPE   H4X  603   2.268   4.761  16.135
    5DOPE   H4Y  604   2.225   4.833  16.292
    5DOPE   C35  605   2.359   4.953  16.168
    5DOPE   H5X  606   2.389   5.017  16.253
    5DOPE   H5Y  607   2.274   5.003  16.117
    5DOPE   C36  608   2.477   4.946  16.069
    5DOPE   H6X  609   2.568   4.914  16.124
    5DOPE   H6Y  610   2.496   5.048  16.030
    5DOPE   C37  611   2.455   4.850  15.951
    5DOPE   H7X  612   2.437   4.748  15.992
    5DOPE   H7Y  613   2.364   4.879  15.894
    5DOPE   C38  614   2.576   4.840  15.856
    5DOPE   H8X  615   2.565   4.745  15.799
    5DOPE   H8Y  616   2.668   4.828  15.918
    5DOPE   C39  617   2.590   4.958  15.763
    5DOPE   H9X  618   2.569   5.056  15.808
    5DOPE  C310  619   2.625   4.952  15.633
    5DOPE  H10X  620   2.630   5.046  15.575
    5DOPE  C311  621   2.659   4.827  15.555
    5DOPE  H11X  622   2.744   4.847  15.486
    5DOPE  H11Y  623   2.693   4.746  15.622
    5DOPE  C312  624   2.539   4.773  15.473
    5DOPE  H12X  625   2.456   4.749  15.543
    5DOPE  H12Y  626   2.570   4.677  15.426
    5DOPE  C313  627   2.487   4.866  15.363
    5DOPE  H13X  628   2.400   4.817  15.314
    5DOPE  H13Y  629   2.450   4.961  15.408
    5DOPE  C314  630   2.591   4.899  15.255
    5DOPE  H14X  631   2.630   4.805  15.212
    5DOPE  H14Y  632   2.676   4.953  15.301
    5DOPE  C315  633   2.534   4.986  15.141
    5DOPE  H15X  634   2.491   5.078  15.186
    5DOPE  H15Y  635   2.451   4.931  15.091
    5DOPE  C316  636   2.640   5.025  15.038
    5DOPE  H16X  637   2.676   4.934  14.985
    5DOPE  H16Y  638   2.727   5.068  15.091
    5DOPE  C317  639   2.591   5.128  14.935
    5DOPE  H17X  640   2.551   5.216  14.989
    5DOPE  H17Y  641   2.678   5.162  14.876
    5DOPE  C318  642   2.485   5.074  14.838
    5DOPE  H18X  643   2.392   5.046  14.893
    5DOPE  H18Y  644   2.458   5.151  14.763
    5DOPE  H18Z  645   2.522   4.984  14.785
    6DOPE     N  646   2.227   6.249  17.177
    6DOPE   HN1  647   2.289   6.228  17.258
    6DOPE   HN2  648   2.204   6.351  17.178
    6DOPE   HN3  649   2.140   6.193  17.188
    6DOPE   C12  650   2.297   6.212  17.049
    6DOPE  H12A  651   2.399   6.178  17.076
    6DOPE  H12B  652   2.303   6.303  16.986
    6DOPE   C11  653   2.222   6.099  16.976
    6DOPE  H11A  654   2.279   6.073  16.884
    6DOPE  H11B  655   2.123   6.138  16.943
    6DOPE     P  656   2.245   5.840  17.025
    6DOPE   O13  657   2.250   5.759  17.149
    6DOPE   O14  658   2.370   5.846  16.947
    6DOPE   O11  659   2.125   5.785  16.937
    6DOPE   O12  660   2.202   5.988  17.064
    6DOPE    C1  661   2.000   5.856  16.942
    6DOPE    HA  662   2.012   5.956  16.896
    6DOPE    HB  663   1.964   5.868  17.046
    6DOPE    C2  664   1.887   5.786  16.861
    6DOPE    HS  665   1.855   5.697  16.919
    6DOPE   O21  666   1.934   5.755  16.728
    6DOPE   C21  667   1.936   5.629  16.694
    6DOPE   O22  668   1.905   5.534  16.765
    6DOPE   C22  669   1.967   5.614  16.545
    6DOPE   H2R  670   1.897   5.679  16.488
    6DOPE   H2S  671   1.944   5.508  16.520
    6DOPE    C3  672   1.764   5.881  16.850
    6DOPE    HX  673   1.726   5.899  16.953
    6DOPE    HY  674   1.682   5.832  16.794
    6DOPE   O31  675   1.803   6.008  16.793
    6DOPE   C31  676   1.800   6.013  16.660
    6DOPE   O32  677   1.746   5.931  16.587
    6DOPE   C32  678   1.880   6.136  16.617
    6DOPE   H2X  679   1.830   6.224  16.663
    6DOPE   H2Y  680   1.982   6.129  16.660
    6DOPE   C23  681   2.113   5.645  16.505
    6DOPE   H3R  682   2.183   5.612  16.585
    6DOPE   H3S  683   2.125   5.755  16.495
    6DOPE   C24  684   2.156   5.575  16.374
    6DOPE   H4R  685   2.175   5.468  16.395
    6DOPE   H4S  686   2.252   5.619  16.341
    6DOPE   C25  687   2.054   5.582  16.259
    6DOPE   H5R  688   1.959   5.533  16.289
    6DOPE   H5S  689   2.094   5.526  16.172
    6DOPE   C26  690   2.023   5.726  16.214
    6DOPE   H6R  691   2.114   5.771  16.170
    6DOPE   H6S  692   1.996   5.785  16.304
    6DOPE   C27  693   1.907   5.738  16.115
    6DOPE   H7R  694   1.820   5.682  16.154
    6DOPE   H7S  695   1.937   5.691  16.018
    6DOPE   C28  696   1.868   5.885  16.094
    6DOPE   H8R  697   1.960   5.941  16.065
    6DOPE   H8S  698   1.836   5.927  16.192
    6DOPE   C29  699   1.758   5.906  15.993
    6DOPE   H9R  700   1.657   5.891  16.032
    6DOPE  C210  701   1.774   5.940  15.864
    6DOPE  H10R  702   1.684   5.952  15.802
    6DOPE  C211  703   1.904   5.964  15.791
    6DOPE  H11R  704   1.992   5.937  15.854
    6DOPE  H11S  705   1.915   6.072  15.766
    6DOPE  C212  706   1.914   5.882  15.661
    6DOPE  H12R  707   1.895   5.775  15.682
    6DOPE  H12S  708   2.018   5.889  15.623
    6DOPE  C213  709   1.819   5.932  15.551
    6DOPE  H13R  710   1.844   6.037  15.526
    6DOPE  H13S  711   1.714   5.929  15.588
    6DOPE  C214  712   1.826   5.847  15.423
    6DOPE  H14R  713   1.799   5.742  15.448
    6DOPE  H14S  714   1.931   5.847  15.384
    6DOPE  C215  715   1.732   5.901  15.314
    6DOPE  H15R  716   1.764   6.004  15.288
    6DOPE  H15S  717   1.629   5.908  15.356
    6DOPE  C216  718   1.730   5.816  15.186
    6DOPE  H16R  719   1.833   5.805  15.147
    6DOPE  H16S  720   1.671   5.871  15.109
    6DOPE  C217  721   1.666   5.678  15.205
    6DOPE  H17R  722   1.568   5.690  15.255
    6DOPE  H17S  723   1.730   5.616  15.271
    6DOPE  C218  724   1.644   5.604  15.072
    6DOPE  H18R  725   1.595   5.506  15.090
    6DOPE  H18S  726   1.742   5.586  15.022
    6DOPE  H18T  727   1.580   5.663  15.005
    6DOPE   C33  728   1.887   6.155  16.464
    6DOPE   H3X  729   1.918   6.260  16.443
    6DOPE   H3Y  730   1.786   6.142  16.420
    6DOPE   C34  731   1.984   6.061  16.393
    6DOPE   H4X  732   1.953   5.956  16.412
    6DOPE   H4Y  733   1.976   6.080  16.284
    6DOPE   C35  734   2.132   6.076  16.432
    6DOPE   H5X  735   2.150   6.035  16.534
    6DOPE   H5Y  736   2.158   6.184  16.435
    6DOPE   C36  737   2.224   6.006  16.331
    6DOPE   H6X  738   2.202   6.045  16.229
    6DOPE   H6Y  739   2.201   5.897  16.331
    6DOPE   C37  740   2.374   6.025  16.359
    6DOPE   H7X  741   2.395   6.133  16.368
    6DOPE   H7Y  742   2.400   5.978  16.456
    6DOPE   C38  743   2.464   5.967  16.247
    6DOPE   H8X  744   2.569   5.991  16.271
    6DOPE   H8Y  745   2.440   6.021  16.153
    6DOPE   C39  746   2.450   5.817  16.230
    6DOPE   H9X  747   2.462   5.759  16.323
    6DOPE  C310  748   2.423   5.751  16.115
    6DOPE  H10X  749   2.416   5.642  16.117
    6DOPE  C311  750   2.403   5.815  15.980
    6DOPE  H11X  751   2.332   5.900  15.986
    6DOPE  H11Y  752   2.499   5.856  15.943
    6DOPE  C312  753   2.351   5.716  15.873
    6DOPE  H12X  754   2.418   5.628  15.866
    6DOPE  H12Y  755   2.353   5.768  15.775
    6DOPE  C313  756   2.206   5.669  15.897
    6DOPE  H13X  757   2.202   5.609  15.990
    6DOPE  H13Y  758   2.143   5.759  15.912
    6DOPE  C314  759   2.147   5.587  15.781
    6DOPE  H14X  760   2.155   5.646  15.687
    6DOPE  H14Y  761   2.039   5.571  15.801
    6DOPE  C315  762   2.213   5.450  15.762
    6DOPE  H15X  763   2.210   5.396  15.859
    6DOPE  H15Y  764   2.320   5.463  15.735
    6DOPE  C316  765   2.145   5.362  15.656
    6DOPE  H16X  766   2.037   5.351  15.681
    6DOPE  H16Y  767   2.190   5.261  15.659
    6DOPE  C317  768   2.158   5.416  15.513
    6DOPE  H17X  769   2.109   5.516  15.506
    6DOPE  H17Y  770   2.266   5.431  15.490
    6DOPE  C318  771   2.098   5.324  15.406
    6DOPE  H18X  772   1.989   5.309  15.425
    6DOPE  H18Y  773   2.111   5.367  15.305
    6DOPE  H18Z  774   2.148   5.224  15.409
    7DOPE     N  775   5.831   6.944  17.243
    7DOPE   HN1  776   5.926   6.985  17.233
    7DOPE   HN2  777   5.772   7.012  17.295
    7DOPE   HN3  778   5.836   6.856  17.297
    7DOPE   C12  779   5.768   6.918  17.109
    7DOPE  H12A  780   5.670   6.867  17.128
    7DOPE  H12B  781   5.833   6.849  17.052
    7DOPE   C11  782   5.746   7.048  17.031
    7DOPE  H11A  783   5.845   7.097  17.013
    7DOPE  H11B  784   5.685   7.120  17.090
    7DOPE     P  785   5.530   7.019  16.886
    7DOPE   O13  786   5.481   7.157  16.903
    7DOPE   O14  787   5.474   6.917  16.979
    7DOPE   O11  788   5.513   6.970  16.737
    7DOPE   O12  789   5.688   7.019  16.905
    7DOPE    C1  790   5.533   6.832  16.704
    7DOPE    HA  791   5.436   6.779  16.718
    7DOPE    HB  792   5.608   6.783  16.769
    7DOPE    C2  793   5.577   6.810  16.556
    7DOPE    HS  794   5.536   6.711  16.528
    7DOPE   O21  795   5.721   6.806  16.552
    7DOPE   C21  796   5.769   6.762  16.436
    7DOPE   O22  797   5.703   6.706  16.350
    7DOPE   C22  798   5.919   6.794  16.429
    7DOPE   H2R  799   5.964   6.756  16.524
    7DOPE   H2S  800   5.930   6.904  16.427
    7DOPE    C3  801   5.518   6.916  16.457
    7DOPE    HX  802   5.422   6.952  16.499
    7DOPE    HY  803   5.497   6.863  16.361
    7DOPE   O31  804   5.610   7.025  16.433
    7DOPE   C31  805   5.562   7.120  16.355
    7DOPE   O32  806   5.450   7.121  16.305
    7DOPE   C32  807   5.670   7.227  16.336
    7DOPE   H2X  808   5.704   7.255  16.438
    7DOPE   H2Y  809   5.756   7.180  16.283
    7DOPE   C23  810   5.992   6.730  16.309
    7DOPE   H3R  811   5.970   6.621  16.306
    7DOPE   H3S  812   6.101   6.741  16.324
    7DOPE   C24  813   5.955   6.793  16.174
    7DOPE   H4R  814   5.978   6.902  16.175
    7DOPE   H4S  815   5.846   6.781  16.156
    7DOPE   C25  816   6.030   6.727  16.056
    7DOPE   H5R  817   6.019   6.617  16.065
    7DOPE   H5S  818   6.138   6.750  16.063
    7DOPE   C26  819   5.975   6.771  15.920
    7DOPE   H6R  820   5.995   6.878  15.903
    7DOPE   H6S  821   5.864   6.758  15.922
    7DOPE   C27  822   6.028   6.686  15.802
    7DOPE   H7R  823   5.969   6.708  15.711
    7DOPE   H7S  824   6.012   6.579  15.827
    7DOPE   C28  825   6.178   6.707  15.771
    7DOPE   H8R  826   6.209   6.627  15.700
    7DOPE   H8S  827   6.237   6.692  15.863
    7DOPE   C29  828   6.205   6.844  15.713
    7DOPE   H9R  829   6.195   6.927  15.784
    7DOPE  C210  830   6.236   6.871  15.585
    7DOPE  H10R  831   6.250   6.976  15.555
    7DOPE  C211  832   6.252   6.772  15.473
    7DOPE  H11R  833   6.310   6.683  15.507
    7DOPE  H11S  834   6.311   6.818  15.391
    7DOPE  C212  835   6.119   6.721  15.413
    7DOPE  H12R  836   6.065   6.658  15.487
    7DOPE  H12S  837   6.143   6.657  15.326
    7DOPE  C213  838   6.026   6.835  15.366
    7DOPE  H13R  839   6.086   6.915  15.320
    7DOPE  H13S  840   5.977   6.878  15.456
    7DOPE  C214  841   5.918   6.791  15.266
    7DOPE  H14R  842   5.839   6.870  15.266
    7DOPE  H14S  843   5.870   6.696  15.298
    7DOPE  C215  844   5.972   6.780  15.123
    7DOPE  H15R  845   6.032   6.687  15.112
    7DOPE  H15S  846   6.041   6.865  15.106
    7DOPE  C216  847   5.864   6.786  15.015
    7DOPE  H16R  848   5.796   6.871  15.039
    7DOPE  H16S  849   5.803   6.693  15.015
    7DOPE  C217  850   5.922   6.811  14.874
    7DOPE  H17R  851   5.993   6.895  14.880
    7DOPE  H17S  852   5.839   6.843  14.808
    7DOPE  C218  853   5.991   6.689  14.813
    7DOPE  H18R  854   6.034   6.715  14.713
    7DOPE  H18S  855   5.918   6.606  14.799
    7DOPE  H18T  856   6.073   6.653  14.878
    7DOPE   C33  857   5.624   7.354  16.261
    7DOPE   H3X  858   5.698   7.435  16.281
    7DOPE   H3Y  859   5.526   7.389  16.301
    7DOPE   C34  860   5.615   7.337  16.109
    7DOPE   H4X  861   5.712   7.300  16.069
    7DOPE   H4Y  862   5.537   7.261  16.085
    7DOPE   C35  863   5.580   7.469  16.038
    7DOPE   H5X  864   5.660   7.544  16.054
    7DOPE   H5Y  865   5.488   7.509  16.087
    7DOPE   C36  866   5.551   7.454  15.888
    7DOPE   H6X  867   5.494   7.543  15.854
    7DOPE   H6Y  868   5.485   7.366  15.872
    7DOPE   C37  869   5.677   7.443  15.801
    7DOPE   H7X  870   5.741   7.532  15.822
    7DOPE   H7Y  871   5.736   7.354  15.831
    7DOPE   C38  872   5.648   7.439  15.650
    7DOPE   H8X  873   5.745   7.447  15.596
    7DOPE   H8Y  874   5.588   7.528  15.623
    7DOPE   C39  875   5.577   7.313  15.609
    7DOPE   H9X  876   5.561   7.240  15.690
    7DOPE  C310  877   5.533   7.283  15.485
    7DOPE  H10X  878   5.484   7.185  15.469
    7DOPE  C311  879   5.546   7.368  15.362
    7DOPE  H11X  880   5.579   7.471  15.387
    7DOPE  H11Y  881   5.624   7.326  15.295
    7DOPE  C312  882   5.415   7.380  15.281
    7DOPE  H12X  883   5.436   7.439  15.189
    7DOPE  H12Y  884   5.341   7.438  15.341
    7DOPE  C313  885   5.349   7.246  15.239
    7DOPE  H13X  886   5.309   7.196  15.330
    7DOPE  H13Y  887   5.262   7.268  15.173
    7DOPE  C314  888   5.443   7.149  15.166
    7DOPE  H14X  889   5.532   7.130  15.230
    7DOPE  H14Y  890   5.479   7.195  15.072
    7DOPE  C315  891   5.377   7.014  15.137
    7DOPE  H15X  892   5.294   7.028  15.064
    7DOPE  H15Y  893   5.333   6.975  15.231
    7DOPE  C316  894   5.477   6.909  15.084
    7DOPE  H16X  895   5.562   6.904  15.155
    7DOPE  H16Y  896   5.516   6.942  14.986
    7DOPE  C317  897   5.416   6.769  15.070
    7DOPE  H17X  898   5.499   6.697  15.053
    7DOPE  H17Y  899   5.369   6.741  15.167
    7DOPE  C318  900   5.314   6.755  14.958
    7DOPE  H18X  901   5.362   6.772  14.859
    7DOPE  H18Y  902   5.270   6.653  14.957
    7DOPE  H18Z  903   5.232   6.829  14.969
    8DOPE     N  904   6.556   6.696  17.117
    8DOPE   HN1  905   6.471   6.684  17.176
    8DOPE   HN2  906   6.570   6.605  17.069
    8DOPE   HN3  907   6.638   6.718  17.176
    8DOPE   C12  908   6.535   6.800  17.010
    8DOPE  H12A  909   6.635   6.840  16.982
    8DOPE  H12B  910   6.474   6.883  17.053
    8DOPE   C11  911   6.468   6.740  16.886
    8DOPE  H11A  912   6.455   6.821  16.811
    8DOPE  H11B  913   6.366   6.703  16.910
    8DOPE     P  914   6.519   6.486  16.846
    8DOPE   O13  915   6.386   6.457  16.791
    8DOPE   O14  916   6.539   6.461  16.992
    8DOPE   O11  917   6.635   6.416  16.765
    8DOPE   O12  918   6.551   6.639  16.828
    8DOPE    C1  919   6.767   6.415  16.821
    8DOPE    HA  920   6.767   6.363  16.919
    8DOPE    HB  921   6.804   6.518  16.837
    8DOPE    C2  922   6.869   6.339  16.730
    8DOPE    HS  923   6.969   6.345  16.779
    8DOPE   O21  924   6.875   6.397  16.599
    8DOPE   C21  925   6.931   6.515  16.589
    8DOPE   O22  926   6.984   6.578  16.680
    8DOPE   C22  927   6.925   6.564  16.445
    8DOPE   H2R  928   7.007   6.638  16.432
    8DOPE   H2S  929   6.828   6.615  16.431
    8DOPE    C3  930   6.835   6.187  16.718
    8DOPE    HX  931   6.828   6.147  16.821
    8DOPE    HY  932   6.920   6.135  16.669
    8DOPE   O31  933   6.709   6.163  16.651
    8DOPE   C31  934   6.717   6.152  16.518
    8DOPE   O32  935   6.820   6.140  16.455
    8DOPE   C32  936   6.577   6.151  16.456
    8DOPE   H2X  937   6.562   6.048  16.417
    8DOPE   H2Y  938   6.501   6.173  16.534
    8DOPE   C23  939   6.942   6.452  16.340
    8DOPE   H3R  940   6.860   6.378  16.353
    8DOPE   H3S  941   7.038   6.398  16.356
    8DOPE   C24  942   6.936   6.503  16.195
    8DOPE   H4R  943   7.030   6.557  16.170
    8DOPE   H4S  944   6.853   6.576  16.187
    8DOPE   C25  945   6.911   6.390  16.094
    8DOPE   H5R  946   6.879   6.433  15.997
    8DOPE   H5S  947   6.827   6.327  16.132
    8DOPE   C26  948   7.034   6.301  16.071
    8DOPE   H6R  949   7.084   6.282  16.169
    8DOPE   H6S  950   7.106   6.355  16.007
    8DOPE   C27  951   7.001   6.164  16.009
    8DOPE   H7R  952   6.933   6.110  16.078
    8DOPE   H7S  953   7.095   6.106  16.002
    8DOPE   C28  954   6.936   6.173  15.870
    8DOPE   H8R  955   7.007   6.223  15.801
    8DOPE   H8S  956   6.847   6.239  15.876
    8DOPE   C29  957   6.898   6.038  15.815
    8DOPE   H9R  958   6.978   5.984  15.762
    8DOPE  C210  959   6.778   5.978  15.827
    8DOPE  H10R  960   6.763   5.879  15.782
    8DOPE  C211  961   6.657   6.034  15.897
    8DOPE  H11R  962   6.685   6.116  15.967
    8DOPE  H11S  963   6.610   5.956  15.960
    8DOPE  C212  964   6.551   6.090  15.799
    8DOPE  H12R  965   6.596   6.172  15.739
    8DOPE  H12S  966   6.469   6.134  15.859
    8DOPE  C213  967   6.492   5.983  15.705
    8DOPE  H13R  968   6.463   5.896  15.766
    8DOPE  H13S  969   6.571   5.949  15.634
    8DOPE  C214  970   6.370   6.031  15.626
    8DOPE  H14R  971   6.290   6.062  15.696
    8DOPE  H14S  972   6.332   5.945  15.566
    8DOPE  C215  973   6.400   6.148  15.530
    8DOPE  H15R  974   6.481   6.117  15.461
    8DOPE  H15S  975   6.438   6.234  15.589
    8DOPE  C216  976   6.279   6.196  15.448
    8DOPE  H16R  977   6.313   6.282  15.387
    8DOPE  H16S  978   6.200   6.235  15.516
    8DOPE  C217  979   6.218   6.092  15.353
    8DOPE  H17R  980   6.296   6.017  15.326
    8DOPE  H17S  981   6.188   6.143  15.259
    8DOPE  C218  982   6.094   6.020  15.408
    8DOPE  H18R  983   6.013   6.093  15.430
    8DOPE  H18S  984   6.118   5.966  15.503
    8DOPE  H18T  985   6.056   5.946  15.335
    8DOPE   C33  986   6.565   6.253  16.339
    8DOPE   H3X  987   6.488   6.217  16.268
    8DOPE   H3Y  988   6.661   6.259  16.284
    8DOPE   C34  989   6.523   6.392  16.387
    8DOPE   H4X  990   6.414   6.392  16.408
    8DOPE   H4Y  991   6.573   6.414  16.484
    8DOPE   C35  992   6.558   6.506  16.290
    8DOPE   H5X  993   6.668   6.520  16.292
    8DOPE   H5Y  994   6.512   6.600  16.327
    8DOPE   C36  995   6.516   6.484  16.143
    8DOPE   H6X  996   6.406   6.465  16.138
    8DOPE   H6Y  997   6.568   6.394  16.104
    8DOPE   C37  998   6.552   6.604  16.055
    8DOPE   H7X  999   6.494   6.692  16.089
    8DOPE   H7Y 1000   6.660   6.627  16.069
    8DOPE   C38 1001   6.527   6.579  15.905
    8DOPE   H8X 1002   6.421   6.549  15.891
    8DOPE   H8Y 1003   6.589   6.492  15.874
    8DOPE   C39 1004   6.557   6.702  15.823
    8DOPE   H9X 1005   6.497   6.791  15.850
    8DOPE  C310 1006   6.646   6.714  15.722
    8DOPE  H10X 1007   6.658   6.811  15.673
    8DOPE  C311 1008   6.736   6.605  15.669
    8DOPE  H11X 1009   6.692   6.504  15.687
    8DOPE  H11Y 1010   6.747   6.615  15.559
    8DOPE  C312 1011   6.877   6.606  15.733
    8DOPE  H12X 1012   6.865   6.598  15.844
    8DOPE  H12Y 1013   6.929   6.701  15.712
    8DOPE  C313 1014   6.963   6.488  15.686
    8DOPE  H13X 1015   7.046   6.470  15.757
    8DOPE  H13Y 1016   6.899   6.397  15.686
    8DOPE  C314 1017   7.023   6.509  15.546
    8DOPE  H14X 1018   7.106   6.582  15.555
    8DOPE  H14Y 1019   6.948   6.554  15.478
    8DOPE  C315 1020   7.077   6.380  15.481
    8DOPE  H15X 1021   7.151   6.333  15.550
    8DOPE  H15Y 1022   7.132   6.407  15.388
    8DOPE  C316 1023   6.970   6.275  15.445
    8DOPE  H16X 1024   6.923   6.237  15.539
    8DOPE  H16Y 1025   7.019   6.189  15.397
    8DOPE  C317 1026   6.858   6.326  15.352
    8DOPE  H17X 1027   6.786   6.244  15.336
    8DOPE  H17Y 1028   6.803   6.408  15.402
    8DOPE  C318 1029   6.908   6.375  15.215
    8DOPE  H18X 1030   6.964   6.294  15.163
    8DOPE  H18Y 1031   6.974   6.463  15.226
    8DOPE  H18Z 1032   6.822   6.404  15.151
    9DOPE     N 1033   1.490   5.581  16.656
    9DOPE   HN1 1034   1.555   5.567  16.576
    9DOPE   HN2 1035   1.394   5.604  16.624
    9DOPE   HN3 1036   1.522   5.663  16.713
    9DOPE   C12 1037   1.489   5.470  16.757
    9DOPE  H12A 1038   1.529   5.377  16.710
    9DOPE  H12B 1039   1.383   5.453  16.786
    9DOPE   C11 1040   1.569   5.512  16.882
    9DOPE  H11A 1041   1.675   5.486  16.866
    9DOPE  H11B 1042   1.535   5.453  16.971
    9DOPE     P 1043   1.437   5.720  16.979
    9DOPE   O13 1044   1.450   5.866  16.961
    9DOPE   O14 1045   1.422   5.664  17.114
    9DOPE   O11 1046   1.322   5.667  16.885
    9DOPE   O12 1047   1.561   5.653  16.906
    9DOPE    C1 1048   1.192   5.642  16.939
    9DOPE    HA 1049   1.154   5.728  16.997
    9DOPE    HB 1050   1.195   5.553  17.006
    9DOPE    C2 1051   1.086   5.611  16.828
    9DOPE    HS 1052   0.994   5.575  16.877
    9DOPE   O21 1053   1.137   5.514  16.734
    9DOPE   C21 1054   1.116   5.388  16.767
    9DOPE   O22 1055   1.066   5.349  16.871
    9DOPE   C22 1056   1.166   5.295  16.655
    9DOPE   H2R 1057   1.091   5.214  16.644
    9DOPE   H2S 1058   1.261   5.249  16.691
    9DOPE    C3 1059   1.043   5.739  16.748
    9DOPE    HX 1060   0.965   5.789  16.809
    9DOPE    HY 1061   0.994   5.706  16.653
    9DOPE   O31 1062   1.145   5.837  16.721
    9DOPE   C31 1063   1.241   5.808  16.636
    9DOPE   O32 1064   1.259   5.700  16.580
    9DOPE   C32 1065   1.329   5.930  16.614
    9DOPE   H2X 1066   1.265   6.019  16.601
    9DOPE   H2Y 1067   1.391   5.943  16.705
    9DOPE   C23 1068   1.187   5.365  16.518
    9DOPE   H3R 1069   1.260   5.448  16.527
    9DOPE   H3S 1070   1.090   5.409  16.486
    9DOPE   C24 1071   1.235   5.270  16.406
    9DOPE   H4R 1072   1.232   5.326  16.310
    9DOPE   H4S 1073   1.164   5.185  16.396
    9DOPE   C25 1074   1.377   5.216  16.427
    9DOPE   H5R 1075   1.377   5.159  16.523
    9DOPE   H5S 1076   1.449   5.300  16.437
    9DOPE   C26 1077   1.425   5.119  16.317
    9DOPE   H6R 1078   1.346   5.045  16.292
    9DOPE   H6S 1079   1.510   5.062  16.361
    9DOPE   C27 1080   1.482   5.186  16.190
    9DOPE   H7R 1081   1.562   5.121  16.149
    9DOPE   H7S 1082   1.530   5.282  16.217
    9DOPE   C28 1083   1.381   5.209  16.075
    9DOPE   H8R 1084   1.433   5.264  15.994
    9DOPE   H8S 1085   1.300   5.277  16.110
    9DOPE   C29 1086   1.320   5.082  16.021
    9DOPE   H9R 1087   1.229   5.048  16.073
    9DOPE  C210 1088   1.366   5.008  15.918
    9DOPE  H10R 1089   1.311   4.918  15.889
    9DOPE  C211 1090   1.489   5.035  15.834
    9DOPE  H11R 1091   1.549   4.942  15.827
    9DOPE  H11S 1092   1.555   5.111  15.881
    9DOPE  C212 1093   1.454   5.081  15.692
    9DOPE  H12R 1094   1.406   5.182  15.697
    9DOPE  H12S 1095   1.380   5.012  15.646
    9DOPE  C213 1096   1.576   5.089  15.599
    9DOPE  H13R 1097   1.616   4.987  15.583
    9DOPE  H13S 1098   1.656   5.149  15.649
    9DOPE  C214 1099   1.543   5.153  15.464
    9DOPE  H14R 1100   1.512   5.258  15.480
    9DOPE  H14S 1101   1.458   5.100  15.417
    9DOPE  C215 1102   1.662   5.151  15.366
    9DOPE  H15R 1103   1.683   5.046  15.337
    9DOPE  H15S 1104   1.752   5.191  15.417
    9DOPE  C216 1105   1.636   5.236  15.240
    9DOPE  H16R 1106   1.619   5.341  15.272
    9DOPE  H16S 1107   1.543   5.201  15.190
    9DOPE  C217 1108   1.751   5.233  15.139
    9DOPE  H17R 1109   1.847   5.248  15.193
    9DOPE  H17S 1110   1.739   5.318  15.069
    9DOPE  C218 1111   1.759   5.104  15.057
    9DOPE  H18R 1112   1.770   5.015  15.122
    9DOPE  H18S 1113   1.845   5.107  14.987
    9DOPE  H18T 1114   1.666   5.091  14.996
    9DOPE   C33 1115   1.421   5.910  16.490
    9DOPE   H3X 1116   1.476   5.814  16.498
    9DOPE   H3Y 1117   1.498   5.990  16.489
    9DOPE   C34 1118   1.343   5.916  16.358
    9DOPE   H4X 1119   1.249   5.857  16.365
    9DOPE   H4Y 1120   1.314   6.021  16.338
    9DOPE   C35 1121   1.422   5.862  16.238
    9DOPE   H5X 1122   1.526   5.900  16.240
    9DOPE   H5Y 1123   1.374   5.900  16.145
    9DOPE   C36 1124   1.421   5.708  16.232
    9DOPE   H6X 1125   1.315   5.673  16.232
    9DOPE   H6Y 1126   1.469   5.668  16.324
    9DOPE   C37 1127   1.493   5.648  16.109
    9DOPE   H7X 1128   1.601   5.673  16.116
    9DOPE   H7Y 1129   1.485   5.537  16.113
    9DOPE   C38 1130   1.441   5.697  15.972
    9DOPE   H8X 1131   1.505   5.649  15.894
    9DOPE   H8Y 1132   1.458   5.806  15.964
    9DOPE   C39 1133   1.296   5.665  15.946
    9DOPE   H9X 1134   1.242   5.617  16.028
    9DOPE  C310 1135   1.231   5.690  15.831
    9DOPE  H10X 1136   1.125   5.662  15.822
    9DOPE  C311 1137   1.290   5.754  15.707
    9DOPE  H11X 1138   1.233   5.846  15.682
    9DOPE  H11Y 1139   1.396   5.785  15.722
    9DOPE  C312 1140   1.284   5.658  15.587
    9DOPE  H12X 1141   1.178   5.632  15.565
    9DOPE  H12Y 1142   1.337   5.564  15.613
    9DOPE  C313 1143   1.348   5.714  15.459
    9DOPE  H13X 1144   1.457   5.733  15.477
    9DOPE  H13Y 1145   1.341   5.637  15.380
    9DOPE  C314 1146   1.282   5.843  15.408
    9DOPE  H14X 1147   1.310   5.927  15.475
    9DOPE  H14Y 1148   1.172   5.832  15.411
    9DOPE  C315 1149   1.324   5.877  15.264
    9DOPE  H15X 1150   1.284   5.799  15.196
    9DOPE  H15Y 1151   1.434   5.876  15.256
    9DOPE  C316 1152   1.272   6.014  15.217
    9DOPE  H16X 1153   1.329   6.094  15.269
    9DOPE  H16Y 1154   1.165   6.025  15.248
    9DOPE  C317 1155   1.281   6.033  15.065
    9DOPE  H17X 1156   1.215   5.958  15.016
    9DOPE  H17Y 1157   1.240   6.134  15.040
    9DOPE  C318 1158   1.422   6.020  15.007
    9DOPE  H18X 1159   1.491   6.091  15.057
    9DOPE  H18Y 1160   1.461   5.917  15.022
    9DOPE  H18Z 1161   1.422   6.041  14.898
   10DOPE     N 1162   2.422   7.262  17.070
   10DOPE   HN1 1163   2.357   7.254  17.151
   10DOPE   HN2 1164   2.513   7.221  17.100
   10DOPE   HN3 1165   2.435   7.363  17.051
   10DOPE   C12 1166   2.371   7.186  16.951
   10DOPE  H12A 1167   2.427   7.220  16.861
   10DOPE  H12B 1168   2.263   7.212  16.939
   10DOPE   C11 1169   2.387   7.034  16.969
   10DOPE  H11A 1170   2.495   7.009  16.978
   10DOPE  H11B 1171   2.350   6.984  16.877
   10DOPE     P 1172   2.201   6.888  17.083
   10DOPE   O13 1173   2.121   6.903  17.207
   10DOPE   O14 1174   2.254   6.753  17.055
   10DOPE   O11 1175   2.118   6.939  16.960
   10DOPE   O12 1176   2.320   6.992  17.088
   10DOPE    C1 1177   1.975   6.940  16.956
   10DOPE    HA 1178   1.942   7.039  16.919
   10DOPE    HB 1179   1.928   6.927  17.056
   10DOPE    C2 1180   1.912   6.835  16.858
   10DOPE    HS 1181   1.874   6.751  16.921
   10DOPE   O21 1182   2.011   6.792  16.764
   10DOPE   C21 1183   2.076   6.680  16.798
   10DOPE   O22 1184   2.036   6.597  16.876
   10DOPE   C22 1185   2.208   6.674  16.721
   10DOPE   H2R 1186   2.279   6.739  16.776
   10DOPE   H2S 1187   2.195   6.717  16.619
   10DOPE    C3 1188   1.786   6.892  16.784
   10DOPE    HX 1189   1.708   6.912  16.862
   10DOPE    HY 1190   1.749   6.811  16.717
   10DOPE   O31 1191   1.812   7.014  16.709
   10DOPE   C31 1192   1.707   7.054  16.636
   10DOPE   O32 1193   1.598   7.000  16.635
   10DOPE   C32 1194   1.742   7.179  16.552
   10DOPE   H2X 1195   1.667   7.257  16.578
   10DOPE   H2Y 1196   1.843   7.215  16.580
   10DOPE   C23 1197   2.266   6.531  16.711
   10DOPE   H3R 1198   2.281   6.491  16.814
   10DOPE   H3S 1199   2.367   6.537  16.663
   10DOPE   C24 1200   2.180   6.433  16.631
   10DOPE   H4R 1201   2.082   6.422  16.682
   10DOPE   H4S 1202   2.228   6.333  16.632
   10DOPE   C25 1203   2.154   6.472  16.484
   10DOPE   H5R 1204   2.101   6.569  16.477
   10DOPE   H5S 1205   2.085   6.395  16.442
   10DOPE   C26 1206   2.280   6.475  16.396
   10DOPE   H6R 1207   2.359   6.414  16.445
   10DOPE   H6S 1208   2.318   6.579  16.390
   10DOPE   C27 1209   2.259   6.417  16.255
   10DOPE   H7R 1210   2.236   6.309  16.266
   10DOPE   H7S 1211   2.354   6.423  16.198
   10DOPE   C28 1212   2.145   6.480  16.173
   10DOPE   H8R 1213   2.052   6.480  16.233
   10DOPE   H8S 1214   2.126   6.415  16.085
   10DOPE   C29 1215   2.177   6.620  16.127
   10DOPE   H9R 1216   2.255   6.672  16.184
   10DOPE  C210 1217   2.117   6.684  16.025
   10DOPE  H10R 1218   2.149   6.786  16.000
   10DOPE  C211 1219   2.008   6.628  15.937
   10DOPE  H11R 1220   1.937   6.708  15.908
   10DOPE  H11S 1221   1.948   6.552  15.992
   10DOPE  C212 1222   2.064   6.562  15.810
   10DOPE  H12R 1223   1.980   6.513  15.756
   10DOPE  H12S 1224   2.136   6.483  15.838
   10DOPE  C213 1225   2.133   6.661  15.714
   10DOPE  H13R 1226   2.207   6.722  15.770
   10DOPE  H13S 1227   2.057   6.731  15.672
   10DOPE  C214 1228   2.208   6.591  15.599
   10DOPE  H14R 1229   2.288   6.528  15.642
   10DOPE  H14S 1230   2.256   6.669  15.537
   10DOPE  C215 1231   2.117   6.505  15.510
   10DOPE  H15R 1232   2.034   6.568  15.470
   10DOPE  H15S 1233   2.073   6.423  15.570
   10DOPE  C216 1234   2.194   6.442  15.392
   10DOPE  H16R 1235   2.285   6.391  15.432
   10DOPE  H16S 1236   2.229   6.523  15.324
   10DOPE  C217 1237   2.112   6.339  15.313
   10DOPE  H17R 1238   2.084   6.256  15.381
   10DOPE  H17S 1239   2.177   6.296  15.234
   10DOPE  C218 1240   1.986   6.396  15.248
   10DOPE  H18R 1241   1.914   6.432  15.325
   10DOPE  H18S 1242   1.935   6.318  15.188
   10DOPE  H18T 1243   2.011   6.481  15.181
   10DOPE   C33 1244   1.737   7.150  16.400
   10DOPE   H3X 1245   1.639   7.104  16.378
   10DOPE   H3Y 1246   1.816   7.076  16.373
   10DOPE   C34 1247   1.752   7.272  16.307
   10DOPE   H4X 1248   1.719   7.243  16.205
   10DOPE   H4Y 1249   1.683   7.352  16.341
   10DOPE   C35 1250   1.894   7.330  16.289
   10DOPE   H5X 1251   1.932   7.366  16.387
   10DOPE   H5Y 1252   1.887   7.418  16.222
   10DOPE   C36 1253   2.000   7.235  16.232
   10DOPE   H6X 1254   1.959   7.183  16.143
   10DOPE   H6Y 1255   2.024   7.160  16.310
   10DOPE   C37 1256   2.130   7.308  16.193
   10DOPE   H7X 1257   2.103   7.387  16.118
   10DOPE   H7Y 1258   2.171   7.361  16.281
   10DOPE   C38 1259   2.238   7.218  16.129
   10DOPE   H8X 1260   2.316   7.285  16.086
   10DOPE   H8Y 1261   2.192   7.164  16.043
   10DOPE   C39 1262   2.304   7.123  16.226
   10DOPE   H9X 1263   2.302   7.155  16.331
   10DOPE  C310 1264   2.365   7.007  16.195
   10DOPE  H10X 1265   2.410   6.949  16.277
   10DOPE  C311 1266   2.380   6.947  16.057
   10DOPE  H11X 1267   2.367   6.837  16.062
   10DOPE  H11Y 1268   2.302   6.986  15.989
   10DOPE  C312 1269   2.518   6.975  15.993
   10DOPE  H12X 1270   2.598   6.933  16.059
   10DOPE  H12Y 1271   2.534   7.085  15.987
   10DOPE  C313 1272   2.534   6.915  15.852
   10DOPE  H13X 1273   2.637   6.934  15.817
   10DOPE  H13Y 1274   2.521   6.804  15.857
   10DOPE  C314 1275   2.436   6.973  15.750
   10DOPE  H14X 1276   2.442   7.084  15.754
   10DOPE  H14Y 1277   2.332   6.944  15.777
   10DOPE  C315 1278   2.462   6.927  15.606
   10DOPE  H15X 1279   2.456   6.816  15.601
   10DOPE  H15Y 1280   2.565   6.957  15.577
   10DOPE  C316 1281   2.362   6.989  15.507
   10DOPE  H16X 1282   2.363   7.099  15.521
   10DOPE  H16Y 1283   2.260   6.953  15.531
   10DOPE  C317 1284   2.393   6.959  15.359
   10DOPE  H17X 1285   2.323   7.019  15.297
   10DOPE  H17Y 1286   2.496   6.994  15.337
   10DOPE  C318 1287   2.379   6.812  15.319
   10DOPE  H18X 1288   2.449   6.749  15.377
   10DOPE  H18Y 1289   2.275   6.777  15.338
   10DOPE  H18Z 1290   2.401   6.799  15.211
   11DOPE     N 1291   1.878   3.404  17.191
   11DOPE   HN1 1292   1.835   3.360  17.275
   11DOPE   HN2 1293   1.969   3.445  17.218
   11DOPE   HN3 1294   1.814   3.479  17.158
   11DOPE   C12 1295   1.888   3.315  17.070
   11DOPE  H12A 1296   1.804   3.243  17.074
   11DOPE  H12B 1297   1.985   3.261  17.072
   11DOPE   C11 1298   1.873   3.404  16.946
   11DOPE  H11A 1299   1.855   3.339  16.857
   11DOPE  H11B 1300   1.967   3.460  16.927
   11DOPE     P 1301   1.698   3.573  16.847
   11DOPE   O13 1302   1.805   3.643  16.774
   11DOPE   O14 1303   1.592   3.657  16.906
   11DOPE   O11 1304   1.635   3.456  16.759
   11DOPE   O12 1305   1.765   3.496  16.968
   11DOPE    C1 1306   1.556   3.355  16.825
   11DOPE    HA 1307   1.475   3.401  16.885
   11DOPE    HB 1308   1.620   3.296  16.893
   11DOPE    C2 1309   1.490   3.250  16.729
   11DOPE    HS 1310   1.491   3.151  16.779
   11DOPE   O21 1311   1.558   3.242  16.603
   11DOPE   C21 1312   1.673   3.180  16.601
   11DOPE   O22 1313   1.735   3.138  16.697
   11DOPE   C22 1314   1.709   3.158  16.454
   11DOPE   H2R 1315   1.754   3.251  16.415
   11DOPE   H2S 1316   1.613   3.141  16.400
   11DOPE    C3 1317   1.341   3.283  16.698
   11DOPE    HX 1318   1.286   3.280  16.794
   11DOPE    HY 1319   1.298   3.202  16.635
   11DOPE   O31 1320   1.323   3.414  16.639
   11DOPE   C31 1321   1.326   3.419  16.506
   11DOPE   O32 1322   1.327   3.324  16.430
   11DOPE   C32 1323   1.319   3.566  16.464
   11DOPE   H2X 1324   1.213   3.598  16.478
   11DOPE   H2Y 1325   1.384   3.625  16.531
   11DOPE   C23 1326   1.801   3.036  16.427
   11DOPE   H3R 1327   1.773   2.952  16.494
   11DOPE   H3S 1328   1.905   3.065  16.452
   11DOPE   C24 1329   1.796   2.985  16.282
   11DOPE   H4R 1330   1.704   2.925  16.265
   11DOPE   H4S 1331   1.882   2.916  16.269
   11DOPE   C25 1332   1.804   3.093  16.173
   11DOPE   H5R 1333   1.863   3.053  16.088
   11DOPE   H5S 1334   1.858   3.182  16.213
   11DOPE   C26 1335   1.667   3.137  16.117
   11DOPE   H6R 1336   1.607   3.186  16.197
   11DOPE   H6S 1337   1.611   3.047  16.083
   11DOPE   C27 1338   1.680   3.235  15.999
   11DOPE   H7R 1339   1.724   3.183  15.912
   11DOPE   H7S 1340   1.751   3.316  16.028
   11DOPE   C28 1341   1.547   3.303  15.960
   11DOPE   H8R 1342   1.568   3.377  15.880
   11DOPE   H8S 1343   1.509   3.360  16.047
   11DOPE   C29 1344   1.443   3.203  15.915
   11DOPE   H9R 1345   1.379   3.164  15.996
   11DOPE  C210 1346   1.423   3.158  15.790
   11DOPE  H10R 1347   1.344   3.083  15.773
   11DOPE  C211 1348   1.501   3.197  15.667
   11DOPE  H11R 1349   1.553   3.294  15.680
   11DOPE  H11S 1350   1.431   3.209  15.581
   11DOPE  C212 1351   1.607   3.091  15.630
   11DOPE  H12R 1352   1.560   2.990  15.626
   11DOPE  H12S 1353   1.686   3.089  15.707
   11DOPE  C213 1354   1.671   3.118  15.493
   11DOPE  H13R 1355   1.709   3.222  15.490
   11DOPE  H13S 1356   1.592   3.109  15.415
   11DOPE  C214 1357   1.786   3.021  15.461
   11DOPE  H14R 1358   1.757   2.918  15.488
   11DOPE  H14S 1359   1.873   3.049  15.523
   11DOPE  C215 1360   1.826   3.024  15.312
   11DOPE  H15R 1361   1.929   2.984  15.303
   11DOPE  H15S 1362   1.827   3.129  15.277
   11DOPE  C216 1363   1.733   2.939  15.224
   11DOPE  H16R 1364   1.627   2.966  15.246
   11DOPE  H16S 1365   1.746   2.832  15.250
   11DOPE  C217 1366   1.756   2.958  15.073
   11DOPE  H17R 1367   1.729   3.063  15.046
   11DOPE  H17S 1368   1.686   2.891  15.018
   11DOPE  C218 1369   1.899   2.930  15.027
   11DOPE  H18R 1370   1.970   3.003  15.072
   11DOPE  H18S 1371   1.907   2.938  14.916
   11DOPE  H18T 1372   1.930   2.828  15.057
   11DOPE   C33 1373   1.361   3.590  16.317
   11DOPE   H3X 1374   1.309   3.518  16.250
   11DOPE   H3Y 1375   1.470   3.571  16.307
   11DOPE   C34 1376   1.328   3.732  16.269
   11DOPE   H4X 1377   1.217   3.743  16.268
   11DOPE   H4Y 1378   1.368   3.806  16.340
   11DOPE   C35 1379   1.381   3.763  16.128
   11DOPE   H5X 1380   1.324   3.848  16.085
   11DOPE   H5Y 1381   1.364   3.675  16.062
   11DOPE   C36 1382   1.531   3.800  16.127
   11DOPE   H6X 1383   1.584   3.724  16.188
   11DOPE   H6Y 1384   1.547   3.899  16.176
   11DOPE   C37 1385   1.595   3.799  15.987
   11DOPE   H7X 1386   1.704   3.779  16.001
   11DOPE   H7Y 1387   1.554   3.715  15.927
   11DOPE   C38 1388   1.589   3.932  15.908
   11DOPE   H8X 1389   1.650   3.918  15.816
   11DOPE   H8Y 1390   1.641   4.010  15.967
   11DOPE   C39 1391   1.451   3.978  15.870
   11DOPE   H9X 1392   1.416   4.065  15.928
   11DOPE  C310 1393   1.371   3.925  15.777
   11DOPE  H10X 1394   1.272   3.970  15.760
   11DOPE  C311 1395   1.402   3.806  15.689
   11DOPE  H11X 1396   1.502   3.763  15.709
   11DOPE  H11Y 1397   1.328   3.725  15.707
   11DOPE  C312 1398   1.396   3.845  15.540
   11DOPE  H12X 1399   1.477   3.917  15.517
   11DOPE  H12Y 1400   1.299   3.894  15.518
   11DOPE  C313 1401   1.407   3.724  15.446
   11DOPE  H13X 1402   1.500   3.667  15.468
   11DOPE  H13Y 1403   1.321   3.657  15.466
   11DOPE  C314 1404   1.407   3.767  15.299
   11DOPE  H14X 1405   1.504   3.816  15.277
   11DOPE  H14Y 1406   1.327   3.843  15.282
   11DOPE  C315 1407   1.385   3.652  15.200
   11DOPE  H15X 1408   1.454   3.568  15.223
   11DOPE  H15Y 1409   1.410   3.689  15.098
   11DOPE  C316 1410   1.240   3.600  15.199
   11DOPE  H16X 1411   1.172   3.686  15.181
   11DOPE  H16Y 1412   1.215   3.558  15.299
   11DOPE  C317 1413   1.212   3.493  15.092
   11DOPE  H17X 1414   1.279   3.406  15.110
   11DOPE  H17Y 1415   1.108   3.458  15.105
   11DOPE  C318 1416   1.230   3.542  14.948
   11DOPE  H18X 1417   1.170   3.634  14.930
   11DOPE  H18Y 1418   1.337   3.566  14.927
   11DOPE  H18Z 1419   1.197   3.464  14.876
   12DOPE     N 1420   3.693   7.998  16.904
   12DOPE   HN1 1421   3.670   8.086  16.853
   12DOPE   HN2 1422   3.773   7.957  16.852
   12DOPE   HN3 1423   3.613   7.932  16.906
   12DOPE   C12 1424   3.750   8.024  17.041
   12DOPE  H12A 1425   3.669   8.015  17.116
   12DOPE  H12B 1426   3.790   8.128  17.042
   12DOPE   C11 1427   3.864   7.924  17.067
   12DOPE  H11A 1428   3.819   7.827  17.098
   12DOPE  H11B 1429   3.926   7.958  17.152
   12DOPE     P 1430   4.039   8.013  16.891
   12DOPE   O13 1431   4.146   7.951  16.812
   12DOPE   O14 1432   4.075   8.107  17.000
   12DOPE   O11 1433   3.933   8.083  16.796
   12DOPE   O12 1434   3.945   7.900  16.951
   12DOPE    C1 1435   3.919   8.225  16.797
   12DOPE    HA 1436   4.016   8.274  16.771
   12DOPE    HB 1437   3.890   8.261  16.898
   12DOPE    C2 1438   3.811   8.277  16.698
   12DOPE    HS 1439   3.800   8.386  16.717
   12DOPE   O21 1440   3.685   8.209  16.724
   12DOPE   C21 1441   3.582   8.262  16.657
   12DOPE   O22 1442   3.583   8.370  16.600
   12DOPE   C22 1443   3.461   8.169  16.666
   12DOPE   H2R 1444   3.371   8.234  16.659
   12DOPE   H2S 1445   3.460   8.119  16.765
   12DOPE    C3 1446   3.859   8.260  16.550
   12DOPE    HX 1447   3.956   8.312  16.543
   12DOPE    HY 1448   3.789   8.310  16.480
   12DOPE   O31 1449   3.869   8.120  16.517
   12DOPE   C31 1450   3.960   8.090  16.425
   12DOPE   O32 1451   4.027   8.170  16.363
   12DOPE   C32 1452   3.963   7.938  16.408
   12DOPE   H2X 1453   4.011   7.896  16.499
   12DOPE   H2Y 1454   3.858   7.903  16.404
   12DOPE   C23 1455   3.453   8.066  16.551
   12DOPE   H3R 1456   3.454   8.120  16.454
   12DOPE   H3S 1457   3.355   8.014  16.559
   12DOPE   C24 1458   3.564   7.961  16.555
   12DOPE   H4R 1459   3.569   7.916  16.657
   12DOPE   H4S 1460   3.661   8.010  16.535
   12DOPE   C25 1461   3.546   7.847  16.453
   12DOPE   H5R 1462   3.465   7.780  16.490
   12DOPE   H5S 1463   3.639   7.787  16.449
   12DOPE   C26 1464   3.508   7.892  16.311
   12DOPE   H6R 1465   3.410   7.944  16.314
   12DOPE   H6S 1466   3.494   7.801  16.248
   12DOPE   C27 1467   3.610   7.983  16.242
   12DOPE   H7R 1468   3.702   7.924  16.222
   12DOPE   H7S 1469   3.638   8.067  16.309
   12DOPE   C28 1470   3.554   8.039  16.110
   12DOPE   H8R 1471   3.472   8.110  16.134
   12DOPE   H8S 1472   3.508   7.955  16.054
   12DOPE   C29 1473   3.660   8.109  16.029
   12DOPE   H9R 1474   3.698   8.202  16.072
   12DOPE  C210 1475   3.711   8.065  15.912
   12DOPE  H10R 1476   3.788   8.126  15.862
   12DOPE  C211 1477   3.673   7.939  15.838
   12DOPE  H11R 1478   3.628   7.864  15.906
   12DOPE  H11S 1479   3.765   7.892  15.796
   12DOPE  C212 1480   3.575   7.964  15.722
   12DOPE  H12R 1481   3.479   8.005  15.762
   12DOPE  H12S 1482   3.552   7.867  15.674
   12DOPE  C213 1483   3.631   8.059  15.616
   12DOPE  H13R 1484   3.733   8.025  15.587
   12DOPE  H13S 1485   3.641   8.161  15.658
   12DOPE  C214 1486   3.545   8.066  15.489
   12DOPE  H14R 1487   3.442   8.098  15.516
   12DOPE  H14S 1488   3.539   7.965  15.443
   12DOPE  C215 1489   3.603   8.165  15.388
   12DOPE  H15R 1490   3.709   8.136  15.366
   12DOPE  H15S 1491   3.605   8.267  15.433
   12DOPE  C216 1492   3.525   8.170  15.256
   12DOPE  H16R 1493   3.417   8.188  15.279
   12DOPE  H16S 1494   3.532   8.072  15.205
   12DOPE  C217 1495   3.574   8.280  15.161
   12DOPE  H17R 1496   3.560   8.379  15.210
   12DOPE  H17S 1497   3.511   8.279  15.070
   12DOPE  C218 1498   3.721   8.266  15.120
   12DOPE  H18R 1499   3.750   8.345  15.048
   12DOPE  H18S 1500   3.738   8.167  15.071
   12DOPE  H18T 1501   3.788   8.273  15.208
   12DOPE   C33 1502   4.040   7.893  16.282
   12DOPE   H3X 1503   4.147   7.921  16.294
   12DOPE   H3Y 1504   4.002   7.945  16.192
   12DOPE   C34 1505   4.032   7.741  16.261
   12DOPE   H4X 1506   4.111   7.710  16.189
   12DOPE   H4Y 1507   4.055   7.691  16.357
   12DOPE   C35 1508   3.896   7.692  16.209
   12DOPE   H5X 1509   3.814   7.737  16.269
   12DOPE   H5Y 1510   3.889   7.582  16.224
   12DOPE   C36 1511   3.871   7.718  16.059
   12DOPE   H6X 1512   3.889   7.824  16.035
   12DOPE   H6Y 1513   3.764   7.697  16.038
   12DOPE   C37 1514   3.955   7.627  15.968
   12DOPE   H7X 1515   4.063   7.653  15.981
   12DOPE   H7Y 1516   3.942   7.522  16.001
   12DOPE   C38 1517   3.917   7.640  15.820
   12DOPE   H8X 1518   3.933   7.746  15.790
   12DOPE   H8Y 1519   3.808   7.621  15.809
   12DOPE   C39 1520   3.994   7.544  15.733
   12DOPE   H9X 1521   3.964   7.439  15.743
   12DOPE  C310 1522   4.094   7.575  15.648
   12DOPE  H10X 1523   4.140   7.495  15.589
   12DOPE  C311 1524   4.150   7.713  15.621
   12DOPE  H11X 1525   4.126   7.784  15.703
   12DOPE  H11Y 1526   4.261   7.707  15.617
   12DOPE  C312 1527   4.101   7.774  15.489
   12DOPE  H12X 1528   4.126   7.707  15.404
   12DOPE  H12Y 1529   4.155   7.870  15.473
   12DOPE  C313 1530   3.950   7.805  15.488
   12DOPE  H13X 1531   3.893   7.710  15.489
   12DOPE  H13Y 1532   3.925   7.860  15.581
   12DOPE  C314 1533   3.905   7.890  15.368
   12DOPE  H14X 1534   3.960   7.987  15.370
   12DOPE  H14Y 1535   3.797   7.913  15.380
   12DOPE  C315 1536   3.926   7.823  15.232
   12DOPE  H15X 1537   3.872   7.726  15.230
   12DOPE  H15Y 1538   4.034   7.803  15.217
   12DOPE  C316 1539   3.876   7.911  15.116
   12DOPE  H16X 1540   3.930   8.008  15.119
   12DOPE  H16Y 1541   3.768   7.932  15.130
   12DOPE  C317 1542   3.897   7.847  14.978
   12DOPE  H17X 1543   4.005   7.824  14.966
   12DOPE  H17Y 1544   3.842   7.750  14.975
   12DOPE  C318 1545   3.850   7.935  14.863
   12DOPE  H18X 1546   3.867   7.885  14.765
   12DOPE  H18Y 1547   3.742   7.958  14.872
   12DOPE  H18Z 1548   3.906   8.031  14.862
   13DOPE     N 1549   3.124   1.400  17.190
   13DOPE   HN1 1550   3.108   1.503  17.198
   13DOPE   HN2 1551   3.171   1.368  17.277
   13DOPE   HN3 1552   3.185   1.387  17.107
   13DOPE   C12 1553   2.996   1.325  17.171
   13DOPE  H12A 1554   2.923   1.363  17.246
   13DOPE  H12B 1555   3.016   1.218  17.192
   13DOPE   C11 1556   2.940   1.339  17.027
   13DOPE  H11A 1557   2.926   1.446  17.002
   13DOPE  H11B 1558   2.839   1.293  17.026
   13DOPE     P 1559   3.129   1.348  16.846
   13DOPE   O13 1560   3.228   1.398  16.945
   13DOPE   O14 1561   3.058   1.446  16.762
   13DOPE   O11 1562   3.191   1.232  16.760
   13DOPE   O12 1563   3.022   1.270  16.932
   13DOPE    C1 1564   3.297   1.152  16.816
   13DOPE    HA 1565   3.268   1.110  16.914
   13DOPE    HB 1566   3.387   1.215  16.831
   13DOPE    C2 1567   3.337   1.034  16.722
   13DOPE    HS 1568   3.435   0.993  16.757
   13DOPE   O21 1569   3.346   1.077  16.585
   13DOPE   C21 1570   3.448   1.158  16.560
   13DOPE   O22 1571   3.541   1.181  16.635
   13DOPE   C22 1572   3.436   1.210  16.416
   13DOPE   H2R 1573   3.334   1.189  16.379
   13DOPE   H2S 1574   3.509   1.152  16.355
   13DOPE    C3 1575   3.235   0.916  16.731
   13DOPE    HX 1576   3.244   0.872  16.832
   13DOPE    HY 1577   3.265   0.837  16.658
   13DOPE   O31 1578   3.099   0.960  16.712
   13DOPE   C31 1579   3.059   0.971  16.585
   13DOPE   O32 1580   3.114   0.919  16.489
   13DOPE   C32 1581   2.929   1.050  16.581
   13DOPE   H2X 1582   2.846   0.977  16.592
   13DOPE   H2Y 1583   2.927   1.121  16.667
   13DOPE   C23 1584   3.467   1.361  16.406
   13DOPE   H3R 1585   3.476   1.387  16.298
   13DOPE   H3S 1586   3.564   1.383  16.454
   13DOPE   C24 1587   3.357   1.448  16.467
   13DOPE   H4R 1588   3.342   1.418  16.573
   13DOPE   H4S 1589   3.260   1.431  16.415
   13DOPE   C25 1590   3.391   1.599  16.466
   13DOPE   H5R 1591   3.492   1.611  16.509
   13DOPE   H5S 1592   3.320   1.651  16.534
   13DOPE   C26 1593   3.385   1.666  16.328
   13DOPE   H6R 1594   3.443   1.606  16.254
   13DOPE   H6S 1595   3.434   1.765  16.337
   13DOPE   C27 1596   3.242   1.688  16.277
   13DOPE   H7R 1597   3.185   1.741  16.356
   13DOPE   H7S 1598   3.193   1.590  16.260
   13DOPE   C28 1599   3.237   1.770  16.146
   13DOPE   H8R 1600   3.287   1.711  16.066
   13DOPE   H8S 1601   3.296   1.863  16.160
   13DOPE   C29 1602   3.095   1.806  16.109
   13DOPE   H9R 1603   3.037   1.851  16.191
   13DOPE  C210 1604   3.033   1.787  15.991
   13DOPE  H10R 1605   2.928   1.818  15.981
   13DOPE  C211 1606   3.092   1.725  15.866
   13DOPE  H11R 1607   3.065   1.618  15.861
   13DOPE  H11S 1608   3.203   1.731  15.865
   13DOPE  C212 1609   3.038   1.795  15.740
   13DOPE  H12R 1610   3.066   1.902  15.741
   13DOPE  H12S 1611   2.927   1.789  15.739
   13DOPE  C213 1612   3.089   1.732  15.609
   13DOPE  H13R 1613   3.068   1.622  15.611
   13DOPE  H13S 1614   3.199   1.746  15.602
   13DOPE  C214 1615   3.020   1.793  15.486
   13DOPE  H14R 1616   3.037   1.902  15.485
   13DOPE  H14S 1617   2.911   1.775  15.495
   13DOPE  C215 1618   3.068   1.734  15.352
   13DOPE  H15R 1619   3.051   1.624  15.353
   13DOPE  H15S 1620   3.177   1.752  15.341
   13DOPE  C216 1621   2.993   1.796  15.234
   13DOPE  H16R 1622   3.009   1.906  15.234
   13DOPE  H16S 1623   2.884   1.778  15.246
   13DOPE  C217 1624   3.037   1.740  15.098
   13DOPE  H17R 1625   3.013   1.631  15.094
   13DOPE  H17S 1626   3.147   1.750  15.090
   13DOPE  C218 1627   2.971   1.810  14.979
   13DOPE  H18R 1628   2.860   1.801  14.985
   13DOPE  H18S 1629   3.005   1.765  14.883
   13DOPE  H18T 1630   2.996   1.918  14.978
   13DOPE   C33 1631   2.912   1.129  16.449
   13DOPE   H3X 1632   2.807   1.165  16.443
   13DOPE   H3Y 1633   2.929   1.063  16.362
   13DOPE   C34 1634   3.004   1.252  16.442
   13DOPE   H4X 1635   2.989   1.313  16.533
   13DOPE   H4Y 1636   3.110   1.219  16.443
   13DOPE   C35 1637   2.978   1.341  16.319
   13DOPE   H5X 1638   3.047   1.428  16.324
   13DOPE   H5Y 1639   2.874   1.380  16.325
   13DOPE   C36 1640   2.997   1.271  16.183
   13DOPE   H6X 1641   2.976   1.345  16.102
   13DOPE   H6Y 1642   2.922   1.190  16.172
   13DOPE   C37 1643   3.138   1.214  16.161
   13DOPE   H7X 1644   3.211   1.296  16.176
   13DOPE   H7Y 1645   3.159   1.137  16.239
   13DOPE   C38 1646   3.159   1.153  16.021
   13DOPE   H8X 1647   3.267   1.128  16.011
   13DOPE   H8Y 1648   3.138   1.231  15.945
   13DOPE   C39 1649   3.077   1.027  16.000
   13DOPE   H9X 1650   3.091   0.951  16.078
   13DOPE  C310 1651   2.992   1.002  15.900
   13DOPE  H10X 1652   2.941   0.905  15.898
   13DOPE  C311 1653   2.958   1.093  15.784
   13DOPE  H11X 1654   2.849   1.088  15.763
   13DOPE  H11Y 1655   2.981   1.199  15.806
   13DOPE  C312 1656   3.034   1.053  15.656
   13DOPE  H12X 1657   3.015   0.946  15.633
   13DOPE  H12Y 1658   3.143   1.064  15.674
   13DOPE  C313 1659   2.993   1.137  15.534
   13DOPE  H13X 1660   2.885   1.122  15.516
   13DOPE  H13Y 1661   3.009   1.244  15.555
   13DOPE  C314 1662   3.070   1.098  15.406
   13DOPE  H14X 1663   3.019   1.144  15.318
   13DOPE  H14Y 1664   3.066   0.988  15.393
   13DOPE  C315 1665   3.216   1.145  15.406
   13DOPE  H15X 1666   3.267   1.107  15.497
   13DOPE  H15Y 1667   3.219   1.256  15.410
   13DOPE  C316 1668   3.294   1.097  15.283
   13DOPE  H16X 1669   3.245   1.133  15.191
   13DOPE  H16Y 1670   3.293   0.985  15.281
   13DOPE  C317 1671   3.440   1.144  15.285
   13DOPE  H17X 1672   3.441   1.255  15.282
   13DOPE  H17Y 1673   3.487   1.113  15.380
   13DOPE  C318 1674   3.522   1.090  15.168
   13DOPE  H18X 1675   3.524   0.979  15.170
   13DOPE  H18Y 1676   3.477   1.122  15.071
   13DOPE  H18Z 1677   3.627   1.127  15.172
   14DOPE     N 1678   8.054   5.316  17.100
   14DOPE   HN1 1679   8.081   5.352  17.194
   14DOPE   HN2 1680   7.996   5.386  17.050
   14DOPE   HN3 1681   8.000   5.227  17.110
   14DOPE   C12 1682   8.178   5.298  17.016
   14DOPE  H12A 1683   8.145   5.257  16.918
   14DOPE  H12B 1684   8.243   5.223  17.067
   14DOPE   C11 1685   8.253   5.432  16.997
   14DOPE  H11A 1686   8.330   5.420  16.918
   14DOPE  H11B 1687   8.306   5.455  17.092
   14DOPE     P 1688   8.070   5.537  16.842
   14DOPE   O13 1689   7.948   5.470  16.895
   14DOPE   O14 1690   8.141   5.470  16.731
   14DOPE   O11 1691   8.040   5.688  16.811
   14DOPE   O12 1692   8.168   5.543  16.966
   14DOPE    C1 1693   7.991   5.771  16.917
   14DOPE    HA 1694   8.058   5.766  17.006
   14DOPE    HB 1695   7.890   5.737  16.949
   14DOPE    C2 1696   7.981   5.921  16.876
   14DOPE    HS 1697   7.920   5.974  16.952
   14DOPE   O21 1698   7.923   5.938  16.746
   14DOPE   C21 1699   7.801   5.891  16.728
   14DOPE   O22 1700   7.724   5.855  16.815
   14DOPE   C22 1701   7.767   5.898  16.579
   14DOPE   H2R 1702   7.853   5.943  16.525
   14DOPE   H2S 1703   7.679   5.965  16.567
   14DOPE    C3 1704   8.122   5.988  16.875
   14DOPE    HX 1705   8.166   5.973  16.976
   14DOPE    HY 1706   8.110   6.098  16.863
   14DOPE   O31 1707   8.211   5.932  16.777
   14DOPE   C31 1708   8.203   5.986  16.655
   14DOPE   O32 1709   8.139   6.086  16.626
   14DOPE   C32 1710   8.296   5.911  16.559
   14DOPE   H2X 1711   8.366   5.987  16.519
   14DOPE   H2Y 1712   8.354   5.835  16.616
   14DOPE   C23 1713   7.736   5.760  16.517
   14DOPE   H3R 1714   7.641   5.721  16.558
   14DOPE   H3S 1715   7.817   5.688  16.544
   14DOPE   C24 1716   7.728   5.767  16.364
   14DOPE   H4R 1717   7.827   5.799  16.325
   14DOPE   H4S 1718   7.654   5.845  16.335
   14DOPE   C25 1719   7.688   5.634  16.300
   14DOPE   H5R 1720   7.581   5.615  16.322
   14DOPE   H5S 1721   7.747   5.552  16.346
   14DOPE   C26 1722   7.710   5.629  16.147
   14DOPE   H6R 1723   7.658   5.539  16.108
   14DOPE   H6S 1724   7.818   5.616  16.126
   14DOPE   C27 1725   7.661   5.754  16.072
   14DOPE   H7R 1726   7.730   5.838  16.095
   14DOPE   H7S 1727   7.560   5.783  16.109
   14DOPE   C28 1728   7.657   5.735  15.919
   14DOPE   H8R 1729   7.753   5.691  15.886
   14DOPE   H8S 1730   7.649   5.835  15.872
   14DOPE   C29 1731   7.538   5.651  15.877
   14DOPE   H9R 1732   7.441   5.691  15.912
   14DOPE  C210 1733   7.538   5.537  15.806
   14DOPE  H10R 1734   7.441   5.489  15.784
   14DOPE  C211 1735   7.658   5.466  15.750
   14DOPE  H11R 1736   7.696   5.395  15.826
   14DOPE  H11S 1737   7.741   5.536  15.728
   14DOPE  C212 1738   7.625   5.385  15.623
   14DOPE  H12R 1739   7.545   5.311  15.647
   14DOPE  H12S 1740   7.715   5.327  15.594
   14DOPE  C213 1741   7.581   5.468  15.501
   14DOPE  H13R 1742   7.491   5.528  15.527
   14DOPE  H13S 1743   7.552   5.397  15.421
   14DOPE  C214 1744   7.691   5.562  15.448
   14DOPE  H14R 1745   7.783   5.504  15.430
   14DOPE  H14S 1746   7.713   5.638  15.527
   14DOPE  C215 1747   7.651   5.636  15.319
   14DOPE  H15R 1748   7.730   5.711  15.297
   14DOPE  H15S 1749   7.556   5.690  15.336
   14DOPE  C216 1750   7.639   5.543  15.197
   14DOPE  H16R 1751   7.554   5.472  15.213
   14DOPE  H16S 1752   7.732   5.483  15.189
   14DOPE  C217 1753   7.616   5.617  15.064
   14DOPE  H17R 1754   7.619   5.543  14.982
   14DOPE  H17S 1755   7.701   5.688  15.048
   14DOPE  C218 1756   7.484   5.695  15.056
   14DOPE  H18R 1757   7.480   5.774  15.134
   14DOPE  H18S 1758   7.398   5.626  15.072
   14DOPE  H18T 1759   7.473   5.743  14.957
   14DOPE   C33 1760   8.223   5.844  16.440
   14DOPE   H3X 1761   8.300   5.818  16.364
   14DOPE   H3Y 1762   8.152   5.914  16.393
   14DOPE   C34 1763   8.151   5.714  16.480
   14DOPE   H4X 1764   8.221   5.647  16.534
   14DOPE   H4Y 1765   8.070   5.739  16.551
   14DOPE   C35 1766   8.091   5.636  16.361
   14DOPE   H5X 1767   8.026   5.704  16.302
   14DOPE   H5Y 1768   8.027   5.556  16.403
   14DOPE   C36 1769   8.195   5.571  16.269
   14DOPE   H6X 1770   8.263   5.508  16.330
   14DOPE   H6Y 1771   8.257   5.650  16.220
   14DOPE   C37 1772   8.130   5.483  16.161
   14DOPE   H7X 1773   8.067   5.408  16.212
   14DOPE   H7Y 1774   8.063   5.545  16.098
   14DOPE   C38 1775   8.230   5.407  16.071
   14DOPE   H8X 1776   8.173   5.335  16.009
   14DOPE   H8Y 1777   8.297   5.346  16.136
   14DOPE   C39 1778   8.312   5.498  15.983
   14DOPE   H9X 1779   8.407   5.533  16.027
   14DOPE  C310 1780   8.279   5.537  15.859
   14DOPE  H10X 1781   8.346   5.605  15.803
   14DOPE  C311 1782   8.152   5.498  15.787
   14DOPE  H11X 1783   8.151   5.388  15.767
   14DOPE  H11Y 1784   8.064   5.520  15.850
   14DOPE  C312 1785   8.134   5.571  15.652
   14DOPE  H12X 1786   8.140   5.681  15.668
   14DOPE  H12Y 1787   8.031   5.549  15.615
   14DOPE  C313 1788   8.234   5.528  15.544
   14DOPE  H13X 1789   8.337   5.548  15.579
   14DOPE  H13Y 1790   8.225   5.418  15.529
   14DOPE  C314 1791   8.211   5.600  15.411
   14DOPE  H14X 1792   8.214   5.710  15.429
   14DOPE  H14Y 1793   8.109   5.576  15.372
   14DOPE  C315 1794   8.315   5.566  15.302
   14DOPE  H15X 1795   8.417   5.588  15.341
   14DOPE  H15Y 1796   8.297   5.633  15.216
   14DOPE  C316 1797   8.309   5.420  15.255
   14DOPE  H16X 1798   8.207   5.399  15.216
   14DOPE  H16Y 1799   8.327   5.353  15.341
   14DOPE  C317 1800   8.412   5.387  15.145
   14DOPE  H17X 1801   8.514   5.406  15.184
   14DOPE  H17Y 1802   8.405   5.278  15.123
   14DOPE  C318 1803   8.392   5.464  15.014
   14DOPE  H18X 1804   8.406   5.573  15.030
   14DOPE  H18Y 1805   8.466   5.431  14.938
   14DOPE  H18Z 1806   8.290   5.447  14.973
   15DOPE     N 1807   1.294   2.156  16.984
   15DOPE   HN1 1808   1.235   2.164  17.069
   15DOPE   HN2 1809   1.294   2.251  16.941
   15DOPE   HN3 1810   1.250   2.088  16.919
   15DOPE   C12 1811   1.437   2.122  17.019
   15DOPE  H12A 1812   1.487   2.088  16.926
   15DOPE  H12B 1813   1.435   2.039  17.093
   15DOPE   C11 1814   1.513   2.243  17.076
   15DOPE  H11A 1815   1.614   2.207  17.107
   15DOPE  H11B 1816   1.463   2.281  17.168
   15DOPE     P 1817   1.431   2.466  16.966
   15DOPE   O13 1818   1.417   2.526  17.100
   15DOPE   O14 1819   1.309   2.407  16.906
   15DOPE   O11 1820   1.499   2.566  16.865
   15DOPE   O12 1821   1.533   2.346  16.977
   15DOPE    C1 1822   1.585   2.520  16.761
   15DOPE    HA 1823   1.534   2.446  16.696
   15DOPE    HB 1824   1.675   2.472  16.806
   15DOPE    C2 1825   1.633   2.638  16.673
   15DOPE    HS 1826   1.662   2.722  16.741
   15DOPE   O21 1827   1.530   2.675  16.579
   15DOPE   C21 1828   1.463   2.786  16.606
   15DOPE   O22 1829   1.481   2.860  16.701
   15DOPE   C22 1830   1.366   2.815  16.491
   15DOPE   H2R 1831   1.267   2.840  16.535
   15DOPE   H2S 1832   1.356   2.723  16.430
   15DOPE    C3 1833   1.762   2.600  16.594
   15DOPE    HX 1834   1.842   2.587  16.670
   15DOPE    HY 1835   1.789   2.685  16.528
   15DOPE   O31 1836   1.744   2.480  16.514
   15DOPE   C31 1837   1.857   2.424  16.475
   15DOPE   O32 1838   1.969   2.462  16.505
   15DOPE   C32 1839   1.830   2.301  16.388
   15DOPE   H2X 1840   1.928   2.265  16.352
   15DOPE   H2Y 1841   1.784   2.223  16.452
   15DOPE   C23 1842   1.419   2.932  16.405
   15DOPE   H3R 1843   1.525   2.914  16.381
   15DOPE   H3S 1844   1.413   3.026  16.464
   15DOPE   C24 1845   1.345   2.954  16.272
   15DOPE   H4R 1846   1.394   3.039  16.221
   15DOPE   H4S 1847   1.240   2.983  16.291
   15DOPE   C25 1848   1.348   2.832  16.178
   15DOPE   H5R 1849   1.269   2.761  16.211
   15DOPE   H5S 1850   1.446   2.780  16.187
   15DOPE   C26 1851   1.327   2.871  16.031
   15DOPE   H6R 1852   1.421   2.917  15.994
   15DOPE   H6S 1853   1.249   2.950  16.025
   15DOPE   C27 1854   1.289   2.755  15.938
   15DOPE   H7R 1855   1.367   2.676  15.946
   15DOPE   H7S 1856   1.290   2.791  15.833
   15DOPE   C28 1857   1.151   2.690  15.966
   15DOPE   H8R 1858   1.151   2.647  16.068
   15DOPE   H8S 1859   1.139   2.605  15.895
   15DOPE   C29 1860   1.038   2.789  15.951
   15DOPE   H9R 1861   1.049   2.881  16.011
   15DOPE  C210 1862   0.927   2.777  15.876
   15DOPE  H10R 1863   0.855   2.860  15.875
   15DOPE  C211 1864   0.888   2.661  15.788
   15DOPE  H11R 1865   0.781   2.637  15.808
   15DOPE  H11S 1866   0.945   2.568  15.811
   15DOPE  C212 1867   0.901   2.690  15.637
   15DOPE  H12R 1868   0.866   2.793  15.614
   15DOPE  H12S 1869   0.834   2.621  15.582
   15DOPE  C213 1870   1.042   2.669  15.581
   15DOPE  H13R 1871   1.077   2.567  15.610
   15DOPE  H13S 1872   1.113   2.742  15.626
   15DOPE  C214 1873   1.043   2.680  15.428
   15DOPE  H14R 1874   1.019   2.785  15.399
   15DOPE  H14S 1875   0.961   2.615  15.388
   15DOPE  C215 1876   1.174   2.638  15.360
   15DOPE  H15R 1877   1.155   2.637  15.250
   15DOPE  H15S 1878   1.200   2.534  15.389
   15DOPE  C216 1879   1.291   2.732  15.389
   15DOPE  H16R 1880   1.322   2.717  15.495
   15DOPE  H16S 1881   1.258   2.837  15.378
   15DOPE  C217 1882   1.412   2.708  15.297
   15DOPE  H17R 1883   1.438   2.600  15.299
   15DOPE  H17S 1884   1.499   2.763  15.339
   15DOPE  C218 1885   1.391   2.753  15.152
   15DOPE  H18R 1886   1.311   2.693  15.104
   15DOPE  H18S 1887   1.484   2.739  15.093
   15DOPE  H18T 1888   1.362   2.860  15.149
   15DOPE   C33 1889   1.738   2.329  16.266
   15DOPE   H3X 1890   1.775   2.417  16.210
   15DOPE   H3Y 1891   1.635   2.352  16.302
   15DOPE   C34 1892   1.734   2.209  16.170
   15DOPE   H4X 1893   1.838   2.191  16.133
   15DOPE   H4Y 1894   1.702   2.118  16.224
   15DOPE   C35 1895   1.643   2.230  16.048
   15DOPE   H5X 1896   1.665   2.152  15.973
   15DOPE   H5Y 1897   1.666   2.328  16.002
   15DOPE   C36 1898   1.493   2.222  16.082
   15DOPE   H6X 1899   1.466   2.302  16.155
   15DOPE   H6Y 1900   1.474   2.124  16.131
   15DOPE   C37 1901   1.401   2.233  15.959
   15DOPE   H7X 1902   1.433   2.159  15.883
   15DOPE   H7Y 1903   1.298   2.207  15.989
   15DOPE   C38 1904   1.401   2.374  15.896
   15DOPE   H8X 1905   1.506   2.401  15.871
   15DOPE   H8Y 1906   1.369   2.447  15.974
   15DOPE   C39 1907   1.312   2.385  15.775
   15DOPE   H9X 1908   1.206   2.405  15.796
   15DOPE  C310 1909   1.352   2.372  15.647
   15DOPE  H10X 1910   1.278   2.385  15.566
   15DOPE  C311 1911   1.493   2.343  15.602
   15DOPE  H11X 1912   1.544   2.277  15.675
   15DOPE  H11Y 1913   1.491   2.287  15.506
   15DOPE  C312 1914   1.579   2.470  15.585
   15DOPE  H12X 1915   1.577   2.527  15.680
   15DOPE  H12Y 1916   1.536   2.535  15.506
   15DOPE  C313 1917   1.727   2.438  15.552
   15DOPE  H13X 1918   1.788   2.530  15.566
   15DOPE  H13Y 1919   1.763   2.363  15.626
   15DOPE  C314 1920   1.750   2.385  15.410
   15DOPE  H14X 1921   1.673   2.309  15.385
   15DOPE  H14Y 1922   1.849   2.334  15.406
   15DOPE  C315 1923   1.750   2.496  15.303
   15DOPE  H15X 1924   1.837   2.563  15.320
   15DOPE  H15Y 1925   1.658   2.558  15.315
   15DOPE  C316 1926   1.754   2.440  15.160
   15DOPE  H16X 1927   1.664   2.377  15.144
   15DOPE  H16Y 1928   1.843   2.376  15.148
   15DOPE  C317 1929   1.756   2.551  15.054
   15DOPE  H17X 1930   1.671   2.620  15.072
   15DOPE  H17Y 1931   1.850   2.610  15.067
   15DOPE  C318 1932   1.749   2.497  14.911
   15DOPE  H18X 1933   1.755   2.580  14.838
   15DOPE  H18Y 1934   1.832   2.427  14.891
   15DOPE  H18Z 1935   1.653   2.443  14.895
   16DOPE     N 1936   0.611   4.304  17.222
   16DOPE   HN1 1937   0.633   4.315  17.121
   16DOPE   HN2 1938   0.589   4.396  17.265
   16DOPE   HN3 1939   0.693   4.261  17.269
   16DOPE   C12 1940   0.492   4.212  17.225
   16DOPE  H12A 1941   0.402   4.274  17.204
   16DOPE  H12B 1942   0.485   4.167  17.326
   16DOPE   C11 1943   0.508   4.107  17.115
   16DOPE  H11A 1944   0.411   4.055  17.099
   16DOPE  H11B 1945   0.583   4.031  17.149
   16DOPE     P 1946   0.588   4.081  16.869
   16DOPE   O13 1947   0.686   3.980  16.915
   16DOPE   O14 1948   0.624   4.170  16.758
   16DOPE   O11 1949   0.448   4.011  16.842
   16DOPE   O12 1950   0.552   4.171  16.995
   16DOPE    C1 1951   0.442   3.888  16.769
   16DOPE    HA 1952   0.352   3.833  16.803
   16DOPE    HB 1953   0.529   3.822  16.788
   16DOPE    C2 1954   0.430   3.910  16.616
   16DOPE    HS 1955   0.386   3.817  16.574
   16DOPE   O21 1956   0.561   3.933  16.563
   16DOPE   C21 1957   0.575   3.909  16.434
   16DOPE   O22 1958   0.497   3.848  16.364
   16DOPE   C22 1959   0.708   3.970  16.387
   16DOPE   H2R 1960   0.762   4.007  16.477
   16DOPE   H2S 1961   0.685   4.057  16.323
   16DOPE    C3 1962   0.335   4.030  16.583
   16DOPE    HX 1963   0.391   4.123  16.608
   16DOPE    HY 1964   0.248   4.027  16.652
   16DOPE   O31 1965   0.293   4.036  16.445
   16DOPE   C31 1966   0.204   3.943  16.410
   16DOPE   O32 1967   0.156   3.860  16.485
   16DOPE   C32 1968   0.170   3.952  16.261
   16DOPE   H2X 1969   0.185   3.850  16.220
   16DOPE   H2Y 1970   0.062   3.977  16.252
   16DOPE   C23 1971   0.796   3.868  16.312
   16DOPE   H3R 1972   0.794   3.769  16.362
   16DOPE   H3S 1973   0.901   3.904  16.317
   16DOPE   C24 1974   0.759   3.854  16.164
   16DOPE   H4R 1975   0.762   3.955  16.117
   16DOPE   H4S 1976   0.654   3.817  16.155
   16DOPE   C25 1977   0.854   3.761  16.088
   16DOPE   H5R 1978   0.836   3.656  16.122
   16DOPE   H5S 1979   0.959   3.787  16.113
   16DOPE   C26 1980   0.837   3.768  15.935
   16DOPE   H6R 1981   0.904   3.692  15.889
   16DOPE   H6S 1982   0.870   3.868  15.900
   16DOPE   C27 1983   0.693   3.743  15.887
   16DOPE   H7R 1984   0.627   3.825  15.921
   16DOPE   H7S 1985   0.657   3.649  15.935
   16DOPE   C28 1986   0.682   3.727  15.734
   16DOPE   H8R 1987   0.577   3.699  15.710
   16DOPE   H8S 1988   0.745   3.641  15.704
   16DOPE   C29 1989   0.719   3.852  15.659
   16DOPE   H9R 1990   0.650   3.937  15.674
   16DOPE  C210 1991   0.826   3.868  15.578
   16DOPE  H10R 1992   0.839   3.964  15.526
   16DOPE  C211 1993   0.931   3.765  15.547
   16DOPE  H11R 1994   0.944   3.695  15.632
   16DOPE  H11S 1995   1.029   3.814  15.532
   16DOPE  C212 1996   0.899   3.680  15.422
   16DOPE  H12R 1997   0.803   3.625  15.435
   16DOPE  H12S 1998   0.979   3.604  15.412
   16DOPE  C213 1999   0.895   3.761  15.291
   16DOPE  H13R 2000   0.942   3.702  15.210
   16DOPE  H13S 2001   0.957   3.852  15.304
   16DOPE  C214 2002   0.754   3.801  15.244
   16DOPE  H14R 2003   0.765   3.880  15.165
   16DOPE  H14S 2004   0.697   3.846  15.328
   16DOPE  C215 2005   0.675   3.684  15.183
   16DOPE  H15R 2006   0.664   3.605  15.260
   16DOPE  H15S 2007   0.733   3.641  15.099
   16DOPE  C216 2008   0.535   3.722  15.133
   16DOPE  H16R 2009   0.474   3.757  15.220
   16DOPE  H16S 2010   0.486   3.631  15.093
   16DOPE  C217 2011   0.531   3.831  15.024
   16DOPE  H17R 2012   0.568   3.927  15.066
   16DOPE  H17S 2013   0.425   3.847  14.994
   16DOPE  C218 2014   0.613   3.797  14.898
   16DOPE  H18R 2015   0.600   3.877  14.821
   16DOPE  H18S 2016   0.579   3.701  14.855
   16DOPE  H18T 2017   0.721   3.790  14.922
   16DOPE   C33 2018   0.255   4.052  16.178
   16DOPE   H3X 2019   0.242   4.027  16.070
   16DOPE   H3Y 2020   0.362   4.039  16.202
   16DOPE   C34 2021   0.212   4.198  16.197
   16DOPE   H4X 2022   0.103   4.207  16.180
   16DOPE   H4Y 2023   0.232   4.229  16.302
   16DOPE   C35 2024   0.284   4.297  16.103
   16DOPE   H5X 2025   0.241   4.398  16.123
   16DOPE   H5Y 2026   0.261   4.272  15.997
   16DOPE   C36 2027   0.436   4.306  16.122
   16DOPE   H6X 2028   0.464   4.279  16.227
   16DOPE   H6Y 2029   0.466   4.412  16.107
   16DOPE   C37 2030   0.517   4.221  16.022
   16DOPE   H7X 2031   0.501   4.113  16.043
   16DOPE   H7Y 2032   0.477   4.242  15.921
   16DOPE   C38 2033   0.667   4.253  16.025
   16DOPE   H8X 2034   0.708   4.228  16.125
   16DOPE   H8Y 2035   0.679   4.363  16.014
   16DOPE   C39 2036   0.745   4.182  15.917
   16DOPE   H9X 2037   0.802   4.094  15.951
   16DOPE  C310 2038   0.750   4.215  15.787
   16DOPE  H10X 2039   0.812   4.155  15.719
   16DOPE  C311 2040   0.679   4.331  15.721
   16DOPE  H11X 2041   0.638   4.401  15.798
   16DOPE  H11Y 2042   0.750   4.391  15.660
   16DOPE  C312 2043   0.561   4.285  15.634
   16DOPE  H12X 2044   0.500   4.374  15.605
   16DOPE  H12Y 2045   0.495   4.219  15.694
   16DOPE  C313 2046   0.601   4.211  15.505
   16DOPE  H13X 2047   0.674   4.130  15.528
   16DOPE  H13Y 2048   0.510   4.162  15.463
   16DOPE  C314 2049   0.658   4.303  15.397
   16DOPE  H14X 2050   0.751   4.352  15.433
   16DOPE  H14Y 2051   0.584   4.383  15.376
   16DOPE  C315 2052   0.688   4.229  15.266
   16DOPE  H15X 2053   0.595   4.176  15.233
   16DOPE  H15Y 2054   0.766   4.152  15.283
   16DOPE  C316 2055   0.732   4.323  15.153
   16DOPE  H16X 2056   0.828   4.372  15.182
   16DOPE  H16Y 2057   0.656   4.403  15.140
   16DOPE  C317 2058   0.750   4.249  15.019
   16DOPE  H17X 2059   0.826   4.169  15.033
   16DOPE  H17Y 2060   0.655   4.200  14.992
   16DOPE  C318 2061   0.794   4.341  14.905
   16DOPE  H18X 2062   0.806   4.283  14.811
   16DOPE  H18Y 2063   0.718   4.421  14.888
   16DOPE  H18Z 2064   0.891   4.390  14.929
   17DOPE     N 2065   3.426   8.520  17.092
   17DOPE   HN1 2066   3.353   8.448  17.108
   17DOPE   HN2 2067   3.508   8.490  17.150
   17DOPE   HN3 2068   3.394   8.613  17.124
   17DOPE   C12 2069   3.459   8.523  16.945
   17DOPE  H12A 2070   3.551   8.462  16.929
   17DOPE  H12B 2071   3.480   8.629  16.918
   17DOPE   C11 2072   3.343   8.466  16.862
   17DOPE  H11A 2073   3.364   8.487  16.755
   17DOPE  H11B 2074   3.247   8.518  16.886
   17DOPE     P 2075   3.233   8.253  16.976
   17DOPE   O13 2076   3.262   8.307  17.111
   17DOPE   O14 2077   3.242   8.107  16.957
   17DOPE   O11 2078   3.093   8.307  16.928
   17DOPE   O12 2079   3.334   8.325  16.879
   17DOPE    C1 2080   2.985   8.313  17.023
   17DOPE    HA 2081   3.005   8.392  17.099
   17DOPE    HB 2082   2.975   8.217  17.078
   17DOPE    C2 2083   2.848   8.344  16.956
   17DOPE    HS 2084   2.767   8.318  17.028
   17DOPE   O21 2085   2.830   8.270  16.834
   17DOPE   C21 2086   2.834   8.139  16.845
   17DOPE   O22 2087   2.820   8.075  16.948
   17DOPE   C22 2088   2.854   8.076  16.706
   17DOPE   H2R 2089   2.805   7.976  16.708
   17DOPE   H2S 2090   2.964   8.061  16.694
   17DOPE    C3 2091   2.833   8.496  16.922
   17DOPE    HX 2092   2.841   8.554  17.017
   17DOPE    HY 2093   2.731   8.509  16.881
   17DOPE   O31 2094   2.935   8.539  16.830
   17DOPE   C31 2095   2.905   8.641  16.753
   17DOPE   O32 2096   2.806   8.712  16.765
   17DOPE   C32 2097   3.015   8.659  16.648
   17DOPE   H2X 2098   3.057   8.762  16.659
   17DOPE   H2Y 2099   3.096   8.586  16.669
   17DOPE   C23 2100   2.800   8.160  16.588
   17DOPE   H3R 2101   2.845   8.261  16.592
   17DOPE   H3S 2102   2.690   8.171  16.598
   17DOPE   C24 2103   2.832   8.100  16.450
   17DOPE   H4R 2104   2.941   8.083  16.442
   17DOPE   H4S 2105   2.804   8.175  16.372
   17DOPE   C25 2106   2.758   7.969  16.420
   17DOPE   H5R 2107   2.648   7.984  16.425
   17DOPE   H5S 2108   2.785   7.894  16.497
   17DOPE   C26 2109   2.794   7.909  16.282
   17DOPE   H6R 2110   2.753   7.805  16.277
   17DOPE   H6S 2111   2.904   7.902  16.274
   17DOPE   C27 2112   2.738   7.987  16.161
   17DOPE   H7R 2113   2.777   8.091  16.164
   17DOPE   H7S 2114   2.628   7.991  16.169
   17DOPE   C28 2115   2.780   7.921  16.028
   17DOPE   H8R 2116   2.745   7.815  16.030
   17DOPE   H8S 2117   2.891   7.918  16.027
   17DOPE   C29 2118   2.723   7.989  15.905
   17DOPE   H9R 2119   2.614   8.003  15.908
   17DOPE  C210 2120   2.791   8.031  15.797
   17DOPE  H10R 2121   2.735   8.078  15.715
   17DOPE  C211 2122   2.940   8.021  15.772
   17DOPE  H11R 2123   2.992   7.968  15.855
   17DOPE  H11S 2124   2.984   8.123  15.768
   17DOPE  C212 2125   2.979   7.946  15.642
   17DOPE  H12R 2126   2.928   7.848  15.637
   17DOPE  H12S 2127   3.088   7.926  15.648
   17DOPE  C213 2128   2.953   8.026  15.513
   17DOPE  H13R 2129   2.984   8.131  15.529
   17DOPE  H13S 2130   2.845   8.026  15.489
   17DOPE  C214 2131   3.034   7.970  15.394
   17DOPE  H14R 2132   3.001   7.866  15.371
   17DOPE  H14S 2133   3.140   7.965  15.426
   17DOPE  C215 2134   3.028   8.056  15.267
   17DOPE  H15R 2135   3.120   8.036  15.208
   17DOPE  H15S 2136   3.028   8.164  15.294
   17DOPE  C216 2137   2.908   8.024  15.176
   17DOPE  H16R 2138   2.813   8.047  15.228
   17DOPE  H16S 2139   2.909   7.916  15.153
   17DOPE  C217 2140   2.915   8.102  15.043
   17DOPE  H17R 2141   3.017   8.090  15.001
   17DOPE  H17S 2142   2.901   8.210  15.064
   17DOPE  C218 2143   2.813   8.057  14.939
   17DOPE  H18R 2144   2.822   7.948  14.920
   17DOPE  H18S 2145   2.828   8.110  14.843
   17DOPE  H18T 2146   2.709   8.078  14.973
   17DOPE   C33 2147   2.964   8.639  16.503
   17DOPE   H3X 2148   2.894   8.720  16.476
   17DOPE   H3Y 2149   2.910   8.542  16.495
   17DOPE   C34 2150   3.080   8.636  16.402
   17DOPE   H4X 2151   3.139   8.730  16.412
   17DOPE   H4Y 2152   3.148   8.552  16.426
   17DOPE   C35 2153   3.035   8.623  16.256
   17DOPE   H5X 2154   2.966   8.706  16.231
   17DOPE   H5Y 2155   2.979   8.528  16.243
   17DOPE   C36 2156   3.153   8.627  16.158
   17DOPE   H6X 2157   3.220   8.540  16.177
   17DOPE   H6Y 2158   3.212   8.719  16.178
   17DOPE   C37 2159   3.113   8.629  16.009
   17DOPE   H7X 2160   3.042   8.714  15.994
   17DOPE   H7Y 2161   3.203   8.651  15.948
   17DOPE   C38 2162   3.047   8.500  15.956
   17DOPE   H8X 2163   3.009   8.522  15.853
   17DOPE   H8Y 2164   2.958   8.477  16.017
   17DOPE   C39 2165   3.141   8.382  15.955
   17DOPE   H9X 2166   3.167   8.344  16.055
   17DOPE  C310 2167   3.196   8.321  15.848
   17DOPE  H10X 2168   3.264   8.236  15.866
   17DOPE  C311 2169   3.178   8.355  15.702
   17DOPE  H11X 2170   3.125   8.271  15.651
   17DOPE  H11Y 2171   3.116   8.446  15.687
   17DOPE  C312 2172   3.313   8.375  15.631
   17DOPE  H12X 2173   3.380   8.290  15.653
   17DOPE  H12Y 2174   3.362   8.467  15.671
   17DOPE  C313 2175   3.303   8.387  15.478
   17DOPE  H13X 2176   3.406   8.395  15.437
   17DOPE  H13Y 2177   3.257   8.295  15.437
   17DOPE  C314 2178   3.223   8.510  15.430
   17DOPE  H14X 2179   3.255   8.598  15.489
   17DOPE  H14Y 2180   3.115   8.494  15.449
   17DOPE  C315 2181   3.246   8.542  15.281
   17DOPE  H15X 2182   3.354   8.561  15.265
   17DOPE  H15Y 2183   3.191   8.636  15.256
   17DOPE  C316 2184   3.200   8.432  15.184
   17DOPE  H16X 2185   3.091   8.413  15.199
   17DOPE  H16Y 2186   3.254   8.337  15.207
   17DOPE  C317 2187   3.226   8.468  15.038
   17DOPE  H17X 2188   3.171   8.562  15.014
   17DOPE  H17Y 2189   3.334   8.489  15.025
   17DOPE  C318 2190   3.184   8.359  14.939
   17DOPE  H18X 2191   3.239   8.264  14.960
   17DOPE  H18Y 2192   3.075   8.338  14.947
   17DOPE  H18Z 2193   3.206   8.390  14.835
   18DOPE     N 2194   9.082   3.758  17.193
   18DOPE   HN1 2195   9.047   3.855  17.202
   18DOPE   HN2 2196   9.086   3.713  17.287
   18DOPE   HN3 2197   9.178   3.762  17.153
   18DOPE   C12 2198   8.980   3.692  17.105
   18DOPE  H12A 2199   8.898   3.658  17.170
   18DOPE  H12B 2200   9.027   3.605  17.054
   18DOPE   C11 2201   8.927   3.797  17.007
   18DOPE  H11A 2202   8.831   3.763  16.963
   18DOPE  H11B 2203   9.000   3.808  16.924
   18DOPE     P 2204   8.885   4.055  16.994
   18DOPE   O13 2205   8.906   4.167  17.088
   18DOPE   O14 2206   8.755   4.045  16.926
   18DOPE   O11 2207   9.004   4.048  16.890
   18DOPE   O12 2208   8.908   3.921  17.077
   18DOPE    C1 2209   9.139   4.061  16.937
   18DOPE    HA 2210   9.159   3.996  17.025
   18DOPE    HB 2211   9.156   4.166  16.970
   18DOPE    C2 2212   0.031   4.026  16.829
   18DOPE    HS 2213   0.129   4.055  16.870
   18DOPE   O21 2214   0.006   4.093  16.705
   18DOPE   C21 2215   0.020   4.224  16.706
   18DOPE   O22 2216   0.059   4.291  16.800
   18DOPE   C22 2217   9.206   4.278  16.566
   18DOPE   H2R 2218   0.062   4.231  16.497
   18DOPE   H2S 2219   0.008   4.388  16.568
   18DOPE    C3 2220   0.039   3.872  16.800
   18DOPE    HX 2221   0.051   3.818  16.896
   18DOPE    HY 2222   0.131   3.857  16.739
   18DOPE   O31 2223   9.140   3.824  16.728
   18DOPE   C31 2224   9.154   3.706  16.670
   18DOPE   O32 2225   0.028   3.627  16.690
   18DOPE   C32 2226   9.029   3.680  16.585
   18DOPE   H2X 2227   8.954   3.634  16.652
   18DOPE   H2Y 2228   8.988   3.778  16.551
   18DOPE   C23 2229   9.062   4.249  16.519
   18DOPE   H3R 2230   8.990   4.308  16.580
   18DOPE   H3S 2231   9.038   4.142  16.533
   18DOPE   C24 2232   9.043   4.283  16.370
   18DOPE   H4R 2233   9.111   4.219  16.310
   18DOPE   H4S 2234   9.072   4.389  16.352
   18DOPE   C25 2235   8.899   4.263  16.322
   18DOPE   H5R 2236   8.832   4.332  16.378
   18DOPE   H5S 2237   8.866   4.159  16.346
   18DOPE   C26 2238   8.883   4.287  16.171
   18DOPE   H6R 2239   8.939   4.209  16.116
   18DOPE   H6S 2240   8.927   4.385  16.145
   18DOPE   C27 2241   8.736   4.285  16.126
   18DOPE   H7R 2242   8.683   4.373  16.169
   18DOPE   H7S 2243   8.687   4.194  16.168
   18DOPE   C28 2244   8.717   4.283  15.973
   18DOPE   H8R 2245   8.609   4.279  15.951
   18DOPE   H8S 2246   8.760   4.187  15.935
   18DOPE   C29 2247   8.777   4.403  15.904
   18DOPE   H9R 2248   8.744   4.500  15.944
   18DOPE  C210 2249   8.864   4.403  15.801
   18DOPE  H10R 2250   8.898   4.500  15.760
   18DOPE  C211 2251   8.923   4.283  15.730
   18DOPE  H11R 2252   8.914   4.191  15.792
   18DOPE  H11S 2253   9.032   4.298  15.714
   18DOPE  C212 2254   8.856   4.255  15.594
   18DOPE  H12R 2255   8.747   4.238  15.611
   18DOPE  H12S 2256   8.897   4.161  15.553
   18DOPE  C213 2257   8.872   4.367  15.489
   18DOPE  H13R 2258   8.831   4.461  15.529
   18DOPE  H13S 2259   8.811   4.340  15.400
   18DOPE  C214 2260   9.017   4.391  15.442
   18DOPE  H14R 2261   9.081   4.415  15.530
   18DOPE  H14S 2262   9.017   4.480  15.376
   18DOPE  C215 2263   9.078   4.274  15.364
   18DOPE  H15R 2264   9.011   4.250  15.279
   18DOPE  H15S 2265   9.083   4.184  15.430
   18DOPE  C216 2266   0.002   4.305  15.311
   18DOPE  H16R 2267   0.067   4.332  15.396
   18DOPE  H16S 2268   9.213   4.393  15.243
   18DOPE  C217 2269   0.067   4.188  15.235
   18DOPE  H17R 2270   0.071   4.100  15.302
   18DOPE  H17S 2271   0.171   4.217  15.210
   18DOPE  C218 2272   9.212   4.149  15.105
   18DOPE  H18R 2273   9.203   4.237  15.037
   18DOPE  H18S 2274   9.110   4.111  15.126
   18DOPE  H18T 2275   0.052   4.069  15.052
   18DOPE   C33 2276   9.052   3.589  16.462
   18DOPE   H3X 2277   8.952   3.555  16.427
   18DOPE   H3Y 2278   9.110   3.498  16.490
   18DOPE   C34 2279   9.119   3.661  16.345
   18DOPE   H4X 2280   9.069   3.759  16.329
   18DOPE   H4Y 2281   0.009   3.682  16.370
   18DOPE   C35 2282   9.112   3.581  16.214
   18DOPE   H5X 2283   9.005   3.560  16.191
   18DOPE   H5Y 2284   9.163   3.483  16.228
   18DOPE   C36 2285   9.174   3.654  16.095
   18DOPE   H6X 2286   0.066   3.671  16.115
   18DOPE   H6Y 2287   9.126   3.754  16.083
   18DOPE   C37 2288   9.159   3.576  15.963
   18DOPE   H7X 2289   9.201   3.474  15.979
   18DOPE   H7Y 2290   9.051   3.564  15.940
   18DOPE   C38 2291   0.015   3.639  15.843
   18DOPE   H8X 2292   0.012   3.566  15.759
   18DOPE   H8Y 2293   0.122   3.652  15.869
   18DOPE   C39 2294   9.173   3.772  15.801
   18DOPE   H9X 2295   9.201   3.857  15.864
   18DOPE  C310 2296   9.091   3.794  15.696
   18DOPE  H10X 2297   9.057   3.897  15.677
   18DOPE  C311 2298   9.038   3.692  15.598
   18DOPE  H11X 2299   9.092   3.700  15.502
   18DOPE  H11Y 2300   9.054   3.589  15.635
   18DOPE  C312 2301   8.886   3.707  15.572
   18DOPE  H12X 2302   8.833   3.708  15.669
   18DOPE  H12Y 2303   8.851   3.617  15.516
   18DOPE  C313 2304   8.847   3.832  15.490
   18DOPE  H13X 2305   8.737   3.846  15.499
   18DOPE  H13Y 2306   8.895   3.922  15.533
   18DOPE  C314 2307   8.882   3.821  15.341
   18DOPE  H14X 2308   8.818   3.743  15.294
   18DOPE  H14Y 2309   8.987   3.788  15.330
   18DOPE  C315 2310   8.865   3.953  15.263
   18DOPE  H15X 2311   8.889   3.935  15.157
   18DOPE  H15Y 2312   8.938   4.027  15.302
   18DOPE  C316 2313   8.724   4.013  15.273
   18DOPE  H16X 2314   8.702   4.041  15.378
   18DOPE  H16Y 2315   8.649   3.937  15.241
   18DOPE  C317 2316   8.708   4.138  15.185
   18DOPE  H17X 2317   8.787   4.211  15.212
   18DOPE  H17Y 2318   8.723   4.110  15.079
   18DOPE  C318 2319   8.571   4.206  15.200
   18DOPE  H18X 2320   8.490   4.137  15.170
   18DOPE  H18Y 2321   8.554   4.236  15.306
   18DOPE  H18Z 2322   8.565   4.297  15.137
   19DOPE     N 2323   9.061   5.053  17.081
   19DOPE   HN1 2324   9.055   4.955  17.047
   19DOPE   HN2 2325   9.159   5.078  17.101
   19DOPE   HN3 2326   9.004   5.061  17.168
   19DOPE   C12 2327   8.995   5.133  16.971
   19DOPE  H12A 2328   9.041   5.099  16.876
   19DOPE  H12B 2329   9.019   5.241  16.987
   19DOPE   C11 2330   8.842   5.110  16.968
   19DOPE  H11A 2331   8.805   5.122  16.864
   19DOPE  H11B 2332   8.795   5.191  17.027
   19DOPE     P 2333   8.827   4.847  16.950
   19DOPE   O13 2334   8.759   4.741  17.028
   19DOPE   O14 2335   8.974   4.838  16.938
   19DOPE   O11 2336   8.756   4.869  16.810
   19DOPE   O12 2337   8.800   4.985  17.024
   19DOPE    C1 2338   8.613   4.877  16.811
   19DOPE    HA 2339   8.578   4.965  16.870
   19DOPE    HB 2340   8.570   4.786  16.858
   19DOPE    C2 2341   8.546   4.885  16.669
   19DOPE    HS 2342   8.444   4.843  16.678
   19DOPE   O21 2343   8.623   4.812  16.571
   19DOPE   C21 2344   8.619   4.681  16.585
   19DOPE   O22 2345   8.556   4.620  16.670
   19DOPE   C22 2346   8.695   4.614  16.469
   19DOPE   H2R 2347   8.650   4.649  16.374
   19DOPE   H2S 2348   8.675   4.506  16.480
   19DOPE    C3 2349   8.526   5.032  16.620
   19DOPE    HX 2350   8.484   5.090  16.705
   19DOPE    HY 2351   8.448   5.032  16.542
   19DOPE   O31 2352   8.648   5.096  16.577
   19DOPE   C31 2353   8.672   5.085  16.445
   19DOPE   O32 2354   8.600   5.029  16.365
   19DOPE   C32 2355   8.801   5.159  16.412
   19DOPE   H2X 2356   8.806   5.252  16.473
   19DOPE   H2Y 2357   8.885   5.093  16.442
   19DOPE   C23 2358   8.848   4.638  16.468
   19DOPE   H3R 2359   8.894   4.554  16.412
   19DOPE   H3S 2360   8.890   4.635  16.571
   19DOPE   C24 2361   8.890   4.768  16.397
   19DOPE   H4R 2362   8.859   4.855  16.459
   19DOPE   H4S 2363   8.837   4.774  16.300
   19DOPE   C25 2364   9.042   4.773  16.372
   19DOPE   H5R 2365   9.072   4.683  16.315
   19DOPE   H5S 2366   9.094   4.769  16.470
   19DOPE   C26 2367   9.091   4.897  16.294
   19DOPE   H6R 2368   9.202   4.895  16.293
   19DOPE   H6S 2369   9.060   4.989  16.349
   19DOPE   C27 2370   9.040   4.904  16.149
   19DOPE   H7R 2371   8.929   4.910  16.150
   19DOPE   H7S 2372   9.067   4.810  16.096
   19DOPE   C28 2373   9.094   5.025  16.069
   19DOPE   H8R 2374   9.069   5.118  16.124
   19DOPE   H8S 2375   9.037   5.030  15.973
   19DOPE   C29 2376   0.026   5.019  16.044
   19DOPE   H9R 2377   0.088   5.054  16.128
   19DOPE  C210 2378   0.088   4.975  15.932
   19DOPE  H10R 2379   0.198   4.977  15.929
   19DOPE  C211 2380   0.023   4.922  15.807
   19DOPE  H11R 2381   9.132   4.950  15.800
   19DOPE  H11S 2382   0.027   4.811  15.808
   19DOPE  C212 2383   0.094   4.970  15.678
   19DOPE  H12R 2384   0.053   4.914  15.592
   19DOPE  H12S 2385   0.202   4.944  15.685
   19DOPE  C213 2386   0.081   5.121  15.649
   19DOPE  H13R 2387   0.152   5.147  15.568
   19DOPE  H13S 2388   0.112   5.178  15.740
   19DOPE  C214 2389   9.158   5.167  15.606
   19DOPE  H14R 2390   9.157   5.278  15.604
   19DOPE  H14S 2391   9.082   5.135  15.682
   19DOPE  C215 2392   9.116   5.116  15.467
   19DOPE  H15R 2393   9.108   5.005  15.468
   19DOPE  H15S 2394   9.195   5.144  15.394
   19DOPE  C216 2395   8.983   5.175  15.419
   19DOPE  H16R 2396   8.988   5.286  15.424
   19DOPE  H16S 2397   8.902   5.142  15.489
   19DOPE  C217 2398   8.946   5.132  15.277
   19DOPE  H17R 2399   8.942   5.021  15.272
   19DOPE  H17S 2400   9.027   5.165  15.208
   19DOPE  C218 2401   8.813   5.190  15.228
   19DOPE  H18R 2402   8.730   5.158  15.295
   19DOPE  H18S 2403   8.791   5.155  15.125
   19DOPE  H18T 2404   8.817   5.301  15.227
   19DOPE   C33 2405   8.813   5.194  16.262
   19DOPE   H3X 2406   8.801   5.103  16.199
   19DOPE   H3Y 2407   8.915   5.234  16.244
   19DOPE   C34 2408   8.713   5.302  16.217
   19DOPE   H4X 2409   8.610   5.261  16.215
   19DOPE   H4Y 2410   8.716   5.383  16.293
   19DOPE   C35 2411   8.748   5.364  16.081
   19DOPE   H5X 2412   8.857   5.386  16.078
   19DOPE   H5Y 2413   8.694   5.461  16.070
   19DOPE   C36 2414   8.709   5.276  15.960
   19DOPE   H6X 2415   8.599   5.266  15.958
   19DOPE   H6Y 2416   8.752   5.174  15.973
   19DOPE   C37 2417   8.759   5.335  15.827
   19DOPE   H7X 2418   8.729   5.442  15.820
   19DOPE   H7Y 2419   8.870   5.333  15.829
   19DOPE   C38 2420   8.711   5.258  15.703
   19DOPE   H8X 2421   8.729   5.150  15.719
   19DOPE   H8Y 2422   8.775   5.288  15.617
   19DOPE   C39 2423   8.567   5.287  15.667
   19DOPE   H9X 2424   8.551   5.384  15.617
   19DOPE  C310 2425   8.460   5.209  15.691
   19DOPE  H10X 2426   8.361   5.246  15.659
   19DOPE  C311 2427   8.458   5.075  15.760
   19DOPE  H11X 2428   8.558   5.043  15.795
   19DOPE  H11Y 2429   8.395   5.084  15.851
   19DOPE  C312 2430   8.398   4.963  15.673
   19DOPE  H12X 2431   8.301   4.997  15.630
   19DOPE  H12Y 2432   8.375   4.876  15.738
   19DOPE  C313 2433   8.488   4.913  15.559
   19DOPE  H13X 2434   8.430   4.839  15.499
   19DOPE  H13Y 2435   8.514   4.997  15.491
   19DOPE  C314 2436   8.617   4.844  15.608
   19DOPE  H14X 2437   8.593   4.790  15.702
   19DOPE  H14Y 2438   8.693   4.922  15.632
   19DOPE  C315 2439   8.675   4.742  15.509
   19DOPE  H15X 2440   8.598   4.664  15.489
   19DOPE  H15Y 2441   8.763   4.693  15.555
   19DOPE  C316 2442   8.718   4.803  15.374
   19DOPE  H16X 2443   8.796   4.880  15.392
   19DOPE  H16Y 2444   8.631   4.854  15.327
   19DOPE  C317 2445   8.771   4.697  15.277
   19DOPE  H17X 2446   8.857   4.645  15.325
   19DOPE  H17Y 2447   8.692   4.621  15.261
   19DOPE  C318 2448   8.816   4.753  15.142
   19DOPE  H18X 2449   8.731   4.805  15.092
   19DOPE  H18Y 2450   8.899   4.826  15.155
   19DOPE  H18Z 2451   8.851   4.672  15.075
   20DOPE     N 2452   7.626   8.285  16.960
   20DOPE   HN1 2453   7.653   8.342  16.877
   20DOPE   HN2 2454   7.714   8.255  17.005
   20DOPE   HN3 2455   7.570   8.206  16.924
   20DOPE   C12 2456   7.543   8.365  17.057
   20DOPE  H12A 2457   7.506   8.455  17.003
   20DOPE  H12B 2458   7.610   8.397  17.139
   20DOPE   C11 2459   7.424   8.283  17.111
   20DOPE  H11A 2460   7.379   8.341  17.195
   20DOPE  H11B 2461   7.459   8.187  17.155
   20DOPE     P 2462   7.315   8.134  16.924
   20DOPE   O13 2463   7.281   8.021  17.014
   20DOPE   O14 2464   7.444   8.122  16.853
   20DOPE   O11 2465   7.196   8.163  16.826
   20DOPE   O12 2466   7.323   8.266  17.011
   20DOPE    C1 2467   7.069   8.206  16.877
   20DOPE    HA 2468   7.079   8.269  16.968
   20DOPE    HB 2469   7.009   8.117  16.905
   20DOPE    C2 2470   6.988   8.291  16.774
   20DOPE    HS 2471   6.889   8.313  16.819
   20DOPE   O21 2472   6.972   8.219  16.650
   20DOPE   C21 2473   6.888   8.117  16.656
   20DOPE   O22 2474   6.809   8.096  16.746
   20DOPE   C22 2475   6.904   8.029  16.532
   20DOPE   H2R 2476   6.912   7.925  16.568
   20DOPE   H2S 2477   7.000   8.055  16.482
   20DOPE    C3 2478   7.056   8.428  16.744
   20DOPE    HX 2479   7.064   8.483  16.841
   20DOPE    HY 2480   6.987   8.484  16.677
   20DOPE   O31 2481   7.185   8.413  16.684
   20DOPE   C31 2482   7.244   8.521  16.640
   20DOPE   O32 2483   7.202   8.636  16.652
   20DOPE   C32 2484   7.376   8.484  16.571
   20DOPE   H2X 2485   7.419   8.579  16.533
   20DOPE   H2Y 2486   7.445   8.443  16.648
   20DOPE   C23 2487   6.785   8.040  16.433
   20DOPE   H3R 2488   6.691   8.008  16.484
   20DOPE   H3S 2489   6.804   7.968  16.351
   20DOPE   C24 2490   6.765   8.179  16.371
   20DOPE   H4R 2491   6.722   8.248  16.446
   20DOPE   H4S 2492   6.691   8.170  16.288
   20DOPE   C25 2493   6.894   8.241  16.315
   20DOPE   H5R 2494   6.950   8.163  16.258
   20DOPE   H5S 2495   6.958   8.273  16.399
   20DOPE   C26 2496   6.869   8.360  16.221
   20DOPE   H6R 2497   6.792   8.427  16.265
   20DOPE   H6S 2498   6.830   8.322  16.125
   20DOPE   C27 2499   6.998   8.440  16.196
   20DOPE   H7R 2500   7.082   8.369  16.183
   20DOPE   H7S 2501   7.021   8.501  16.286
   20DOPE   C28 2502   6.993   8.529  16.070
   20DOPE   H8R 2503   6.987   8.462  15.982
   20DOPE   H8S 2504   7.091   8.582  16.061
   20DOPE   C29 2505   6.881   8.630  16.072
   20DOPE   H9R 2506   6.877   8.694  16.161
   20DOPE  C210 2507   6.787   8.645  15.976
   20DOPE  H10R 2508   6.711   8.723  15.988
   20DOPE  C211 2509   6.778   8.564  15.849
   20DOPE  H11R 2510   6.674   8.570  15.808
   20DOPE  H11S 2511   6.797   8.457  15.869
   20DOPE  C212 2512   6.875   8.614  15.740
   20DOPE  H12R 2513   6.979   8.595  15.773
   20DOPE  H12S 2514   6.863   8.724  15.727
   20DOPE  C213 2515   6.853   8.548  15.603
   20DOPE  H13R 2516   6.928   8.589  15.532
   20DOPE  H13S 2517   6.752   8.576  15.565
   20DOPE  C214 2518   6.864   8.394  15.605
   20DOPE  H14R 2519   6.778   8.353  15.663
   20DOPE  H14S 2520   6.957   8.363  15.655
   20DOPE  C215 2521   6.860   8.334  15.463
   20DOPE  H15R 2522   6.780   8.384  15.405
   20DOPE  H15S 2523   6.832   8.226  15.470
   20DOPE  C216 2524   6.994   8.344  15.390
   20DOPE  H16R 2525   7.068   8.281  15.443
   20DOPE  H16S 2526   7.031   8.449  15.393
   20DOPE  C217 2527   6.987   8.300  15.243
   20DOPE  H17R 2528   6.941   8.199  15.237
   20DOPE  H17S 2529   7.091   8.290  15.204
   20DOPE  C218 2530   6.911   8.397  15.153
   20DOPE  H18R 2531   6.956   8.498  15.158
   20DOPE  H18S 2532   6.804   8.404  15.184
   20DOPE  H18T 2533   6.914   8.363  15.047
   20DOPE   C33 2534   7.362   8.384  16.453
   20DOPE   H3X 2535   7.454   8.393  16.391
   20DOPE   H3Y 2536   7.276   8.410  16.388
   20DOPE   C34 2537   7.353   8.238  16.499
   20DOPE   H4X 2538   7.433   8.220  16.575
   20DOPE   H4Y 2539   7.256   8.219  16.550
   20DOPE   C35 2540   7.372   8.136  16.385
   20DOPE   H5X 2541   7.381   8.035  16.432
   20DOPE   H5Y 2542   7.467   8.156  16.332
   20DOPE   C36 2543   7.256   8.131  16.284
   20DOPE   H6X 2544   7.248   8.228  16.231
   20DOPE   H6Y 2545   7.162   8.114  16.341
   20DOPE   C37 2546   7.273   8.018  16.182
   20DOPE   H7X 2547   7.357   8.041  16.112
   20DOPE   H7Y 2548   7.302   7.926  16.237
   20DOPE   C38 2549   7.145   7.984  16.101
   20DOPE   H8X 2550   7.063   7.964  16.173
   20DOPE   H8Y 2551   7.163   7.888  16.049
   20DOPE   C39 2552   7.103   8.092  16.004
   20DOPE   H9X 2553   7.061   8.182  16.051
   20DOPE  C310 2554   7.110   8.088  15.869
   20DOPE  H10X 2555   7.073   8.174  15.812
   20DOPE  C311 2556   7.163   7.975  15.784
   20DOPE  H11X 2557   7.240   8.015  15.714
   20DOPE  H11Y 2558   7.215   7.898  15.845
   20DOPE  C312 2559   7.055   7.903  15.700
   20DOPE  H12X 2560   6.978   7.859  15.767
   20DOPE  H12Y 2561   7.105   7.818  15.648
   20DOPE  C313 2562   6.988   7.992  15.595
   20DOPE  H13X 2563   6.924   8.067  15.647
   20DOPE  H13Y 2564   7.066   8.048  15.539
   20DOPE  C314 2565   6.900   7.916  15.494
   20DOPE  H14X 2566   6.843   7.990  15.434
   20DOPE  H14Y 2567   6.827   7.852  15.548
   20DOPE  C315 2568   6.982   7.829  15.396
   20DOPE  H15X 2569   7.026   7.743  15.450
   20DOPE  H15Y 2570   7.066   7.891  15.356
   20DOPE  C316 2571   6.901   7.778  15.276
   20DOPE  H16X 2572   6.970   7.727  15.205
   20DOPE  H16Y 2573   6.856   7.864  15.222
   20DOPE  C317 2574   6.789   7.679  15.312
   20DOPE  H17X 2575   6.833   7.595  15.370
   20DOPE  H17Y 2576   6.716   7.729  15.379
   20DOPE  C318 2577   6.716   7.623  15.190
   20DOPE  H18X 2578   6.668   7.705  15.132
   20DOPE  H18Y 2579   6.788   7.570  15.123
   20DOPE  H18Z 2580   6.638   7.551  15.220
   21DOPE     N 2581   4.069   8.765  16.864
   21DOPE   HN1 2582   4.086   8.782  16.763
   21DOPE   HN2 2583   4.131   8.688  16.896
   21DOPE   HN3 2584   3.971   8.734  16.880
   21DOPE   C12 2585   4.094   8.888  16.947
   21DOPE  H12A 2586   4.080   8.977  16.882
   21DOPE  H12B 2587   4.199   8.884  16.981
   21DOPE   C11 2588   3.997   8.895  17.067
   21DOPE  H11A 2589   4.036   8.972  17.136
   21DOPE  H11B 2590   3.996   8.800  17.123
   21DOPE     P 2591   3.752   8.836  16.984
   21DOPE   O13 2592   3.652   8.828  17.093
   21DOPE   O14 2593   3.816   8.710  16.941
   21DOPE   O11 2594   3.687   8.908  16.859
   21DOPE   O12 2595   3.866   8.936  17.026
   21DOPE    C1 2596   3.768   8.979  16.764
   21DOPE    HA 2597   3.818   8.907  16.696
   21DOPE    HB 2598   3.846   9.041  16.814
   21DOPE    C2 2599   3.683   9.076  16.678
   21DOPE    HS 2600   3.629   9.140  16.751
   21DOPE   O21 2601   3.591   8.999  16.599
   21DOPE   C21 2602   3.482   9.064  16.563
   21DOPE   O22 2603   3.458   9.181  16.586
   21DOPE   C22 2604   3.388   8.965  16.494
   21DOPE   H2R 2605   3.363   8.888  16.569
   21DOPE   H2S 2606   3.443   8.916  16.411
   21DOPE    C3 2607   3.771   9.172  16.590
   21DOPE    HX 2608   3.834   0.017  16.657
   21DOPE    HY 2609   3.701   0.026  16.540
   21DOPE   O31 2610   3.849   9.106  16.488
   21DOPE   C31 2611   3.973   9.072  16.519
   21DOPE   O32 2612   4.022   9.077  16.631
   21DOPE   C32 2613   4.050   9.025  16.396
   21DOPE   H2X 2614   4.158   9.038  16.418
   21DOPE   H2Y 2615   4.029   8.916  16.383
   21DOPE   C23 2616   3.257   9.030  16.443
   21DOPE   H3R 2617   3.210   9.091  16.525
   21DOPE   H3S 2618   3.185   8.950  16.417
   21DOPE   C24 2619   3.274   9.119  16.319
   21DOPE   H4R 2620   3.345   9.201  16.341
   21DOPE   H4S 2621   3.176   9.165  16.294
   21DOPE   C25 2622   3.323   9.043  16.195
   21DOPE   H5R 2623   3.258   8.955  16.177
   21DOPE   H5S 2624   3.426   9.005  16.213
   21DOPE   C26 2625   3.324   9.130  16.069
   21DOPE   H6R 2626   3.388   0.003  16.087
   21DOPE   H6S 2627   3.221   9.167  16.051
   21DOPE   C27 2628   3.373   9.057  15.943
   21DOPE   H7R 2629   3.357   9.122  15.855
   21DOPE   H7S 2630   3.310   8.966  15.928
   21DOPE   C28 2631   3.521   9.013  15.946
   21DOPE   H8R 2632   3.541   8.955  15.853
   21DOPE   H8S 2633   3.536   8.941  16.030
   21DOPE   C29 2634   3.618   9.128  15.959
   21DOPE   H9R 2635   3.650   9.150  16.062
   21DOPE  C210 2636   3.665   9.204  15.858
   21DOPE  H10R 2637   3.734   0.070  15.881
   21DOPE  C211 2638   3.629   9.190  15.712
   21DOPE  H11R 2639   3.587   9.089  15.691
   21DOPE  H11S 2640   3.720   9.200  15.649
   21DOPE  C212 2641   3.526   0.080  15.669
   21DOPE  H12R 2642   3.572   0.181  15.678
   21DOPE  H12S 2643   3.440   0.076  15.739
   21DOPE  C213 2644   3.471   0.062  15.527
   21DOPE  H13R 2645   3.553   0.076  15.453
   21DOPE  H13S 2646   3.397   0.142  15.508
   21DOPE  C214 2647   3.404   9.143  15.504
   21DOPE  H14R 2648   3.334   9.123  15.588
   21DOPE  H14S 2649   3.480   9.062  15.503
   21DOPE  C215 2650   3.324   9.136  15.372
   21DOPE  H15R 2651   3.392   9.155  15.287
   21DOPE  H15S 2652   3.247   9.216  15.373
   21DOPE  C216 2653   3.257   8.999  15.354
   21DOPE  H16R 2654   3.191   8.978  15.441
   21DOPE  H16S 2655   3.336   8.921  15.352
   21DOPE  C217 2656   3.173   8.987  15.225
   21DOPE  H17R 2657   3.138   8.882  15.215
   21DOPE  H17S 2658   3.239   9.009  15.138
   21DOPE  C218 2659   3.051   9.080  15.220
   21DOPE  H18R 2660   2.984   9.061  15.307
   21DOPE  H18S 2661   2.993   9.063  15.127
   21DOPE  H18T 2662   3.082   9.187  15.223
   21DOPE   C33 2663   4.016   9.101  16.265
   21DOPE   H3X 2664   4.017   9.211  16.284
   21DOPE   H3Y 2665   3.913   9.075  16.232
   21DOPE   C34 2666   4.115   9.072  16.151
   21DOPE   H4X 2667   4.080   9.124  16.059
   21DOPE   H4Y 2668   4.213   9.116  16.178
   21DOPE   C35 2669   4.137   8.923  16.121
   21DOPE   H5X 2670   4.185   8.875  16.208
   21DOPE   H5Y 2671   4.208   8.914  16.036
   21DOPE   C36 2672   4.010   8.843  16.085
   21DOPE   H6X 2673   3.935   8.853  16.167
   21DOPE   H6Y 2674   4.038   8.736  16.078
   21DOPE   C37 2675   3.944   8.886  15.953
   21DOPE   H7X 2676   3.919   8.994  15.959
   21DOPE   H7Y 2677   4.017   8.874  15.870
   21DOPE   C38 2678   3.814   8.809  15.920
   21DOPE   H8X 2679   3.766   8.862  15.835
   21DOPE   H8Y 2680   3.746   8.819  16.007
   21DOPE   C39 2681   3.836   8.663  15.887
   21DOPE   H9X 2682   3.916   8.614  15.946
   21DOPE  C310 2683   3.770   8.590  15.796
   21DOPE  H10X 2684   3.799   8.485  15.782
   21DOPE  C311 2685   3.659   8.637  15.705
   21DOPE  H11X 2686   3.573   8.566  15.712
   21DOPE  H11Y 2687   3.620   8.737  15.734
   21DOPE  C312 2688   3.703   8.644  15.558
   21DOPE  H12X 2689   3.744   8.546  15.526
   21DOPE  H12Y 2690   3.785   8.719  15.548
   21DOPE  C313 2691   3.588   8.682  15.463
   21DOPE  H13X 2692   3.507   8.607  15.477
   21DOPE  H13Y 2693   3.547   8.780  15.493
   21DOPE  C314 2694   3.628   8.684  15.315
   21DOPE  H14X 2695   3.537   8.707  15.254
   21DOPE  H14Y 2696   3.663   8.583  15.285
   21DOPE  C315 2697   3.736   8.787  15.278
   21DOPE  H15X 2698   3.756   8.780  15.169
   21DOPE  H15Y 2699   3.831   8.761  15.330
   21DOPE  C316 2700   3.698   8.932  15.313
   21DOPE  H16X 2701   3.687   8.942  15.423
   21DOPE  H16Y 2702   3.600   8.956  15.266
   21DOPE  C317 2703   3.803   9.033  15.265
   21DOPE  H17X 2704   3.901   9.008  15.310
   21DOPE  H17Y 2705   3.813   9.026  15.155
   21DOPE  C318 2706   3.767   9.177  15.303
   21DOPE  H18X 2707   3.670   9.206  15.257
   21DOPE  H18Y 2708   3.757   9.187  15.413
   21DOPE  H18Z 2709   3.845   0.032  15.268
   22DOPE     N 2710   8.808   5.831  16.965
   22DOPE   HN1 2711   8.719   5.784  16.991
   22DOPE   HN2 2712   8.797   5.884  16.877
   22DOPE   HN3 2713   8.883   5.760  16.952
   22DOPE   C12 2714   8.861   5.921  17.074
   22DOPE  H12A 2715   8.891   5.856  17.158
   22DOPE  H12B 2716   8.778   5.988  17.107
   22DOPE   C11 2717   8.983   6.003  17.025
   22DOPE  H11A 2718   9.049   6.027  17.111
   22DOPE  H11B 2719   8.945   6.100  16.987
   22DOPE     P 2720   9.146   5.812  16.943
   22DOPE   O13 2721   9.051   5.704  16.980
   22DOPE   O14 2722   0.036   5.847  17.040
   22DOPE   O11 2723   9.204   5.786  16.799
   22DOPE   O12 2724   9.055   5.940  16.919
   22DOPE    C1 2725   9.109   5.767  16.692
   22DOPE    HA 2726   9.044   5.856  16.679
   22DOPE    HB 2727   9.045   5.679  16.713
   22DOPE    C2 2728   9.178   5.741  16.555
   22DOPE    HS 2729   0.050   5.677  16.575
   22DOPE   O21 2730   0.000   5.868  16.497
   22DOPE   C21 2731   0.090   5.854  16.400
   22DOPE   O22 2732   0.142   5.750  16.366
   22DOPE   C22 2733   0.120   5.990  16.336
   22DOPE   H2R 2734   0.204   6.037  16.391
   22DOPE   H2S 2735   0.030   6.055  16.347
   22DOPE    C3 2736   9.080   5.663  16.461
   22DOPE    HX 2737   9.081   5.557  16.495
   22DOPE    HY 2738   9.119   5.666  16.357
   22DOPE   O31 2739   8.946   5.716  16.470
   22DOPE   C31 2740   8.861   5.656  16.386
   22DOPE   O32 2741   8.893   5.571  16.304
   22DOPE   C32 2742   8.718   5.702  16.416
   22DOPE   H2X 2743   8.681   5.638  16.499
   22DOPE   H2Y 2744   8.720   5.807  16.451
   22DOPE   C23 2745   0.156   5.976  16.186
   22DOPE   H3R 2746   0.078   5.917  16.133
   22DOPE   H3S 2747   0.252   5.921  16.177
   22DOPE   C24 2748   0.170   6.112  16.113
   22DOPE   H4R 2749   0.239   6.177  16.171
   22DOPE   H4S 2750   0.071   6.162  16.110
   22DOPE   C25 2751   0.225   6.096  15.971
   22DOPE   H5R 2752   0.160   6.026  15.913
   22DOPE   H5S 2753   0.325   6.048  15.978
   22DOPE   C26 2754   0.241   6.229  15.895
   22DOPE   H6R 2755   0.330   6.223  15.829
   22DOPE   H6S 2756   0.261   6.309  15.969
   22DOPE   C27 2757   0.119   6.269  15.809
   22DOPE   H7R 2758   0.130   6.375  15.778
   22DOPE   H7S 2759   0.028   6.264  15.873
   22DOPE   C28 2760   0.096   6.184  15.682
   22DOPE   H8R 2761   9.214   6.214  15.639
   22DOPE   H8S 2762   0.085   6.077  15.712
   22DOPE   C29 2763   0.206   6.197  15.579
   22DOPE   H9R 2764   0.307   6.180  15.619
   22DOPE  C210 2765   0.193   6.224  15.448
   22DOPE  H10R 2766   0.284   6.229  15.387
   22DOPE  C211 2767   0.065   6.249  15.372
   22DOPE  H11R 2768   9.203   6.294  15.435
   22DOPE  H11S 2769   0.026   6.152  15.334
   22DOPE  C212 2770   0.089   6.342  15.250
   22DOPE  H12R 2771   0.168   6.298  15.185
   22DOPE  H12S 2772   0.126   6.440  15.287
   22DOPE  C213 2773   9.181   6.365  15.164
   22DOPE  H13R 2774   9.208   6.437  15.083
   22DOPE  H13S 2775   9.101   6.412  15.225
   22DOPE  C214 2776   9.126   6.237  15.098
   22DOPE  H14R 2777   9.079   6.174  15.176
   22DOPE  H14S 2778   9.211   6.180  15.055
   22DOPE  C215 2779   9.024   6.263  14.986
   22DOPE  H15R 2780   8.990   6.166  14.945
   22DOPE  H15S 2781   9.074   6.318  14.904
   22DOPE  C216 2782   8.901   6.343  15.033
   22DOPE  H16R 2783   8.933   6.445  15.064
   22DOPE  H16S 2784   8.858   6.292  15.122
   22DOPE  C217 2785   8.791   6.357  14.927
   22DOPE  H17R 2786   8.709   6.418  14.970
   22DOPE  H17S 2787   8.749   6.256  14.905
   22DOPE  C218 2788   8.837   6.422  14.796
   22DOPE  H18R 2789   8.912   6.358  14.744
   22DOPE  H18S 2790   8.883   6.521  14.816
   22DOPE  H18T 2791   8.750   6.436  14.727
   22DOPE   C33 2792   8.623   5.688  16.295
   22DOPE   H3X 2793   8.518   5.696  16.331
   22DOPE   H3Y 2794   8.632   5.587  16.249
   22DOPE   C34 2795   8.645   5.795  16.188
   22DOPE   H4X 2796   8.624   5.895  16.232
   22DOPE   H4Y 2797   8.751   5.793  16.155
   22DOPE   C35 2798   8.554   5.776  16.066
   22DOPE   H5X 2799   8.449   5.764  16.101
   22DOPE   H5Y 2800   8.582   5.682  16.014
   22DOPE   C36 2801   8.557   5.893  15.966
   22DOPE   H6X 2802   8.524   5.985  16.019
   22DOPE   H6Y 2803   8.484   5.874  15.885
   22DOPE   C37 2804   8.695   5.921  15.904
   22DOPE   H7X 2805   8.687   6.012  15.840
   22DOPE   H7Y 2806   8.768   5.946  15.985
   22DOPE   C38 2807   8.753   5.807  15.818
   22DOPE   H8X 2808   8.767   5.717  15.882
   22DOPE   H8Y 2809   8.855   5.837  15.786
   22DOPE   C39 2810   8.669   5.773  15.697
   22DOPE   H9X 2811   8.603   5.686  15.710
   22DOPE  C310 2812   8.668   5.839  15.580
   22DOPE  H10X 2813   8.603   5.803  15.500
   22DOPE  C311 2814   8.750   5.961  15.545
   22DOPE  H11X 2815   8.684   6.041  15.504
   22DOPE  H11Y 2816   8.798   6.005  15.636
   22DOPE  C312 2817   8.861   5.934  15.442
   22DOPE  H12X 2818   8.931   5.857  15.483
   22DOPE  H12Y 2819   8.920   6.027  15.429
   22DOPE  C313 2820   8.809   5.890  15.304
   22DOPE  H13X 2821   8.761   5.790  15.310
   22DOPE  H13Y 2822   8.730   5.963  15.275
   22DOPE  C314 2823   8.916   5.890  15.194
   22DOPE  H14X 2824   8.987   5.974  15.209
   22DOPE  H14Y 2825   8.864   5.909  15.097
   22DOPE  C315 2826   8.993   5.757  15.176
   22DOPE  H15X 2827   9.054   5.765  15.084
   22DOPE  H15Y 2828   8.919   5.675  15.159
   22DOPE  C316 2829   9.086   5.717  15.292
   22DOPE  H16X 2830   9.138   5.622  15.263
   22DOPE  H16Y 2831   9.025   5.694  15.381
   22DOPE  C317 2832   9.193   5.821  15.329
   22DOPE  H17X 2833   9.143   5.913  15.365
   22DOPE  H17Y 2834   0.036   5.781  15.414
   22DOPE  C318 2835   0.072   5.858  15.215
   22DOPE  H18X 2836   0.149   5.929  15.251
   22DOPE  H18Y 2837   0.124   5.767  15.177
   22DOPE  H18Z 2838   0.017   5.905  15.131
   23DOPE     N 2839   5.787   8.951  17.192
   23DOPE   HN1 2840   5.739   8.894  17.264
   23DOPE   HN2 2841   5.880   8.980  17.229
   23DOPE   HN3 2842   5.728   9.034  17.169
   23DOPE   C12 2843   5.799   8.879  17.061
   23DOPE  H12A 2844   5.713   8.809  17.054
   23DOPE  H12B 2845   5.894   8.821  17.060
   23DOPE   C11 2846   5.791   8.982  16.949
   23DOPE  H11A 2847   5.783   8.927  16.853
   23DOPE  H11B 2848   5.883   9.044  16.945
   23DOPE     P 2849   5.604   9.139  16.855
   23DOPE   O13 2850   5.473   9.186  16.906
   23DOPE   O14 2851   5.607   9.050  16.737
   23DOPE   O11 2852   5.700   0.047  16.834
   23DOPE   O12 2853   5.678   9.065  16.975
   23DOPE    C1 2854   5.716   0.139  16.942
   23DOPE    HA 2855   5.754   0.089  17.033
   23DOPE    HB 2856   5.618   0.185  16.967
   23DOPE    C2 2857   5.814   0.254  16.905
   23DOPE    HS 2858   5.806   0.333  16.983
   23DOPE   O21 2859   5.784   0.308  16.776
   23DOPE   C21 2860   5.671   0.375  16.767
   23DOPE   O22 2861   5.609   0.421  16.862
   23DOPE   C22 2862   5.635   0.394  16.620
   23DOPE   H2R 2863   5.727   0.381  16.560
   23DOPE   H2S 2864   5.599   0.499  16.607
   23DOPE    C3 2865   5.963   0.207  16.907
   23DOPE    HX 2866   5.987   0.180  17.013
   23DOPE    HY 2867   6.029   0.292  16.880
   23DOPE   O31 2868   5.987   0.090  16.825
   23DOPE   C31 2869   6.010   0.116  16.696
   23DOPE   O32 2870   6.033   0.226  16.649
   23DOPE   C32 2871   6.020   9.201  16.619
   23DOPE   H2X 2872   6.128   9.182  16.604
   23DOPE   H2Y 2873   5.977   9.119  16.680
   23DOPE   C23 2874   5.528   0.295  16.571
   23DOPE   H3R 2875   5.430   0.317  16.619
   23DOPE   H3S 2876   5.556   0.191  16.599
   23DOPE   C24 2877   5.511   0.299  16.418
   23DOPE   H4R 2878   5.606   0.268  16.370
   23DOPE   H4S 2879   5.489   0.403  16.386
   23DOPE   C25 2880   5.399   0.206  16.368
   23DOPE   H5R 2881   5.301   0.245  16.404
   23DOPE   H5S 2882   5.413   0.105  16.414
   23DOPE   C26 2883   5.393   0.189  16.215
   23DOPE   H6R 2884   5.307   0.121  16.192
   23DOPE   H6S 2885   5.485   0.138  16.180
   23DOPE   C27 2886   5.375   0.320  16.138
   23DOPE   H7R 2887   5.466   0.382  16.151
   23DOPE   H7S 2888   5.290   0.377  16.181
   23DOPE   C28 2889   5.351   0.300  15.986
   23DOPE   H8R 2890   5.434   0.237  15.947
   23DOPE   H8S 2891   5.361   0.399  15.937
   23DOPE   C29 2892   5.215   0.243  15.956
   23DOPE   H9R 2893   5.132   0.298  16.002
   23DOPE  C210 2894   5.186   0.132  15.886
   23DOPE  H10R 2895   5.080   0.103  15.875
   23DOPE  C211 2896   5.283   0.037  15.819
   23DOPE  H11R 2897   5.288   9.160  15.879
   23DOPE  H11S 2898   5.386   0.077  15.815
   23DOPE  C212 2899   5.239   9.213  15.676
   23DOPE  H12R 2900   5.135   9.176  15.679
   23DOPE  H12S 2901   5.303   9.129  15.642
   23DOPE  C213 2902   5.249   0.109  15.571
   23DOPE  H13R 2903   5.192   0.198  15.606
   23DOPE  H13S 2904   5.201   0.073  15.478
   23DOPE  C214 2905   5.394   0.151  15.539
   23DOPE  H14R 2906   5.452   0.062  15.509
   23DOPE  H14S 2907   5.440   0.192  15.632
   23DOPE  C215 2908   5.404   0.258  15.429
   23DOPE  H15R 2909   5.510   0.292  15.423
   23DOPE  H15S 2910   5.342   0.345  15.457
   23DOPE  C216 2911   5.363   0.208  15.290
   23DOPE  H16R 2912   5.255   0.182  15.290
   23DOPE  H16S 2913   5.419   0.115  15.267
   23DOPE  C217 2914   5.389   0.309  15.177
   23DOPE  H17R 2915   5.364   0.260  15.080
   23DOPE  H17S 2916   5.497   0.333  15.175
   23DOPE  C218 2917   5.309   0.439  15.189
   23DOPE  H18R 2918   5.338   0.495  15.280
   23DOPE  H18S 2919   5.200   0.418  15.194
   23DOPE  H18T 2920   5.328   0.505  15.101
   23DOPE   C33 2921   5.949   9.206  16.481
   23DOPE   H3X 2922   5.991   9.124  16.419
   23DOPE   H3Y 2923   5.970   0.085  16.429
   23DOPE   C34 2924   5.798   9.184  16.493
   23DOPE   H4X 2925   5.779   9.087  16.543
   23DOPE   H4Y 2926   5.754   0.046  16.559
   23DOPE   C35 2927   5.723   9.186  16.359
   23DOPE   H5X 2928   5.730   0.070  16.313
   23DOPE   H5Y 2929   5.615   9.167  16.380
   23DOPE   C36 2930   5.772   9.081  16.257
   23DOPE   H6X 2931   5.778   8.982  16.307
   23DOPE   H6Y 2932   5.874   9.109  16.223
   23DOPE   C37 2933   5.679   9.070  16.135
   23DOPE   H7X 2934   5.580   9.034  16.171
   23DOPE   H7Y 2935   5.663   9.171  16.092
   23DOPE   C38 2936   5.730   8.974  16.026
   23DOPE   H8X 2937   5.648   8.959  15.952
   23DOPE   H8Y 2938   5.748   8.874  16.072
   23DOPE   C39 2939   5.854   9.023  15.957
   23DOPE   H9X 2940   5.948   8.978  15.991
   23DOPE  C310 2941   5.858   9.118  15.861
   23DOPE  H10X 2942   5.956   9.146  15.818
   23DOPE  C311 2943   5.740   9.192  15.804
   23DOPE  H11X 2944   5.648   9.128  15.805
   23DOPE  H11Y 2945   5.718   0.063  15.868
   23DOPE  C312 2946   5.762   0.026  15.660
   23DOPE  H12X 2947   5.852   0.092  15.658
   23DOPE  H12Y 2948   5.675   0.087  15.631
   23DOPE  C313 2949   5.779   9.130  15.557
   23DOPE  H13X 2950   5.868   9.068  15.583
   23DOPE  H13Y 2951   5.690   9.064  15.560
   23DOPE  C314 2952   5.797   9.185  15.414
   23DOPE  H14X 2953   5.880   0.043  15.416
   23DOPE  H14Y 2954   5.705   0.022  15.383
   23DOPE  C315 2955   5.832   9.078  15.310
   23DOPE  H15X 2956   5.921   9.021  15.344
   23DOPE  H15Y 2957   5.859   9.129  15.215
   23DOPE  C316 2958   5.717   8.979  15.282
   23DOPE  H16X 2959   5.629   9.036  15.244
   23DOPE  H16Y 2960   5.686   8.931  15.377
   23DOPE  C317 2961   5.753   8.869  15.181
   23DOPE  H17X 2962   5.838   8.810  15.222
   23DOPE  H17Y 2963   5.667   8.799  15.174
   23DOPE  C318 2964   5.788   8.919  15.041
   23DOPE  H18X 2965   5.880   8.982  15.044
   23DOPE  H18Y 2966   5.808   8.833  14.973
   23DOPE  H18Z 2967   5.705   8.979  14.999
   24DOPE     N 2968   8.305   7.635  17.086
   24DOPE   HN1 2969   8.254   7.587  17.163
   24DOPE   HN2 2970   8.375   7.571  17.044
   24DOPE   HN3 2971   8.353   7.718  17.126
   24DOPE   C12 2972   8.210   7.672  16.975
   24DOPE  H12A 2973   8.270   7.724  16.898
   24DOPE  H12B 2974   8.134   7.741  17.016
   24DOPE   C11 2975   8.143   7.546  16.914
   24DOPE  H11A 2976   8.098   7.571  16.817
   24DOPE  H11B 2977   8.060   7.515  16.981
   24DOPE     P 2978   8.366   7.447  16.816
   24DOPE   O13 2979   8.464   7.502  16.913
   24DOPE   O14 2980   8.338   7.525  16.695
   24DOPE   O11 2981   8.400   7.297  16.782
   24DOPE   O12 2982   8.232   7.435  16.900
   24DOPE    C1 2983   8.296   7.202  16.758
   24DOPE    HA 2984   8.212   7.247  16.701
   24DOPE    HB 2985   8.256   7.164  16.855
   24DOPE    C2 2986   8.348   7.082  16.675
   24DOPE    HS 2987   8.432   7.035  16.732
   24DOPE   O21 2988   8.391   7.129  16.546
   24DOPE   C21 2989   8.515   7.174  16.542
   24DOPE   O22 2990   8.602   7.152  16.624
   24DOPE   C22 2991   8.535   7.260  16.417
   24DOPE   H2R 2992   8.639   7.297  16.422
   24DOPE   H2S 2993   8.467   7.347  16.423
   24DOPE    C3 2994   8.240   6.972  16.657
   24DOPE    HX 2995   8.217   6.931  16.758
   24DOPE    HY 2996   8.284   6.890  16.598
   24DOPE   O31 2997   8.118   7.025  16.601
   24DOPE   C31 2998   8.086   6.984  16.478
   24DOPE   O32 2999   8.144   6.898  16.415
   24DOPE   C32 3000   7.960   7.056  16.431
   24DOPE   H2X 3001   7.917   6.998  16.347
   24DOPE   H2Y 3002   7.887   7.057  16.515
   24DOPE   C23 3003   8.515   7.184  16.283
   24DOPE   H3R 3004   8.557   7.081  16.289
   24DOPE   H3S 3005   8.574   7.238  16.205
   24DOPE   C24 3006   8.369   7.181  16.235
   24DOPE   H4R 3007   8.329   7.284  16.236
   24DOPE   H4S 3008   8.308   7.120  16.305
   24DOPE   C25 3009   8.356   7.124  16.093
   24DOPE   H5R 3010   8.382   7.016  16.094
   24DOPE   H5S 3011   8.428   7.176  16.027
   24DOPE   C26 3012   8.215   7.141  16.033
   24DOPE   H6R 3013   8.223   7.151  15.923
   24DOPE   H6S 3014   8.174   7.236  16.072
   24DOPE   C27 3015   8.119   7.025  16.066
   24DOPE   H7R 3016   8.016   7.065  16.079
   24DOPE   H7S 3017   8.149   6.982  16.164
   24DOPE   C28 3018   8.117   6.913  15.960
   24DOPE   H8R 3019   8.061   6.827  16.003
   24DOPE   H8S 3020   8.222   6.878  15.944
   24DOPE   C29 3021   8.051   6.957  15.832
   24DOPE   H9R 3022   7.961   7.019  15.847
   24DOPE  C210 3023   8.089   6.929  15.705
   24DOPE  H10R 3024   8.028   6.970  15.623
   24DOPE  C211 3025   8.206   6.846  15.659
   24DOPE  H11R 3026   8.274   6.821  15.744
   24DOPE  H11S 3027   8.268   6.904  15.587
   24DOPE  C212 3028   8.163   6.714  15.593
   24DOPE  H12R 3029   8.106   6.654  15.667
   24DOPE  H12S 3030   8.254   6.655  15.567
   24DOPE  C213 3031   8.076   6.728  15.466
   24DOPE  H13R 3032   7.988   6.792  15.489
   24DOPE  H13S 3033   8.036   6.628  15.438
   24DOPE  C214 3034   8.149   6.786  15.343
   24DOPE  H14R 3035   8.205   6.878  15.371
   24DOPE  H14S 3036   8.072   6.816  15.269
   24DOPE  C215 3037   8.243   6.685  15.275
   24DOPE  H15R 3038   8.185   6.593  15.252
   24DOPE  H15S 3039   8.324   6.657  15.345
   24DOPE  C216 3040   8.303   6.738  15.145
   24DOPE  H16R 3041   8.368   6.826  15.167
   24DOPE  H16S 3042   8.221   6.772  15.078
   24DOPE  C217 3043   8.386   6.632  15.071
   24DOPE  H17R 3044   8.321   6.544  15.052
   24DOPE  H17S 3045   8.469   6.598  15.137
   24DOPE  C218 3046   8.443   6.681  14.938
   24DOPE  H18R 3047   8.497   6.600  14.885
   24DOPE  H18S 3048   8.513   6.766  14.954
   24DOPE  H18T 3049   8.361   6.717  14.872
   24DOPE   C33 3050   7.991   7.201  16.386
   24DOPE   H3X 3051   8.059   7.198  16.298
   24DOPE   H3Y 3052   8.043   7.255  16.467
   24DOPE   C34 3053   7.864   7.279  16.349
   24DOPE   H4X 3054   7.806   7.224  16.272
   24DOPE   H4Y 3055   7.800   7.287  16.440
   24DOPE   C35 3056   7.895   7.420  16.298
   24DOPE   H5X 3057   7.973   7.464  16.364
   24DOPE   H5Y 3058   7.805   7.484  16.305
   24DOPE   C36 3059   7.944   7.422  16.152
   24DOPE   H6X 3060   7.859   7.444  16.084
   24DOPE   H6Y 3061   7.982   7.321  16.125
   24DOPE   C37 3062   8.057   7.524  16.129
   24DOPE   H7X 3063   8.021   7.625  16.159
   24DOPE   H7Y 3064   8.142   7.497  16.194
   24DOPE   C38 3065   8.104   7.528  15.982
   24DOPE   H8X 3066   8.017   7.556  15.918
   24DOPE   H8Y 3067   8.133   7.425  15.952
   24DOPE   C39 3068   8.216   7.626  15.962
   24DOPE   H9X 3069   8.190   7.731  15.986
   24DOPE  C310 3070   8.341   7.599  15.919
   24DOPE  H10X 3071   8.412   7.682  15.907
   24DOPE  C311 3072   8.395   7.463  15.881
   24DOPE  H11X 3073   8.505   7.461  15.898
   24DOPE  H11Y 3074   8.352   7.384  15.946
   24DOPE  C312 3075   8.368   7.425  15.734
   24DOPE  H12X 3076   8.259   7.411  15.719
   24DOPE  H12Y 3077   8.416   7.327  15.713
   24DOPE  C313 3078   8.419   7.528  15.632
   24DOPE  H13X 3079   8.363   7.623  15.646
   24DOPE  H13Y 3080   8.526   7.549  15.651
   24DOPE  C314 3081   8.402   7.482  15.486
   24DOPE  H14X 3082   8.302   7.434  15.475
   24DOPE  H14Y 3083   8.479   7.406  15.462
   24DOPE  C315 3084   8.410   7.600  15.387
   24DOPE  H15X 3085   8.505   7.655  15.400
   24DOPE  H15Y 3086   8.327   7.670  15.410
   24DOPE  C316 3087   8.396   7.556  15.240
   24DOPE  H16X 3088   8.366   7.644  15.179
   24DOPE  H16Y 3089   8.315   7.481  15.231
   24DOPE  C317 3090   8.526   7.500  15.181
   24DOPE  H17X 3091   8.606   7.577  15.191
   24DOPE  H17Y 3092   8.558   7.412  15.240
   24DOPE  C318 3093   8.513   7.461  15.034
   24DOPE  H18X 3094   8.486   7.549  14.972
   24DOPE  H18Y 3095   8.609   7.420  14.995
   24DOPE  H18Z 3096   8.435   7.383  15.021
   25DOPE     N 3097   9.202   7.188  16.880
   25DOPE   HN1 3098   0.053   7.232  16.946
   25DOPE   HN2 3099   9.181   7.093  16.917
   25DOPE   HN3 3100   0.027   7.175  16.786
   25DOPE   C12 3101   9.071   7.262  16.882
   25DOPE  H12A 3102   8.998   7.200  16.826
   25DOPE  H12B 3103   9.084   7.360  16.831
   25DOPE   C11 3104   9.027   7.281  17.028
   25DOPE  H11A 3105   8.920   7.309  17.033
   25DOPE  H11B 3106   9.084   7.366  17.072
   25DOPE     P 3107   8.974   7.030  17.086
   25DOPE   O13 3108   8.842   7.058  17.027
   25DOPE   O14 3109   8.982   6.953  17.212
   25DOPE   O11 3110   9.066   6.963  16.974
   25DOPE   O12 3111   9.053   7.165  17.108
   25DOPE    C1 3112   9.019   6.841  16.914
   25DOPE    HA 3113   8.960   6.863  16.822
   25DOPE    HB 3114   8.952   6.784  16.982
   25DOPE    C2 3115   9.135   6.743  16.878
   25DOPE    HS 3116   0.001   6.759  16.950
   25DOPE   O21 3117   9.178   6.762  16.743
   25DOPE   C21 3118   0.037   6.865  16.714
   25DOPE   O22 3119   0.081   6.948  16.792
   25DOPE   C22 3120   0.055   6.869  16.563
   25DOPE   H2R 3121   9.177   6.911  16.521
   25DOPE   H2S 3122   0.066   6.764  16.526
   25DOPE    C3 3123   9.088   6.595  16.891
   25DOPE    HX 3124   9.053   6.580  16.996
   25DOPE    HY 3125   9.174   6.527  16.877
   25DOPE   O31 3126   8.978   6.567  16.802
   25DOPE   C31 3127   9.012   6.518  16.683
   25DOPE   O32 3128   9.124   6.482  16.650
   25DOPE   C32 3129   8.889   6.511  16.593
   25DOPE   H2X 3130   8.858   6.404  16.588
   25DOPE   H2Y 3131   8.806   6.569  16.639
   25DOPE   C23 3132   0.174   6.954  16.515
   25DOPE   H3R 3133   0.269   6.901  16.540
   25DOPE   H3S 3134   0.175   7.052  16.566
   25DOPE   C24 3135   0.171   6.979  16.363
   25DOPE   H4R 3136   0.264   7.032  16.333
   25DOPE   H4S 3137   0.085   7.046  16.338
   25DOPE   C25 3138   0.158   6.851  16.279
   25DOPE   H5R 3139   0.058   6.804  16.295
   25DOPE   H5S 3140   0.234   6.778  16.314
   25DOPE   C26 3141   0.178   6.875  16.129
   25DOPE   H6R 3142   0.276   6.927  16.115
   25DOPE   H6S 3143   0.099   6.943  16.091
   25DOPE   C27 3144   0.179   6.745  16.047
   25DOPE   H7R 3145   0.076   6.705  16.040
   25DOPE   H7S 3146   0.239   6.670  16.102
   25DOPE   C28 3147   0.241   6.761  15.907
   25DOPE   H8R 3148   0.255   6.659  15.864
   25DOPE   H8S 3149   0.342   6.805  15.917
   25DOPE   C29 3150   0.156   6.846  15.815
   25DOPE   H9R 3151   0.182   6.953  15.814
   25DOPE  C210 3152   0.055   6.802  15.738
   25DOPE  H10R 3153   0.001   6.874  15.675
   25DOPE  C211 3154   0.005   6.660  15.729
   25DOPE  H11R 3155   0.066   6.591  15.792
   25DOPE  H11S 3156   0.015   6.622  15.625
   25DOPE  C212 3157   9.076   6.645  15.776
   25DOPE  H12R 3158   9.065   6.692  15.877
   25DOPE  H12S 3159   9.054   6.537  15.788
   25DOPE  C213 3160   8.971   6.705  15.681
   25DOPE  H13R 3161   8.994   6.812  15.661
   25DOPE  H13S 3162   8.872   6.701  15.732
   25DOPE  C214 3163   8.959   6.628  15.548
   25DOPE  H14R 3164   8.941   6.521  15.571
   25DOPE  H14S 3165   9.055   6.634  15.493
   25DOPE  C215 3166   8.846   6.682  15.459
   25DOPE  H15R 3167   8.869   6.789  15.439
   25DOPE  H15S 3168   8.750   6.679  15.514
   25DOPE  C216 3169   8.832   6.610  15.324
   25DOPE  H16R 3170   8.932   6.578  15.287
   25DOPE  H16S 3171   8.792   6.683  15.251
   25DOPE  C217 3172   8.735   6.490  15.325
   25DOPE  H17R 3173   8.714   6.463  15.220
   25DOPE  H17S 3174   8.638   6.523  15.369
   25DOPE  C218 3175   8.784   6.365  15.399
   25DOPE  H18R 3176   8.790   6.384  15.508
   25DOPE  H18S 3177   8.884   6.335  15.362
   25DOPE  H18T 3178   8.713   6.281  15.383
   25DOPE   C33 3179   8.916   6.563  16.450
   25DOPE   H3X 3180   8.823   6.548  16.391
   25DOPE   H3Y 3181   8.997   6.504  16.402
   25DOPE   C34 3182   8.954   6.712  16.446
   25DOPE   H4X 3183   8.893   6.768  16.520
   25DOPE   H4Y 3184   9.060   6.722  16.476
   25DOPE   C35 3185   8.933   6.776  16.308
   25DOPE   H5X 3186   8.825   6.769  16.282
   25DOPE   H5Y 3187   8.990   6.719  16.231
   25DOPE   C36 3188   8.975   6.923  16.304
   25DOPE   H6X 3189   9.085   6.930  16.316
   25DOPE   H6Y 3190   8.927   6.977  16.389
   25DOPE   C37 3191   8.936   6.995  16.173
   25DOPE   H7X 3192   8.975   6.937  16.087
   25DOPE   H7Y 3193   8.825   6.996  16.166
   25DOPE   C38 3194   8.991   7.138  16.168
   25DOPE   H8X 3195   9.102   7.133  16.164
   25DOPE   H8Y 3196   8.965   7.190  16.263
   25DOPE   C39 3197   8.937   7.219  16.052
   25DOPE   H9X 3198   8.858   7.290  16.078
   25DOPE  C310 3199   8.977   7.209  15.923
   25DOPE  H10X 3200   8.927   7.273  15.849
   25DOPE  C311 3201   9.083   7.117  15.868
   25DOPE  H11X 3202   9.144   7.072  15.949
   25DOPE  H11Y 3203   9.034   7.032  15.815
   25DOPE  C312 3204   9.178   7.186  15.769
   25DOPE  H12X 3205   0.036   7.109  15.737
   25DOPE  H12Y 3206   0.018   7.268  15.818
   25DOPE  C313 3207   9.107   7.240  15.643
   25DOPE  H13X 3208   9.022   7.174  15.619
   25DOPE  H13Y 3209   9.065   7.340  15.667
   25DOPE  C314 3210   9.198   7.251  15.519
   25DOPE  H14X 3211   0.069   7.314  15.543
   25DOPE  H14Y 3212   9.140   7.304  15.440
   25DOPE  C315 3213   0.029   7.117  15.460
   25DOPE  H15X 3214   0.098   7.067  15.531
   25DOPE  H15Y 3215   0.088   7.139  15.368
   25DOPE  C316 3216   9.132   7.020  15.424
   25DOPE  H16X 3217   9.060   7.071  15.357
   25DOPE  H16Y 3218   9.078   6.993  15.517
   25DOPE  C317 3219   9.179   6.890  15.358
   25DOPE  H17X 3220   0.043   6.844  15.420
   25DOPE  H17Y 3221   9.094   6.818  15.357
   25DOPE  C318 3222   0.012   6.907  15.214
   25DOPE  H18X 3223   0.043   6.809  15.171
   25DOPE  H18Y 3224   9.149   6.950  15.150
   25DOPE  H18Z 3225   0.100   6.975  15.210
   26DOPE     N 3226   0.647   7.666  16.870
   26DOPE   HN1 3227   0.692   7.758  16.891
   26DOPE   HN2 3228   0.682   7.602  16.944
   26DOPE   HN3 3229   0.678   7.636  16.776
   26DOPE   C12 3230   0.499   7.688  16.881
   26DOPE  H12A 3231   0.466   7.647  16.979
   26DOPE  H12B 3232   0.449   7.632  16.799
   26DOPE   C11 3233   0.465   7.838  16.874
   26DOPE  H11A 3234   0.355   7.849  16.878
   26DOPE  H11B 3235   0.498   7.883  16.778
   26DOPE     P 3236   0.651   7.993  16.980
   26DOPE   O13 3237   0.757   7.898  16.938
   26DOPE   O14 3238   0.668   8.062  17.110
   26DOPE   O11 3239   0.618   8.095  16.865
   26DOPE   O12 3240   0.520   7.906  16.988
   26DOPE    C1 3241   0.532   8.207  16.894
   26DOPE    HA 3242   0.593   8.299  16.906
   26DOPE    HB 3243   0.474   8.195  16.988
   26DOPE    C2 3244   0.425   8.234  16.784
   26DOPE    HS 3245   0.351   8.303  16.829
   26DOPE   O21 3246   0.362   8.109  16.747
   26DOPE   C21 3247   0.253   8.122  16.675
   26DOPE   O22 3248   0.188   8.224  16.662
   26DOPE   C22 3249   0.223   7.989  16.606
   26DOPE   H2R 3250   0.125   7.999  16.556
   26DOPE   H2S 3251   0.215   7.911  16.685
   26DOPE    C3 3252   0.485   8.305  16.658
   26DOPE    HX 3253   0.544   8.393  16.692
   26DOPE    HY 3254   0.401   8.347  16.599
   26DOPE   O31 3255   0.558   8.213  16.575
   26DOPE   C31 3256   0.690   8.218  16.581
   26DOPE   O32 3257   0.757   8.304  16.637
   26DOPE   C32 3258   0.747   8.097  16.507
   26DOPE   H2X 3259   0.811   8.042  16.579
   26DOPE   H2Y 3260   0.663   8.031  16.476
   26DOPE   C23 3261   0.333   7.952  16.504
   26DOPE   H3R 3262   0.432   7.956  16.553
   26DOPE   H3S 3263   0.335   8.027  16.422
   26DOPE   C24 3264   0.317   7.812  16.443
   26DOPE   H4R 3265   0.321   7.737  16.525
   26DOPE   H4S 3266   0.403   7.792  16.376
   26DOPE   C25 3267   0.186   7.789  16.364
   26DOPE   H5R 3268   0.100   7.793  16.434
   26DOPE   H5S 3269   0.189   7.687  16.320
   26DOPE   C26 3270   0.161   7.889  16.249
   26DOPE   H6R 3271   0.143   7.990  16.291
   26DOPE   H6S 3272   0.068   7.858  16.196
   26DOPE   C27 3273   0.276   7.899  16.147
   26DOPE   H7R 3274   0.301   7.798  16.108
   26DOPE   H7S 3275   0.366   7.938  16.199
   26DOPE   C28 3276   0.245   7.994  16.029
   26DOPE   H8R 3277   0.342   8.019  15.980
   26DOPE   H8S 3278   0.206   8.089  16.070
   26DOPE   C29 3279   0.147   7.935  15.930
   26DOPE   H9R 3280   0.043   7.932  15.965
   26DOPE  C210 3281   0.175   7.886  15.807
   26DOPE  H10R 3282   0.092   7.846  15.747
   26DOPE  C211 3283   0.311   7.877  15.741
   26DOPE  H11R 3284   0.390   7.925  15.802
   26DOPE  H11S 3285   0.309   7.933  15.645
   26DOPE  C212 3286   0.355   7.732  15.714
   26DOPE  H12R 3287   0.352   7.675  15.809
   26DOPE  H12S 3288   0.461   7.734  15.680
   26DOPE  C213 3289   0.274   7.657  15.607
   26DOPE  H13R 3290   0.167   7.652  15.637
   26DOPE  H13S 3291   0.311   7.552  15.602
   26DOPE  C214 3292   0.285   7.718  15.467
   26DOPE  H14R 3293   0.392   7.732  15.442
   26DOPE  H14S 3294   0.238   7.819  15.467
   26DOPE  C215 3295   0.219   7.633  15.358
   26DOPE  H15R 3296   0.111   7.620  15.381
   26DOPE  H15S 3297   0.266   7.532  15.358
   26DOPE  C216 3298   0.235   7.695  15.218
   26DOPE  H16R 3299   0.343   7.704  15.195
   26DOPE  H16S 3300   0.192   7.797  15.218
   26DOPE  C217 3301   0.167   7.613  15.107
   26DOPE  H17R 3302   0.058   7.607  15.128
   26DOPE  H17S 3303   0.207   7.509  15.110
   26DOPE  C218 3304   0.189   7.671  14.968
   26DOPE  H18R 3305   0.136   7.611  14.891
   26DOPE  H18S 3306   0.297   7.673  14.943
   26DOPE  H18T 3307   0.150   7.775  14.963
   26DOPE   C33 3308   0.830   8.137  16.382
   26DOPE   H3X 3309   0.919   8.195  16.413
   26DOPE   H3Y 3310   0.769   8.202  16.316
   26DOPE   C34 3311   0.873   8.014  16.301
   26DOPE   H4X 3312   0.934   7.947  16.366
   26DOPE   H4Y 3313   0.783   7.958  16.270
   26DOPE   C35 3314   0.956   8.050  16.176
   26DOPE   H5X 3315   1.044   8.110  16.208
   26DOPE   H5Y 3316   0.894   8.113  16.109
   26DOPE   C36 3317   1.006   7.927  16.098
   26DOPE   H6X 3318   1.063   7.861  16.167
   26DOPE   H6Y 3319   1.075   7.961  16.019
   26DOPE   C37 3320   0.893   7.845  16.032
   26DOPE   H7X 3321   0.823   7.809  16.111
   26DOPE   H7Y 3322   0.837   7.911  15.963
   26DOPE   C38 3323   0.947   7.724  15.953
   26DOPE   H8X 3324   1.007   7.661  16.023
   26DOPE   H8Y 3325   1.018   7.762  15.877
   26DOPE   C39 3326   0.836   7.642  15.892
   26DOPE   H9X 3327   0.760   7.609  15.964
   26DOPE  C310 3328   0.820   7.609  15.763
   26DOPE  H10X 3329   0.732   7.551  15.734
   26DOPE  C311 3330   0.911   7.645  15.647
   26DOPE  H11X 3331   1.006   7.692  15.681
   26DOPE  H11Y 3332   0.939   7.553  15.592
   26DOPE  C312 3333   0.843   7.742  15.548
   26DOPE  H12X 3334   0.749   7.696  15.510
   26DOPE  H12Y 3335   0.910   7.755  15.460
   26DOPE  C313 3336   0.814   7.881  15.607
   26DOPE  H13X 3337   0.741   7.871  15.690
   26DOPE  H13Y 3338   0.908   7.921  15.650
   26DOPE  C314 3339   0.761   7.981  15.504
   26DOPE  H14X 3340   0.834   7.991  15.421
   26DOPE  H14Y 3341   0.752   8.081  15.553
   26DOPE  C315 3342   0.624   7.944  15.446
   26DOPE  H15X 3343   0.552   7.928  15.529
   26DOPE  H15Y 3344   0.632   7.848  15.389
   26DOPE  C316 3345   0.568   8.052  15.352
   26DOPE  H16X 3346   0.640   8.070  15.269
   26DOPE  H16Y 3347   0.559   8.147  15.409
   26DOPE  C317 3348   0.431   8.017  15.293
   26DOPE  H17X 3349   0.440   7.923  15.236
   26DOPE  H17Y 3350   0.360   7.999  15.377
   26DOPE  C318 3351   0.375   8.127  15.202
   26DOPE  H18X 3352   0.276   8.097  15.162
   26DOPE  H18Y 3353   0.363   8.221  15.259
   26DOPE  H18Z 3354   0.444   8.146  15.117
   27DOPE     N 3355   7.150   8.902  16.670
   27DOPE   HN1 3356   7.049   8.904  16.644
   27DOPE   HN2 3357   7.205   8.948  16.595
   27DOPE   HN3 3358   7.179   8.803  16.676
   27DOPE   C12 3359   7.172   8.975  16.800
   27DOPE  H12A 3360   7.120   8.919  16.880
   27DOPE  H12B 3361   7.126   9.075  16.791
   27DOPE   C11 3362   7.322   8.987  16.832
   27DOPE  H11A 3363   7.375   9.045  16.753
   27DOPE  H11B 3364   7.367   8.886  16.834
   27DOPE     P 3365   7.315   9.201  16.984
   27DOPE   O13 3366   7.409   0.038  17.084
   27DOPE   O14 3367   7.171   0.002  17.016
   27DOPE   O11 3368   7.344   0.049  16.843
   27DOPE   O12 3369   7.340   9.046  16.960
   27DOPE    C1 3370   7.392   0.185  16.843
   27DOPE    HA 3371   7.491   0.192  16.894
   27DOPE    HB 3372   7.321   0.251  16.897
   27DOPE    C2 3373   7.408   0.249  16.701
   27DOPE    HS 3374   7.417   0.358  16.719
   27DOPE   O21 3375   7.289   0.220  16.625
   27DOPE   C21 3376   7.273   0.301  16.520
   27DOPE   O22 3377   7.349   0.388  16.486
   27DOPE   C22 3378   7.139   0.267  16.454
   27DOPE   H2R 3379   7.060   0.309  16.519
   27DOPE   H2S 3380   7.128   0.157  16.450
   27DOPE    C3 3381   7.539   0.205  16.628
   27DOPE    HX 3382   7.623   0.228  16.698
   27DOPE    HY 3383   7.552   0.270  16.539
   27DOPE   O31 3384   7.542   0.065  16.590
   27DOPE   C31 3385   7.656   0.036  16.525
   27DOPE   O32 3386   7.745   0.116  16.502
   27DOPE   C32 3387   7.659   9.104  16.488
   27DOPE   H2X 3388   7.703   9.052  16.575
   27DOPE   H2Y 3389   7.555   9.068  16.472
   27DOPE   C23 3390   7.126   0.327  16.312
   27DOPE   H3R 3391   7.152   0.436  16.313
   27DOPE   H3S 3392   7.020   0.320  16.280
   27DOPE   C24 3393   7.213   0.254  16.208
   27DOPE   H4R 3394   7.188   0.146  16.210
   27DOPE   H4S 3395   7.320   0.266  16.235
   27DOPE   C25 3396   7.190   0.307  16.066
   27DOPE   H5R 3397   7.223   0.413  16.060
   27DOPE   H5S 3398   7.081   0.305  16.044
   27DOPE   C26 3399   7.263   0.226  15.958
   27DOPE   H6R 3400   7.229   0.261  15.858
   27DOPE   H6S 3401   7.234   0.119  15.967
   27DOPE   C27 3402   7.416   0.237  15.964
   27DOPE   H7R 3403   7.452   0.202  16.063
   27DOPE   H7S 3404   7.444   0.344  15.954
   27DOPE   C28 3405   7.484   0.155  15.853
   27DOPE   H8R 3406   7.441   0.187  15.756
   27DOPE   H8S 3407   7.458   0.048  15.867
   27DOPE   C29 3408   7.634   0.172  15.855
   27DOPE   H9R 3409   7.680   0.148  15.952
   27DOPE  C210 3410   7.714   0.212  15.754
   27DOPE  H10R 3411   7.822   0.218  15.772
   27DOPE  C211 3412   7.672   0.249  15.614
   27DOPE  H11R 3413   7.688   0.358  15.598
   27DOPE  H11S 3414   7.565   0.230  15.595
   27DOPE  C212 3415   7.755   0.173  15.507
   27DOPE  H12R 3416   7.862   0.200  15.518
   27DOPE  H12S 3417   7.723   0.207  15.406
   27DOPE  C213 3418   7.742   0.019  15.513
   27DOPE  H13R 3419   7.770   9.200  15.615
   27DOPE  H13S 3420   7.815   9.193  15.441
   27DOPE  C214 3421   7.602   9.183  15.478
   27DOPE  H14R 3422   7.580   9.209  15.372
   27DOPE  H14S 3423   7.527   0.017  15.542
   27DOPE  C215 3424   7.586   9.031  15.497
   27DOPE  H15R 3425   7.483   9.002  15.468
   27DOPE  H15S 3426   7.596   9.009  15.606
   27DOPE  C216 3427   7.687   8.944  15.420
   27DOPE  H16R 3428   7.668   8.837  15.444
   27DOPE  H16S 3429   7.790   8.968  15.456
   27DOPE  C217 3430   7.684   8.961  15.267
   27DOPE  H17R 3431   7.765   8.898  15.224
   27DOPE  H17S 3432   7.707   9.066  15.241
   27DOPE  C218 3433   7.551   8.921  15.202
   27DOPE  H18R 3434   7.469   8.987  15.237
   27DOPE  H18S 3435   7.526   8.816  15.227
   27DOPE  H18T 3436   7.558   8.930  15.091
   27DOPE   C33 3437   7.747   9.077  16.363
   27DOPE   H3X 3438   7.777   8.970  16.362
   27DOPE   H3Y 3439   7.840   9.137  16.368
   27DOPE   C34 3440   7.674   9.107  16.230
   27DOPE   H4X 3441   7.616   9.201  16.238
   27DOPE   H4Y 3442   7.751   9.122  16.151
   27DOPE   C35 3443   7.584   8.991  16.185
   27DOPE   H5X 3444   7.510   8.967  16.265
   27DOPE   H5Y 3445   7.648   8.901  16.171
   27DOPE   C36 3446   7.509   9.019  16.054
   27DOPE   H6X 3447   7.581   9.058  15.979
   27DOPE   H6Y 3448   7.433   9.098  16.070
   27DOPE   C37 3449   7.443   8.892  15.998
   27DOPE   H7X 3450   7.524   8.818  15.980
   27DOPE   H7Y 3451   7.375   8.848  16.073
   27DOPE   C38 3452   7.369   8.914  15.864
   27DOPE   H8X 3453   7.352   8.814  15.818
   27DOPE   H8Y 3454   7.436   8.970  15.796
   27DOPE   C39 3455   7.235   8.981  15.883
   27DOPE   H9X 3456   7.174   8.939  15.964
   27DOPE  C310 3457   7.183   9.083  15.811
   27DOPE  H10X 3458   7.083   9.120  15.837
   27DOPE  C311 3459   7.246   9.154  15.694
   27DOPE  H11X 3460   7.256   0.046  15.719
   27DOPE  H11Y 3461   7.348   9.118  15.671
   27DOPE  C312 3462   7.161   9.141  15.566
   27DOPE  H12X 3463   7.058   9.178  15.586
   27DOPE  H12Y 3464   7.154   9.034  15.538
   27DOPE  C313 3465   7.217   0.003  15.446
   27DOPE  H13X 3466   7.319   9.182  15.423
   27DOPE  H13Y 3467   7.153   9.200  15.358
   27DOPE  C314 3468   7.223   0.155  15.469
   27DOPE  H14X 3469   7.297   0.179  15.548
   27DOPE  H14Y 3470   7.123   0.189  15.505
   27DOPE  C315 3471   7.258   0.235  15.342
   27DOPE  H15X 3472   7.251   0.344  15.367
   27DOPE  H15Y 3473   7.183   0.213  15.263
   27DOPE  C316 3474   7.399   0.207  15.289
   27DOPE  H16X 3475   7.404   0.102  15.252
   27DOPE  H16Y 3476   7.471   0.216  15.373
   27DOPE  C317 3477   7.444   0.302  15.177
   27DOPE  H17X 3478   7.446   0.405  15.216
   27DOPE  H17Y 3479   7.548   0.275  15.149
   27DOPE  C318 3480   7.357   0.297  15.051
   27DOPE  H18X 3481   7.253   0.331  15.074
   27DOPE  H18Y 3482   7.399   0.364  14.972
   27DOPE  H18Z 3483   7.352   0.194  15.011
   28DOPE     N 3484   9.022   8.315  16.934
   28DOPE   HN1 3485   8.952   8.303  16.858
   28DOPE   HN2 3486   8.991   8.394  16.995
   28DOPE   HN3 3487   9.116   8.336  16.894
   28DOPE   C12 3488   9.025   8.185  17.011
   28DOPE  H12A 3489   9.113   8.187  17.079
   28DOPE  H12B 3490   9.040   8.104  16.937
   28DOPE   C11 3491   8.894   8.161  17.090
   28DOPE  H11A 3492   8.900   8.219  17.185
   28DOPE  H11B 3493   8.888   8.054  17.120
   28DOPE     P 3494   8.738   8.145  16.879
   28DOPE   O13 3495   8.811   8.232  16.784
   28DOPE   O14 3496   8.590   8.139  16.872
   28DOPE   O11 3497   8.801   8.001  16.882
   28DOPE   O12 3498   8.776   8.202  17.021
   28DOPE    C1 3499   8.753   7.896  16.798
   28DOPE    HA 3500   8.676   7.929  16.725
   28DOPE    HB 3501   8.707   7.817  16.861
   28DOPE    C2 3502   8.869   7.832  16.718
   28DOPE    HS 3503   8.950   7.813  16.792
   28DOPE   O21 3504   8.912   7.925  16.617
   28DOPE   C21 3505   9.032   7.902  16.567
   28DOPE   O22 3506   9.112   7.819  16.608
   28DOPE   C22 3507   9.058   7.995  16.449
   28DOPE   H2R 3508   9.162   7.978  16.416
   28DOPE   H2S 3509   9.048   8.100  16.485
   28DOPE    C3 3510   8.830   7.695  16.655
   28DOPE    HX 3511   8.794   7.628  16.736
   28DOPE    HY 3512   8.922   7.650  16.613
   28DOPE   O31 3513   8.726   7.711  16.557
   28DOPE   C31 3514   8.723   7.619  16.461
   28DOPE   O32 3515   8.799   7.524  16.453
   28DOPE   C32 3516   8.612   7.654  16.362
   28DOPE   H2X 3517   8.517   7.620  16.407
   28DOPE   H2Y 3518   8.609   7.765  16.351
   28DOPE   C23 3519   8.962   7.971  16.330
   28DOPE   H3R 3520   8.860   8.003  16.358
   28DOPE   H3S 3521   8.958   7.863  16.305
   28DOPE   C24 3522   9.007   8.048  16.204
   28DOPE   H4R 3523   9.101   8.004  16.166
   28DOPE   H4S 3524   9.027   8.153  16.232
   28DOPE   C25 3525   8.901   8.047  16.093
   28DOPE   H5R 3526   8.810   8.097  16.132
   28DOPE   H5S 3527   8.873   7.942  16.067
   28DOPE   C26 3528   8.947   8.120  15.966
   28DOPE   H6R 3529   9.018   8.055  15.909
   28DOPE   H6S 3530   9.001   8.212  15.995
   28DOPE   C27 3531   8.829   8.161  15.876
   28DOPE   H7R 3532   8.764   8.228  15.936
   28DOPE   H7S 3533   8.768   8.072  15.849
   28DOPE   C28 3534   8.872   8.238  15.749
   28DOPE   H8R 3535   8.955   8.307  15.776
   28DOPE   H8S 3536   8.786   8.301  15.719
   28DOPE   C29 3537   8.914   8.146  15.636
   28DOPE   H9R 3538   8.976   8.060  15.666
   28DOPE  C210 3539   8.881   8.161  15.506
   28DOPE  H10R 3540   8.915   8.086  15.433
   28DOPE  C211 3541   8.797   8.273  15.449
   28DOPE  H11R 3542   8.835   8.303  15.349
   28DOPE  H11S 3543   8.804   8.363  15.513
   28DOPE  C212 3544   8.647   8.237  15.436
   28DOPE  H12R 3545   8.590   8.331  15.422
   28DOPE  H12S 3546   8.611   8.190  15.530
   28DOPE  C213 3547   8.615   8.146  15.317
   28DOPE  H13R 3548   8.675   8.053  15.323
   28DOPE  H13S 3549   8.643   8.198  15.223
   28DOPE  C214 3550   8.466   8.109  15.311
   28DOPE  H14R 3551   8.406   8.202  15.328
   28DOPE  H14S 3552   8.442   8.039  15.395
   28DOPE  C215 3553   8.420   8.047  15.178
   28DOPE  H15R 3554   8.430   8.122  15.097
   28DOPE  H15S 3555   8.311   8.024  15.188
   28DOPE  C216 3556   8.493   7.917  15.139
   28DOPE  H16R 3557   8.419   7.848  15.092
   28DOPE  H16S 3558   8.530   7.867  15.231
   28DOPE  C217 3559   8.608   7.935  15.038
   28DOPE  H17R 3560   8.662   7.839  15.030
   28DOPE  H17S 3561   8.680   8.010  15.078
   28DOPE  C218 3562   8.562   7.977  14.898
   28DOPE  H18R 3563   8.491   7.902  14.856
   28DOPE  H18S 3564   8.649   7.984  14.829
   28DOPE  H18T 3565   8.511   8.075  14.900
   28DOPE   C33 3566   8.630   7.588  16.223
   28DOPE   H3X 3567   8.540   7.612  16.162
   28DOPE   H3Y 3568   8.635   7.478  16.232
   28DOPE   C34 3569   8.754   7.638  16.147
   28DOPE   H4X 3570   8.761   7.749  16.155
   28DOPE   H4Y 3571   8.845   7.595  16.193
   28DOPE   C35 3572   8.751   7.600  15.998
   28DOPE   H5X 3573   8.667   7.656  15.949
   28DOPE   H5Y 3574   8.728   7.492  15.988
   28DOPE   C36 3575   8.882   7.630  15.923
   28DOPE   H6X 3576   8.959   7.560  15.962
   28DOPE   H6Y 3577   8.916   7.733  15.945
   28DOPE   C37 3578   8.868   7.611  15.771
   28DOPE   H7X 3579   8.968   7.587  15.728
   28DOPE   H7Y 3580   8.802   7.524  15.753
   28DOPE   C38 3581   8.813   7.737  15.701
   28DOPE   H8X 3582   8.895   7.813  15.695
   28DOPE   H8Y 3583   8.734   7.781  15.765
   28DOPE   C39 3584   8.755   7.710  15.564
   28DOPE   H9X 3585   8.646   7.720  15.558
   28DOPE  C310 3586   8.822   7.674  15.453
   28DOPE  H10X 3587   8.765   7.657  15.361
   28DOPE  C311 3588   8.971   7.655  15.440
   28DOPE  H11X 3589   9.027   7.707  15.521
   28DOPE  H11Y 3590   8.995   7.547  15.448
   28DOPE  C312 3591   9.024   7.706  15.304
   28DOPE  H12X 3592   8.973   7.651  15.222
   28DOPE  H12Y 3593   9.132   7.682  15.297
   28DOPE  C313 3594   9.007   7.857  15.283
   28DOPE  H13X 3595   8.899   7.883  15.279
   28DOPE  H13Y 3596   9.051   7.910  15.371
   28DOPE  C314 3597   9.076   7.910  15.156
   28DOPE  H14X 3598   9.185   7.891  15.163
   28DOPE  H14Y 3599   9.061   8.020  15.151
   28DOPE  C315 3600   9.022   7.848  15.026
   28DOPE  H15X 3601   8.912   7.859  15.024
   28DOPE  H15Y 3602   9.046   7.739  15.025
   28DOPE  C316 3603   9.082   7.913  14.901
   28DOPE  H16X 3604   9.193   7.913  14.910
   28DOPE  H16Y 3605   9.049   8.018  14.894
   28DOPE  C317 3606   9.045   7.840  14.770
   28DOPE  H17X 3607   9.101   7.888  14.687
   28DOPE  H17Y 3608   9.080   7.735  14.777
   28DOPE  C318 3609   8.896   7.842  14.737
   28DOPE  H18X 3610   8.837   7.790  14.816
   28DOPE  H18Y 3611   8.859   7.946  14.729
   28DOPE  H18Z 3612   8.877   7.791  14.640
   29DOPE     N 3613   8.403   1.027  17.038
   29DOPE   HN1 3614   8.361   1.120  17.058
   29DOPE   HN2 3615   8.399   1.016  16.934
   29DOPE   HN3 3616   8.338   0.956  17.077
   29DOPE   C12 3617   8.542   1.004  17.089
   29DOPE  H12A 3618   8.540   0.910  17.148
   29DOPE  H12B 3619   8.570   1.088  17.155
   29DOPE   C11 3620   8.643   0.988  16.973
   29DOPE  H11A 3621   8.652   1.087  16.922
   29DOPE  H11B 3622   8.606   0.914  16.899
   29DOPE     P 3623   8.904   0.971  16.949
   29DOPE   O13 3624   9.010   0.962  17.051
   29DOPE   O14 3625   8.890   1.094  16.869
   29DOPE   O11 3626   8.908   0.841  16.857
   29DOPE   O12 3627   8.767   0.943  17.027
   29DOPE    C1 3628   9.031   0.772  16.830
   29DOPE    HA 3629   9.010   0.663  16.832
   29DOPE    HB 3630   9.109   0.789  16.908
   29DOPE    C2 3631   9.094   0.802  16.690
   29DOPE    HS 3632   9.175   0.727  16.675
   29DOPE   O21 3633   9.147   0.936  16.686
   29DOPE   C21 3634   0.052   0.950  16.737
   29DOPE   O22 3635   0.118   0.859  16.786
   29DOPE   C22 3636   0.102   1.094  16.722
   29DOPE   H2R 3637   0.204   1.090  16.679
   29DOPE   H2S 3638   0.111   1.136  16.824
   29DOPE    C3 3639   8.996   0.782  16.570
   29DOPE    HX 3640   8.948   0.683  16.580
   29DOPE    HY 3641   9.061   0.781  16.480
   29DOPE   O31 3642   8.896   0.886  16.561
   29DOPE   C31 3643   8.844   0.900  16.439
   29DOPE   O32 3644   8.866   0.827  16.344
   29DOPE   C32 3645   8.751   1.021  16.440
   29DOPE   H2X 3646   8.677   1.002  16.521
   29DOPE   H2Y 3647   8.810   1.110  16.468
   29DOPE   C23 3648   0.013   1.188  16.637
   29DOPE   H3R 3649   0.052   1.292  16.650
   29DOPE   H3S 3650   9.125   1.187  16.676
   29DOPE   C24 3651   0.013   1.156  16.486
   29DOPE   H4R 3652   9.187   1.055  16.471
   29DOPE   H4S 3653   0.118   1.155  16.449
   29DOPE   C25 3654   9.148   1.258  16.404
   29DOPE   H5R 3655   9.200   1.356  16.405
   29DOPE   H5S 3656   9.050   1.272  16.455
   29DOPE   C26 3657   9.121   1.213  16.259
   29DOPE   H6R 3658   9.057   1.289  16.210
   29DOPE   H6S 3659   9.065   1.118  16.262
   29DOPE   C27 3660   0.032   1.195  16.175
   29DOPE   H7R 3661   0.094   1.113  16.217
   29DOPE   H7S 3662   0.091   1.289  16.181
   29DOPE   C28 3663   0.003   1.166  16.026
   29DOPE   H8R 3664   0.100   1.168  15.971
   29DOPE   H8S 3665   9.159   1.250  15.985
   29DOPE   C29 3666   9.146   1.036  16.006
   29DOPE   H9R 3667   9.046   1.033  16.051
   29DOPE  C210 3668   9.189   0.926  15.941
   29DOPE  H10R 3669   9.122   0.839  15.935
   29DOPE  C211 3670   0.105   0.906  15.871
   29DOPE  H11R 3671   0.158   0.820  15.918
   29DOPE  H11S 3672   0.173   0.994  15.882
   29DOPE  C212 3673   0.089   0.876  15.721
   29DOPE  H12R 3674   0.020   0.790  15.707
   29DOPE  H12S 3675   0.188   0.845  15.681
   29DOPE  C213 3676   0.038   0.995  15.638
   29DOPE  H13R 3677   0.112   1.078  15.642
   29DOPE  H13S 3678   9.160   1.032  15.683
   29DOPE  C214 3679   0.010   0.959  15.491
   29DOPE  H14R 3680   9.171   1.042  15.443
   29DOPE  H14S 3681   9.161   0.870  15.488
   29DOPE  C215 3682   0.136   0.931  15.408
   29DOPE  H15R 3683   0.201   0.859  15.461
   29DOPE  H15S 3684   0.194   1.026  15.397
   29DOPE  C216 3685   0.104   0.874  15.269
   29DOPE  H16R 3686   0.044   0.947  15.211
   29DOPE  H16S 3687   0.043   0.782  15.282
   29DOPE  C217 3688   0.230   0.838  15.189
   29DOPE  H17R 3689   0.294   0.770  15.251
   29DOPE  H17S 3690   0.289   0.930  15.172
   29DOPE  C218 3691   0.201   0.770  15.055
   29DOPE  H18R 3692   0.295   0.746  15.002
   29DOPE  H18S 3693   0.140   0.837  14.991
   29DOPE  H18T 3694   0.144   0.675  15.071
   29DOPE   C33 3695   8.675   1.045  16.307
   29DOPE   H3X 3696   8.594   1.118  16.327
   29DOPE   H3Y 3697   8.627   0.951  16.272
   29DOPE   C34 3698   8.763   1.103  16.195
   29DOPE   H4X 3699   8.825   1.185  16.236
   29DOPE   H4Y 3700   8.831   1.024  16.158
   29DOPE   C35 3701   8.680   1.159  16.078
   29DOPE   H5X 3702   8.618   1.242  16.118
   29DOPE   H5Y 3703   8.611   1.081  16.039
   29DOPE   C36 3704   8.766   1.214  15.963
   29DOPE   H6X 3705   8.859   1.258  16.005
   29DOPE   H6Y 3706   8.709   1.295  15.912
   29DOPE   C37 3707   8.802   1.107  15.858
   29DOPE   H7X 3708   8.848   1.021  15.911
   29DOPE   H7Y 3709   8.709   1.071  15.809
   29DOPE   C38 3710   8.902   1.156  15.751
   29DOPE   H8X 3711   8.931   1.067  15.691
   29DOPE   H8Y 3712   8.994   1.191  15.802
   29DOPE   C39 3713   8.849   1.267  15.663
   29DOPE   H9X 3714   8.838   1.364  15.712
   29DOPE  C310 3715   8.814   1.256  15.533
   29DOPE  H10X 3716   8.775   1.345  15.481
   29DOPE  C311 3717   8.821   1.131  15.449
   29DOPE  H11X 3718   8.909   1.069  15.476
   29DOPE  H11Y 3719   8.730   1.069  15.469
   29DOPE  C312 3720   8.826   1.157  15.297
   29DOPE  H12X 3721   8.736   1.214  15.265
   29DOPE  H12Y 3722   8.822   1.058  15.246
   29DOPE  C313 3723   8.953   1.230  15.250
   29DOPE  H13X 3724   8.946   1.338  15.278
   29DOPE  H13Y 3725   9.040   1.188  15.305
   29DOPE  C314 3726   8.980   1.216  15.099
   29DOPE  H14X 3727   8.996   1.108  15.078
   29DOPE  H14Y 3728   9.075   1.268  15.074
   29DOPE  C315 3729   8.867   1.267  15.007
   29DOPE  H15X 3730   8.773   1.216  15.034
   29DOPE  H15Y 3731   8.891   1.238  14.903
   29DOPE  C316 3732   8.845   1.419  15.011
   29DOPE  H16X 3733   8.829   1.452  15.116
   29DOPE  H16Y 3734   8.752   1.442  14.955
   29DOPE  C317 3735   8.960   1.499  14.949
   29DOPE  H17X 3736   9.053   1.481  15.006
   29DOPE  H17Y 3737   8.976   1.463  14.845
   29DOPE  C318 3738   8.933   1.650  14.945
   29DOPE  H18X 3739   8.842   1.672  14.886
   29DOPE  H18Y 3740   8.918   1.690  15.048
   29DOPE  H18Z 3741   9.019   1.704  14.899
   30DOPE     N 3742   0.673   8.684  17.033
   30DOPE   HN1 3743   0.741   8.721  16.964
   30DOPE   HN2 3744   0.720   8.622  17.102
   30DOPE   HN3 3745   0.605   8.624  16.981
   30DOPE   C12 3746   0.593   8.792  17.102
   30DOPE  H12A 3747   0.654   8.886  17.100
   30DOPE  H12B 3748   0.578   8.761  17.208
   30DOPE   C11 3749   0.456   8.813  17.035
   30DOPE  H11A 3750   0.468   8.840  16.928
   30DOPE  H11B 3751   0.408   8.901  17.083
   30DOPE     P 3752   0.354   8.591  16.939
   30DOPE   O13 3753   0.269   8.480  16.987
   30DOPE   O14 3754   0.490   8.557  16.893
   30DOPE   O11 3755   0.279   8.674  16.829
   30DOPE   O12 3756   0.372   8.698  17.055
   30DOPE    C1 3757   0.155   8.736  16.866
   30DOPE    HA 3758   0.166   8.802  16.954
   30DOPE    HB 3759   0.080   8.658  16.891
   30DOPE    C2 3760   0.094   8.823  16.752
   30DOPE    HS 3761   9.204   8.840  16.777
   30DOPE   O21 3762   0.106   8.758  16.624
   30DOPE   C21 3763   0.027   8.653  16.607
   30DOPE   O22 3764   9.162   8.611  16.688
   30DOPE   C22 3765   0.045   8.597  16.466
   30DOPE   H2R 3766   9.210   8.667  16.397
   30DOPE   H2S 3767   9.209   8.499  16.463
   30DOPE    C3 3768   0.160   8.964  16.743
   30DOPE    HX 3769   0.140   9.015  16.839
   30DOPE    HY 3770   0.106   9.023  16.665
   30DOPE   O31 3771   0.303   8.961  16.722
   30DOPE   C31 3772   0.344   8.977  16.597
   30DOPE   O32 3773   0.273   8.992  16.499
   30DOPE   C32 3774   0.497   8.986  16.598
   30DOPE   H2X 3775   0.524   9.058  16.678
   30DOPE   H2Y 3776   0.537   8.886  16.626
   30DOPE   C23 3777   0.192   8.580  16.421
   30DOPE   H3R 3778   0.245   8.511  16.490
   30DOPE   H3S 3779   0.244   8.678  16.424
   30DOPE   C24 3780   0.199   8.524  16.278
   30DOPE   H4R 3781   0.142   8.592  16.211
   30DOPE   H4S 3782   0.151   8.424  16.275
   30DOPE   C25 3783   0.343   8.512  16.225
   30DOPE   H5R 3784   0.402   8.447  16.294
   30DOPE   H5S 3785   0.390   8.612  16.225
   30DOPE   C26 3786   0.352   8.452  16.083
   30DOPE   H6R 3787   0.312   8.349  16.084
   30DOPE   H6S 3788   0.459   8.447  16.054
   30DOPE   C27 3789   0.276   8.535  15.978
   30DOPE   H7R 3790   0.297   8.643  15.996
   30DOPE   H7S 3791   0.167   8.520  15.990
   30DOPE   C28 3792   0.316   8.504  15.832
   30DOPE   H8R 3793   0.421   8.538  15.818
   30DOPE   H8S 3794   0.254   8.567  15.765
   30DOPE   C29 3795   0.301   8.359  15.794
   30DOPE   H9R 3796   0.232   8.301  15.856
   30DOPE  C210 3797   0.365   8.299  15.691
   30DOPE  H10R 3798   0.347   8.192  15.673
   30DOPE  C211 3799   0.461   8.365  15.596
   30DOPE  H11R 3800   0.439   8.474  15.586
   30DOPE  H11S 3801   0.448   8.322  15.494
   30DOPE  C212 3802   0.608   8.350  15.638
   30DOPE  H12R 3803   0.627   8.245  15.670
   30DOPE  H12S 3804   0.627   8.416  15.726
   30DOPE  C213 3805   0.711   8.383  15.528
   30DOPE  H13R 3806   0.706   8.307  15.447
   30DOPE  H13S 3807   0.812   8.372  15.574
   30DOPE  C214 3808   0.703   8.524  15.467
   30DOPE  H14R 3809   0.805   8.551  15.430
   30DOPE  H14S 3810   0.678   8.597  15.548
   30DOPE  C215 3811   0.606   8.543  15.349
   30DOPE  H15R 3812   0.617   8.647  15.312
   30DOPE  H15S 3813   0.501   8.533  15.386
   30DOPE  C216 3814   0.624   8.447  15.230
   30DOPE  H16R 3815   0.549   8.473  15.152
   30DOPE  H16S 3816   0.602   8.343  15.262
   30DOPE  C217 3817   0.764   8.451  15.166
   30DOPE  H17R 3818   0.839   8.420  15.242
   30DOPE  H17S 3819   0.786   8.556  15.137
   30DOPE  C218 3820   0.777   8.361  15.043
   30DOPE  H18R 3821   0.756   8.255  15.070
   30DOPE  H18S 3822   0.879   8.367  15.001
   30DOPE  H18T 3823   0.704   8.391  14.965
   30DOPE   C33 3824   0.560   9.034  16.465
   30DOPE   H3X 3825   0.644   9.102  16.489
   30DOPE   H3Y 3826   0.488   9.094  16.405
   30DOPE   C34 3827   0.617   8.920  16.380
   30DOPE   H4X 3828   0.692   8.865  16.440
   30DOPE   H4Y 3829   0.536   8.849  16.353
   30DOPE   C35 3830   0.685   8.970  16.251
   30DOPE   H5X 3831   0.744   9.061  16.275
   30DOPE   H5Y 3832   0.607   9.000  16.178
   30DOPE   C36 3833   0.781   8.868  16.188
   30DOPE   H6X 3834   0.864   8.849  16.259
   30DOPE   H6Y 3835   0.826   8.914  16.097
   30DOPE   C37 3836   0.718   8.733  16.150
   30DOPE   H7X 3837   0.798   8.665  16.114
   30DOPE   H7Y 3838   0.675   8.687  16.241
   30DOPE   C38 3839   0.607   8.741  16.043
   30DOPE   H8X 3840   0.525   8.806  16.082
   30DOPE   H8Y 3841   0.563   8.640  16.032
   30DOPE   C39 3842   0.658   8.788  15.909
   30DOPE   H9X 3843   0.740   8.727  15.868
   30DOPE  C310 3844   0.614   8.892  15.836
   30DOPE  H10X 3845   0.661   8.912  15.739
   30DOPE  C311 3846   0.503   8.988  15.871
   30DOPE  H11X 3847   0.452   8.963  15.967
   30DOPE  H11Y 3848   0.546   9.090  15.885
   30DOPE  C312 3849   0.396   8.997  15.761
   30DOPE  H12X 3850   0.445   9.020  15.664
   30DOPE  H12Y 3851   0.328   9.081  15.784
   30DOPE  C313 3852   0.312   8.869  15.748
   30DOPE  H13X 3853   0.378   8.781  15.730
   30DOPE  H13Y 3854   0.260   8.852  15.845
   30DOPE  C314 3855   0.208   8.875  15.635
   30DOPE  H14X 3856   0.148   8.968  15.645
   30DOPE  H14Y 3857   0.138   8.789  15.646
   30DOPE  C315 3858   0.270   8.869  15.495
   30DOPE  H15X 3859   0.330   8.775  15.488
   30DOPE  H15Y 3860   0.339   8.954  15.480
   30DOPE  C316 3861   0.165   8.870  15.384
   30DOPE  H16X 3862   0.106   8.964  15.392
   30DOPE  H16Y 3863   0.095   8.785  15.400
   30DOPE  C317 3864   0.223   8.860  15.242
   30DOPE  H17X 3865   0.140   8.872  15.169
   30DOPE  H17Y 3866   0.294   8.945  15.226
   30DOPE  C318 3867   0.295   8.728  15.213
   30DOPE  H18X 3868   0.387   8.719  15.275
   30DOPE  H18Y 3869   0.229   8.642  15.236
   30DOPE  H18Z 3870   0.324   8.721  15.106
   31DOPE     N 3871   3.827   3.846  12.694
   31DOPE   HN1 3872   3.724   3.839  12.699
   31DOPE   HN2 3873   3.851   3.948  12.699
   31DOPE   HN3 3874   3.861   3.808  12.604
   31DOPE   C12 3875   3.884   3.772  12.812
   31DOPE  H12A 3876   3.988   3.807  12.829
   31DOPE  H12B 3877   3.885   3.664  12.786
   31DOPE   C11 3878   3.795   3.796  12.934
   31DOPE  H11A 3879   3.800   3.903  12.962
   31DOPE  H11B 3880   3.834   3.736  13.020
   31DOPE     P 3881   3.541   3.801  12.994
   31DOPE   O13 3882   3.416   3.742  12.942
   31DOPE   O14 3883   3.546   3.949  12.999
   31DOPE   O11 3884   3.579   3.737  13.134
   31DOPE   O12 3885   3.662   3.755  12.902
   31DOPE    C1 3886   3.600   3.595  13.139
   31DOPE    HA 3887   3.701   3.571  13.099
   31DOPE    HB 3888   3.525   3.539  13.078
   31DOPE    C2 3889   3.593   3.536  13.283
   31DOPE    HS 3890   3.655   3.444  13.280
   31DOPE   O21 3891   3.456   3.500  13.310
   31DOPE   C21 3892   3.440   3.424  13.417
   31DOPE   O22 3893   3.529   3.374  13.482
   31DOPE   C22 3894   3.290   3.405  13.442
   31DOPE   H2R 3895   3.258   3.316  13.385
   31DOPE   H2S 3896   3.236   3.494  13.404
   31DOPE    C3 3897   3.653   3.631  13.392
   31DOPE    HX 3898   3.741   3.680  13.345
   31DOPE    HY 3899   3.690   3.568  13.476
   31DOPE   O31 3900   3.558   3.728  13.442
   31DOPE   C31 3901   3.615   3.826  13.511
   31DOPE   O32 3902   3.734   3.837  13.532
   31DOPE   C32 3903   3.507   3.919  13.566
   31DOPE   H2X 3904   3.444   3.953  13.481
   31DOPE   H2Y 3905   3.443   3.859  13.635
   31DOPE   C23 3906   3.259   3.385  13.592
   31DOPE   H3R 3907   3.315   3.299  13.632
   31DOPE   H3S 3908   3.150   3.362  13.602
   31DOPE   C24 3909   3.290   3.509  13.677
   31DOPE   H4R 3910   3.245   3.599  13.630
   31DOPE   H4S 3911   3.400   3.524  13.680
   31DOPE   C25 3912   3.238   3.497  13.821
   31DOPE   H5R 3913   3.272   3.400  13.864
   31DOPE   H5S 3914   3.127   3.494  13.817
   31DOPE   C26 3915   3.286   3.611  13.911
   31DOPE   H6R 3916   3.259   3.708  13.865
   31DOPE   H6S 3917   3.397   3.607  13.916
   31DOPE   C27 3918   3.230   3.604  14.054
   31DOPE   H7R 3919   3.276   3.684  14.115
   31DOPE   H7S 3920   3.261   3.507  14.099
   31DOPE   C28 3921   3.076   3.615  14.065
   31DOPE   H8R 3922   3.049   3.609  14.173
   31DOPE   H8S 3923   3.030   3.526  14.018
   31DOPE   C29 3924   3.023   3.740  14.001
   31DOPE   H9R 3925   3.023   3.737  13.891
   31DOPE  C210 3926   2.979   3.852  14.061
   31DOPE  H10R 3927   2.944   3.935  13.998
   31DOPE  C211 3928   2.971   3.879  14.210
   31DOPE  H11R 3929   3.002   3.792  14.271
   31DOPE  H11S 3930   2.865   3.899  14.237
   31DOPE  C212 3931   3.055   4.001  14.253
   31DOPE  H12R 3932   3.058   4.077  14.171
   31DOPE  H12S 3933   3.159   3.967  14.271
   31DOPE  C213 3934   3.000   4.072  14.378
   31DOPE  H13R 3935   2.905   4.123  14.350
   31DOPE  H13S 3936   3.072   4.151  14.409
   31DOPE  C214 3937   2.971   3.980  14.498
   31DOPE  H14R 3938   2.895   3.904  14.470
   31DOPE  H14S 3939   2.926   4.042  14.579
   31DOPE  C215 3940   3.095   3.909  14.554
   31DOPE  H15R 3941   3.171   3.986  14.581
   31DOPE  H15S 3942   3.139   3.844  14.476
   31DOPE  C216 3943   3.061   3.825  14.678
   31DOPE  H16R 3944   2.988   3.746  14.649
   31DOPE  H16S 3945   3.013   3.890  14.754
   31DOPE  C217 3946   3.185   3.759  14.740
   31DOPE  H17R 3947   3.257   3.838  14.769
   31DOPE  H17S 3948   3.234   3.696  14.663
   31DOPE  C218 3949   3.152   3.672  14.862
   31DOPE  H18R 3950   3.081   3.592  14.834
   31DOPE  H18S 3951   3.105   3.734  14.941
   31DOPE  H18T 3952   3.244   3.626  14.903
   31DOPE   C33 3953   3.566   4.041  13.641
   31DOPE   H3X 3954   3.625   4.101  13.569
   31DOPE   H3Y 3955   3.637   4.006  13.719
   31DOPE   C34 3956   3.461   4.132  13.706
   31DOPE   H4X 3957   3.512   4.223  13.744
   31DOPE   H4Y 3958   3.389   4.164  13.628
   31DOPE   C35 3959   3.382   4.069  13.823
   31DOPE   H5X 3960   3.325   3.981  13.786
   31DOPE   H5Y 3961   3.309   4.143  13.859
   31DOPE   C36 3962   3.470   4.026  13.941
   31DOPE   H6X 3963   3.532   4.112  13.974
   31DOPE   H6Y 3964   3.539   3.946  13.908
   31DOPE   C37 3965   3.387   3.975  14.060
   31DOPE   H7X 3966   3.321   4.058  14.094
   31DOPE   H7Y 3967   3.321   3.893  14.026
   31DOPE   C38 3968   3.472   3.928  14.181
   31DOPE   H8X 3969   3.402   3.901  14.263
   31DOPE   H8Y 3970   3.532   4.014  14.216
   31DOPE   C39 3971   3.558   3.809  14.147
   31DOPE   H9X 3972   3.511   3.735  14.081
   31DOPE  C310 3973   3.685   3.787  14.188
   31DOPE  H10X 3974   3.737   3.696  14.155
   31DOPE  C311 3975   3.766   3.877  14.278
   31DOPE  H11X 3976   3.826   3.948  14.215
   31DOPE  H11Y 3977   3.702   3.939  14.344
   31DOPE  C312 3978   3.865   3.799  14.367
   31DOPE  H12X 3979   3.925   3.872  14.425
   31DOPE  H12Y 3980   3.935   3.741  14.304
   31DOPE  C313 3981   3.797   3.704  14.467
   31DOPE  H13X 3982   3.725   3.761  14.530
   31DOPE  H13Y 3983   3.738   3.627  14.411
   31DOPE  C314 3984   3.897   3.632  14.558
   31DOPE  H14X 3985   3.955   3.707  14.616
   31DOPE  H14Y 3986   3.970   3.576  14.495
   31DOPE  C315 3987   3.831   3.534  14.656
   31DOPE  H15X 3988   3.780   3.453  14.598
   31DOPE  H15Y 3989   3.753   3.588  14.713
   31DOPE  C316 3990   3.932   3.471  14.753
   31DOPE  H16X 3991   3.973   3.551  14.818
   31DOPE  H16Y 3992   4.016   3.428  14.694
   31DOPE  C317 3993   3.872   3.360  14.842
   31DOPE  H17X 3994   3.838   3.277  14.776
   31DOPE  H17Y 3995   3.953   3.320  14.906
   31DOPE  C318 3996   3.756   3.405  14.931
   31DOPE  H18X 3997   3.670   3.438  14.869
   31DOPE  H18Y 3998   3.722   3.321  14.996
   31DOPE  H18Z 3999   3.787   3.490  14.996
   32DOPE     N 4000   5.576   3.689  13.264
   32DOPE   HN1 4001   5.585   3.744  13.351
   32DOPE   HN2 4002   5.641   3.608  13.263
   32DOPE   HN3 4003   5.607   3.749  13.185
   32DOPE   C12 4004   5.434   3.648  13.232
   32DOPE  H12A 4005   5.366   3.718  13.286
   32DOPE  H12B 4006   5.418   3.545  13.271
   32DOPE   C11 4007   5.407   3.657  13.081
   32DOPE  H11A 4008   5.305   3.617  13.062
   32DOPE  H11B 4009   5.475   3.590  13.025
   32DOPE     P 4010   5.539   3.848  12.960
   32DOPE   O13 4011   5.536   3.798  12.822
   32DOPE   O14 4012   5.653   3.811  13.047
   32DOPE   O11 4013   5.515   4.004  12.965
   32DOPE   O12 4014   5.411   3.793  13.037
   32DOPE    C1 4015   5.616   4.095  12.918
   32DOPE    HA 4016   5.566   4.176  12.860
   32DOPE    HB 4017   5.688   4.048  12.849
   32DOPE    C2 4018   5.695   4.166  13.033
   32DOPE    HS 4019   5.763   4.240  12.986
   32DOPE   O21 4020   5.770   4.069  13.109
   32DOPE   C21 4021   5.885   4.033  13.057
   32DOPE   O22 4022   5.932   4.073  12.951
   32DOPE   C22 4023   5.956   3.940  13.154
   32DOPE   H2R 4024   6.034   3.884  13.097
   32DOPE   H2S 4025   5.882   3.868  13.194
   32DOPE    C3 4026   5.605   4.247  13.132
   32DOPE    HX 4027   5.553   4.324  13.071
   32DOPE    HY 4028   5.672   4.302  13.202
   32DOPE   O31 4029   5.507   4.167  13.201
   32DOPE   C31 4030   5.549   4.110  13.313
   32DOPE   O32 4031   5.657   4.125  13.367
   32DOPE   C32 4032   5.438   4.020  13.369
   32DOPE   H2X 4033   5.340   4.069  13.349
   32DOPE   H2Y 4034   5.440   3.924  13.312
   32DOPE   C23 4035   6.022   4.020  13.269
   32DOPE   H3R 4036   5.945   4.078  13.324
   32DOPE   H3S 4037   6.093   4.093  13.225
   32DOPE   C24 4038   6.101   3.933  13.368
   32DOPE   H4R 4039   6.162   4.000  13.432
   32DOPE   H4S 4040   6.171   3.868  13.312
   32DOPE   C25 4041   6.014   3.846  13.462
   32DOPE   H5R 4042   6.084   3.789  13.527
   32DOPE   H5S 4043   5.956   3.772  13.403
   32DOPE   C26 4044   5.919   3.928  13.551
   32DOPE   H6R 4045   5.833   3.962  13.489
   32DOPE   H6S 4046   5.972   4.020  13.584
   32DOPE   C27 4047   5.868   3.854  13.675
   32DOPE   H7R 4048   5.822   3.758  13.646
   32DOPE   H7S 4049   5.788   3.917  13.721
   32DOPE   C28 4050   5.978   3.831  13.781
   32DOPE   H8R 4051   6.033   3.926  13.793
   32DOPE   H8S 4052   6.051   3.757  13.741
   32DOPE   C29 4053   5.924   3.781  13.913
   32DOPE   H9R 4054   5.869   3.685  13.906
   32DOPE  C210 4055   5.935   3.839  14.033
   32DOPE  H10R 4056   5.889   3.790  14.120
   32DOPE  C211 4057   6.004   3.969  14.066
   32DOPE  H11R 4058   6.061   4.009  13.979
   32DOPE  H11S 4059   6.080   3.953  14.146
   32DOPE  C212 4060   5.906   4.080  14.111
   32DOPE  H12R 4061   5.827   4.092  14.033
   32DOPE  H12S 4062   5.962   4.176  14.115
   32DOPE  C213 4063   5.840   4.058  14.248
   32DOPE  H13R 4064   5.783   3.962  14.247
   32DOPE  H13S 4065   5.767   4.140  14.265
   32DOPE  C214 4066   5.940   4.058  14.365
   32DOPE  H14R 4067   6.003   4.149  14.358
   32DOPE  H14S 4068   6.006   3.969  14.357
   32DOPE  C215 4069   5.870   4.055  14.502
   32DOPE  H15R 4070   5.803   3.967  14.506
   32DOPE  H15S 4071   5.808   4.146  14.513
   32DOPE  C216 4072   5.968   4.047  14.621
   32DOPE  H16R 4073   6.031   3.956  14.610
   32DOPE  H16S 4074   5.909   4.036  14.714
   32DOPE  C217 4075   6.059   4.170  14.635
   32DOPE  H17R 4076   5.996   4.261  14.642
   32DOPE  H17S 4077   6.122   4.179  14.544
   32DOPE  C218 4078   6.151   4.163  14.758
   32DOPE  H18R 4079   6.091   4.156  14.851
   32DOPE  H18S 4080   6.215   4.254  14.764
   32DOPE  H18T 4081   6.217   4.074  14.752
   32DOPE   C33 4082   5.455   3.997  13.521
   32DOPE   H3X 4083   5.469   4.096  13.570
   32DOPE   H3Y 4084   5.546   3.938  13.543
   32DOPE   C34 4085   5.331   3.933  13.586
   32DOPE   H4X 4086   5.241   3.980  13.542
   32DOPE   H4Y 4087   5.327   3.824  13.562
   32DOPE   C35 4088   5.323   3.956  13.738
   32DOPE   H5X 4089   5.222   3.925  13.774
   32DOPE   H5Y 4090   5.331   4.065  13.756
   32DOPE   C36 4091   5.430   3.884  13.821
   32DOPE   H6X 4092   5.431   3.931  13.922
   32DOPE   H6Y 4093   5.531   3.899  13.777
   32DOPE   C37 4094   5.402   3.734  13.840
   32DOPE   H7X 4095   5.297   3.723  13.875
   32DOPE   H7Y 4096   5.411   3.681  13.743
   32DOPE   C38 4097   5.496   3.669  13.944
   32DOPE   H8X 4098   5.491   3.730  14.037
   32DOPE   H8Y 4099   5.600   3.677  13.907
   32DOPE   C39 4100   5.456   3.527  13.977
   32DOPE   H9X 4101   5.348   3.510  13.979
   32DOPE  C310 4102   5.538   3.424  14.004
   32DOPE  H10X 4103   5.494   3.326  14.027
   32DOPE  C311 4104   5.689   3.425  14.008
   32DOPE  H11X 4105   5.729   3.345  13.942
   32DOPE  H11Y 4106   5.732   3.521  13.971
   32DOPE  C312 4107   5.744   3.402  14.151
   32DOPE  H12X 4108   5.855   3.390  14.144
   32DOPE  H12Y 4109   5.703   3.307  14.192
   32DOPE  C313 4110   5.715   3.518  14.248
   32DOPE  H13X 4111   5.757   3.612  14.206
   32DOPE  H13Y 4112   5.605   3.531  14.257
   32DOPE  C314 4113   5.774   3.494  14.387
   32DOPE  H14X 4114   5.884   3.479  14.379
   32DOPE  H14Y 4115   5.730   3.401  14.429
   32DOPE  C315 4116   5.747   3.611  14.483
   32DOPE  H15X 4117   5.637   3.626  14.492
   32DOPE  H15Y 4118   5.789   3.704  14.438
   32DOPE  C316 4119   5.808   3.593  14.623
   32DOPE  H16X 4120   5.786   3.684  14.683
   32DOPE  H16Y 4121   5.918   3.585  14.613
   32DOPE  C317 4122   5.756   3.471  14.701
   32DOPE  H17X 4123   5.787   3.378  14.648
   32DOPE  H17Y 4124   5.807   3.469  14.800
   32DOPE  C318 4125   5.605   3.468  14.723
   32DOPE  H18X 4126   5.551   3.461  14.627
   32DOPE  H18Y 4127   5.576   3.381  14.786
   32DOPE  H18Z 4128   5.571   3.560  14.775
   33DOPE     N 4129   4.223   2.735  12.852
   33DOPE   HN1 4130   4.290   2.752  12.774
   33DOPE   HN2 4131   4.192   2.636  12.851
   33DOPE   HN3 4132   4.138   2.795  12.842
   33DOPE   C12 4133   4.277   2.767  12.989
   33DOPE  H12A 4134   4.273   2.878  13.000
   33DOPE  H12B 4135   4.383   2.733  12.994
   33DOPE   C11 4136   4.190   2.700  13.098
   33DOPE  H11A 4137   4.203   2.753  13.194
   33DOPE  H11B 4138   4.230   2.597  13.114
   33DOPE     P 4139   3.958   2.814  13.050
   33DOPE   O13 4140   3.817   2.771  13.059
   33DOPE   O14 4141   4.002   2.883  12.926
   33DOPE   O11 4142   4.000   2.898  13.178
   33DOPE   O12 4143   4.052   2.688  13.062
   33DOPE    C1 4144   3.944   2.865  13.306
   33DOPE    HA 4145   4.021   2.877  13.385
   33DOPE    HB 4146   3.911   2.759  13.312
   33DOPE    C2 4147   3.823   2.956  13.343
   33DOPE    HS 4148   3.767   2.979  13.250
   33DOPE   O21 4149   3.871   3.075  13.408
   33DOPE   C21 4150   3.905   3.176  13.332
   33DOPE   O22 4151   3.890   3.185  13.211
   33DOPE   C22 4152   3.970   3.284  13.419
   33DOPE   H2R 4153   3.986   3.371  13.352
   33DOPE   H2S 4154   4.070   3.247  13.452
   33DOPE    C3 4155   3.724   2.885  13.440
   33DOPE    HX 4156   3.688   2.792  13.390
   33DOPE    HY 4157   3.638   2.953  13.454
   33DOPE   O31 4158   3.786   2.854  13.567
   33DOPE   C31 4159   3.700   2.802  13.655
   33DOPE   O32 4160   3.587   2.766  13.629
   33DOPE   C32 4161   3.766   2.799  13.793
   33DOPE   H2X 4162   3.862   2.744  13.786
   33DOPE   H2Y 4163   3.787   2.905  13.820
   33DOPE   C23 4164   3.885   3.329  13.541
   33DOPE   H3R 4165   3.779   3.335  13.512
   33DOPE   H3S 4166   3.917   3.431  13.571
   33DOPE   C24 4167   3.897   3.239  13.666
   33DOPE   H4R 4168   3.879   3.133  13.639
   33DOPE   H4S 4169   3.816   3.268  13.737
   33DOPE   C25 4170   4.031   3.250  13.741
   33DOPE   H5R 4171   4.044   3.355  13.776
   33DOPE   H5S 4172   4.114   3.227  13.671
   33DOPE   C26 4173   4.039   3.155  13.861
   33DOPE   H6R 4174   4.032   3.050  13.824
   33DOPE   H6S 4175   3.952   3.173  13.928
   33DOPE   C27 4176   4.169   3.171  13.942
   33DOPE   H7R 4177   4.170   3.270  13.992
   33DOPE   H7S 4178   4.254   3.170  13.870
   33DOPE   C28 4179   4.194   3.059  14.045
   33DOPE   H8R 4180   4.298   3.072  14.084
   33DOPE   H8S 4181   4.193   2.962  13.991
   33DOPE   C29 4182   4.093   3.055  14.157
   33DOPE   H9R 4183   3.988   3.047  14.122
   33DOPE  C210 4184   4.116   3.061  14.290
   33DOPE  H10R 4185   4.029   3.056  14.357
   33DOPE  C211 4186   4.249   3.072  14.360
   33DOPE  H11R 4187   4.331   3.094  14.289
   33DOPE  H11S 4188   4.275   2.975  14.407
   33DOPE  C212 4189   4.252   3.182  14.468
   33DOPE  H12R 4190   4.227   3.279  14.421
   33DOPE  H12S 4191   4.356   3.191  14.507
   33DOPE  C213 4192   4.157   3.160  14.589
   33DOPE  H13R 4193   4.053   3.168  14.551
   33DOPE  H13S 4194   4.172   3.244  14.661
   33DOPE  C214 4195   4.171   3.027  14.665
   33DOPE  H14R 4196   4.167   2.940  14.595
   33DOPE  H14S 4197   4.081   3.019  14.730
   33DOPE  C215 4198   4.294   3.015  14.757
   33DOPE  H15R 4199   4.268   2.942  14.837
   33DOPE  H15S 4200   4.313   3.112  14.807
   33DOPE  C216 4201   4.422   2.965  14.688
   33DOPE  H16R 4202   4.454   3.039  14.612
   33DOPE  H16S 4203   4.400   2.870  14.634
   33DOPE  C217 4204   4.539   2.940  14.784
   33DOPE  H17R 4205   4.557   3.032  14.844
   33DOPE  H17S 4206   4.630   2.921  14.723
   33DOPE  C218 4207   4.520   2.820  14.879
   33DOPE  H18R 4208   4.503   2.727  14.821
   33DOPE  H18S 4209   4.432   2.837  14.945
   33DOPE  H18T 4210   4.610   2.806  14.942
   33DOPE   C33 4211   3.675   2.736  13.902
   33DOPE   H3X 4212   3.670   2.626  13.889
   33DOPE   H3Y 4213   3.572   2.775  13.890
   33DOPE   C34 4214   3.719   2.771  14.045
   33DOPE   H4X 4215   3.729   2.882  14.053
   33DOPE   H4Y 4216   3.639   2.741  14.116
   33DOPE   C35 4217   3.852   2.708  14.091
   33DOPE   H5X 4218   3.881   2.752  14.188
   33DOPE   H5Y 4219   3.932   2.736  14.018
   33DOPE   C36 4220   3.849   2.555  14.106
   33DOPE   H6X 4221   3.950   2.520  14.136
   33DOPE   H6Y 4222   3.828   2.510  14.006
   33DOPE   C37 4223   3.745   2.500  14.206
   33DOPE   H7X 4224   3.644   2.523  14.168
   33DOPE   H7Y 4225   3.754   2.389  14.209
   33DOPE   C38 4226   3.757   2.554  14.350
   33DOPE   H8X 4227   3.671   2.513  14.408
   33DOPE   H8Y 4228   3.744   2.664  14.349
   33DOPE   C39 4229   3.888   2.518  14.415
   33DOPE   H9X 4230   3.977   2.560  14.365
   33DOPE  C310 4231   3.907   2.443  14.526
   33DOPE  H10X 4232   4.009   2.427  14.562
   33DOPE  C311 4233   3.800   2.378  14.609
   33DOPE  H11X 4234   3.721   2.333  14.544
   33DOPE  H11Y 4235   3.843   2.294  14.668
   33DOPE  C312 4236   3.731   2.476  14.707
   33DOPE  H12X 4237   3.655   2.419  14.766
   33DOPE  H12Y 4238   3.677   2.553  14.649
   33DOPE  C313 4239   3.828   2.544  14.805
   33DOPE  H13X 4240   3.888   2.466  14.857
   33DOPE  H13Y 4241   3.899   2.608  14.748
   33DOPE  C314 4242   3.757   2.631  14.912
   33DOPE  H14X 4243   3.835   2.679  14.975
   33DOPE  H14Y 4244   3.698   2.564  14.977
   33DOPE  C315 4245   3.665   2.740  14.856
   33DOPE  H15X 4246   3.622   2.797  14.941
   33DOPE  H15Y 4247   3.580   2.693  14.802
   33DOPE  C316 4248   3.734   2.839  14.760
   33DOPE  H16X 4249   3.773   2.784  14.672
   33DOPE  H16Y 4250   3.819   2.887  14.812
   33DOPE  C317 4251   3.638   2.948  14.710
   33DOPE  H17X 4252   3.550   2.899  14.663
   33DOPE  H17Y 4253   3.600   3.006  14.797
   33DOPE  C318 4254   3.701   3.043  14.608
   33DOPE  H18X 4255   3.790   3.094  14.653
   33DOPE  H18Y 4256   3.734   2.988  14.518
   33DOPE  H18Z 4257   3.629   3.121  14.577
   34DOPE     N 4258   2.796   5.409  12.949
   34DOPE   HN1 4259   2.868   5.473  12.909
   34DOPE   HN2 4260   2.793   5.324  12.890
   34DOPE   HN3 4261   2.704   5.458  12.947
   34DOPE   C12 4262   2.831   5.378  13.093
   34DOPE  H12A 4263   2.919   5.441  13.120
   34DOPE  H12B 4264   2.859   5.271  13.099
   34DOPE   C11 4265   2.714   5.410  13.188
   34DOPE  H11A 4266   2.748   5.389  13.292
   34DOPE  H11B 4267   2.630   5.341  13.169
   34DOPE     P 4268   2.546   5.593  13.105
   34DOPE   O13 4269   2.562   5.546  12.965
   34DOPE   O14 4270   2.524   5.738  13.126
   34DOPE   O11 4271   2.435   5.507  13.177
   34DOPE   O12 4272   2.678   5.548  13.180
   34DOPE    C1 4273   2.347   5.562  13.275
   34DOPE    HA 4274   2.245   5.520  13.259
   34DOPE    HB 4275   2.335   5.672  13.265
   34DOPE    C2 4276   2.387   5.532  13.424
   34DOPE    HS 4277   2.324   5.594  13.490
   34DOPE   O21 4278   2.526   5.557  13.448
   34DOPE   C21 4279   2.562   5.683  13.453
   34DOPE   O22 4280   2.489   5.780  13.438
   34DOPE   C22 4281   2.711   5.690  13.488
   34DOPE   H2R 4282   2.741   5.797  13.489
   34DOPE   H2S 4283   2.767   5.638  13.407
   34DOPE    C3 4284   2.359   5.384  13.462
   34DOPE    HX 4285   2.429   5.320  13.403
   34DOPE    HY 4286   2.255   5.357  13.433
   34DOPE   O31 4287   2.373   5.369  13.606
   34DOPE   C31 4288   2.453   5.272  13.649
   34DOPE   O32 4289   2.499   5.183  13.581
   34DOPE   C32 4290   2.482   5.297  13.798
   34DOPE   H2X 4291   2.585   5.337  13.805
   34DOPE   H2Y 4292   2.412   5.375  13.835
   34DOPE   C23 4293   2.742   5.624  13.625
   34DOPE   H3R 4294   2.707   5.519  13.625
   34DOPE   H3S 4295   2.687   5.679  13.705
   34DOPE   C24 4296   2.892   5.625  13.659
   34DOPE   H4R 4297   2.930   5.729  13.650
   34DOPE   H4S 4298   2.948   5.563  13.586
   34DOPE   C25 4299   2.921   5.576  13.802
   34DOPE   H5R 4300   2.851   5.625  13.872
   34DOPE   H5S 4301   3.024   5.607  13.830
   34DOPE   C26 4302   2.913   5.423  13.817
   34DOPE   H6R 4303   2.993   5.378  13.754
   34DOPE   H6S 4304   2.815   5.386  13.779
   34DOPE   C27 4305   2.931   5.375  13.962
   34DOPE   H7R 4306   3.016   5.430  14.008
   34DOPE   H7S 4307   2.958   5.267  13.960
   34DOPE   C28 4308   2.804   5.392  14.048
   34DOPE   H8R 4309   2.723   5.333  14.001
   34DOPE   H8S 4310   2.773   5.499  14.043
   34DOPE   C29 4311   2.823   5.346  14.190
   34DOPE   H9R 4312   2.869   5.246  14.201
   34DOPE  C210 4313   2.789   5.413  14.302
   34DOPE  H10R 4314   2.806   5.367  14.400
   34DOPE  C211 4315   2.724   5.549  14.306
   34DOPE  H11R 4316   2.765   5.615  14.227
   34DOPE  H11S 4317   2.746   5.600  14.402
   34DOPE  C212 4318   2.571   5.543  14.286
   34DOPE  H12R 4319   2.549   5.489  14.192
   34DOPE  H12S 4320   2.532   5.646  14.274
   34DOPE  C213 4321   2.493   5.476  14.401
   34DOPE  H13R 4322   2.537   5.376  14.423
   34DOPE  H13S 4323   2.389   5.460  14.368
   34DOPE  C214 4324   2.490   5.560  14.530
   34DOPE  H14R 4325   2.451   5.661  14.504
   34DOPE  H14S 4326   2.593   5.572  14.570
   34DOPE  C215 4327   2.400   5.499  14.638
   34DOPE  H15R 4328   2.441   5.401  14.670
   34DOPE  H15S 4329   2.299   5.481  14.595
   34DOPE  C216 4330   2.385   5.591  14.760
   34DOPE  H16R 4331   2.351   5.691  14.725
   34DOPE  H16S 4332   2.484   5.605  14.809
   34DOPE  C217 4333   2.284   5.541  14.865
   34DOPE  H17R 4334   2.185   5.528  14.816
   34DOPE  H17S 4335   2.272   5.620  14.942
   34DOPE  C218 4336   2.324   5.410  14.934
   34DOPE  H18R 4337   2.249   5.383  15.011
   34DOPE  H18S 4338   2.423   5.421  14.982
   34DOPE  H18T 4339   2.329   5.327  14.860
   34DOPE   C33 4340   2.468   5.172  13.890
   34DOPE   H3X 4341   2.372   5.120  13.871
   34DOPE   H3Y 4342   2.467   5.210  13.994
   34DOPE   C34 4343   2.585   5.073  13.878
   34DOPE   H4X 4344   2.585   5.033  13.774
   34DOPE   H4Y 4345   2.681   5.126  13.893
   34DOPE   C35 4346   2.577   4.954  13.975
   34DOPE   H5X 4347   2.648   4.877  13.935
   34DOPE   H5Y 4348   2.476   4.908  13.973
   34DOPE   C36 4349   2.620   4.983  14.120
   34DOPE   H6X 4350   2.697   5.064  14.121
   34DOPE   H6Y 4351   2.669   4.892  14.159
   34DOPE   C37 4352   2.505   5.019  14.215
   34DOPE   H7X 4353   2.458   5.114  14.181
   34DOPE   H7Y 4354   2.427   4.940  14.209
   34DOPE   C38 4355   2.549   5.039  14.362
   34DOPE   H8X 4356   2.462   5.080  14.418
   34DOPE   H8Y 4357   2.628   5.117  14.364
   34DOPE   C39 4358   2.593   4.909  14.425
   34DOPE   H9X 4359   2.521   4.827  14.414
   34DOPE  C310 4360   2.707   4.885  14.493
   34DOPE  H10X 4361   2.724   4.784  14.532
   34DOPE  C311 4362   2.818   4.983  14.523
   34DOPE  H11X 4363   2.910   4.957  14.465
   34DOPE  H11Y 4364   2.791   5.087  14.495
   34DOPE  C312 4365   2.852   4.980  14.673
   34DOPE  H12X 4366   2.885   4.878  14.702
   34DOPE  H12Y 4367   2.760   5.003  14.732
   34DOPE  C313 4368   2.961   5.079  14.716
   34DOPE  H13X 4369   2.977   5.067  14.825
   34DOPE  H13Y 4370   3.057   5.054  14.665
   34DOPE  C314 4371   2.926   5.226  14.689
   34DOPE  H14X 4372   2.819   5.244  14.716
   34DOPE  H14Y 4373   2.936   5.247  14.580
   34DOPE  C315 4374   3.013   5.324  14.768
   34DOPE  H15X 4375   3.120   5.306  14.744
   34DOPE  H15Y 4376   2.999   5.304  14.876
   34DOPE  C316 4377   2.979   5.471  14.738
   34DOPE  H16X 4378   2.871   5.489  14.758
   34DOPE  H16Y 4379   2.997   5.489  14.630
   34DOPE  C317 4380   3.063   5.571  14.819
   34DOPE  H17X 4381   3.170   5.548  14.805
   34DOPE  H17Y 4382   3.045   5.673  14.778
   34DOPE  C318 4383   3.031   5.574  14.969
   34DOPE  H18X 4384   3.053   5.475  15.016
   34DOPE  H18Y 4385   3.091   5.651  15.020
   34DOPE  H18Z 4386   2.923   5.597  14.985
   35DOPE     N 4387   6.980   3.638  13.027
   35DOPE   HN1 4388   7.009   3.695  13.109
   35DOPE   HN2 4389   7.063   3.620  12.967
   35DOPE   HN3 4390   6.913   3.699  12.976
   35DOPE   C12 4391   6.903   3.516  13.072
   35DOPE  H12A 4392   6.973   3.452  13.130
   35DOPE  H12B 4393   6.869   3.462  12.981
   35DOPE   C11 4394   6.781   3.555  13.159
   35DOPE  H11A 4395   6.812   3.611  13.249
   35DOPE  H11B 4396   6.736   3.460  13.196
   35DOPE     P 4397   6.686   3.779  13.055
   35DOPE   O13 4398   6.550   3.835  13.037
   35DOPE   O14 4399   6.785   3.796  12.946
   35DOPE   O11 4400   6.754   3.834  13.187
   35DOPE   O12 4401   6.681   3.624  13.084
   35DOPE    C1 4402   6.825   3.958  13.179
   35DOPE    HA 4403   6.758   4.041  13.147
   35DOPE    HB 4404   6.907   3.951  13.103
   35DOPE    C2 4405   6.894   4.002  13.312
   35DOPE    HS 4406   6.987   4.058  13.287
   35DOPE   O21 4407   6.925   3.892  13.399
   35DOPE   C21 4408   7.010   3.802  13.355
   35DOPE   O22 4409   7.055   3.793  13.242
   35DOPE   C22 4410   7.050   3.711  13.471
   35DOPE   H2R 4411   6.965   3.643  13.495
   35DOPE   H2S 4412   7.067   3.777  13.559
   35DOPE    C3 4413   6.804   4.100  13.393
   35DOPE    HX 4414   6.789   4.189  13.328
   35DOPE    HY 4415   6.859   4.131  13.484
   35DOPE   O31 4416   6.678   4.040  13.429
   35DOPE   C31 4417   6.588   4.127  13.472
   35DOPE   O32 4418   6.603   4.247  13.479
   35DOPE   C32 4419   6.462   4.052  13.516
   35DOPE   H2X 4420   6.388   4.128  13.550
   35DOPE   H2Y 4421   6.421   4.000  13.426
   35DOPE   C23 4422   7.180   3.631  13.443
   35DOPE   H3R 4423   7.245   3.687  13.373
   35DOPE   H3S 4424   7.156   3.533  13.396
   35DOPE   C24 4425   7.265   3.610  13.569
   35DOPE   H4R 4426   7.283   3.709  13.616
   35DOPE   H4S 4427   7.365   3.571  13.539
   35DOPE   C25 4428   7.205   3.515  13.673
   35DOPE   H5R 4429   7.190   3.415  13.627
   35DOPE   H5S 4430   7.105   3.553  13.705
   35DOPE   C26 4431   7.293   3.499  13.799
   35DOPE   H6R 4432   7.386   3.444  13.773
   35DOPE   H6S 4433   7.237   3.436  13.872
   35DOPE   C27 4434   7.331   3.632  13.867
   35DOPE   H7R 4435   7.242   3.699  13.866
   35DOPE   H7S 4436   7.410   3.682  13.807
   35DOPE   C28 4437   7.377   3.616  14.013
   35DOPE   H8R 4438   7.462   3.544  14.016
   35DOPE   H8S 4439   7.293   3.569  14.069
   35DOPE   C29 4440   7.418   3.747  14.074
   35DOPE   H9R 4441   7.512   3.789  14.032
   35DOPE  C210 4442   7.354   3.819  14.168
   35DOPE  H10R 4443   7.397   3.914  14.200
   35DOPE  C211 4444   7.223   3.783  14.235
   35DOPE  H11R 4445   7.150   3.757  14.156
   35DOPE  H11S 4446   7.182   3.870  14.290
   35DOPE  C212 4447   7.229   3.662  14.331
   35DOPE  H12R 4448   7.284   3.580  14.281
   35DOPE  H12S 4449   7.126   3.625  14.351
   35DOPE  C213 4450   7.298   3.688  14.466
   35DOPE  H13R 4451   7.381   3.761  14.454
   35DOPE  H13S 4452   7.344   3.591  14.498
   35DOPE  C214 4453   7.203   3.730  14.579
   35DOPE  H14R 4454   7.118   3.658  14.582
   35DOPE  H14S 4455   7.161   3.831  14.557
   35DOPE  C215 4456   7.272   3.731  14.716
   35DOPE  H15R 4457   7.350   3.810  14.717
   35DOPE  H15S 4458   7.323   3.634  14.731
   35DOPE  C216 4459   7.175   3.753  14.833
   35DOPE  H16R 4460   7.097   3.674  14.831
   35DOPE  H16S 4461   7.123   3.851  14.819
   35DOPE  C217 4462   7.245   3.752  14.969
   35DOPE  H17R 4463   7.327   3.827  14.968
   35DOPE  H17S 4464   7.292   3.652  14.984
   35DOPE  C218 4465   7.152   3.782  15.086
   35DOPE  H18R 4466   7.069   3.708  15.089
   35DOPE  H18S 4467   7.107   3.883  15.076
   35DOPE  H18T 4468   7.207   3.778  15.183
   35DOPE   C33 4469   6.490   3.950  13.628
   35DOPE   H3X 4470   6.538   4.002  13.714
   35DOPE   H3Y 4471   6.560   3.873  13.591
   35DOPE   C34 4472   6.362   3.880  13.677
   35DOPE   H4X 4473   6.294   3.955  13.724
   35DOPE   H4Y 4474   6.309   3.838  13.589
   35DOPE   C35 4475   6.388   3.766  13.777
   35DOPE   H5X 4476   6.453   3.690  13.728
   35DOPE   H5Y 4477   6.290   3.717  13.800
   35DOPE   C36 4478   6.453   3.811  13.908
   35DOPE   H6X 4479   6.390   3.887  13.958
   35DOPE   H6Y 4480   6.551   3.858  13.885
   35DOPE   C37 4481   6.480   3.695  14.006
   35DOPE   H7X 4482   6.535   3.615  13.953
   35DOPE   H7Y 4483   6.546   3.732  14.088
   35DOPE   C38 4484   6.351   3.638  14.070
   35DOPE   H8X 4485   6.281   3.606  13.990
   35DOPE   H8Y 4486   6.301   3.720  14.125
   35DOPE   C39 4487   6.382   3.520  14.160
   35DOPE   H9X 4488   6.398   3.426  14.106
   35DOPE  C310 4489   6.392   3.520  14.294
   35DOPE  H10X 4490   6.416   3.425  14.345
   35DOPE  C311 4491   6.376   3.638  14.387
   35DOPE  H11X 4492   6.339   3.728  14.334
   35DOPE  H11Y 4493   6.301   3.614  14.465
   35DOPE  C312 4494   6.509   3.674  14.456
   35DOPE  H12X 4495   6.583   3.704  14.378
   35DOPE  H12Y 4496   6.550   3.585  14.508
   35DOPE  C313 4497   6.494   3.788  14.557
   35DOPE  H13X 4498   6.450   3.877  14.506
   35DOPE  H13Y 4499   6.423   3.756  14.637
   35DOPE  C314 4500   6.628   3.829  14.621
   35DOPE  H14X 4501   6.697   3.858  14.539
   35DOPE  H14Y 4502   6.672   3.741  14.672
   35DOPE  C315 4503   6.616   3.946  14.720
   35DOPE  H15X 4504   6.564   4.030  14.670
   35DOPE  H15Y 4505   6.719   3.980  14.745
   35DOPE  C316 4506   6.544   3.909  14.850
   35DOPE  H16X 4507   6.595   3.824  14.898
   35DOPE  H16Y 4508   6.440   3.877  14.827
   35DOPE  C317 4509   6.539   4.026  14.949
   35DOPE  H17X 4510   6.642   4.060  14.971
   35DOPE  H17Y 4511   6.486   4.112  14.901
   35DOPE  C318 4512   6.469   3.991  15.081
   35DOPE  H18X 4513   6.365   3.958  15.062
   35DOPE  H18Y 4514   6.523   3.909  15.133
   35DOPE  H18Z 4515   6.466   4.080  15.148
   36DOPE     N 4516   6.948   5.504  13.031
   36DOPE   HN1 4517   6.896   5.556  12.958
   36DOPE   HN2 4518   7.046   5.540  13.035
   36DOPE   HN3 4519   6.945   5.404  13.003
   36DOPE   C12 4520   6.868   5.528  13.157
   36DOPE  H12A 4521   6.858   5.638  13.168
   36DOPE  H12B 4522   6.924   5.487  13.244
   36DOPE   C11 4523   6.727   5.465  13.146
   36DOPE  H11A 4524   6.659   5.513  13.220
   36DOPE  H11B 4525   6.734   5.358  13.175
   36DOPE     P 4526   6.645   5.609  12.942
   36DOPE   O13 4527   6.530   5.598  12.849
   36DOPE   O14 4528   6.777   5.645  12.885
   36DOPE   O11 4529   6.615   5.705  13.063
   36DOPE   O12 4530   6.672   5.471  13.015
   36DOPE    C1 4531   6.569   5.838  13.036
   36DOPE    HA 4532   6.479   5.837  12.972
   36DOPE    HB 4533   6.648   5.895  12.982
   36DOPE    C2 4534   6.533   5.917  13.166
   36DOPE    HS 4535   6.526   6.025  13.140
   36DOPE   O21 4536   6.631   5.896  13.269
   36DOPE   C21 4537   6.750   5.947  13.251
   36DOPE   O22 4538   6.789   6.014  13.157
   36DOPE   C22 4539   6.839   5.911  13.372
   36DOPE   H2R 4540   6.873   6.007  13.416
   36DOPE   H2S 4541   6.927   5.856  13.333
   36DOPE    C3 4542   6.393   5.876  13.222
   36DOPE    HX 4543   6.318   5.899  13.143
   36DOPE    HY 4544   6.369   5.942  13.308
   36DOPE   O31 4545   6.383   5.736  13.254
   36DOPE   C31 4546   6.408   5.702  13.379
   36DOPE   O32 4547   6.432   5.779  13.471
   36DOPE   C32 4548   6.399   5.550  13.392
   36DOPE   H2X 4549   6.291   5.522  13.399
   36DOPE   H2Y 4550   6.439   5.507  13.298
   36DOPE   C23 4551   6.767   5.826  13.480
   36DOPE   H3R 4552   6.731   5.731  13.436
   36DOPE   H3S 4553   6.677   5.881  13.516
   36DOPE   C24 4554   6.854   5.795  13.603
   36DOPE   H4R 4555   6.889   5.891  13.647
   36DOPE   H4S 4556   6.943   5.736  13.572
   36DOPE   C25 4557   6.775   5.717  13.709
   36DOPE   H5R 4558   6.734   5.625  13.662
   36DOPE   H5S 4559   6.688   5.779  13.740
   36DOPE   C26 4560   6.855   5.677  13.834
   36DOPE   H6R 4561   6.937   5.608  13.805
   36DOPE   H6S 4562   6.788   5.622  13.903
   36DOPE   C27 4563   6.916   5.797  13.909
   36DOPE   H7R 4564   6.838   5.875  13.924
   36DOPE   H7S 4565   6.994   5.842  13.844
   36DOPE   C28 4566   6.981   5.759  14.043
   36DOPE   H8R 4567   7.047   5.843  14.073
   36DOPE   H8S 4568   7.047   5.672  14.027
   36DOPE   C29 4569   6.881   5.737  14.155
   36DOPE   H9R 4570   6.808   5.818  14.167
   36DOPE  C210 4571   6.873   5.631  14.237
   36DOPE  H10R 4572   6.795   5.630  14.315
   36DOPE  C211 4573   6.962   5.509  14.236
   36DOPE  H11R 4574   7.007   5.493  14.136
   36DOPE  H11S 4575   6.901   5.418  14.257
   36DOPE  C212 4576   7.077   5.515  14.338
   36DOPE  H12R 4577   7.132   5.611  14.328
   36DOPE  H12S 4578   7.148   5.434  14.314
   36DOPE  C213 4579   7.032   5.496  14.484
   36DOPE  H13R 4580   6.973   5.402  14.491
   36DOPE  H13S 4581   6.967   5.580  14.515
   36DOPE  C214 4582   7.152   5.485  14.580
   36DOPE  H14R 4583   7.204   5.583  14.584
   36DOPE  H14S 4584   7.224   5.411  14.539
   36DOPE  C215 4585   7.116   5.441  14.723
   36DOPE  H15R 4586   7.208   5.439  14.784
   36DOPE  H15S 4587   7.076   5.337  14.719
   36DOPE  C216 4588   7.013   5.531  14.792
   36DOPE  H16R 4589   6.915   5.523  14.739
   36DOPE  H16S 4590   7.047   5.637  14.785
   36DOPE  C217 4591   6.991   5.497  14.941
   36DOPE  H17R 4592   6.917   5.569  14.983
   36DOPE  H17S 4593   7.087   5.513  14.995
   36DOPE  C218 4594   6.941   5.355  14.967
   36DOPE  H18R 4595   6.847   5.336  14.911
   36DOPE  H18S 4596   6.922   5.339  15.075
   36DOPE  H18T 4597   7.017   5.280  14.934
   36DOPE   C33 4598   6.477   5.492  13.512
   36DOPE   H3X 4599   6.579   5.537  13.517
   36DOPE   H3Y 4600   6.490   5.383  13.497
   36DOPE   C34 4601   6.405   5.512  13.647
   36DOPE   H4X 4602   6.391   5.621  13.666
   36DOPE   H4Y 4603   6.305   5.465  13.641
   36DOPE   C35 4604   6.482   5.450  13.765
   36DOPE   H5X 4605   6.578   5.504  13.779
   36DOPE   H5Y 4606   6.506   5.345  13.740
   36DOPE   C36 4607   6.404   5.451  13.897
   36DOPE   H6X 4608   6.460   5.393  13.974
   36DOPE   H6Y 4609   6.308   5.397  13.882
   36DOPE   C37 4610   6.373   5.591  13.954
   36DOPE   H7X 4611   6.331   5.657  13.876
   36DOPE   H7Y 4612   6.294   5.578  14.031
   36DOPE   C38 4613   6.497   5.656  14.019
   36DOPE   H8X 4614   6.565   5.689  13.938
   36DOPE   H8Y 4615   6.551   5.577  14.075
   36DOPE   C39 4616   6.465   5.772  14.110
   36DOPE   H9X 4617   6.481   5.872  14.067
   36DOPE  C310 4618   6.417   5.761  14.236
   36DOPE  H10X 4619   6.397   5.853  14.293
   36DOPE  C311 4620   6.386   5.632  14.308
   36DOPE  H11X 4621   6.311   5.652  14.388
   36DOPE  H11Y 4622   6.337   5.560  14.239
   36DOPE  C312 4623   6.508   5.562  14.370
   36DOPE  H12X 4624   6.555   5.628  14.446
   36DOPE  H12Y 4625   6.583   5.544  14.290
   36DOPE  C313 4626   6.471   5.427  14.432
   36DOPE  H13X 4627   6.407   5.443  14.522
   36DOPE  H13Y 4628   6.411   5.370  14.358
   36DOPE  C314 4629   6.594   5.341  14.468
   36DOPE  H14X 4630   6.657   5.333  14.377
   36DOPE  H14Y 4631   6.560   5.238  14.493
   36DOPE  C315 4632   6.680   5.395  14.583
   36DOPE  H15X 4633   6.711   5.499  14.559
   36DOPE  H15Y 4634   6.773   5.335  14.590
   36DOPE  C316 4635   6.612   5.393  14.721
   36DOPE  H16X 4636   6.516   5.450  14.716
   36DOPE  H16Y 4637   6.678   5.446  14.793
   36DOPE  C317 4638   6.584   5.252  14.775
   36DOPE  H17X 4639   6.513   5.200  14.707
   36DOPE  H17Y 4640   6.680   5.195  14.774
   36DOPE  C318 4641   6.528   5.252  14.917
   36DOPE  H18X 4642   6.431   5.307  14.921
   36DOPE  H18Y 4643   6.510   5.148  14.952
   36DOPE  H18Z 4644   6.599   5.301  14.988
   37DOPE     N 4645   3.229   2.835  12.934
   37DOPE   HN1 4646   3.268   2.842  12.838
   37DOPE   HN2 4647   3.203   2.928  12.972
   37DOPE   HN3 4648   3.300   2.794  12.997
   37DOPE   C12 4649   3.101   2.754  12.933
   37DOPE  H12A 4650   3.078   2.727  13.038
   37DOPE  H12B 4651   3.120   2.660  12.876
   37DOPE   C11 4652   2.982   2.832  12.871
   37DOPE  H11A 4653   2.888   2.777  12.893
   37DOPE  H11B 4654   2.994   2.832  12.761
   37DOPE     P 4655   2.975   3.002  13.069
   37DOPE   O13 4656   3.119   3.027  13.092
   37DOPE   O14 4657   2.912   2.890  13.141
   37DOPE   O11 4658   2.888   3.135  13.081
   37DOPE   O12 4659   2.970   2.968  12.915
   37DOPE    C1 4660   2.921   3.230  13.184
   37DOPE    HA 4661   2.871   3.326  13.160
   37DOPE    HB 4662   3.030   3.251  13.187
   37DOPE    C2 4663   2.874   3.190  13.328
   37DOPE    HS 4664   2.883   3.281  13.390
   37DOPE   O21 4665   2.959   3.085  13.377
   37DOPE   C21 4666   2.976   3.078  13.507
   37DOPE   O22 4667   2.944   3.164  13.588
   37DOPE   C22 4668   3.041   2.944  13.540
   37DOPE   H2R 4669   3.121   2.925  13.466
   37DOPE   H2S 4670   2.963   2.866  13.527
   37DOPE    C3 4671   2.725   3.144  13.330
   37DOPE    HX 4672   2.723   3.038  13.297
   37DOPE    HY 4673   2.669   3.204  13.255
   37DOPE   O31 4674   2.667   3.165  13.461
   37DOPE   C31 4675   2.580   3.074  13.503
   37DOPE   O32 4676   2.541   2.978  13.439
   37DOPE   C32 4677   2.531   3.110  13.643
   37DOPE   H2X 4678   2.488   3.212  13.638
   37DOPE   H2Y 4679   2.450   3.038  13.670
   37DOPE   C23 4680   3.099   2.935  13.684
   37DOPE   H3R 4681   3.131   2.831  13.702
   37DOPE   H3S 4682   3.020   2.959  13.759
   37DOPE   C24 4683   3.220   3.027  13.704
   37DOPE   H4R 4684   3.185   3.133  13.701
   37DOPE   H4S 4685   3.292   3.013  13.621
   37DOPE   C25 4686   3.293   3.003  13.837
   37DOPE   H5R 4687   3.332   2.899  13.838
   37DOPE   H5S 4688   3.221   3.014  13.921
   37DOPE   C26 4689   3.409   3.102  13.857
   37DOPE   H6R 4690   3.369   3.205  13.857
   37DOPE   H6S 4691   3.480   3.093  13.771
   37DOPE   C27 4692   3.486   3.076  13.988
   37DOPE   H7R 4693   3.526   2.973  13.984
   37DOPE   H7S 4694   3.415   3.080  14.073
   37DOPE   C28 4695   3.602   3.174  14.011
   37DOPE   H8R 4696   3.666   3.177  13.920
   37DOPE   H8S 4697   3.666   3.133  14.092
   37DOPE   C29 4698   3.556   3.314  14.047
   37DOPE   H9R 4699   3.555   3.385  13.964
   37DOPE  C210 4700   3.514   3.354  14.169
   37DOPE  H10R 4701   3.482   3.458  14.182
   37DOPE  C211 4702   3.504   3.268  14.293
   37DOPE  H11R 4703   3.558   3.315  14.378
   37DOPE  H11S 4704   3.552   3.169  14.277
   37DOPE  C212 4705   3.357   3.241  14.334
   37DOPE  H12R 4706   3.355   3.159  14.409
   37DOPE  H12S 4707   3.301   3.204  14.245
   37DOPE  C213 4708   3.283   3.363  14.392
   37DOPE  H13R 4709   3.176   3.337  14.403
   37DOPE  H13S 4710   3.288   3.447  14.319
   37DOPE  C214 4711   3.336   3.413  14.528
   37DOPE  H14R 4712   3.275   3.501  14.558
   37DOPE  H14S 4713   3.441   3.448  14.515
   37DOPE  C215 4714   3.332   3.309  14.642
   37DOPE  H15R 4715   3.374   3.356  14.733
   37DOPE  H15S 4716   3.397   3.223  14.616
   37DOPE  C216 4717   3.190   3.258  14.674
   37DOPE  H16R 4718   3.148   3.209  14.584
   37DOPE  H16S 4719   3.125   3.345  14.699
   37DOPE  C217 4720   3.188   3.158  14.790
   37DOPE  H17R 4721   3.232   3.206  14.880
   37DOPE  H17S 4722   3.254   3.072  14.764
   37DOPE  C218 4723   3.048   3.106  14.823
   37DOPE  H18R 4724   3.003   3.058  14.733
   37DOPE  H18S 4725   2.982   3.190  14.854
   37DOPE  H18T 4726   3.051   3.032  14.905
   37DOPE   C33 4727   2.644   3.107  13.749
   37DOPE   H3X 4728   2.608   3.155  13.843
   37DOPE   H3Y 4729   2.729   3.168  13.713
   37DOPE   C34 4730   2.693   2.965  13.782
   37DOPE   H4X 4731   2.698   2.906  13.688
   37DOPE   H4Y 4732   2.797   2.971  13.821
   37DOPE   C35 4733   2.607   2.889  13.885
   37DOPE   H5X 4734   2.636   2.782  13.883
   37DOPE   H5Y 4735   2.500   2.894  13.852
   37DOPE   C36 4736   2.617   2.941  14.030
   37DOPE   H6X 4737   2.550   2.880  14.094
   37DOPE   H6Y 4738   2.579   3.045  14.033
   37DOPE   C37 4739   2.759   2.939  14.091
   37DOPE   H7X 4740   2.824   3.006  14.032
   37DOPE   H7Y 4741   2.753   2.981  14.194
   37DOPE   C38 4742   2.821   2.798  14.099
   37DOPE   H8X 4743   2.821   2.753  13.997
   37DOPE   H8Y 4744   2.755   2.734  14.161
   37DOPE   C39 4745   2.963   2.801  14.150
   37DOPE   H9X 4746   3.033   2.858  14.087
   37DOPE  C310 4747   3.011   2.743  14.262
   37DOPE  H10X 4748   3.118   2.755  14.285
   37DOPE  C311 4749   2.934   2.662  14.363
   37DOPE  H11X 4750   2.825   2.687  14.362
   37DOPE  H11Y 4751   2.942   2.554  14.337
   37DOPE  C312 4752   2.988   2.680  14.507
   37DOPE  H12X 4753   3.096   2.655  14.508
   37DOPE  H12Y 4754   2.937   2.607  14.574
   37DOPE  C313 4755   2.969   2.821  14.565
   37DOPE  H13X 4756   3.036   2.834  14.653
   37DOPE  H13Y 4757   3.000   2.896  14.489
   37DOPE  C314 4758   2.825   2.852  14.610
   37DOPE  H14X 4759   2.753   2.818  14.532
   37DOPE  H14Y 4760   2.813   2.963  14.618
   37DOPE  C315 4761   2.789   2.791  14.746
   37DOPE  H15X 4762   2.860   2.829  14.822
   37DOPE  H15Y 4763   2.800   2.680  14.741
   37DOPE  C316 4764   2.646   2.826  14.790
   37DOPE  H16X 4765   2.574   2.775  14.722
   37DOPE  H16Y 4766   2.631   2.935  14.778
   37DOPE  C317 4767   2.614   2.788  14.935
   37DOPE  H17X 4768   2.682   2.844  15.002
   37DOPE  H17Y 4769   2.510   2.821  14.958
   37DOPE  C318 4770   2.626   2.638  14.966
   37DOPE  H18X 4771   2.596   2.618  15.072
   37DOPE  H18Y 4772   2.559   2.580  14.899
   37DOPE  H18Z 4773   2.730   2.603  14.952
   38DOPE     N 4774   6.312   6.450  12.784
   38DOPE   HN1 4775   6.387   6.518  12.758
   38DOPE   HN2 4776   6.244   6.448  12.706
   38DOPE   HN3 4777   6.262   6.483  12.869
   38DOPE   C12 4778   6.370   6.313  12.805
   38DOPE  H12A 4779   6.428   6.286  12.714
   38DOPE  H12B 4780   6.284   6.242  12.814
   38DOPE   C11 4781   6.460   6.307  12.931
   38DOPE  H11A 4782   6.544   6.377  12.917
   38DOPE  H11B 4783   6.504   6.205  12.939
   38DOPE     P 4784   6.283   6.244  13.114
   38DOPE   O13 4785   6.287   6.116  13.040
   38DOPE   O14 4786   6.154   6.317  13.116
   38DOPE   O11 4787   6.337   6.223  13.262
   38DOPE   O12 4788   6.389   6.342  13.050
   38DOPE    C1 4789   6.337   6.337  13.350
   38DOPE    HA 4790   6.239   6.389  13.349
   38DOPE    HB 4791   6.415   6.409  13.317
   38DOPE    C2 4792   6.366   6.299  13.498
   38DOPE    HS 4793   6.462   6.244  13.501
   38DOPE   O21 4794   6.257   6.218  13.547
   38DOPE   C21 4795   6.286   6.137  13.648
   38DOPE   O22 4796   6.394   6.125  13.702
   38DOPE   C22 4797   6.158   6.065  13.691
   38DOPE   H2R 4798   6.130   5.995  13.609
   38DOPE   H2S 4799   6.077   6.141  13.702
   38DOPE    C3 4800   6.380   6.430  13.583
   38DOPE    HX 4801   6.283   6.484  13.575
   38DOPE    HY 4802   6.457   6.493  13.533
   38DOPE   O31 4803   6.423   6.404  13.718
   38DOPE   C31 4804   6.339   6.438  13.816
   38DOPE   O32 4805   6.236   6.502  13.802
   38DOPE   C32 4806   6.390   6.381  13.948
   38DOPE   H2X 4807   6.339   6.283  13.960
   38DOPE   H2Y 4808   6.499   6.362  13.941
   38DOPE   C23 4809   6.173   5.987  13.824
   38DOPE   H3R 4810   6.204   6.057  13.905
   38DOPE   H3S 4811   6.254   5.911  13.813
   38DOPE   C24 4812   6.043   5.917  13.865
   38DOPE   H4R 4813   6.013   5.849  13.782
   38DOPE   H4S 4814   5.963   5.992  13.877
   38DOPE   C25 4815   6.053   5.833  13.994
   38DOPE   H5R 4816   6.137   5.760  13.985
   38DOPE   H5S 4817   5.959   5.774  14.004
   38DOPE   C26 4818   6.071   5.917  14.121
   38DOPE   H6R 4819   5.995   5.997  14.122
   38DOPE   H6S 4820   6.171   5.964  14.121
   38DOPE   C27 4821   6.054   5.834  14.250
   38DOPE   H7R 4822   6.128   5.751  14.249
   38DOPE   H7S 4823   5.953   5.788  14.249
   38DOPE   C28 4824   6.072   5.917  14.378
   38DOPE   H8R 4825   6.001   6.002  14.374
   38DOPE   H8S 4826   6.174   5.961  14.377
   38DOPE   C29 4827   6.046   5.834  14.502
   38DOPE   H9R 4828   5.949   5.782  14.500
   38DOPE  C210 4829   6.124   5.819  14.610
   38DOPE  H10R 4830   6.089   5.753  14.691
   38DOPE  C211 4831   6.260   5.880  14.636
   38DOPE  H11R 4832   6.252   5.952  14.720
   38DOPE  H11S 4833   6.297   5.938  14.549
   38DOPE  C212 4834   6.367   5.777  14.675
   38DOPE  H12R 4835   6.389   5.712  14.587
   38DOPE  H12S 4836   6.330   5.711  14.757
   38DOPE  C213 4837   6.497   5.844  14.721
   38DOPE  H13R 4838   6.477   5.895  14.818
   38DOPE  H13S 4839   6.526   5.922  14.647
   38DOPE  C214 4840   6.613   5.746  14.738
   38DOPE  H14R 4841   6.645   5.711  14.638
   38DOPE  H14S 4842   6.577   5.658  14.795
   38DOPE  C215 4843   6.735   5.804  14.813
   38DOPE  H15R 4844   6.820   5.733  14.804
   38DOPE  H15S 4845   6.709   5.812  14.920
   38DOPE  C216 4846   6.780   5.942  14.762
   38DOPE  H16R 4847   6.697   6.015  14.777
   38DOPE  H16S 4848   6.801   5.937  14.654
   38DOPE  C217 4849   6.903   5.995  14.836
   38DOPE  H17R 4850   6.990   5.931  14.811
   38DOPE  H17S 4851   6.887   5.986  14.946
   38DOPE  C218 4852   6.936   6.141  14.803
   38DOPE  H18R 4853   6.852   6.208  14.833
   38DOPE  H18S 4854   6.952   6.153  14.694
   38DOPE  H18T 4855   7.027   6.174  14.856
   38DOPE   C33 4856   6.358   6.472  14.069
   38DOPE   H3X 4857   6.252   6.506  14.066
   38DOPE   H3Y 4858   6.421   6.564  14.061
   38DOPE   C34 4859   6.385   6.406  14.205
   38DOPE   H4X 4860   6.493   6.380  14.209
   38DOPE   H4Y 4861   6.366   6.481  14.285
   38DOPE   C35 4862   6.304   6.279  14.236
   38DOPE   H5X 4863   6.345   6.238  14.331
   38DOPE   H5Y 4864   6.321   6.201  14.159
   38DOPE   C36 4865   6.153   6.299  14.258
   38DOPE   H6X 4866   6.135   6.394  14.314
   38DOPE   H6Y 4867   6.117   6.216  14.323
   38DOPE   C37 4868   6.068   6.295  14.130
   38DOPE   H7X 4869   6.084   6.387  14.070
   38DOPE   H7Y 4870   6.102   6.209  14.068
   38DOPE   C38 4871   5.917   6.277  14.156
   38DOPE   H8X 4872   5.902   6.180  14.208
   38DOPE   H8Y 4873   5.866   6.268  14.057
   38DOPE   C39 4874   5.855   6.390  14.234
   38DOPE   H9X 4875   5.907   6.487  14.225
   38DOPE  C310 4876   5.745   6.380  14.312
   38DOPE  H10X 4877   5.710   6.470  14.365
   38DOPE  C311 4878   5.663   6.256  14.334
   38DOPE  H11X 4879   5.555   6.280  14.325
   38DOPE  H11Y 4880   5.684   6.180  14.256
   38DOPE  C312 4881   5.688   6.191  14.471
   38DOPE  H12X 4882   5.797   6.171  14.484
   38DOPE  H12Y 4883   5.636   6.092  14.473
   38DOPE  C313 4884   5.635   6.274  14.589
   38DOPE  H13X 4885   5.690   6.371  14.593
   38DOPE  H13Y 4886   5.528   6.297  14.570
   38DOPE  C314 4887   5.646   6.203  14.725
   38DOPE  H14X 4888   5.590   6.107  14.720
   38DOPE  H14Y 4889   5.598   6.266  14.802
   38DOPE  C315 4890   5.791   6.173  14.769
   38DOPE  H15X 4891   5.839   6.104  14.696
   38DOPE  H15Y 4892   5.787   6.119  14.866
   38DOPE  C316 4893   5.876   6.299  14.786
   38DOPE  H16X 4894   5.818   6.375  14.842
   38DOPE  H16Y 4895   5.898   6.341  14.685
   38DOPE  C317 4896   6.009   6.275  14.859
   38DOPE  H17X 4897   6.066   6.371  14.860
   38DOPE  H17Y 4898   5.988   6.249  14.965
   38DOPE  C318 4899   6.096   6.165  14.799
   38DOPE  H18X 4900   6.190   6.153  14.856
   38DOPE  H18Y 4901   6.043   6.067  14.800
   38DOPE  H18Z 4902   6.122   6.189  14.693
   39DOPE     N 4903   2.277   4.276  13.143
   39DOPE   HN1 4904   2.249   4.231  13.233
   39DOPE   HN2 4905   2.192   4.280  13.083
   39DOPE   HN3 4906   2.351   4.218  13.098
   39DOPE   C12 4907   2.320   4.419  13.167
   39DOPE  H12A 4908   2.411   4.417  13.230
   39DOPE  H12B 4909   2.238   4.468  13.223
   39DOPE   C11 4910   2.346   4.494  13.034
   39DOPE  H11A 4911   2.447   4.463  12.998
   39DOPE  H11B 4912   2.352   4.603  13.055
   39DOPE     P 4913   2.095   4.484  12.952
   39DOPE   O13 4914   2.051   4.358  13.017
   39DOPE   O14 4915   2.031   4.519  12.824
   39DOPE   O11 4916   2.089   4.603  13.056
   39DOPE   O12 4917   2.252   4.467  12.929
   39DOPE    C1 4918   2.097   4.737  13.007
   39DOPE    HA 4919   2.006   4.761  12.948
   39DOPE    HB 4920   2.185   4.752  12.941
   39DOPE    C2 4921   2.106   4.843  13.121
   39DOPE    HS 4922   2.078   4.940  13.074
   39DOPE   O21 4923   2.243   4.850  13.169
   39DOPE   C21 4924   2.263   4.954  13.250
   39DOPE   O22 4925   2.191   5.052  13.258
   39DOPE   C22 4926   2.390   4.935  13.334
   39DOPE   H2R 4927   2.372   4.990  13.429
   39DOPE   H2S 4928   2.475   4.983  13.282
   39DOPE    C3 4929   2.005   4.816  13.238
   39DOPE    HX 4930   1.914   4.769  13.195
   39DOPE    HY 4931   1.977   4.915  13.280
   39DOPE   O31 4932   2.062   4.732  13.342
   39DOPE   C31 4933   1.990   4.728  13.453
   39DOPE   O32 4934   1.885   4.788  13.471
   39DOPE   C32 4935   2.061   4.639  13.555
   39DOPE   H2X 4936   2.082   4.543  13.503
   39DOPE   H2Y 4937   2.158   4.686  13.582
   39DOPE   C23 4938   2.423   4.787  13.367
   39DOPE   H3R 4939   2.480   4.742  13.283
   39DOPE   H3S 4940   2.330   4.728  13.380
   39DOPE   C24 4941   2.504   4.775  13.497
   39DOPE   H4R 4942   2.440   4.810  13.582
   39DOPE   H4S 4943   2.592   4.843  13.493
   39DOPE   C25 4944   2.553   4.632  13.524
   39DOPE   H5R 4945   2.633   4.609  13.452
   39DOPE   H5S 4946   2.470   4.560  13.507
   39DOPE   C26 4947   2.607   4.612  13.667
   39DOPE   H6R 4948   2.673   4.697  13.695
   39DOPE   H6S 4949   2.668   4.520  13.668
   39DOPE   C27 4950   2.495   4.597  13.772
   39DOPE   H7R 4951   2.427   4.516  13.737
   39DOPE   H7S 4952   2.437   4.691  13.778
   39DOPE   C28 4953   2.550   4.560  13.911
   39DOPE   H8R 4954   2.611   4.645  13.949
   39DOPE   H8S 4955   2.618   4.474  13.900
   39DOPE   C29 4956   2.439   4.525  14.007
   39DOPE   H9R 4957   2.346   4.489  13.958
   39DOPE  C210 4958   2.442   4.531  14.141
   39DOPE  H10R 4959   2.353   4.501  14.197
   39DOPE  C211 4960   2.558   4.575  14.227
   39DOPE  H11R 4961   2.522   4.649  14.302
   39DOPE  H11S 4962   2.637   4.626  14.168
   39DOPE  C212 4963   2.625   4.458  14.304
   39DOPE  H12R 4964   2.703   4.500  14.370
   39DOPE  H12S 4965   2.677   4.393  14.231
   39DOPE  C213 4966   2.530   4.371  14.388
   39DOPE  H13R 4967   2.589   4.289  14.435
   39DOPE  H13S 4968   2.457   4.322  14.320
   39DOPE  C214 4969   2.452   4.445  14.498
   39DOPE  H14R 4970   2.376   4.376  14.540
   39DOPE  H14S 4971   2.397   4.531  14.453
   39DOPE  C215 4972   2.541   4.494  14.613
   39DOPE  H15R 4973   2.614   4.569  14.575
   39DOPE  H15S 4974   2.599   4.408  14.651
   39DOPE  C216 4975   2.461   4.555  14.730
   39DOPE  H16R 4976   2.529   4.569  14.816
   39DOPE  H16S 4977   2.382   4.484  14.761
   39DOPE  C217 4978   2.398   4.691  14.697
   39DOPE  H17R 4979   2.332   4.680  14.608
   39DOPE  H17S 4980   2.479   4.762  14.669
   39DOPE  C218 4981   2.317   4.749  14.813
   39DOPE  H18R 4982   2.272   4.847  14.784
   39DOPE  H18S 4983   2.382   4.765  14.902
   39DOPE  H18T 4984   2.235   4.680  14.841
   39DOPE   C33 4985   1.978   4.609  13.683
   39DOPE   H3X 4986   2.023   4.519  13.731
   39DOPE   H3Y 4987   1.874   4.583  13.657
   39DOPE   C34 4988   1.979   4.722  13.787
   39DOPE   H4X 4989   2.084   4.755  13.805
   39DOPE   H4Y 4990   1.922   4.809  13.748
   39DOPE   C35 4991   1.919   4.676  13.921
   39DOPE   H5X 4992   1.977   4.589  13.958
   39DOPE   H5Y 4993   1.814   4.642  13.903
   39DOPE   C36 4994   1.918   4.784  14.031
   39DOPE   H6X 4995   1.850   4.866  14.000
   39DOPE   H6Y 4996   2.020   4.826  14.042
   39DOPE   C37 4997   1.871   4.727  14.166
   39DOPE   H7X 4998   1.775   4.673  14.150
   39DOPE   H7Y 4999   1.945   4.651  14.201
   39DOPE   C38 5000   1.848   4.832  14.277
   39DOPE   H8X 5001   1.804   4.779  14.364
   39DOPE   H8Y 5002   1.771   4.903  14.241
   39DOPE   C39 5003   1.973   4.907  14.318
   39DOPE   H9X 5004   2.004   4.985  14.247
   39DOPE  C310 5005   2.045   4.889  14.430
   39DOPE  H10X 5006   2.133   4.953  14.447
   39DOPE  C311 5007   2.019   4.787  14.538
   39DOPE  H11X 5008   1.968   4.698  14.498
   39DOPE  H11Y 5009   2.116   4.752  14.580
   39DOPE  C312 5010   1.934   4.842  14.655
   39DOPE  H12X 5011   1.832   4.865  14.616
   39DOPE  H12Y 5012   1.977   4.937  14.694
   39DOPE  C313 5013   1.922   4.742  14.771
   39DOPE  H13X 5014   1.908   4.641  14.727
   39DOPE  H13Y 5015   2.018   4.739  14.827
   39DOPE  C314 5016   1.806   4.772  14.867
   39DOPE  H14X 5017   1.712   4.780  14.808
   39DOPE  H14Y 5018   1.825   4.870  14.915
   39DOPE  C315 5019   1.788   4.665  14.976
   39DOPE  H15X 5020   1.709   4.700  15.047
   39DOPE  H15Y 5021   1.883   4.655  15.033
   39DOPE  C316 5022   1.746   4.528  14.920
   39DOPE  H16X 5023   1.827   4.487  14.856
   39DOPE  H16Y 5024   1.657   4.542  14.856
   39DOPE  C317 5025   1.713   4.423  15.028
   39DOPE  H17X 5026   1.631   4.462  15.092
   39DOPE  H17Y 5027   1.674   4.332  14.977
   39DOPE  C318 5028   1.832   4.383  15.116
   39DOPE  H18X 5029   1.803   4.303  15.186
   39DOPE  H18Y 5030   1.915   4.346  15.053
   39DOPE  H18Z 5031   1.868   4.470  15.175
   40DOPE     N 5032   5.037   7.157  13.081
   40DOPE   HN1 5033   5.066   7.061  13.053
   40DOPE   HN2 5034   5.076   7.181  13.175
   40DOPE   HN3 5035   4.934   7.162  13.085
   40DOPE   C12 5036   5.081   7.256  12.976
   40DOPE  H12A 5037   5.111   7.198  12.886
   40DOPE  H12B 5038   5.169   7.312  13.014
   40DOPE   C11 5039   4.965   7.350  12.939
   40DOPE  H11A 5040   5.000   7.418  12.858
   40DOPE  H11B 5041   4.939   7.414  13.026
   40DOPE     P 5042   4.718   7.263  12.967
   40DOPE   O13 5043   4.634   7.163  12.900
   40DOPE   O14 5044   4.663   7.399  12.986
   40DOPE   O11 5045   4.771   7.204  13.105
   40DOPE   O12 5046   4.855   7.274  12.890
   40DOPE    C1 5047   4.678   7.135  13.190
   40DOPE    HA 5048   4.735   7.081  13.269
   40DOPE    HB 5049   4.620   7.058  13.134
   40DOPE    C2 5050   4.578   7.229  13.265
   40DOPE    HS 5051   4.518   7.282  13.188
   40DOPE   O21 5052   4.655   7.326  13.340
   40DOPE   C21 5053   4.586   7.429  13.385
   40DOPE   O22 5054   4.467   7.447  13.370
   40DOPE   C22 5055   4.680   7.526  13.456
   40DOPE   H2R 5056   4.619   7.609  13.498
   40DOPE   H2S 5057   4.747   7.568  13.377
   40DOPE    C3 5058   4.479   7.148  13.354
   40DOPE    HX 5059   4.422   7.082  13.286
   40DOPE    HY 5060   4.407   7.217  13.403
   40DOPE   O31 5061   4.549   7.069  13.453
   40DOPE   C31 5062   4.468   6.991  13.525
   40DOPE   O32 5063   4.348   6.981  13.508
   40DOPE   C32 5064   4.551   6.914  13.628
   40DOPE   H2X 5065   4.593   6.826  13.575
   40DOPE   H2Y 5066   4.635   6.978  13.662
   40DOPE   C23 5067   4.767   7.462  13.567
   40DOPE   H3R 5068   4.860   7.522  13.576
   40DOPE   H3S 5069   4.799   7.359  13.538
   40DOPE   C24 5070   4.702   7.459  13.706
   40DOPE   H4R 5071   4.685   7.564  13.740
   40DOPE   H4S 5072   4.774   7.413  13.777
   40DOPE   C25 5073   4.570   7.381  13.714
   40DOPE   H5R 5074   4.581   7.286  13.658
   40DOPE   H5S 5075   4.489   7.440  13.666
   40DOPE   C26 5076   4.529   7.347  13.859
   40DOPE   H6R 5077   4.603   7.276  13.900
   40DOPE   H6S 5078   4.430   7.295  13.856
   40DOPE   C27 5079   4.518   7.469  13.952
   40DOPE   H7R 5080   4.448   7.542  13.906
   40DOPE   H7S 5081   4.617   7.518  13.962
   40DOPE   C28 5082   4.465   7.434  14.093
   40DOPE   H8R 5083   4.366   7.384  14.081
   40DOPE   H8S 5084   4.446   7.529  14.147
   40DOPE   C29 5085   4.557   7.343  14.171
   40DOPE   H9R 5086   4.552   7.237  14.142
   40DOPE  C210 5087   4.643   7.378  14.269
   40DOPE  H10R 5088   4.702   7.299  14.318
   40DOPE  C211 5089   4.668   7.517  14.324
   40DOPE  H11R 5090   4.641   7.520  14.432
   40DOPE  H11S 5091   4.604   7.592  14.274
   40DOPE  C212 5092   4.814   7.563  14.307
   40DOPE  H12R 5093   4.821   7.669  14.341
   40DOPE  H12S 5094   4.840   7.561  14.199
   40DOPE  C213 5095   4.919   7.482  14.385
   40DOPE  H13R 5096   5.019   7.522  14.361
   40DOPE  H13S 5097   4.917   7.376  14.351
   40DOPE  C214 5098   4.901   7.486  14.538
   40DOPE  H14R 5099   4.804   7.437  14.565
   40DOPE  H14S 5100   4.896   7.592  14.571
   40DOPE  C215 5101   5.014   7.415  14.613
   40DOPE  H15R 5102   5.111   7.462  14.586
   40DOPE  H15S 5103   5.018   7.309  14.580
   40DOPE  C216 5104   4.997   7.421  14.766
   40DOPE  H16R 5105   4.900   7.376  14.794
   40DOPE  H16S 5106   4.994   7.528  14.796
   40DOPE  C217 5107   5.110   7.352  14.845
   40DOPE  H17R 5108   5.095   7.373  14.953
   40DOPE  H17S 5109   5.207   7.397  14.815
   40DOPE  C218 5110   5.116   7.200  14.826
   40DOPE  H18R 5111   5.196   7.156  14.889
   40DOPE  H18S 5112   5.138   7.174  14.720
   40DOPE  H18T 5113   5.019   7.153  14.854
   40DOPE   C33 5114   4.468   6.867  13.749
   40DOPE   H3X 5115   4.531   6.798  13.808
   40DOPE   H3Y 5116   4.378   6.810  13.717
   40DOPE   C34 5117   4.425   6.984  13.840
   40DOPE   H4X 5118   4.485   7.074  13.816
   40DOPE   H4Y 5119   4.318   7.008  13.818
   40DOPE   C35 5120   4.442   6.955  13.990
   40DOPE   H5X 5121   4.395   6.857  14.014
   40DOPE   H5Y 5122   4.387   7.033  14.048
   40DOPE   C36 5123   4.589   6.956  14.035
   40DOPE   H6X 5124   4.633   7.056  14.016
   40DOPE   H6Y 5125   4.646   6.882  13.974
   40DOPE   C37 5126   4.606   6.919  14.183
   40DOPE   H7X 5127   4.556   6.994  14.248
   40DOPE   H7Y 5128   4.555   6.821  14.200
   40DOPE   C38 5129   4.754   6.902  14.224
   40DOPE   H8X 5130   4.804   6.838  14.148
   40DOPE   H8Y 5131   4.756   6.845  14.319
   40DOPE   C39 5132   4.829   7.032  14.238
   40DOPE   H9X 5133   4.808   7.107  14.160
   40DOPE  C310 5134   4.918   7.063  14.334
   40DOPE  H10X 5135   4.966   7.162  14.333
   40DOPE  C311 5136   4.961   6.973  14.448
   40DOPE  H11X 5137   4.943   6.866  14.426
   40DOPE  H11Y 5138   5.071   6.983  14.462
   40DOPE  C312 5139   4.892   7.008  14.582
   40DOPE  H12X 5140   4.908   7.115  14.606
   40DOPE  H12Y 5141   4.941   6.949  14.662
   40DOPE  C313 5142   4.742   6.976  14.583
   40DOPE  H13X 5143   4.691   7.037  14.505
   40DOPE  H13Y 5144   4.728   6.870  14.555
   40DOPE  C314 5145   4.675   7.001  14.719
   40DOPE  H14X 5146   4.728   6.944  14.798
   40DOPE  H14Y 5147   4.571   6.962  14.714
   40DOPE  C315 5148   4.669   7.150  14.757
   40DOPE  H15X 5149   4.622   7.206  14.673
   40DOPE  H15Y 5150   4.772   7.189  14.770
   40DOPE  C316 5151   4.589   7.175  14.885
   40DOPE  H16X 5152   4.637   7.122  14.970
   40DOPE  H16Y 5153   4.487   7.133  14.873
   40DOPE  C317 5154   4.578   7.324  14.919
   40DOPE  H17X 5155   4.680   7.366  14.932
   40DOPE  H17Y 5156   4.532   7.377  14.833
   40DOPE  C318 5157   4.495   7.352  15.045
   40DOPE  H18X 5158   4.490   7.461  15.065
   40DOPE  H18Y 5159   4.392   7.313  15.032
   40DOPE  H18Z 5160   4.541   7.302  15.133
   41DOPE     N 5161   2.427   5.980  13.184
   41DOPE   HN1 5162   2.482   6.048  13.239
   41DOPE   HN2 5163   2.473   5.887  13.176
   41DOPE   HN3 5164   2.413   6.017  13.087
   41DOPE   C12 5165   2.287   5.967  13.237
   41DOPE  H12A 5166   2.259   6.065  13.281
   41DOPE  H12B 5167   2.286   5.890  13.316
   41DOPE   C11 5168   2.194   5.934  13.120
   41DOPE  H11A 5169   2.088   5.938  13.153
   41DOPE  H11B 5170   2.213   5.829  13.088
   41DOPE     P 5171   2.146   6.161  12.995
   41DOPE   O13 5172   2.003   6.143  13.025
   41DOPE   O14 5173   2.182   6.220  12.864
   41DOPE   O11 5174   2.217   6.241  13.112
   41DOPE   O12 5175   2.219   6.020  13.008
   41DOPE    C1 5176   2.323   6.333  13.081
   41DOPE    HA 5177   2.305   6.386  12.984
   41DOPE    HB 5178   2.419   6.279  13.071
   41DOPE    C2 5179   2.340   6.448  13.186
   41DOPE    HS 5180   2.436   6.500  13.165
   41DOPE   O21 5181   2.341   6.401  13.321
   41DOPE   C21 5182   2.414   6.302  13.364
   41DOPE   O22 5183   2.482   6.224  13.299
   41DOPE   C22 5184   2.403   6.303  13.517
   41DOPE   H2R 5185   2.298   6.328  13.544
   41DOPE   H2S 5186   2.468   6.386  13.553
   41DOPE    C3 5187   2.226   6.554  13.176
   41DOPE    HX 5188   2.231   6.598  13.074
   41DOPE    HY 5189   2.246   6.636  13.247
   41DOPE   O31 5190   2.094   6.497  13.194
   41DOPE   C31 5191   2.051   6.489  13.319
   41DOPE   O32 5192   2.105   6.539  13.416
   41DOPE   C32 5193   1.922   6.408  13.325
   41DOPE   H2X 5194   1.845   6.474  13.370
   41DOPE   H2Y 5195   1.890   6.381  13.222
   41DOPE   C23 5196   2.445   6.172  13.586
   41DOPE   H3R 5197   2.547   6.141  13.554
   41DOPE   H3S 5198   2.374   6.090  13.558
   41DOPE   C24 5199   2.444   6.191  13.738
   41DOPE   H4R 5200   2.348   6.238  13.767
   41DOPE   H4S 5201   2.525   6.261  13.766
   41DOPE   C25 5202   2.460   6.061  13.818
   41DOPE   H5R 5203   2.555   6.011  13.791
   41DOPE   H5S 5204   2.377   5.992  13.792
   41DOPE   C26 5205   2.457   6.089  13.969
   41DOPE   H6R 5206   2.366   6.147  13.993
   41DOPE   H6S 5207   2.545   6.152  13.996
   41DOPE   C27 5208   2.457   5.961  14.055
   41DOPE   H7R 5209   2.548   5.901  14.034
   41DOPE   H7S 5210   2.369   5.901  14.025
   41DOPE   C28 5211   2.445   5.992  14.206
   41DOPE   H8R 5212   2.414   5.899  14.257
   41DOPE   H8S 5213   2.362   6.065  14.219
   41DOPE   C29 5214   2.573   6.042  14.268
   41DOPE   H9R 5215   2.646   5.963  14.291
   41DOPE  C210 5216   2.607   6.170  14.295
   41DOPE  H10R 5217   2.705   6.189  14.340
   41DOPE  C211 5218   2.525   6.294  14.269
   41DOPE  H11R 5219   2.432   6.270  14.213
   41DOPE  H11S 5220   2.583   6.364  14.206
   41DOPE  C212 5221   2.485   6.368  14.399
   41DOPE  H12R 5222   2.422   6.301  14.461
   41DOPE  H12S 5223   2.423   6.456  14.370
   41DOPE  C213 5224   2.605   6.418  14.481
   41DOPE  H13R 5225   2.674   6.472  14.413
   41DOPE  H13S 5226   2.659   6.331  14.523
   41DOPE  C214 5227   2.566   6.512  14.596
   41DOPE  H14R 5228   2.523   6.605  14.554
   41DOPE  H14S 5229   2.659   6.540  14.651
   41DOPE  C215 5230   2.466   6.451  14.696
   41DOPE  H15R 5231   2.503   6.352  14.729
   41DOPE  H15S 5232   2.369   6.437  14.644
   41DOPE  C216 5233   2.446   6.540  14.820
   41DOPE  H16R 5234   2.418   6.642  14.787
   41DOPE  H16S 5235   2.544   6.548  14.873
   41DOPE  C217 5236   2.340   6.488  14.918
   41DOPE  H17R 5237   2.345   6.549  15.010
   41DOPE  H17S 5238   2.364   6.383  14.945
   41DOPE  C218 5239   2.196   6.494  14.863
   41DOPE  H18R 5240   2.170   6.598  14.834
   41DOPE  H18S 5241   2.124   6.460  14.941
   41DOPE  H18T 5242   2.185   6.429  14.774
   41DOPE   C33 5243   1.938   6.280  13.412
   41DOPE   H3X 5244   1.987   6.306  13.508
   41DOPE   H3Y 5245   2.005   6.209  13.358
   41DOPE   C34 5246   1.804   6.212  13.441
   41DOPE   H4X 5247   1.742   6.279  13.504
   41DOPE   H4Y 5248   1.750   6.198  13.345
   41DOPE   C35 5249   1.817   6.074  13.509
   41DOPE   H5X 5250   1.871   6.006  13.440
   41DOPE   H5Y 5251   1.715   6.033  13.524
   41DOPE   C36 5252   1.889   6.074  13.645
   41DOPE   H6X 5253   1.995   6.105  13.632
   41DOPE   H6Y 5254   1.891   5.969  13.683
   41DOPE   C37 5255   1.824   6.164  13.751
   41DOPE   H7X 5256   1.838   6.270  13.720
   41DOPE   H7Y 5257   1.714   6.146  13.753
   41DOPE   C38 5258   1.882   6.147  13.893
   41DOPE   H8X 5259   1.842   6.229  13.957
   41DOPE   H8Y 5260   1.992   6.161  13.888
   41DOPE   C39 5261   1.846   6.014  13.955
   41DOPE   H9X 5262   1.760   5.964  13.908
   41DOPE  C310 5263   1.909   5.954  14.058
   41DOPE  H10X 5264   1.871   5.857  14.092
   41DOPE  C311 5265   2.027   6.007  14.136
   41DOPE  H11X 5266   2.113   5.937  14.123
   41DOPE  H11Y 5267   2.061   6.106  14.099
   41DOPE  C312 5268   1.996   6.019  14.286
   41DOPE  H12X 5269   1.956   5.923  14.324
   41DOPE  H12Y 5270   1.919   6.097  14.302
   41DOPE  C313 5271   2.121   6.053  14.369
   41DOPE  H13X 5272   2.198   5.975  14.349
   41DOPE  H13Y 5273   2.163   6.150  14.335
   41DOPE  C314 5274   2.095   6.060  14.520
   41DOPE  H14X 5275   2.056   5.961  14.554
   41DOPE  H14Y 5276   2.015   6.135  14.539
   41DOPE  C315 5277   2.219   6.097  14.603
   41DOPE  H15X 5278   2.190   6.101  14.711
   41DOPE  H15Y 5279   2.254   6.198  14.574
   41DOPE  C316 5280   2.335   5.997  14.588
   41DOPE  H16X 5281   2.371   5.999  14.482
   41DOPE  H16Y 5282   2.299   5.895  14.610
   41DOPE  C317 5283   2.455   6.029  14.679
   41DOPE  H17X 5284   2.490   6.132  14.656
   41DOPE  H17Y 5285   2.421   6.028  14.784
   41DOPE  C318 5286   2.572   5.932  14.661
   41DOPE  H18X 5287   2.539   5.828  14.682
   41DOPE  H18Y 5288   2.610   5.936  14.557
   41DOPE  H18Z 5289   2.655   5.957  14.730
   42DOPE     N 5290   1.792   5.382  12.883
   42DOPE   HN1 5291   1.738   5.320  12.945
   42DOPE   HN2 5292   1.785   5.346  12.786
   42DOPE   HN3 5293   1.891   5.385  12.914
   42DOPE   C12 5294   1.721   5.514  12.894
   42DOPE  H12A 5295   1.780   5.592  12.840
   42DOPE  H12B 5296   1.715   5.540  13.002
   42DOPE   C11 5297   1.578   5.505  12.835
   42DOPE  H11A 5298   1.586   5.514  12.725
   42DOPE  H11B 5299   1.519   5.593  12.869
   42DOPE     P 5300   1.482   5.329  13.010
   42DOPE   O13 5301   1.616   5.295  13.064
   42DOPE   O14 5302   1.383   5.219  12.999
   42DOPE   O11 5303   1.421   5.453  13.086
   42DOPE   O12 5304   1.509   5.383  12.864
   42DOPE    C1 5305   1.301   5.514  13.035
   42DOPE    HA 5306   1.221   5.439  13.020
   42DOPE    HB 5307   1.321   5.562  12.937
   42DOPE    C2 5308   1.244   5.628  13.127
   42DOPE    HS 5309   1.207   5.710  13.063
   42DOPE   O21 5310   1.342   5.678  13.220
   42DOPE   C21 5311   1.449   5.733  13.169
   42DOPE   O22 5312   1.469   5.761  13.052
   42DOPE   C22 5313   1.546   5.763  13.284
   42DOPE   H2R 5314   1.487   5.778  13.377
   42DOPE   H2S 5315   1.599   5.858  13.260
   42DOPE    C3 5316   1.122   5.576  13.210
   42DOPE    HX 5317   1.047   5.537  13.139
   42DOPE    HY 5318   1.075   5.662  13.262
   42DOPE   O31 5319   1.161   5.469  13.300
   42DOPE   C31 5320   1.199   5.510  13.421
   42DOPE   O32 5321   1.178   5.620  13.468
   42DOPE   C32 5322   1.269   5.395  13.494
   42DOPE   H2X 5323   1.197   5.349  13.564
   42DOPE   H2Y 5324   1.297   5.319  13.418
   42DOPE   C23 5325   1.649   5.650  13.305
   42DOPE   H3R 5326   1.719   5.646  13.219
   42DOPE   H3S 5327   1.596   5.552  13.309
   42DOPE   C24 5328   1.728   5.667  13.435
   42DOPE   H4R 5329   1.656   5.670  13.520
   42DOPE   H4S 5330   1.781   5.764  13.433
   42DOPE   C25 5331   1.830   5.554  13.458
   42DOPE   H5R 5332   1.899   5.551  13.371
   42DOPE   H5S 5333   1.776   5.457  13.461
   42DOPE   C26 5334   1.913   5.569  13.587
   42DOPE   H6R 5335   1.962   5.669  13.587
   42DOPE   H6S 5336   1.993   5.492  13.585
   42DOPE   C27 5337   1.830   5.552  13.716
   42DOPE   H7R 5338   1.778   5.455  13.713
   42DOPE   H7S 5339   1.753   5.632  13.719
   42DOPE   C28 5340   1.914   5.562  13.845
   42DOPE   H8R 5341   1.844   5.562  13.931
   42DOPE   H8S 5342   1.966   5.660  13.847
   42DOPE   C29 5343   2.016   5.451  13.857
   42DOPE   H9R 5344   2.104   5.462  13.792
   42DOPE  C210 5345   2.008   5.341  13.935
   42DOPE  H10R 5346   2.090   5.269  13.933
   42DOPE  C211 5347   1.896   5.305  14.030
   42DOPE  H11R 5348   1.864   5.200  14.010
   42DOPE  H11S 5349   1.805   5.368  14.015
   42DOPE  C212 5350   1.940   5.316  14.177
   42DOPE  H12R 5351   1.962   5.422  14.201
   42DOPE  H12S 5352   2.033   5.257  14.192
   42DOPE  C213 5353   1.834   5.263  14.275
   42DOPE  H13R 5354   1.812   5.157  14.250
   42DOPE  H13S 5355   1.740   5.321  14.264
   42DOPE  C214 5356   1.882   5.271  14.421
   42DOPE  H14R 5357   1.891   5.378  14.450
   42DOPE  H14S 5358   1.984   5.225  14.427
   42DOPE  C215 5359   1.790   5.197  14.519
   42DOPE  H15R 5360   1.781   5.091  14.484
   42DOPE  H15S 5361   1.688   5.241  14.515
   42DOPE  C216 5362   1.843   5.196  14.663
   42DOPE  H16R 5363   1.948   5.158  14.661
   42DOPE  H16S 5364   1.783   5.125  14.723
   42DOPE  C217 5365   1.842   5.332  14.733
   42DOPE  H17R 5366   1.900   5.406  14.673
   42DOPE  H17S 5367   1.895   5.322  14.830
   42DOPE  C218 5368   1.701   5.387  14.759
   42DOPE  H18R 5369   1.645   5.316  14.823
   42DOPE  H18S 5370   1.646   5.400  14.664
   42DOPE  H18T 5371   1.706   5.485  14.811
   42DOPE   C33 5372   1.399   5.439  13.568
   42DOPE   H3X 5373   1.464   5.494  13.497
   42DOPE   H3Y 5374   1.454   5.348  13.599
   42DOPE   C34 5375   1.378   5.526  13.694
   42DOPE   H4X 5376   1.477   5.559  13.730
   42DOPE   H4Y 5377   1.321   5.617  13.667
   42DOPE   C35 5378   1.306   5.453  13.809
   42DOPE   H5X 5379   1.368   5.368  13.843
   42DOPE   H5Y 5380   1.210   5.411  13.770
   42DOPE   C36 5381   1.271   5.544  13.928
   42DOPE   H6X 5382   1.214   5.485  14.002
   42DOPE   H6Y 5383   1.203   5.625  13.892
   42DOPE   C37 5384   1.391   5.611  13.999
   42DOPE   H7X 5385   1.437   5.684  13.929
   42DOPE   H7Y 5386   1.352   5.668  14.085
   42DOPE   C38 5387   1.501   5.515  14.048
   42DOPE   H8X 5388   1.577   5.575  14.104
   42DOPE   H8Y 5389   1.554   5.473  13.960
   42DOPE   C39 5390   1.449   5.402  14.133
   42DOPE   H9X 5391   1.426   5.310  14.078
   42DOPE  C310 5392   1.425   5.404  14.266
   42DOPE  H10X 5393   1.386   5.313  14.313
   42DOPE  C311 5394   1.445   5.519  14.361
   42DOPE  H11X 5395   1.502   5.483  14.450
   42DOPE  H11Y 5396   1.504   5.602  14.317
   42DOPE  C312 5397   1.309   5.576  14.408
   42DOPE  H12X 5398   1.235   5.494  14.419
   42DOPE  H12Y 5399   1.270   5.643  14.328
   42DOPE  C313 5400   1.313   5.653  14.541
   42DOPE  H13X 5401   1.378   5.742  14.530
   42DOPE  H13Y 5402   1.210   5.690  14.560
   42DOPE  C314 5403   1.358   5.571  14.664
   42DOPE  H14X 5404   1.332   5.628  14.756
   42DOPE  H14Y 5405   1.468   5.560  14.661
   42DOPE  C315 5406   1.294   5.431  14.672
   42DOPE  H15X 5407   1.333   5.370  14.588
   42DOPE  H15Y 5408   1.184   5.440  14.659
   42DOPE  C316 5409   1.325   5.358  14.803
   42DOPE  H16X 5410   1.266   5.404  14.886
   42DOPE  H16Y 5411   1.432   5.371  14.828
   42DOPE  C317 5412   1.294   5.208  14.795
   42DOPE  H17X 5413   1.187   5.194  14.767
   42DOPE  H17Y 5414   1.355   5.164  14.714
   42DOPE  C318 5415   1.322   5.132  14.925
   42DOPE  H18X 5416   1.303   5.024  14.912
   42DOPE  H18Y 5417   1.427   5.147  14.957
   42DOPE  H18Z 5418   1.255   5.170  15.006
   43DOPE     N 5419   1.590   4.118  13.014
   43DOPE   HN1 5420   1.529   4.194  13.052
   43DOPE   HN2 5421   1.606   4.047  13.088
   43DOPE   HN3 5422   1.680   4.160  12.983
   43DOPE   C12 5423   1.516   4.054  12.900
   43DOPE  H12A 5424   1.586   3.984  12.850
   43DOPE  H12B 5425   1.488   4.134  12.829
   43DOPE   C11 5426   1.390   3.982  12.952
   43DOPE  H11A 5427   1.332   3.941  12.866
   43DOPE  H11B 5428   1.323   4.058  12.999
   43DOPE     P 5429   1.471   3.740  13.000
   43DOPE   O13 5430   1.611   3.753  12.956
   43DOPE   O14 5431   1.378   3.686  12.898
   43DOPE   O11 5432   1.462   3.647  13.127
   43DOPE   O12 5433   1.420   3.881  13.049
   43DOPE    C1 5434   1.342   3.635  13.204
   43DOPE    HA 5435   1.303   3.532  13.195
   43DOPE    HB 5436   1.262   3.704  13.169
   43DOPE    C2 5437   1.368   3.664  13.354
   43DOPE    HS 5438   1.416   3.764  13.359
   43DOPE   O21 5439   1.451   3.558  13.408
   43DOPE   C21 5440   1.547   3.599  13.489
   43DOPE   O22 5441   1.575   3.715  13.515
   43DOPE   C22 5442   1.625   3.479  13.542
   43DOPE   H2R 5443   1.717   3.519  13.589
   43DOPE   H2S 5444   1.654   3.416  13.455
   43DOPE    C3 5445   1.234   3.670  13.432
   43DOPE    HX 5446   1.182   3.573  13.418
   43DOPE    HY 5447   1.172   3.750  13.386
   43DOPE   O31 5448   1.255   3.695  13.573
   43DOPE   C31 5449   1.141   3.713  13.640
   43DOPE   O32 5450   1.030   3.712  13.589
   43DOPE   C32 5451   1.172   3.732  13.788
   43DOPE   H2X 5452   1.231   3.643  13.820
   43DOPE   H2Y 5453   1.235   3.823  13.799
   43DOPE   C23 5454   1.547   3.395  13.646
   43DOPE   H3R 5455   1.615   3.315  13.682
   43DOPE   H3S 5456   1.460   3.345  13.598
   43DOPE   C24 5457   1.499   3.477  13.766
   43DOPE   H4R 5458   1.409   3.535  13.737
   43DOPE   H4S 5459   1.578   3.550  13.795
   43DOPE   C25 5460   1.468   3.391  13.890
   43DOPE   H5R 5461   1.563   3.345  13.925
   43DOPE   H5S 5462   1.399   3.308  13.863
   43DOPE   C26 5463   1.405   3.473  14.004
   43DOPE   H6R 5464   1.298   3.490  13.979
   43DOPE   H6S 5465   1.453   3.573  14.007
   43DOPE   C27 5466   1.415   3.410  14.144
   43DOPE   H7R 5467   1.373   3.307  14.142
   43DOPE   H7S 5468   1.352   3.471  14.212
   43DOPE   C28 5469   1.560   3.409  14.198
   43DOPE   H8R 5470   1.605   3.507  14.173
   43DOPE   H8S 5471   1.618   3.333  14.141
   43DOPE   C29 5472   1.568   3.380  14.346
   43DOPE   H9R 5473   1.536   3.279  14.376
   43DOPE  C210 5474   1.609   3.468  14.440
   43DOPE  H10R 5475   1.611   3.436  14.546
   43DOPE  C211 5476   1.653   3.609  14.413
   43DOPE  H11R 5477   1.577   3.661  14.351
   43DOPE  H11S 5478   1.748   3.610  14.355
   43DOPE  C212 5479   1.674   3.693  14.541
   43DOPE  H12R 5480   1.589   3.680  14.611
   43DOPE  H12S 5481   1.675   3.800  14.512
   43DOPE  C213 5482   1.808   3.663  14.611
   43DOPE  H13R 5483   1.888   3.676  14.536
   43DOPE  H13S 5484   1.810   3.557  14.645
   43DOPE  C214 5485   1.839   3.757  14.729
   43DOPE  H14R 5486   1.821   3.862  14.696
   43DOPE  H14S 5487   1.947   3.748  14.755
   43DOPE  C215 5488   1.757   3.730  14.857
   43DOPE  H15R 5489   1.649   3.732  14.833
   43DOPE  H15S 5490   1.777   3.812  14.929
   43DOPE  C216 5491   1.793   3.597  14.925
   43DOPE  H16R 5492   1.903   3.591  14.937
   43DOPE  H16S 5493   1.761   3.512  14.860
   43DOPE  C217 5494   1.727   3.582  15.063
   43DOPE  H17R 5495   1.617   3.593  15.050
   43DOPE  H17S 5496   1.761   3.666  15.127
   43DOPE  C218 5497   1.757   3.449  15.132
   43DOPE  H18R 5498   1.717   3.364  15.072
   43DOPE  H18S 5499   1.712   3.446  15.233
   43DOPE  H18T 5500   1.867   3.435  15.142
   43DOPE   C33 5501   1.045   3.742  13.876
   43DOPE   H3X 5502   0.971   3.665  13.844
   43DOPE   H3Y 5503   0.997   3.842  13.860
   43DOPE   C34 5504   1.073   3.720  14.025
   43DOPE   H4X 5505   0.977   3.726  14.081
   43DOPE   H4Y 5506   1.115   3.618  14.040
   43DOPE   C35 5507   1.171   3.823  14.085
   43DOPE   H5X 5508   1.127   3.924  14.075
   43DOPE   H5Y 5509   1.266   3.821  14.028
   43DOPE   C36 5510   1.202   3.796  14.233
   43DOPE   H6X 5511   1.250   3.695  14.242
   43DOPE   H6Y 5512   1.108   3.793  14.291
   43DOPE   C37 5513   1.297   3.901  14.293
   43DOPE   H7X 5514   1.385   3.910  14.226
   43DOPE   H7Y 5515   1.246   4.000  14.295
   43DOPE   C38 5516   1.348   3.864  14.434
   43DOPE   H8X 5517   1.424   3.939  14.464
   43DOPE   H8Y 5518   1.402   3.767  14.426
   43DOPE   C39 5519   1.239   3.858  14.538
   43DOPE   H9X 5520   1.197   3.956  14.566
   43DOPE  C310 5521   1.188   3.748  14.596
   43DOPE  H10X 5522   1.107   3.760  14.670
   43DOPE  C311 5523   1.227   3.604  14.571
   43DOPE  H11X 5524   1.309   3.595  14.497
   43DOPE  H11Y 5525   1.264   3.559  14.666
   43DOPE  C312 5526   1.108   3.521  14.520
   43DOPE  H12X 5527   1.073   3.566  14.424
   43DOPE  H12Y 5528   1.023   3.527  14.592
   43DOPE  C313 5529   1.140   3.373  14.493
   43DOPE  H13X 5530   1.052   3.330  14.440
   43DOPE  H13Y 5531   1.227   3.364  14.426
   43DOPE  C314 5532   1.162   3.289  14.620
   43DOPE  H14X 5533   1.117   3.189  14.605
   43DOPE  H14Y 5534   1.109   3.336  14.706
   43DOPE  C315 5535   1.310   3.268  14.656
   43DOPE  H15X 5536   1.361   3.366  14.663
   43DOPE  H15Y 5537   1.359   3.211  14.574
   43DOPE  C316 5538   1.328   3.192  14.788
   43DOPE  H16X 5539   1.268   3.098  14.784
   43DOPE  H16Y 5540   1.288   3.253  14.872
   43DOPE  C317 5541   1.474   3.155  14.819
   43DOPE  H17X 5542   1.476   3.094  14.912
   43DOPE  H17Y 5543   1.513   3.090  14.737
   43DOPE  C318 5544   1.567   3.275  14.836
   43DOPE  H18X 5545   1.670   3.242  14.864
   43DOPE  H18Y 5546   1.574   3.334  14.742
   43DOPE  H18Z 5547   1.529   3.342  14.917
   44DOPE     N 5548   3.962   1.321  12.917
   44DOPE   HN1 5549   4.064   1.322  12.939
   44DOPE   HN2 5550   3.951   1.332  12.814
   44DOPE   HN3 5551   3.915   1.401  12.963
   44DOPE   C12 5552   3.899   1.192  12.962
   44DOPE  H12A 5553   3.915   1.184  13.072
   44DOPE  H12B 5554   3.952   1.108  12.912
   44DOPE   C11 5555   3.750   1.189  12.928
   44DOPE  H11A 5556   3.737   1.204  12.818
   44DOPE  H11B 5557   3.695   1.272  12.978
   44DOPE     P 5558   3.639   1.030  13.105
   44DOPE   O13 5559   3.585   0.893  13.105
   44DOPE   O14 5560   3.549   1.141  13.144
   44DOPE   O11 5561   3.774   1.039  13.188
   44DOPE   O12 5562   3.695   1.062  12.960
   44DOPE    C1 5563   3.825   0.930  13.266
   44DOPE    HA 5564   3.930   0.954  13.293
   44DOPE    HB 5565   3.827   0.835  13.209
   44DOPE    C2 5566   3.749   0.909  13.400
   44DOPE    HS 5567   3.658   0.849  13.375
   44DOPE   O21 5568   3.709   1.038  13.450
   44DOPE   C21 5569   3.622   1.038  13.547
   44DOPE   O22 5570   3.565   0.942  13.595
   44DOPE   C22 5571   3.602   1.183  13.593
   44DOPE   H2R 5572   3.521   1.184  13.668
   44DOPE   H2S 5573   3.570   1.241  13.504
   44DOPE    C3 5574   3.831   0.829  13.507
   44DOPE    HX 5575   3.884   0.745  13.456
   44DOPE    HY 5576   3.758   0.785  13.578
   44DOPE   O31 5577   3.926   0.915  13.575
   44DOPE   C31 5578   3.967   0.870  13.693
   44DOPE   O32 5579   3.948   0.758  13.737
   44DOPE   C32 5580   4.036   0.984  13.769
   44DOPE   H2X 5581   4.104   1.037  13.700
   44DOPE   H2Y 5582   3.956   1.055  13.800
   44DOPE   C23 5583   3.732   1.243  13.651
   44DOPE   H3R 5584   3.816   1.232  13.579
   44DOPE   H3S 5585   3.760   1.188  13.743
   44DOPE   C24 5586   3.715   1.392  13.682
   44DOPE   H4R 5587   3.627   1.405  13.749
   44DOPE   H4S 5588   3.693   1.446  13.587
   44DOPE   C25 5589   3.837   1.459  13.748
   44DOPE   H5R 5590   3.813   1.566  13.766
   44DOPE   H5S 5591   3.923   1.455  13.678
   44DOPE   C26 5592   3.881   1.397  13.882
   44DOPE   H6R 5593   3.958   1.463  13.928
   44DOPE   H6S 5594   3.928   1.298  13.864
   44DOPE   C27 5595   3.766   1.379  13.983
   44DOPE   H7R 5596   3.693   1.307  13.939
   44DOPE   H7S 5597   3.713   1.476  13.996
   44DOPE   C28 5598   3.812   1.326  14.119
   44DOPE   H8R 5599   3.873   1.404  14.170
   44DOPE   H8S 5600   3.878   1.238  14.103
   44DOPE   C29 5601   3.692   1.284  14.202
   44DOPE   H9R 5602   3.643   1.192  14.166
   44DOPE  C210 5603   3.641   1.346  14.309
   44DOPE  H10R 5604   3.552   1.302  14.356
   44DOPE  C211 5605   3.690   1.472  14.376
   44DOPE  H11R 5606   3.606   1.545  14.383
   44DOPE  H11S 5607   3.770   1.522  14.317
   44DOPE  C212 5608   3.744   1.446  14.518
   44DOPE  H12R 5609   3.781   1.542  14.561
   44DOPE  H12S 5610   3.830   1.377  14.511
   44DOPE  C213 5611   3.639   1.386  14.614
   44DOPE  H13R 5612   3.602   1.291  14.570
   44DOPE  H13S 5613   3.553   1.455  14.623
   44DOPE  C214 5614   3.696   1.355  14.753
   44DOPE  H14R 5615   3.723   1.451  14.803
   44DOPE  H14S 5616   3.789   1.296  14.741
   44DOPE  C215 5617   3.601   1.275  14.844
   44DOPE  H15R 5618   3.509   1.335  14.863
   44DOPE  H15S 5619   3.652   1.261  14.941
   44DOPE  C216 5620   3.562   1.137  14.788
   44DOPE  H16R 5621   3.567   1.062  14.869
   44DOPE  H16S 5622   3.638   1.107  14.712
   44DOPE  C217 5623   3.421   1.130  14.726
   44DOPE  H17R 5624   3.413   1.035  14.668
   44DOPE  H17S 5625   3.409   1.213  14.654
   44DOPE  C218 5626   3.307   1.134  14.828
   44DOPE  H18R 5627   3.315   1.049  14.899
   44DOPE  H18S 5628   3.209   1.128  14.776
   44DOPE  H18T 5629   3.309   1.228  14.886
   44DOPE   C33 5630   4.112   0.935  13.895
   44DOPE   H3X 5631   4.203   0.879  13.864
   44DOPE   H3Y 5632   4.049   0.865  13.953
   44DOPE   C34 5633   4.153   1.050  13.990
   44DOPE   H4X 5634   4.061   1.093  14.034
   44DOPE   H4Y 5635   4.213   1.007  14.074
   44DOPE   C35 5636   4.234   1.162  13.923
   44DOPE   H5X 5637   4.170   1.215  13.851
   44DOPE   H5Y 5638   4.318   1.117  13.866
   44DOPE   C36 5639   4.293   1.265  14.022
   44DOPE   H6X 5640   4.339   1.347  13.963
   44DOPE   H6Y 5641   4.373   1.216  14.082
   44DOPE   C37 5642   4.189   1.324  14.118
   44DOPE   H7X 5643   4.101   1.358  14.060
   44DOPE   H7Y 5644   4.154   1.244  14.187
   44DOPE   C38 5645   4.243   1.442  14.201
   44DOPE   H8X 5646   4.267   1.526  14.133
   44DOPE   H8Y 5647   4.340   1.411  14.247
   44DOPE   C39 5648   4.145   1.486  14.307
   44DOPE   H9X 5649   4.076   1.566  14.276
   44DOPE  C310 5650   4.134   1.434  14.431
   44DOPE  H10X 5651   4.057   1.474  14.498
   44DOPE  C311 5652   4.219   1.322  14.487
   44DOPE  H11X 5653   4.295   1.289  14.414
   44DOPE  H11Y 5654   4.274   1.358  14.576
   44DOPE  C312 5655   4.138   1.197  14.525
   44DOPE  H12X 5656   4.209   1.112  14.532
   44DOPE  H12Y 5657   4.065   1.172  14.445
   44DOPE  C313 5658   4.066   1.209  14.661
   44DOPE  H13X 5659   4.142   1.225  14.740
   44DOPE  H13Y 5660   4.000   1.298  14.659
   44DOPE  C314 5661   3.981   1.086  14.697
   44DOPE  H14X 5662   3.899   1.075  14.623
   44DOPE  H14Y 5663   3.934   1.104  14.796
   44DOPE  C315 5664   4.060   0.954  14.703
   44DOPE  H15X 5665   4.149   0.967  14.769
   44DOPE  H15Y 5666   4.098   0.931  14.601
   44DOPE  C316 5667   3.978   0.834  14.751
   44DOPE  H16X 5668   4.036   0.741  14.731
   44DOPE  H16Y 5669   3.884   0.827  14.693
   44DOPE  C317 5670   3.945   0.837  14.901
   44DOPE  H17X 5671   4.040   0.849  14.958
   44DOPE  H17Y 5672   3.882   0.926  14.923
   44DOPE  C318 5673   3.874   0.711  14.951
   44DOPE  H18X 5674   3.777   0.698  14.897
   44DOPE  H18Y 5675   3.937   0.621  14.932
   44DOPE  H18Z 5676   3.853   0.718  15.060
   45DOPE     N 5677   4.946   0.937  12.707
   45DOPE   HN1 5678   4.992   0.972  12.620
   45DOPE   HN2 5679   5.023   0.917  12.774
   45DOPE   HN3 5680   4.899   0.846  12.686
   45DOPE   C12 5681   4.848   1.040  12.756
   45DOPE  H12A 5682   4.785   1.069  12.669
   45DOPE  H12B 5683   4.905   1.129  12.790
   45DOPE   C11 5684   4.759   0.985  12.869
   45DOPE  H11A 5685   4.818   0.968  12.961
   45DOPE  H11B 5686   4.720   0.886  12.837
   45DOPE     P 5687   4.659   1.198  12.986
   45DOPE   O13 5688   4.522   1.246  13.017
   45DOPE   O14 5689   4.751   1.291  12.918
   45DOPE   O11 5690   4.727   1.136  13.115
   45DOPE   O12 5691   4.646   1.070  12.891
   45DOPE    C1 5692   4.645   1.095  13.225
   45DOPE    HA 5693   4.695   1.013  13.280
   45DOPE    HB 5694   4.547   1.054  13.191
   45DOPE    C2 5695   4.619   1.211  13.325
   45DOPE    HS 5696   4.607   1.304  13.265
   45DOPE   O21 5697   4.734   1.220  13.412
   45DOPE   C21 5698   4.746   1.336  13.476
   45DOPE   O22 5699   4.668   1.429  13.470
   45DOPE   C22 5700   4.876   1.333  13.556
   45DOPE   H2R 5701   4.957   1.301  13.487
   45DOPE   H2S 5702   4.865   1.258  13.637
   45DOPE    C3 5703   4.487   1.188  13.404
   45DOPE    HX 5704   4.403   1.196  13.331
   45DOPE    HY 5705   4.476   1.270  13.478
   45DOPE   O31 5706   4.487   1.058  13.465
   45DOPE   C31 5707   4.400   1.044  13.564
   45DOPE   O32 5708   4.320   1.129  13.600
   45DOPE   C32 5709   4.414   0.905  13.626
   45DOPE   H2X 5710   4.316   0.881  13.673
   45DOPE   H2Y 5711   4.433   0.832  13.545
   45DOPE   C23 5712   4.912   1.471  13.616
   45DOPE   H3R 5713   4.841   1.497  13.698
   45DOPE   H3S 5714   4.901   1.549  13.537
   45DOPE   C24 5715   5.057   1.479  13.667
   45DOPE   H4R 5716   5.079   1.583  13.697
   45DOPE   H4S 5717   5.125   1.455  13.583
   45DOPE   C25 5718   5.089   1.385  13.785
   45DOPE   H5R 5719   5.197   1.395  13.808
   45DOPE   H5S 5720   5.073   1.279  13.753
   45DOPE   C26 5721   5.010   1.411  13.914
   45DOPE   H6R 5722   5.047   1.342  13.993
   45DOPE   H6S 5723   4.903   1.386  13.897
   45DOPE   C27 5724   5.021   1.556  13.965
   45DOPE   H7R 5725   4.966   1.623  13.895
   45DOPE   H7S 5726   5.128   1.585  13.962
   45DOPE   C28 5727   4.969   1.577  14.108
   45DOPE   H8R 5728   4.982   1.684  14.134
   45DOPE   H8S 5729   5.033   1.518  14.177
   45DOPE   C29 5730   4.824   1.538  14.125
   45DOPE   H9R 5731   4.766   1.531  14.032
   45DOPE  C210 5732   4.763   1.511  14.242
   45DOPE  H10R 5733   4.658   1.481  14.241
   45DOPE  C211 5734   4.828   1.516  14.378
   45DOPE  H11R 5735   4.754   1.553  14.453
   45DOPE  H11S 5736   4.912   1.589  14.380
   45DOPE  C212 5737   4.883   1.380  14.427
   45DOPE  H12R 5738   4.924   1.394  14.529
   45DOPE  H12S 5739   4.968   1.350  14.361
   45DOPE  C213 5740   4.781   1.265  14.431
   45DOPE  H13R 5741   4.833   1.174  14.470
   45DOPE  H13S 5742   4.749   1.241  14.327
   45DOPE  C214 5743   4.657   1.292  14.516
   45DOPE  H14R 5744   4.604   1.380  14.474
   45DOPE  H14S 5745   4.687   1.318  14.620
   45DOPE  C215 5746   4.559   1.174  14.518
   45DOPE  H15R 5747   4.548   1.135  14.415
   45DOPE  H15S 5748   4.459   1.210  14.551
   45DOPE  C216 5749   4.599   1.059  14.612
   45DOPE  H16R 5750   4.709   1.040  14.604
   45DOPE  H16S 5751   4.547   0.967  14.580
   45DOPE  C217 5752   4.563   1.086  14.759
   45DOPE  H17R 5753   4.453   1.103  14.766
   45DOPE  H17S 5754   4.613   1.179  14.793
   45DOPE  C218 5755   4.602   0.971  14.852
   45DOPE  H18R 5756   4.712   0.962  14.859
   45DOPE  H18S 5757   4.561   0.875  14.814
   45DOPE  H18T 5758   4.562   0.988  14.954
   45DOPE   C33 5759   4.526   0.899  13.732
   45DOPE   H3X 5760   4.519   0.802  13.785
   45DOPE   H3Y 5761   4.512   0.979  13.808
   45DOPE   C34 5762   4.666   0.910  13.670
   45DOPE   H4X 5763   4.676   0.832  13.591
   45DOPE   H4Y 5764   4.678   1.008  13.620
   45DOPE   C35 5765   4.782   0.891  13.770
   45DOPE   H5X 5766   4.876   0.890  13.710
   45DOPE   H5Y 5767   4.774   0.792  13.819
   45DOPE   C36 5768   4.795   1.004  13.874
   45DOPE   H6X 5769   4.746   1.096  13.835
   45DOPE   H6Y 5770   4.903   1.028  13.885
   45DOPE   C37 5771   4.740   0.972  14.014
   45DOPE   H7X 5772   4.760   1.059  14.080
   45DOPE   H7Y 5773   4.629   0.961  14.008
   45DOPE   C38 5774   4.797   0.845  14.083
   45DOPE   H8X 5775   4.754   0.756  14.033
   45DOPE   H8Y 5776   4.760   0.843  14.187
   45DOPE   C39 5777   4.948   0.837  14.079
   45DOPE   H9X 5778   4.988   0.790  13.988
   45DOPE  C310 5779   5.034   0.882  14.172
   45DOPE  H10X 5780   5.142   0.868  14.155
   45DOPE  C311 5781   4.999   0.951  14.301
   45DOPE  H11X 5782   5.051   1.049  14.305
   45DOPE  H11Y 5783   4.891   0.973  14.309
   45DOPE  C312 5784   5.041   0.867  14.424
   45DOPE  H12X 5785   5.149   0.843  14.419
   45DOPE  H12Y 5786   4.985   0.771  14.421
   45DOPE  C313 5787   5.012   0.936  14.558
   45DOPE  H13X 5788   4.906   0.969  14.559
   45DOPE  H13Y 5789   5.026   0.862  14.640
   45DOPE  C314 5790   5.104   1.057  14.586
   45DOPE  H14X 5791   5.101   1.127  14.499
   45DOPE  H14Y 5792   5.208   1.021  14.596
   45DOPE  C315 5793   5.065   1.137  14.711
   45DOPE  H15X 5794   4.967   1.185  14.695
   45DOPE  H15Y 5795   5.140   1.217  14.726
   45DOPE  C316 5796   5.058   1.052  14.839
   45DOPE  H16X 5797   5.150   0.990  14.847
   45DOPE  H16Y 5798   4.971   0.983  14.833
   45DOPE  C317 5799   5.045   1.138  14.966
   45DOPE  H17X 5800   5.137   1.200  14.976
   45DOPE  H17Y 5801   4.959   1.208  14.953
   45DOPE  C318 5802   5.025   1.055  15.093
   45DOPE  H18X 5803   5.029   1.120  15.183
   45DOPE  H18Y 5804   4.926   1.005  15.090
   45DOPE  H18Z 5805   5.104   0.978  15.102
   46DOPE     N 5806   5.221   8.025  13.038
   46DOPE   HN1 5807   5.140   8.042  12.974
   46DOPE   HN2 5808   5.203   8.058  13.134
   46DOPE   HN3 5809   5.301   8.079  12.999
   46DOPE   C12 5810   5.268   7.882  13.033
   46DOPE  H12A 5811   5.287   7.857  12.926
   46DOPE  H12B 5812   5.186   7.816  13.071
   46DOPE   C11 5813   5.397   7.864  13.115
   46DOPE  H11A 5814   5.448   7.769  13.087
   46DOPE  H11B 5815   5.370   7.854  13.222
   46DOPE     P 5816   5.548   8.018  12.964
   46DOPE   O13 5817   5.443   8.104  12.903
   46DOPE   O14 5818   5.586   7.895  12.891
   46DOPE   O11 5819   5.675   8.102  13.005
   46DOPE   O12 5820   5.487   7.974  13.103
   46DOPE    C1 5821   5.803   8.039  13.011
   46DOPE    HA 5822   5.882   8.118  13.010
   46DOPE    HB 5823   5.821   7.978  12.920
   46DOPE    C2 5824   5.823   7.952  13.139
   46DOPE    HS 5825   5.725   7.925  13.182
   46DOPE   O21 5826   5.907   8.024  13.231
   46DOPE   C21 5827   5.842   8.100  13.318
   46DOPE   O22 5828   5.723   8.098  13.341
   46DOPE   C22 5829   5.942   8.195  13.385
   46DOPE   H2R 5830   5.884   8.281  13.425
   46DOPE   H2S 5831   6.011   8.232  13.306
   46DOPE    C3 5832   5.893   7.818  13.101
   46DOPE    HX 5833   5.993   7.845  13.061
   46DOPE    HY 5834   5.838   7.770  13.018
   46DOPE   O31 5835   5.910   7.731  13.215
   46DOPE   C31 5836   5.805   7.653  13.242
   46DOPE   O32 5837   5.703   7.648  13.175
   46DOPE   C32 5838   5.836   7.569  13.366
   46DOPE   H2X 5839   5.841   7.463  13.331
   46DOPE   H2Y 5840   5.935   7.597  13.407
   46DOPE   C23 5841   6.023   8.128  13.498
   46DOPE   H3R 5842   6.100   8.201  13.532
   46DOPE   H3S 5843   6.077   8.039  13.460
   46DOPE   C24 5844   5.936   8.089  13.619
   46DOPE   H4R 5845   5.871   8.004  13.589
   46DOPE   H4S 5846   5.869   8.173  13.647
   46DOPE   C25 5847   6.018   8.047  13.742
   46DOPE   H5R 5848   6.096   7.975  13.709
   46DOPE   H5S 5849   5.952   7.993  13.813
   46DOPE   C26 5850   6.084   8.165  13.815
   46DOPE   H6R 5851   6.088   8.253  13.746
   46DOPE   H6S 5852   6.189   8.138  13.841
   46DOPE   C27 5853   6.013   8.208  13.944
   46DOPE   H7R 5854   5.904   8.218  13.925
   46DOPE   H7S 5855   6.052   8.308  13.973
   46DOPE   C28 5856   6.039   8.111  14.061
   46DOPE   H8R 5857   6.149   8.097  14.071
   46DOPE   H8S 5858   5.998   8.011  14.034
   46DOPE   C29 5859   5.978   8.160  14.189
   46DOPE   H9R 5860   5.868   8.159  14.191
   46DOPE  C210 5861   6.044   8.202  14.298
   46DOPE  H10R 5862   5.986   8.236  14.386
   46DOPE  C211 5863   6.194   8.211  14.313
   46DOPE  H11R 5864   6.239   8.243  14.217
   46DOPE  H11S 5865   6.237   8.111  14.337
   46DOPE  C212 5866   6.241   8.311  14.421
   46DOPE  H12R 5867   6.176   8.401  14.421
   46DOPE  H12S 5868   6.343   8.345  14.393
   46DOPE  C213 5869   6.251   8.254  14.564
   46DOPE  H13R 5870   6.287   8.335  14.631
   46DOPE  H13S 5871   6.328   8.174  14.564
   46DOPE  C214 5872   6.121   8.196  14.621
   46DOPE  H14R 5873   6.091   8.109  14.558
   46DOPE  H14S 5874   6.040   8.272  14.614
   46DOPE  C215 5875   6.133   8.148  14.766
   46DOPE  H15R 5876   6.223   8.084  14.776
   46DOPE  H15S 5877   6.045   8.085  14.789
   46DOPE  C216 5878   6.138   8.263  14.868
   46DOPE  H16R 5879   6.051   8.330  14.849
   46DOPE  H16S 5880   6.230   8.322  14.854
   46DOPE  C217 5881   6.130   8.214  15.014
   46DOPE  H17R 5882   6.038   8.152  15.026
   46DOPE  H17S 5883   6.118   8.303  15.080
   46DOPE  C218 5884   6.252   8.135  15.061
   46DOPE  H18R 5885   6.241   8.105  15.167
   46DOPE  H18S 5886   6.344   8.196  15.051
   46DOPE  H18T 5887   6.264   8.043  15.000
   46DOPE   C33 5888   5.728   7.578  13.476
   46DOPE   H3X 5889   5.745   7.493  13.546
   46DOPE   H3Y 5890   5.626   7.564  13.433
   46DOPE   C34 5891   5.734   7.707  13.559
   46DOPE   H4X 5892   5.838   7.723  13.594
   46DOPE   H4Y 5893   5.706   7.794  13.496
   46DOPE   C35 5894   5.642   7.700  13.683
   46DOPE   H5X 5895   5.669   7.610  13.741
   46DOPE   H5Y 5896   5.537   7.688  13.649
   46DOPE   C36 5897   5.651   7.822  13.776
   46DOPE   H6X 5898   5.756   7.838  13.806
   46DOPE   H6Y 5899   5.593   7.800  13.868
   46DOPE   C37 5900   5.595   7.952  13.714
   46DOPE   H7X 5901   5.657   7.978  13.626
   46DOPE   H7Y 5902   5.492   7.934  13.677
   46DOPE   C38 5903   5.597   8.071  13.813
   46DOPE   H8X 5904   5.585   8.164  13.753
   46DOPE   H8Y 5905   5.697   8.076  13.860
   46DOPE   C39 5906   5.485   8.064  13.914
   46DOPE   H9X 5907   5.385   8.075  13.871
   46DOPE  C310 5908   5.496   8.044  14.047
   46DOPE  H10X 5909   5.404   8.041  14.107
   46DOPE  C311 5910   5.622   8.023  14.127
   46DOPE  H11X 5911   5.709   7.999  14.061
   46DOPE  H11Y 5912   5.648   8.116  14.181
   46DOPE  C312 5913   5.606   7.910  14.230
   46DOPE  H12X 5914   5.580   7.815  14.179
   46DOPE  H12Y 5915   5.522   7.936  14.298
   46DOPE  C313 5916   5.731   7.887  14.317
   46DOPE  H13X 5917   5.769   7.985  14.354
   46DOPE  H13Y 5918   5.703   7.826  14.405
   46DOPE  C314 5919   5.844   7.813  14.243
   46DOPE  H14X 5920   5.866   7.867  14.148
   46DOPE  H14Y 5921   5.809   7.711  14.216
   46DOPE  C315 5922   5.975   7.803  14.323
   46DOPE  H15X 5923   6.012   7.905  14.347
   46DOPE  H15Y 5924   6.051   7.755  14.258
   46DOPE  C316 5925   5.962   7.721  14.452
   46DOPE  H16X 5926   5.909   7.626  14.429
   46DOPE  H16Y 5927   5.900   7.777  14.526
   46DOPE  C317 5928   6.097   7.687  14.517
   46DOPE  H17X 5929   6.079   7.617  14.601
   46DOPE  H17Y 5930   6.159   7.632  14.442
   46DOPE  C318 5931   6.176   7.808  14.568
   46DOPE  H18X 5932   6.116   7.865  14.642
   46DOPE  H18Y 5933   6.270   7.775  14.616
   46DOPE  H18Z 5934   6.202   7.876  14.484
   47DOPE     N 5935   1.831   7.437  13.113
   47DOPE   HN1 5936   1.745   7.460  13.058
   47DOPE   HN2 5937   1.798   7.378  13.192
   47DOPE   HN3 5938   1.876   7.525  13.147
   47DOPE   C12 5939   1.924   7.356  13.027
   47DOPE  H12A 5940   2.027   7.370  13.067
   47DOPE  H12B 5941   1.918   7.397  12.924
   47DOPE   C11 5942   1.894   7.205  13.028
   47DOPE  H11A 5943   1.921   7.164  13.128
   47DOPE  H11B 5944   1.962   7.155  12.956
   47DOPE     P 5945   1.650   7.152  13.104
   47DOPE   O13 5946   1.522   7.196  13.044
   47DOPE   O14 5947   1.696   7.228  13.222
   47DOPE   O11 5948   1.656   6.996  13.129
   47DOPE   O12 5949   1.758   7.176  12.991
   47DOPE    C1 5950   1.647   6.905  13.018
   47DOPE    HA 5951   1.717   6.934  12.937
   47DOPE    HB 5952   1.544   6.906  12.977
   47DOPE    C2 5953   1.682   6.757  13.056
   47DOPE    HS 5954   1.668   6.695  12.965
   47DOPE   O21 5955   1.600   6.709  13.164
   47DOPE   C21 5956   1.476   6.680  13.133
   47DOPE   O22 5957   1.427   6.679  13.021
   47DOPE   C22 5958   1.402   6.637  13.260
   47DOPE   H2R 5959   1.469   6.566  13.314
   47DOPE   H2S 5960   1.310   6.583  13.230
   47DOPE    C3 5961   1.831   6.738  13.099
   47DOPE    HX 5962   1.896   6.781  13.020
   47DOPE    HY 5963   1.851   6.629  13.101
   47DOPE   O31 5964   1.855   6.791  13.231
   47DOPE   C31 5965   1.934   6.897  13.240
   47DOPE   O32 5966   2.011   6.936  13.154
   47DOPE   C32 5967   1.912   6.967  13.375
   47DOPE   H2X 5968   2.009   6.968  13.429
   47DOPE   H2Y 5969   1.884   7.072  13.351
   47DOPE   C23 5970   1.368   6.756  13.352
   47DOPE   H3R 5971   1.288   6.817  13.305
   47DOPE   H3S 5972   1.457   6.821  13.365
   47DOPE   C24 5973   1.322   6.710  13.492
   47DOPE   H4R 5974   1.407   6.658  13.541
   47DOPE   H4S 5975   1.240   6.636  13.482
   47DOPE   C25 5976   1.276   6.827  13.579
   47DOPE   H5R 5977   1.184   6.870  13.536
   47DOPE   H5S 5978   1.354   6.906  13.579
   47DOPE   C26 5979   1.249   6.786  13.725
   47DOPE   H6R 5980   1.344   6.747  13.769
   47DOPE   H6S 5981   1.175   6.703  13.727
   47DOPE   C27 5982   1.197   6.903  13.809
   47DOPE   H7R 5983   1.104   6.940  13.761
   47DOPE   H7S 5984   1.271   6.986  13.807
   47DOPE   C28 5985   1.164   6.866  13.955
   47DOPE   H8R 5986   1.101   6.774  13.954
   47DOPE   H8S 5987   1.100   6.946  13.997
   47DOPE   C29 5988   1.288   6.843  14.039
   47DOPE   H9R 5989   1.356   6.767  14.000
   47DOPE  C210 5990   1.321   6.907  14.153
   47DOPE  H10R 5991   1.416   6.880  14.203
   47DOPE  C211 5992   1.243   7.016  14.223
   47DOPE  H11R 5993   1.189   6.973  14.311
   47DOPE  H11S 5994   1.166   7.060  14.157
   47DOPE  C212 5995   1.331   7.132  14.274
   47DOPE  H12R 5996   1.264   7.214  14.306
   47DOPE  H12S 5997   1.394   7.172  14.191
   47DOPE  C213 5998   1.421   7.095  14.393
   47DOPE  H13R 5999   1.504   7.029  14.360
   47DOPE  H13S 6000   1.359   7.037  14.466
   47DOPE  C214 6001   1.477   7.219  14.465
   47DOPE  H14R 6002   1.392   7.286  14.489
   47DOPE  H14S 6003   1.545   7.274  14.396
   47DOPE  C215 6004   1.552   7.182  14.594
   47DOPE  H15R 6005   1.647   7.131  14.565
   47DOPE  H15S 6006   1.492   7.109  14.652
   47DOPE  C216 6007   1.584   7.302  14.684
   47DOPE  H16R 6008   1.631   7.383  14.623
   47DOPE  H16S 6009   1.659   7.270  14.760
   47DOPE  C217 6010   1.461   7.357  14.758
   47DOPE  H17R 6011   1.414   7.275  14.815
   47DOPE  H17S 6012   1.387   7.393  14.684
   47DOPE  C218 6013   1.495   7.472  14.854
   47DOPE  H18R 6014   1.539   7.557  14.798
   47DOPE  H18S 6015   1.568   7.438  14.930
   47DOPE  H18T 6016   1.403   7.507  14.905
   47DOPE   C33 6017   1.801   6.906  13.463
   47DOPE   H3X 6018   1.832   6.804  13.496
   47DOPE   H3Y 6019   1.708   6.895  13.404
   47DOPE   C34 6020   1.769   6.993  13.586
   47DOPE   H4X 6021   1.863   7.011  13.643
   47DOPE   H4Y 6022   1.732   7.091  13.551
   47DOPE   C35 6023   1.664   6.929  13.678
   47DOPE   H5X 6024   1.706   6.836  13.722
   47DOPE   H5Y 6025   1.577   6.898  13.615
   47DOPE   C36 6026   1.613   7.021  13.789
   47DOPE   H6X 6027   1.537   6.967  13.850
   47DOPE   H6Y 6028   1.561   7.106  13.740
   47DOPE   C37 6029   1.720   7.080  13.884
   47DOPE   H7X 6030   1.802   7.127  13.825
   47DOPE   H7Y 6031   1.671   7.163  13.940
   47DOPE   C38 6032   1.777   6.983  13.989
   47DOPE   H8X 6033   1.691   6.935  14.041
   47DOPE   H8Y 6034   1.829   7.044  14.065
   47DOPE   C39 6035   1.875   6.882  13.934
   47DOPE   H9X 6036   1.952   6.924  13.869
   47DOPE  C310 6037   1.873   6.749  13.956
   47DOPE  H10X 6038   1.952   6.687  13.909
   47DOPE  C311 6039   1.773   6.673  14.040
   47DOPE  H11X 6040   1.671   6.716  14.028
   47DOPE  H11Y 6041   1.768   6.567  14.007
   47DOPE  C312 6042   1.810   6.677  14.190
   47DOPE  H12X 6043   1.815   6.783  14.223
   47DOPE  H12Y 6044   1.910   6.632  14.206
   47DOPE  C313 6045   1.707   6.603  14.277
   47DOPE  H13X 6046   1.607   6.648  14.262
   47DOPE  H13Y 6047   1.702   6.498  14.242
   47DOPE  C314 6048   1.742   6.604  14.427
   47DOPE  H14X 6049   1.843   6.560  14.442
   47DOPE  H14Y 6050   1.669   6.538  14.480
   47DOPE  C315 6051   1.737   6.744  14.491
   47DOPE  H15X 6052   1.637   6.789  14.470
   47DOPE  H15Y 6053   1.814   6.808  14.444
   47DOPE  C316 6054   1.759   6.741  14.643
   47DOPE  H16X 6055   1.859   6.697  14.664
   47DOPE  H16Y 6056   1.683   6.675  14.690
   47DOPE  C317 6057   1.750   6.880  14.706
   47DOPE  H17X 6058   1.826   6.946  14.659
   47DOPE  H17Y 6059   1.650   6.923  14.683
   47DOPE  C318 6060   1.770   6.880  14.858
   47DOPE  H18X 6061   1.762   6.983  14.898
   47DOPE  H18Y 6062   1.694   6.817  14.907
   47DOPE  H18Z 6063   1.871   6.840  14.884
   48DOPE     N 6064   7.780   1.964  12.866
   48DOPE   HN1 6065   7.748   1.866  12.860
   48DOPE   HN2 6066   7.712   2.021  12.921
   48DOPE   HN3 6067   7.784   2.007  12.771
   48DOPE   C12 6068   7.912   1.976  12.937
   48DOPE  H12A 6069   7.980   1.899  12.898
   48DOPE  H12B 6070   7.892   1.955  13.045
   48DOPE   C11 6071   7.974   2.117  12.921
   48DOPE  H11A 6072   8.024   2.121  12.822
   48DOPE  H11B 6073   8.054   2.131  12.998
   48DOPE     P 6074   7.780   2.247  13.047
   48DOPE   O13 6075   7.663   2.161  13.015
   48DOPE   O14 6076   7.757   2.391  13.065
   48DOPE   O11 6077   7.858   2.185  13.171
   48DOPE   O12 6078   7.880   2.225  12.927
   48DOPE    C1 6079   7.953   2.270  13.238
   48DOPE    HA 6080   7.901   2.360  13.278
   48DOPE    HB 6081   8.031   2.306  13.167
   48DOPE    C2 6082   8.028   2.203  13.358
   48DOPE    HS 6083   8.135   2.192  13.331
   48DOPE   O21 6084   7.973   2.075  13.395
   48DOPE   C21 6085   8.004   1.975  13.315
   48DOPE   O22 6086   8.073   1.981  13.215
   48DOPE   C22 6087   7.950   1.845  13.375
   48DOPE   H2R 6088   8.004   1.829  13.471
   48DOPE   H2S 6089   7.977   1.763  13.305
   48DOPE    C3 6090   8.021   2.294  13.484
   48DOPE    HX 6091   8.066   2.392  13.459
   48DOPE    HY 6092   8.083   2.249  13.564
   48DOPE   O31 6093   7.884   2.316  13.524
   48DOPE   C31 6094   7.838   2.235  13.619
   48DOPE   O32 6095   7.906   2.163  13.690
   48DOPE   C32 6096   7.685   2.244  13.623
   48DOPE   H2X 6097   7.652   2.317  13.546
   48DOPE   H2Y 6098   7.645   2.144  13.594
   48DOPE   C23 6099   7.798   1.846  13.398
   48DOPE   H3R 6100   7.746   1.866  13.302
   48DOPE   H3S 6101   7.770   1.928  13.468
   48DOPE   C24 6102   7.746   1.712  13.453
   48DOPE   H4R 6103   7.781   1.631  13.387
   48DOPE   H4S 6104   7.635   1.712  13.450
   48DOPE   C25 6105   7.790   1.681  13.598
   48DOPE   H5R 6106   7.900   1.688  13.607
   48DOPE   H5S 6107   7.762   1.575  13.620
   48DOPE   C26 6108   7.722   1.771  13.703
   48DOPE   H6R 6109   7.613   1.766  13.687
   48DOPE   H6S 6110   7.753   1.876  13.688
   48DOPE   C27 6111   7.751   1.728  13.848
   48DOPE   H7R 6112   7.726   1.620  13.858
   48DOPE   H7S 6113   7.682   1.784  13.915
   48DOPE   C28 6114   7.896   1.749  13.896
   48DOPE   H8R 6115   7.965   1.696  13.827
   48DOPE   H8S 6116   7.907   1.700  13.995
   48DOPE   C29 6117   7.934   1.896  13.902
   48DOPE   H9R 6118   7.925   1.948  13.806
   48DOPE  C210 6119   7.976   1.966  14.009
   48DOPE  H10R 6120   7.999   2.073  13.994
   48DOPE  C211 6121   7.996   1.917  14.151
   48DOPE  H11R 6122   8.103   1.891  14.167
   48DOPE  H11S 6123   7.939   1.823  14.168
   48DOPE  C212 6124   7.956   2.018  14.261
   48DOPE  H12R 6125   7.968   1.967  14.359
   48DOPE  H12S 6126   7.849   2.044  14.251
   48DOPE  C213 6127   8.040   2.146  14.262
   48DOPE  H13R 6128   8.033   2.195  14.163
   48DOPE  H13S 6129   8.147   2.121  14.279
   48DOPE  C214 6130   7.994   2.249  14.367
   48DOPE  H14R 6131   7.885   2.267  14.355
   48DOPE  H14S 6132   8.047   2.345  14.348
   48DOPE  C215 6133   8.023   2.207  14.512
   48DOPE  H15R 6134   8.131   2.184  14.521
   48DOPE  H15S 6135   7.966   2.115  14.537
   48DOPE  C216 6136   7.986   2.319  14.612
   48DOPE  H16R 6137   7.877   2.340  14.601
   48DOPE  H16S 6138   8.041   2.411  14.584
   48DOPE  C217 6139   8.015   2.285  14.759
   48DOPE  H17R 6140   7.959   2.194  14.787
   48DOPE  H17S 6141   7.977   2.369  14.821
   48DOPE  C218 6142   8.164   2.264  14.791
   48DOPE  H18R 6143   8.203   2.175  14.737
   48DOPE  H18S 6144   8.178   2.247  14.900
   48DOPE  H18T 6145   8.223   2.353  14.761
   48DOPE   C33 6146   7.627   2.286  13.760
   48DOPE   H3X 6147   7.522   2.316  13.746
   48DOPE   H3Y 6148   7.682   2.374  13.799
   48DOPE   C34 6149   7.629   2.173  13.864
   48DOPE   H4X 6150   7.574   2.085  13.824
   48DOPE   H4Y 6151   7.734   2.140  13.882
   48DOPE   C35 6152   7.568   2.216  13.998
   48DOPE   H5X 6153   7.460   2.240  13.984
   48DOPE   H5Y 6154   7.619   2.308  14.032
   48DOPE   C36 6155   7.582   2.110  14.109
   48DOPE   H6X 6156   7.552   2.154  14.206
   48DOPE   H6Y 6157   7.690   2.082  14.116
   48DOPE   C37 6158   7.498   1.983  14.084
   48DOPE   H7X 6159   7.393   2.014  14.069
   48DOPE   H7Y 6160   7.531   1.934  13.990
   48DOPE   C38 6161   7.502   1.882  14.201
   48DOPE   H8X 6162   7.431   1.800  14.177
   48DOPE   H8Y 6163   7.466   1.933  14.292
   48DOPE   C39 6164   7.640   1.824  14.220
   48DOPE   H9X 6165   7.699   1.813  14.128
   48DOPE  C310 6166   7.697   1.787  14.337
   48DOPE  H10X 6167   7.799   1.748  14.335
   48DOPE  C311 6168   7.636   1.796  14.475
   48DOPE  H11X 6169   7.526   1.813  14.470
   48DOPE  H11Y 6170   7.651   1.700  14.528
   48DOPE  C312 6171   7.699   1.909  14.559
   48DOPE  H12X 6172   7.671   2.007  14.515
   48DOPE  H12Y 6173   7.810   1.901  14.555
   48DOPE  C313 6174   7.655   1.903  14.706
   48DOPE  H13X 6175   7.544   1.904  14.712
   48DOPE  H13Y 6176   7.689   1.805  14.748
   48DOPE  C314 6177   7.715   2.016  14.792
   48DOPE  H14X 6178   7.824   2.021  14.771
   48DOPE  H14Y 6179   7.703   1.990  14.899
   48DOPE  C315 6180   7.651   2.154  14.767
   48DOPE  H15X 6181   7.653   2.176  14.658
   48DOPE  H15Y 6182   7.713   2.231  14.818
   48DOPE  C316 6183   7.508   2.164  14.821
   48DOPE  H16X 6184   7.510   2.140  14.930
   48DOPE  H16Y 6185   7.443   2.088  14.771
   48DOPE  C317 6186   7.443   2.302  14.803
   48DOPE  H17X 6187   7.345   2.302  14.855
   48DOPE  H17Y 6188   7.507   2.379  14.852
   48DOPE  C318 6189   7.420   2.341  14.657
   48DOPE  H18X 6190   7.364   2.261  14.604
   48DOPE  H18Y 6191   7.362   2.436  14.650
   48DOPE  H18Z 6192   7.517   2.356  14.604
   49DOPE     N 6193   2.242   7.565  12.700
   49DOPE   HN1 6194   2.326   7.504  12.697
   49DOPE   HN2 6195   2.184   7.553  12.615
   49DOPE   HN3 6196   2.273   7.664  12.706
   49DOPE   C12 6197   2.161   7.534  12.823
   49DOPE  H12A 6198   2.115   7.434  12.809
   49DOPE  H12B 6199   2.081   7.610  12.829
   49DOPE   C11 6200   2.250   7.536  12.948
   49DOPE  H11A 6201   2.326   7.617  12.941
   49DOPE  H11B 6202   2.306   7.440  12.953
   49DOPE     P 6203   2.118   7.686  13.118
   49DOPE   O13 6204   1.979   7.659  13.162
   49DOPE   O14 6205   2.139   7.785  13.009
   49DOPE   O11 6206   2.213   7.719  13.240
   49DOPE   O12 6207   2.172   7.548  13.066
   49DOPE    C1 6208   2.356   7.723  13.228
   49DOPE    HA 6209   2.390   7.829  13.231
   49DOPE    HB 6210   2.392   7.681  13.132
   49DOPE    C2 6211   2.430   7.645  13.342
   49DOPE    HS 6212   2.529   7.610  13.303
   49DOPE   O21 6213   2.352   7.533  13.385
   49DOPE   C21 6214   2.343   7.436  13.296
   49DOPE   O22 6215   2.414   7.424  13.197
   49DOPE   C22 6216   2.227   7.341  13.332
   49DOPE   H2R 6217   2.270   7.255  13.387
   49DOPE   H2S 6218   2.184   7.305  13.236
   49DOPE    C3 6219   2.463   7.735  13.464
   49DOPE    HX 6220   2.555   7.792  13.439
   49DOPE    HY 6221   2.487   7.671  13.552
   49DOPE   O31 6222   2.358   7.830  13.492
   49DOPE   C31 6223   2.260   7.788  13.570
   49DOPE   O32 6224   2.258   7.686  13.637
   49DOPE   C32 6225   2.151   7.896  13.571
   49DOPE   H2X 6226   2.182   7.972  13.646
   49DOPE   H2Y 6227   2.149   7.944  13.471
   49DOPE   C23 6228   2.118   7.411  13.417
   49DOPE   H3R 6229   2.085   7.504  13.366
   49DOPE   H3S 6230   2.163   7.442  13.513
   49DOPE   C24 6231   1.995   7.323  13.443
   49DOPE   H4R 6232   2.025   7.230  13.495
   49DOPE   H4S 6233   1.949   7.295  13.346
   49DOPE   C25 6234   1.889   7.396  13.528
   49DOPE   H5R 6235   1.792   7.342  13.522
   49DOPE   H5S 6236   1.873   7.498  13.485
   49DOPE   C26 6237   1.929   7.410  13.676
   49DOPE   H6R 6238   2.036   7.439  13.680
   49DOPE   H6S 6239   1.920   7.311  13.726
   49DOPE   C27 6240   1.848   7.516  13.752
   49DOPE   H7R 6241   1.741   7.487  13.750
   49DOPE   H7S 6242   1.857   7.613  13.698
   49DOPE   C28 6243   1.892   7.536  13.899
   49DOPE   H8R 6244   1.868   7.443  13.955
   49DOPE   H8S 6245   1.830   7.618  13.942
   49DOPE   C29 6246   2.038   7.570  13.912
   49DOPE   H9R 6247   2.087   7.606  13.821
   49DOPE  C210 6248   2.112   7.557  14.024
   49DOPE  H10R 6249   2.219   7.582  14.019
   49DOPE  C211 6250   2.064   7.507  14.158
   49DOPE  H11R 6251   2.079   7.398  14.167
   49DOPE  H11S 6252   1.955   7.527  14.172
   49DOPE  C212 6253   2.141   7.576  14.272
   49DOPE  H12R 6254   2.137   7.687  14.259
   49DOPE  H12S 6255   2.248   7.546  14.266
   49DOPE  C213 6256   2.089   7.542  14.412
   49DOPE  H13R 6257   2.075   7.432  14.419
   49DOPE  H13S 6258   1.990   7.590  14.428
   49DOPE  C214 6259   2.188   7.587  14.521
   49DOPE  H14R 6260   2.206   7.696  14.512
   49DOPE  H14S 6261   2.285   7.536  14.503
   49DOPE  C215 6262   2.142   7.554  14.664
   49DOPE  H15R 6263   2.091   7.455  14.664
   49DOPE  H15S 6264   2.068   7.630  14.697
   49DOPE  C216 6265   2.258   7.547  14.765
   49DOPE  H16R 6266   2.319   7.458  14.742
   49DOPE  H16S 6267   2.215   7.532  14.867
   49DOPE  C217 6268   2.350   7.670  14.767
   49DOPE  H17R 6269   2.403   7.677  14.669
   49DOPE  H17S 6270   2.429   7.653  14.844
   49DOPE  C218 6271   2.280   7.803  14.796
   49DOPE  H18R 6272   2.353   7.886  14.801
   49DOPE  H18S 6273   2.225   7.797  14.893
   49DOPE  H18T 6274   2.206   7.826  14.716
   49DOPE   C33 6275   2.011   7.840  13.604
   49DOPE   H3X 6276   2.013   7.786  13.701
   49DOPE   H3Y 6277   1.984   7.767  13.525
   49DOPE   C34 6278   1.904   7.950  13.608
   49DOPE   H4X 6279   1.914   8.013  13.517
   49DOPE   H4Y 6280   1.804   7.902  13.605
   49DOPE   C35 6281   1.910   8.040  13.733
   49DOPE   H5X 6282   1.843   8.127  13.716
   49DOPE   H5Y 6283   2.013   8.080  13.746
   49DOPE   C36 6284   1.865   7.969  13.861
   49DOPE   H6X 6285   1.933   7.885  13.885
   49DOPE   H6Y 6286   1.765   7.926  13.842
   49DOPE   C37 6287   1.854   8.063  13.983
   49DOPE   H7X 6288   1.798   8.154  13.951
   49DOPE   H7Y 6289   1.794   8.013  14.062
   49DOPE   C38 6290   1.989   8.107  14.043
   49DOPE   H8X 6291   1.968   8.191  14.113
   49DOPE   H8Y 6292   2.054   8.149  13.963
   49DOPE   C39 6293   2.060   7.994  14.114
   49DOPE   H9X 6294   2.098   7.915  14.048
   49DOPE  C310 6295   2.077   7.981  14.248
   49DOPE  H10X 6296   2.130   7.893  14.286
   49DOPE  C311 6297   2.029   8.077  14.353
   49DOPE  H11X 6298   2.090   8.067  14.445
   49DOPE  H11Y 6299   2.042   8.181  14.318
   49DOPE  C312 6300   1.880   8.060  14.390
   49DOPE  H12X 6301   1.819   8.065  14.297
   49DOPE  H12Y 6302   1.849   8.146  14.453
   49DOPE  C313 6303   1.845   7.931  14.465
   49DOPE  H13X 6304   1.734   7.921  14.466
   49DOPE  H13Y 6305   1.885   7.843  14.411
   49DOPE  C314 6306   1.894   7.930  14.611
   49DOPE  H14X 6307   1.864   8.025  14.659
   49DOPE  H14Y 6308   2.005   7.925  14.612
   49DOPE  C315 6309   1.837   7.813  14.692
   49DOPE  H15X 6310   1.867   7.718  14.644
   49DOPE  H15Y 6311   1.726   7.818  14.689
   49DOPE  C316 6312   1.883   7.815  14.838
   49DOPE  H16X 6313   1.851   7.909  14.886
   49DOPE  H16Y 6314   1.994   7.813  14.841
   49DOPE  C317 6315   1.830   7.696  14.919
   49DOPE  H17X 6316   1.719   7.699  14.919
   49DOPE  H17Y 6317   1.861   7.602  14.869
   49DOPE  C318 6318   1.880   7.695  15.064
   49DOPE  H18X 6319   1.838   7.607  15.119
   49DOPE  H18Y 6320   1.991   7.688  15.067
   49DOPE  H18Z 6321   1.849   7.787  15.117
   50DOPE     N 6322   0.239   5.286  12.919
   50DOPE   HN1 6323   0.296   5.215  12.869
   50DOPE   HN2 6324   0.137   5.269  12.907
   50DOPE   HN3 6325   0.262   5.378  12.876
   50DOPE   C12 6326   0.274   5.287  13.066
   50DOPE  H12A 6327   0.304   5.184  13.093
   50DOPE  H12B 6328   0.183   5.316  13.122
   50DOPE   C11 6329   0.388   5.386  13.093
   50DOPE  H11A 6330   0.423   5.372  13.198
   50DOPE  H11B 6331   0.349   5.489  13.083
   50DOPE     P 6332   0.622   5.457  13.010
   50DOPE   O13 6333   0.573   5.597  13.005
   50DOPE   O14 6334   0.720   5.415  12.908
   50DOPE   O11 6335   0.676   5.424  13.155
   50DOPE   O12 6336   0.495   5.362  13.001
   50DOPE    C1 6337   0.752   5.304  13.176
   50DOPE    HA 6338   0.849   5.312  13.122
   50DOPE    HB 6339   0.698   5.215  13.137
   50DOPE    C2 6340   0.783   5.285  13.327
   50DOPE    HS 6341   0.874   5.221  13.335
   50DOPE   O21 6342   0.672   5.226  13.396
   50DOPE   C21 6343   0.663   5.095  13.386
   50DOPE   O22 6344   0.736   5.023  13.320
   50DOPE   C22 6345   0.547   5.045  13.471
   50DOPE   H2R 6346   0.543   4.934  13.463
   50DOPE   H2S 6347   0.453   5.087  13.428
   50DOPE    C3 6348   0.818   5.420  13.394
   50DOPE    HX 6349   0.725   5.482  13.390
   50DOPE    HY 6350   0.896   5.471  13.335
   50DOPE   O31 6351   0.864   5.399  13.530
   50DOPE   C31 6352   0.851   5.506  13.608
   50DOPE   O32 6353   0.815   5.616  13.571
   50DOPE   C32 6354   0.881   5.466  13.752
   50DOPE   H2X 6355   0.801   5.396  13.784
   50DOPE   H2Y 6356   0.978   5.413  13.755
   50DOPE   C23 6357   0.559   5.087  13.620
   50DOPE   H3R 6358   0.464   5.058  13.671
   50DOPE   H3S 6359   0.569   5.197  13.629
   50DOPE   C24 6360   0.674   5.016  13.693
   50DOPE   H4R 6361   0.771   5.049  13.650
   50DOPE   H4S 6362   0.665   4.907  13.677
   50DOPE   C25 6363   0.674   5.044  13.844
   50DOPE   H5R 6364   0.572   5.024  13.884
   50DOPE   H5S 6365   0.698   5.151  13.862
   50DOPE   C26 6366   0.775   4.955  13.919
   50DOPE   H6R 6367   0.874   4.966  13.870
   50DOPE   H6S 6368   0.744   4.849  13.910
   50DOPE   C27 6369   0.789   4.990  14.069
   50DOPE   H7R 6370   0.823   5.095  14.078
   50DOPE   H7S 6371   0.869   4.925  14.111
   50DOPE   C28 6372   0.659   4.971  14.150
   50DOPE   H8R 6373   0.623   4.867  14.135
   50DOPE   H8S 6374   0.582   5.037  14.106
   50DOPE   C29 6375   0.680   4.998  14.297
   50DOPE   H9R 6376   0.737   4.921  14.350
   50DOPE  C210 6377   0.638   5.106  14.366
   50DOPE  H10R 6378   0.661   5.112  14.473
   50DOPE  C211 6379   0.560   5.223  14.310
   50DOPE  H11R 6380   0.499   5.193  14.222
   50DOPE  H11S 6381   0.631   5.301  14.276
   50DOPE  C212 6382   0.465   5.286  14.414
   50DOPE  H12R 6383   0.522   5.322  14.502
   50DOPE  H12S 6384   0.394   5.208  14.450
   50DOPE  C213 6385   0.381   5.402  14.357
   50DOPE  H13R 6386   0.305   5.432  14.432
   50DOPE  H13S 6387   0.326   5.365  14.268
   50DOPE  C214 6388   0.462   5.527  14.316
   50DOPE  H14R 6389   0.395   5.598  14.264
   50DOPE  H14S 6390   0.540   5.497  14.242
   50DOPE  C215 6391   0.531   5.601  14.432
   50DOPE  H15R 6392   0.594   5.682  14.389
   50DOPE  H15S 6393   0.598   5.532  14.486
   50DOPE  C216 6394   0.432   5.666  14.530
   50DOPE  H16R 6395   0.372   5.587  14.581
   50DOPE  H16S 6396   0.362   5.731  14.473
   50DOPE  C217 6397   0.502   5.752  14.637
   50DOPE  H17R 6398   0.562   5.830  14.585
   50DOPE  H17S 6399   0.572   5.688  14.694
   50DOPE  C218 6400   0.404   5.820  14.733
   50DOPE  H18R 6401   0.344   5.744  14.788
   50DOPE  H18S 6402   0.334   5.886  14.677
   50DOPE  H18T 6403   0.459   5.882  14.807
   50DOPE   C33 6404   0.884   5.588  13.846
   50DOPE   H3X 6405   0.795   5.652  13.827
   50DOPE   H3Y 6406   0.974   5.649  13.825
   50DOPE   C34 6407   0.882   5.549  13.995
   50DOPE   H4X 6408   0.788   5.495  14.017
   50DOPE   H4Y 6409   0.967   5.482  14.018
   50DOPE   C35 6410   0.889   5.674  14.084
   50DOPE   H5X 6411   0.816   5.748  14.046
   50DOPE   H5Y 6412   0.991   5.719  14.075
   50DOPE   C36 6413   0.857   5.651  14.232
   50DOPE   H6X 6414   0.755   5.609  14.242
   50DOPE   H6Y 6415   0.857   5.750  14.282
   50DOPE   C37 6416   0.957   5.561  14.306
   50DOPE   H7X 6417   1.055   5.561  14.253
   50DOPE   H7Y 6418   0.974   5.606  14.406
   50DOPE   C38 6419   0.906   5.417  14.326
   50DOPE   H8X 6420   0.903   5.365  14.228
   50DOPE   H8Y 6421   0.801   5.424  14.362
   50DOPE   C39 6422   0.993   5.342  14.425
   50DOPE   H9X 6423   1.094   5.318  14.388
   50DOPE  C310 6424   0.958   5.306  14.549
   50DOPE  H10X 6425   1.031   5.254  14.612
   50DOPE  C311 6426   0.825   5.332  14.615
   50DOPE  H11X 6427   0.743   5.317  14.541
   50DOPE  H11Y 6428   0.806   5.256  14.695
   50DOPE  C312 6429   0.806   5.474  14.674
   50DOPE  H12X 6430   0.700   5.483  14.705
   50DOPE  H12Y 6431   0.823   5.549  14.594
   50DOPE  C313 6432   0.894   5.508  14.796
   50DOPE  H13X 6433   1.000   5.521  14.764
   50DOPE  H13Y 6434   0.860   5.606  14.835
   50DOPE  C314 6435   0.887   5.403  14.907
   50DOPE  H14X 6436   0.959   5.322  14.885
   50DOPE  H14Y 6437   0.785   5.358  14.907
   50DOPE  C315 6438   0.913   5.458  15.049
   50DOPE  H15X 6439   0.917   5.371  15.118
   50DOPE  H15Y 6440   0.827   5.520  15.080
   50DOPE  C316 6441   1.042   5.540  15.062
   50DOPE  H16X 6442   1.017   5.647  15.047
   50DOPE  H16Y 6443   1.112   5.512  14.980
   50DOPE  C317 6444   1.114   5.521  15.196
   50DOPE  H17X 6445   1.189   5.602  15.207
   50DOPE  H17Y 6446   1.041   5.532  15.279
   50DOPE  C318 6447   1.186   5.386  15.209
   50DOPE  H18X 6448   1.115   5.302  15.198
   50DOPE  H18Y 6449   1.264   5.376  15.129
   50DOPE  H18Z 6450   1.237   5.378  15.307
   51DOPE     N 6451   3.527   8.611  12.798
   51DOPE   HN1 6452   3.624   8.635  12.829
   51DOPE   HN2 6453   3.535   8.572  12.702
   51DOPE   HN3 6454   3.471   8.698  12.793
   51DOPE   C12 6455   3.472   8.510  12.895
   51DOPE  H12A 6456   3.390   8.456  12.842
   51DOPE  H12B 6457   3.430   8.565  12.982
   51DOPE   C11 6458   3.582   8.412  12.942
   51DOPE  H11A 6459   3.647   8.380  12.858
   51DOPE  H11B 6460   3.531   8.321  12.979
   51DOPE     P 6461   3.776   8.569  13.034
   51DOPE   O13 6462   3.757   8.677  13.132
   51DOPE   O14 6463   3.782   8.607  12.891
   51DOPE   O11 6464   3.905   8.484  13.071
   51DOPE   O12 6465   3.657   8.466  13.050
   51DOPE    C1 6466   3.895   8.361  13.144
   51DOPE    HA 6467   3.998   8.319  13.153
   51DOPE    HB 6468   3.835   8.286  13.089
   51DOPE    C2 6469   3.840   8.375  13.290
   51DOPE    HS 6470   3.729   8.379  13.280
   51DOPE   O21 6471   3.893   8.496  13.347
   51DOPE   C21 6472   3.808   8.562  13.426
   51DOPE   O22 6473   3.702   8.520  13.467
   51DOPE   C22 6474   3.868   8.699  13.458
   51DOPE   H2R 6475   3.866   8.759  13.364
   51DOPE   H2S 6476   3.973   8.684  13.489
   51DOPE    C3 6477   3.877   8.250  13.375
   51DOPE    HX 6478   3.985   8.257  13.403
   51DOPE    HY 6479   3.867   8.162  13.308
   51DOPE   O31 6480   3.789   8.231  13.487
   51DOPE   C31 6481   3.831   8.275  13.605
   51DOPE   O32 6482   3.940   8.323  13.628
   51DOPE   C32 6483   3.720   8.251  13.708
   51DOPE   H2X 6484   3.629   8.304  13.672
   51DOPE   H2Y 6485   3.700   8.142  13.711
   51DOPE   C23 6486   3.788   8.773  13.568
   51DOPE   H3R 6487   3.787   8.712  13.661
   51DOPE   H3S 6488   3.683   8.785  13.535
   51DOPE   C24 6489   3.845   8.913  13.602
   51DOPE   H4R 6490   3.783   8.957  13.682
   51DOPE   H4S 6491   3.834   8.978  13.512
   51DOPE   C25 6492   3.993   8.914  13.644
   51DOPE   H5R 6493   4.020   9.017  13.676
   51DOPE   H5S 6494   4.055   8.890  13.556
   51DOPE   C26 6495   4.029   8.816  13.757
   51DOPE   H6R 6496   4.139   8.820  13.774
   51DOPE   H6S 6497   4.006   8.712  13.725
   51DOPE   C27 6498   3.958   8.844  13.890
   51DOPE   H7R 6499   3.849   8.854  13.871
   51DOPE   H7S 6500   3.993   8.942  13.930
   51DOPE   C28 6501   3.976   8.732  13.994
   51DOPE   H8R 6502   3.936   8.639  13.950
   51DOPE   H8S 6503   3.912   8.755  14.082
   51DOPE   C29 6504   4.120   8.716  14.039
   51DOPE   H9R 6505   4.162   8.803  14.091
   51DOPE  C210 6506   4.197   8.608  14.020
   51DOPE  H10R 6507   4.300   8.608  14.060
   51DOPE  C211 6508   4.157   8.480  13.950
   51DOPE  H11R 6509   4.246   8.433  13.903
   51DOPE  H11S 6510   4.088   8.503  13.866
   51DOPE  C212 6511   4.087   8.375  14.039
   51DOPE  H12R 6512   4.059   8.292  13.972
   51DOPE  H12S 6513   3.993   8.417  14.080
   51DOPE  C213 6514   4.174   8.315  14.151
   51DOPE  H13R 6515   4.277   8.302  14.113
   51DOPE  H13S 6516   4.135   8.213  14.174
   51DOPE  C214 6517   4.177   8.394  14.284
   51DOPE  H14R 6518   4.221   8.494  14.266
   51DOPE  H14S 6519   4.245   8.342  14.354
   51DOPE  C215 6520   4.040   8.413  14.353
   51DOPE  H15R 6521   3.975   8.474  14.287
   51DOPE  H15S 6522   4.056   8.472  14.446
   51DOPE  C216 6523   3.967   8.282  14.388
   51DOPE  H16R 6524   3.943   8.228  14.295
   51DOPE  H16S 6525   3.870   8.308  14.436
   51DOPE  C217 6526   4.044   8.187  14.482
   51DOPE  H17R 6527   4.137   8.154  14.431
   51DOPE  H17S 6528   3.981   8.097  14.499
   51DOPE  C218 6529   4.080   8.248  14.618
   51DOPE  H18R 6530   4.130   8.172  14.682
   51DOPE  H18S 6531   3.989   8.283  14.671
   51DOPE  H18T 6532   4.149   8.334  14.606
   51DOPE   C33 6533   3.758   8.302  13.849
   51DOPE   H3X 6534   3.772   8.412  13.845
   51DOPE   H3Y 6535   3.855   8.258  13.881
   51DOPE   C34 6536   3.651   8.267  13.953
   51DOPE   H4X 6537   3.553   8.305  13.919
   51DOPE   H4Y 6538   3.643   8.157  13.960
   51DOPE   C35 6539   3.680   8.323  14.094
   51DOPE   H5X 6540   3.775   8.279  14.131
   51DOPE   H5Y 6541   3.600   8.289  14.163
   51DOPE   C36 6542   3.691   8.476  14.103
   51DOPE   H6X 6543   3.782   8.508  14.048
   51DOPE   H6Y 6544   3.705   8.505  14.209
   51DOPE   C37 6545   3.571   8.553  14.045
   51DOPE   H7X 6546   3.595   8.662  14.044
   51DOPE   H7Y 6547   3.558   8.524  13.938
   51DOPE   C38 6548   3.438   8.530  14.119
   51DOPE   H8X 6549   3.419   8.421  14.126
   51DOPE   H8Y 6550   3.357   8.572  14.055
   51DOPE   C39 6551   3.435   8.598  14.253
   51DOPE   H9X 6552   3.485   8.695  14.256
   51DOPE  C310 6553   3.377   8.551  14.366
   51DOPE  H10X 6554   3.384   8.613  14.457
   51DOPE  C311 6555   3.303   8.421  14.383
   51DOPE  H11X 6556   3.213   8.438  14.446
   51DOPE  H11Y 6557   3.267   8.381  14.286
   51DOPE  C312 6558   3.389   8.312  14.451
   51DOPE  H12X 6559   3.469   8.280  14.380
   51DOPE  H12Y 6560   3.325   8.223  14.471
   51DOPE  C313 6561   3.455   8.358  14.582
   51DOPE  H13X 6562   3.528   8.438  14.557
   51DOPE  H13Y 6563   3.378   8.401  14.649
   51DOPE  C314 6564   3.529   8.246  14.656
   51DOPE  H14X 6565   3.602   8.199  14.587
   51DOPE  H14Y 6566   3.455   8.168  14.685
   51DOPE  C315 6567   3.603   8.295  14.782
   51DOPE  H15X 6568   3.644   8.205  14.833
   51DOPE  H15Y 6569   3.532   8.343  14.851
   51DOPE  C316 6570   3.722   8.389  14.753
   51DOPE  H16X 6571   3.757   8.371  14.649
   51DOPE  H16Y 6572   3.806   8.364  14.821
   51DOPE  C317 6573   3.692   8.539  14.770
   51DOPE  H17X 6574   3.776   8.597  14.726
   51DOPE  H17Y 6575   3.601   8.566  14.712
   51DOPE  C318 6576   3.673   8.585  14.915
   51DOPE  H18X 6577   3.588   8.531  14.963
   51DOPE  H18Y 6578   3.765   8.565  14.974
   51DOPE  H18Z 6579   3.652   8.694  14.920
   52DOPE     N 6580   8.684   5.749  12.960
   52DOPE   HN1 6581   8.625   5.817  12.907
   52DOPE   HN2 6582   8.759   5.800  13.011
   52DOPE   HN3 6583   8.732   5.683  12.897
   52DOPE   C12 6584   8.602   5.665  13.054
   52DOPE  H12A 6585   8.557   5.583  12.994
   52DOPE  H12B 6586   8.520   5.728  13.095
   52DOPE   C11 6587   8.688   5.606  13.168
   52DOPE  H11A 6588   8.637   5.517  13.210
   52DOPE  H11B 6589   8.691   5.682  13.250
   52DOPE     P 6590   8.862   5.464  13.030
   52DOPE   O13 6591   9.008   5.441  13.033
   52DOPE   O14 6592   8.806   5.506  12.899
   52DOPE   O11 6593   8.781   5.337  13.080
   52DOPE   O12 6594   8.823   5.577  13.132
   52DOPE    C1 6595   8.831   5.248  13.181
   52DOPE    HA 6596   8.942   5.241  13.181
   52DOPE    HB 6597   8.793   5.146  13.159
   52DOPE    C2 6598   8.784   5.285  13.325
   52DOPE    HS 6599   8.675   5.307  13.319
   52DOPE   O21 6600   8.862   5.397  13.371
   52DOPE   C21 6601   8.799   5.479  13.453
   52DOPE   O22 6602   8.681   5.473  13.483
   52DOPE   C22 6603   8.899   5.581  13.507
   52DOPE   H2R 6604   8.940   5.637  13.421
   52DOPE   H2S 6605   8.981   5.523  13.555
   52DOPE    C3 6606   8.803   5.165  13.424
   52DOPE    HX 6607   8.910   5.135  13.416
   52DOPE    HY 6608   8.743   5.078  13.389
   52DOPE   O31 6609   8.777   5.199  13.562
   52DOPE   C31 6610   8.650   5.184  13.601
   52DOPE   O32 6611   8.560   5.141  13.532
   52DOPE   C32 6612   8.639   5.223  13.749
   52DOPE   H2X 6613   8.714   5.163  13.805
   52DOPE   H2Y 6614   8.667   5.331  13.758
   52DOPE   C23 6615   8.834   5.677  13.609
   52DOPE   H3R 6616   8.785   5.620  13.690
   52DOPE   H3S 6617   8.754   5.736  13.558
   52DOPE   C24 6618   8.934   5.776  13.672
   52DOPE   H4R 6619   8.879   5.845  13.739
   52DOPE   H4S 6620   8.979   5.837  13.591
   52DOPE   C25 6621   9.049   5.709  13.751
   52DOPE   H5R 6622   9.118   5.788  13.786
   52DOPE   H5S 6623   9.107   5.645  13.682
   52DOPE   C26 6624   9.004   5.625  13.872
   52DOPE   H6R 6625   9.094   5.571  13.910
   52DOPE   H6S 6626   8.931   5.548  13.840
   52DOPE   C27 6627   8.946   5.708  13.987
   52DOPE   H7R 6628   8.855   5.762  13.953
   52DOPE   H7S 6629   9.022   5.785  14.014
   52DOPE   C28 6630   8.912   5.621  14.110
   52DOPE   H8R 6631   8.995   5.549  14.126
   52DOPE   H8S 6632   8.822   5.561  14.087
   52DOPE   C29 6633   8.895   5.704  14.235
   52DOPE   H9R 6634   8.973   5.781  14.249
   52DOPE  C210 6635   8.800   5.693  14.330
   52DOPE  H10R 6636   8.805   5.759  14.417
   52DOPE  C211 6637   8.685   5.594  14.334
   52DOPE  H11R 6638   8.669   5.547  14.235
   52DOPE  H11S 6639   8.591   5.648  14.359
   52DOPE  C212 6640   8.706   5.481  14.437
   52DOPE  H12R 6641   8.794   5.420  14.410
   52DOPE  H12S 6642   8.617   5.415  14.430
   52DOPE  C213 6643   8.718   5.528  14.583
   52DOPE  H13R 6644   8.669   5.453  14.648
   52DOPE  H13S 6645   8.664   5.624  14.597
   52DOPE  C214 6646   8.864   5.541  14.631
   52DOPE  H14R 6647   8.916   5.618  14.570
   52DOPE  H14S 6648   8.915   5.444  14.614
   52DOPE  C215 6649   8.875   5.577  14.780
   52DOPE  H15R 6650   8.818   5.502  14.838
   52DOPE  H15S 6651   8.828   5.676  14.798
   52DOPE  C216 6652   9.020   5.578  14.831
   52DOPE  H16R 6653   9.070   5.483  14.802
   52DOPE  H16S 6654   9.019   5.583  14.942
   52DOPE  C217 6655   9.102   5.697  14.778
   52DOPE  H17R 6656   9.051   5.791  14.807
   52DOPE  H17S 6657   9.105   5.693  14.667
   52DOPE  C218 6658   0.030   5.699  14.831
   52DOPE  H18R 6659   0.030   5.704  14.942
   52DOPE  H18S 6660   0.084   5.608  14.800
   52DOPE  H18T 6661   0.084   5.788  14.792
   52DOPE   C33 6662   8.498   5.200  13.808
   52DOPE   H3X 6663   8.462   5.099  13.779
   52DOPE   H3Y 6664   8.427   5.274  13.764
   52DOPE   C34 6665   8.493   5.209  13.962
   52DOPE   H4X 6666   8.557   5.129  14.004
   52DOPE   H4Y 6667   8.535   5.306  13.995
   52DOPE   C35 6668   8.350   5.194  14.016
   52DOPE   H5X 6669   8.301   5.111  13.961
   52DOPE   H5Y 6670   8.293   5.286  13.993
   52DOPE   C36 6671   8.340   5.162  14.166
   52DOPE   H6X 6672   8.387   5.063  14.186
   52DOPE   H6Y 6673   8.232   5.154  14.191
   52DOPE   C37 6674   8.404   5.267  14.259
   52DOPE   H7X 6675   8.514   5.254  14.260
   52DOPE   H7Y 6676   8.383   5.368  14.217
   52DOPE   C38 6677   8.348   5.264  14.403
   52DOPE   H8X 6678   8.239   5.285  14.397
   52DOPE   H8Y 6679   8.393   5.348  14.459
   52DOPE   C39 6680   8.369   5.132  14.475
   52DOPE   H9X 6681   8.343   5.043  14.415
   52DOPE  C310 6682   8.413   5.114  14.601
   52DOPE  H10X 6683   8.422   5.011  14.639
   52DOPE  C311 6684   8.452   5.220  14.700
   52DOPE  H11X 6685   8.476   5.316  14.650
   52DOPE  H11Y 6686   8.367   5.240  14.769
   52DOPE  C312 6687   8.574   5.181  14.786
   52DOPE  H12X 6688   8.551   5.092  14.849
   52DOPE  H12Y 6689   8.595   5.265  14.855
   52DOPE  C313 6690   8.702   5.153  14.706
   52DOPE  H13X 6691   8.700   5.049  14.667
   52DOPE  H13Y 6692   8.706   5.222  14.619
   52DOPE  C314 6693   8.829   5.175  14.791
   52DOPE  H14X 6694   8.823   5.115  14.884
   52DOPE  H14Y 6695   8.830   5.282  14.821
   52DOPE  C315 6696   8.959   5.146  14.715
   52DOPE  H15X 6697   9.039   5.212  14.755
   52DOPE  H15Y 6698   8.946   5.172  14.608
   52DOPE  C316 6699   9.008   5.000  14.725
   52DOPE  H16X 6700   9.098   4.989  14.662
   52DOPE  H16Y 6701   8.929   4.933  14.684
   52DOPE  C317 6702   9.044   4.952  14.868
   52DOPE  H17X 6703   8.951   4.944  14.928
   52DOPE  H17Y 6704   9.086   4.850  14.860
   52DOPE  C318 6705   9.144   5.041  14.942
   52DOPE  H18X 6706   9.171   4.996  15.040
   52DOPE  H18Y 6707   0.019   5.055  14.882
   52DOPE  H18Z 6708   9.099   5.141  14.962
   53DOPE     N 6709   7.237   7.873  12.909
   53DOPE   HN1 6710   7.282   7.842  12.997
   53DOPE   HN2 6711   7.164   7.941  12.939
   53DOPE   HN3 6712   7.192   7.793  12.860
   53DOPE   C12 6713   7.341   7.945  12.827
   53DOPE  H12A 6714   7.290   8.030  12.776
   53DOPE  H12B 6715   7.379   7.874  12.751
   53DOPE   C11 6716   7.457   7.998  12.915
   53DOPE  H11A 6717   7.526   8.055  12.849
   53DOPE  H11B 6718   7.516   7.913  12.955
   53DOPE     P 6719   7.370   8.033  13.161
   53DOPE   O13 6720   7.360   7.885  13.148
   53DOPE   O14 6721   7.245   8.103  13.197
   53DOPE   O11 6722   7.493   8.075  13.250
   53DOPE   O12 6723   7.411   8.086  13.017
   53DOPE    C1 6724   7.488   8.183  13.344
   53DOPE    HA 6725   7.401   8.250  13.330
   53DOPE    HB 6726   7.579   8.244  13.330
   53DOPE    C2 6727   7.487   8.129  13.489
   53DOPE    HS 6728   7.564   8.049  13.493
   53DOPE   O21 6729   7.355   8.080  13.518
   53DOPE   C21 6730   7.348   7.977  13.600
   53DOPE   O22 6731   7.443   7.918  13.649
   53DOPE   C22 6732   7.202   7.946  13.632
   53DOPE   H2R 6733   7.186   7.838  13.612
   53DOPE   H2S 6734   7.136   8.004  13.565
   53DOPE    C3 6735   7.528   8.240  13.591
   53DOPE    HX 6736   7.447   8.316  13.596
   53DOPE    HY 6737   7.617   8.290  13.550
   53DOPE   O31 6738   7.564   8.183  13.719
   53DOPE   C31 6739   7.472   8.191  13.815
   53DOPE   O32 6740   7.370   8.256  13.811
   53DOPE   C32 6741   7.511   8.096  13.929
   53DOPE   H2X 6742   7.426   8.026  13.944
   53DOPE   H2Y 6743   7.599   8.037  13.897
   53DOPE   C23 6744   7.170   7.977  13.780
   53DOPE   H3R 6745   7.178   8.087  13.797
   53DOPE   H3S 6746   7.245   7.927  13.846
   53DOPE   C24 6747   7.031   7.930  13.825
   53DOPE   H4R 6748   7.025   7.820  13.814
   53DOPE   H4S 6749   6.954   7.975  13.760
   53DOPE   C25 6750   7.003   7.969  13.971
   53DOPE   H5R 6751   7.007   8.080  13.979
   53DOPE   H5S 6752   7.084   7.929  14.036
   53DOPE   C26 6753   6.867   7.922  14.025
   53DOPE   H6R 6754   6.788   7.963  13.959
   53DOPE   H6S 6755   6.852   7.965  14.126
   53DOPE   C27 6756   6.850   7.769  14.034
   53DOPE   H7R 6757   6.859   7.726  13.932
   53DOPE   H7S 6758   6.746   7.747  14.069
   53DOPE   C28 6759   6.950   7.697  14.126
   53DOPE   H8R 6760   7.053   7.713  14.087
   53DOPE   H8S 6761   6.932   7.587  14.118
   53DOPE   C29 6762   6.936   7.737  14.271
   53DOPE   H9R 6763   6.837   7.717  14.314
   53DOPE  C210 6764   7.029   7.795  14.350
   53DOPE  H10R 6765   7.002   7.818  14.454
   53DOPE  C211 6766   7.171   7.832  14.313
   53DOPE  H11R 6767   7.189   7.940  14.334
   53DOPE  H11S 6768   7.190   7.817  14.205
   53DOPE  C212 6769   7.276   7.749  14.390
   53DOPE  H12R 6770   7.376   7.770  14.345
   53DOPE  H12S 6771   7.256   7.641  14.377
   53DOPE  C213 6772   7.285   7.783  14.540
   53DOPE  H13R 6773   7.187   7.763  14.588
   53DOPE  H13S 6774   7.307   7.891  14.551
   53DOPE  C214 6775   7.393   7.701  14.612
   53DOPE  H14R 6776   7.491   7.718  14.562
   53DOPE  H14S 6777   7.369   7.593  14.602
   53DOPE  C215 6778   7.406   7.737  14.761
   53DOPE  H15R 6779   7.308   7.724  14.810
   53DOPE  H15S 6780   7.434   7.844  14.769
   53DOPE  C216 6781   7.511   7.651  14.832
   53DOPE  H16R 6782   7.609   7.662  14.780
   53DOPE  H16S 6783   7.481   7.545  14.827
   53DOPE  C217 6784   7.530   7.691  14.980
   53DOPE  H17R 6785   7.433   7.680  15.032
   53DOPE  H17S 6786   7.559   7.798  14.984
   53DOPE  C218 6787   7.636   7.606  15.051
   53DOPE  H18R 6788   7.608   7.499  15.050
   53DOPE  H18S 6789   7.646   7.638  15.157
   53DOPE  H18T 6790   7.735   7.617  15.002
   53DOPE   C33 6791   7.543   8.169  14.062
   53DOPE   H3X 6792   7.618   8.248  14.045
   53DOPE   H3Y 6793   7.588   8.095  14.132
   53DOPE   C34 6794   7.419   8.229  14.131
   53DOPE   H4X 6795   7.381   8.313  14.069
   53DOPE   H4Y 6796   7.338   8.153  14.136
   53DOPE   C35 6797   7.450   8.279  14.272
   53DOPE   H5X 6798   7.543   8.340  14.268
   53DOPE   H5Y 6799   7.470   8.192  14.339
   53DOPE   C36 6800   7.340   8.367  14.333
   53DOPE   H6X 6801   7.325   8.456  14.268
   53DOPE   H6Y 6802   7.375   8.404  14.432
   53DOPE   C37 6803   7.205   8.296  14.352
   53DOPE   H7X 6804   7.168   8.262  14.253
   53DOPE   H7Y 6805   7.219   8.207  14.417
   53DOPE   C38 6806   7.101   8.391  14.417
   53DOPE   H8X 6807   7.097   8.484  14.356
   53DOPE   H8Y 6808   7.141   8.420  14.516
   53DOPE   C39 6809   6.964   8.330  14.425
   53DOPE   H9X 6810   6.923   8.295  14.328
   53DOPE  C310 6811   6.889   8.314  14.536
   53DOPE  H10X 6812   6.790   8.268  14.526
   53DOPE  C311 6813   6.926   8.353  14.676
   53DOPE  H11X 6814   7.007   8.430  14.678
   53DOPE  H11Y 6815   6.839   8.401  14.726
   53DOPE  C312 6816   6.972   8.234  14.763
   53DOPE  H12X 6817   6.889   8.161  14.774
   53DOPE  H12Y 6818   6.995   8.274  14.865
   53DOPE  C313 6819   7.097   8.163  14.710
   53DOPE  H13X 6820   7.071   8.113  14.614
   53DOPE  H13Y 6821   7.175   8.238  14.686
   53DOPE  C314 6822   7.155   8.057  14.806
   53DOPE  H14X 6823   7.238   8.004  14.754
   53DOPE  H14Y 6824   7.076   7.982  14.827
   53DOPE  C315 6825   7.210   8.112  14.939
   53DOPE  H15X 6826   7.245   8.025  14.999
   53DOPE  H15Y 6827   7.128   8.160  14.996
   53DOPE  C316 6828   7.325   8.212  14.922
   53DOPE  H16X 6829   7.290   8.298  14.862
   53DOPE  H16Y 6830   7.407   8.163  14.866
   53DOPE  C317 6831   7.381   8.266  15.055
   53DOPE  H17X 6832   7.459   8.342  15.031
   53DOPE  H17Y 6833   7.300   8.320  15.108
   53DOPE  C318 6834   7.441   8.160  15.148
   53DOPE  H18X 6835   7.521   8.104  15.095
   53DOPE  H18Y 6836   7.486   8.208  15.238
   53DOPE  H18Z 6837   7.364   8.088  15.181
   54DOPE     N 6838   0.280   4.154  12.959
   54DOPE   HN1 6839   0.374   4.124  12.926
   54DOPE   HN2 6840   0.220   4.070  12.966
   54DOPE   HN3 6841   0.241   4.215  12.884
   54DOPE   C12 6842   0.288   4.230  13.089
   54DOPE  H12A 6843   0.389   4.277  13.094
   54DOPE  H12B 6844   0.278   4.156  13.172
   54DOPE   C11 6845   0.180   4.338  13.096
   54DOPE  H11A 6846   0.188   4.392  13.193
   54DOPE  H11B 6847   0.081   4.288  13.094
   54DOPE     P 6848   0.072   4.522  12.948
   54DOPE   O13 6849   9.175   4.434  12.918
   54DOPE   O14 6850   0.118   4.613  12.839
   54DOPE   O11 6851   0.047   4.604  13.081
   54DOPE   O12 6852   0.196   4.430  12.988
   54DOPE    C1 6853   0.107   4.732  13.101
   54DOPE    HA 6854   0.039   4.811  13.062
   54DOPE    HB 6855   0.204   4.741  13.047
   54DOPE    C2 6856   0.139   4.762  13.250
   54DOPE    HS 6857   0.190   4.861  13.250
   54DOPE   O21 6858   0.226   4.659  13.301
   54DOPE   C21 6859   0.299   4.696  13.406
   54DOPE   O22 6860   0.307   4.810  13.448
   54DOPE   C22 6861   0.371   4.573  13.461
   54DOPE   H2R 6862   0.388   4.504  13.376
   54DOPE   H2S 6863   0.303   4.523  13.533
   54DOPE    C3 6864   0.010   4.777  13.339
   54DOPE    HX 6865   9.167   4.859  13.295
   54DOPE    HY 6866   0.039   4.811  13.441
   54DOPE   O31 6867   9.145   4.658  13.341
   54DOPE   C31 6868   9.176   4.569  13.434
   54DOPE   O32 6869   0.039   4.587  13.525
   54DOPE   C32 6870   9.094   4.442  13.411
   54DOPE   H2X 6871   8.986   4.471  13.417
   54DOPE   H2Y 6872   9.114   4.406  13.308
   54DOPE   C23 6873   0.508   4.604  13.527
   54DOPE   H3R 6874   0.571   4.662  13.457
   54DOPE   H3S 6875   0.559   4.507  13.544
   54DOPE   C24 6876   0.502   4.677  13.663
   54DOPE   H4R 6877   0.463   4.780  13.649
   54DOPE   H4S 6878   0.607   4.686  13.699
   54DOPE   C25 6879   0.421   4.604  13.772
   54DOPE   H5R 6880   0.475   4.616  13.869
   54DOPE   H5S 6881   0.419   4.495  13.750
   54DOPE   C26 6882   0.277   4.655  13.791
   54DOPE   H6R 6883   0.227   4.590  13.865
   54DOPE   H6S 6884   0.221   4.644  13.695
   54DOPE   C27 6885   0.263   4.802  13.837
   54DOPE   H7R 6886   0.155   4.822  13.851
   54DOPE   H7S 6887   0.299   4.869  13.757
   54DOPE   C28 6888   0.337   4.833  13.969
   54DOPE   H8R 6889   0.446   4.822  13.952
   54DOPE   H8S 6890   0.309   4.756  14.044
   54DOPE   C29 6891   0.308   4.973  14.017
   54DOPE   H9R 6892   0.338   5.052  13.947
   54DOPE  C210 6893   0.250   5.009  14.133
   54DOPE  H10R 6894   0.237   5.116  14.155
   54DOPE  C211 6895   0.201   4.916  14.242
   54DOPE  H11R 6896   0.178   4.815  14.202
   54DOPE  H11S 6897   0.106   4.954  14.285
   54DOPE  C212 6898   0.304   4.902  14.355
   54DOPE  H12R 6899   0.326   5.001  14.399
   54DOPE  H12S 6900   0.399   4.862  14.313
   54DOPE  C213 6901   0.257   4.807  14.467
   54DOPE  H13R 6902   0.227   4.711  14.419
   54DOPE  H13S 6903   0.167   4.849  14.516
   54DOPE  C214 6904   0.366   4.777  14.571
   54DOPE  H14R 6905   0.458   4.746  14.516
   54DOPE  H14S 6906   0.334   4.690  14.633
   54DOPE  C215 6907   0.401   4.895  14.664
   54DOPE  H15R 6908   0.429   4.983  14.602
   54DOPE  H15S 6909   0.491   4.867  14.723
   54DOPE  C216 6910   0.289   4.936  14.761
   54DOPE  H16R 6911   0.201   4.971  14.703
   54DOPE  H16S 6912   0.325   5.021  14.822
   54DOPE  C217 6913   0.242   4.824  14.857
   54DOPE  H17R 6914   0.197   4.742  14.798
   54DOPE  H17S 6915   0.162   4.866  14.922
   54DOPE  C218 6916   0.352   4.767  14.947
   54DOPE  H18R 6917   0.431   4.717  14.886
   54DOPE  H18S 6918   0.310   4.691  15.017
   54DOPE  H18T 6919   0.399   4.848  15.007
   54DOPE   C33 6920   9.124   4.331  13.514
   54DOPE   H3X 6921   9.048   4.251  13.502
   54DOPE   H3Y 6922   9.114   4.371  13.617
   54DOPE   C34 6923   0.046   4.268  13.495
   54DOPE   H4X 6924   0.055   4.233  13.390
   54DOPE   H4Y 6925   0.124   4.345  13.511
   54DOPE   C35 6926   0.074   4.149  13.588
   54DOPE   H5X 6927   0.174   4.108  13.564
   54DOPE   H5Y 6928   9.216   4.069  13.566
   54DOPE   C36 6929   0.069   4.179  13.739
   54DOPE   H6X 6930   0.101   4.088  13.793
   54DOPE   H6Y 6931   9.180   4.200  13.769
   54DOPE   C37 6932   0.158   4.296  13.783
   54DOPE   H7X 6933   0.252   4.293  13.724
   54DOPE   H7Y 6934   0.108   4.392  13.759
   54DOPE   C38 6935   0.197   4.292  13.933
   54DOPE   H8X 6936   0.263   4.380  13.953
   54DOPE   H8Y 6937   0.261   4.203  13.949
   54DOPE   C39 6938   0.080   4.288  14.027
   54DOPE   H9X 6939   0.011   4.203  14.011
   54DOPE  C310 6940   0.052   4.374  14.126
   54DOPE  H10X 6941   9.179   4.357  14.188
   54DOPE  C311 6942   0.133   4.496  14.163
   54DOPE  H11X 6943   0.172   4.546  14.072
   54DOPE  H11Y 6944   0.068   4.571  14.214
   54DOPE  C312 6945   0.253   4.465  14.255
   54DOPE  H12X 6946   0.313   4.557  14.265
   54DOPE  H12Y 6947   0.318   4.388  14.208
   54DOPE  C313 6948   0.213   4.418  14.396
   54DOPE  H13X 6949   0.141   4.492  14.439
   54DOPE  H13Y 6950   0.161   4.320  14.390
   54DOPE  C314 6951   0.334   4.407  14.490
   54DOPE  H14X 6952   0.389   4.504  14.488
   54DOPE  H14Y 6953   0.403   4.329  14.452
   54DOPE  C315 6954   0.295   4.375  14.635
   54DOPE  H15X 6955   0.248   4.274  14.638
   54DOPE  H15Y 6956   0.220   4.448  14.670
   54DOPE  C316 6957   0.416   4.379  14.730
   54DOPE  H16X 6958   0.462   4.480  14.724
   54DOPE  H16Y 6959   0.492   4.305  14.696
   54DOPE  C317 6960   0.381   4.350  14.877
   54DOPE  H17X 6961   0.471   4.369  14.939
   54DOPE  H17Y 6962   0.302   4.422  14.910
   54DOPE  C318 6963   0.333   4.207  14.904
   54DOPE  H18X 6964   0.409   4.134  14.870
   54DOPE  H18Y 6965   0.315   4.191  15.012
   54DOPE  H18Z 6966   0.238   4.186  14.849
   55DOPE     N 6967   0.390   6.838  13.180
   55DOPE   HN1 6968   0.337   6.758  13.138
   55DOPE   HN2 6969   0.461   6.798  13.245
   55DOPE   HN3 6970   0.321   6.894  13.234
   55DOPE   C12 6971   0.452   6.922  13.072
   55DOPE  H12A 6972   0.371   6.951  13.002
   55DOPE  H12B 6973   0.527   6.860  13.018
   55DOPE   C11 6974   0.517   7.049  13.130
   55DOPE  H11A 6975   0.588   7.023  13.212
   55DOPE  H11B 6976   0.438   7.113  13.176
   55DOPE     P 6977   0.735   7.104  12.997
   55DOPE   O13 6978   0.767   7.182  12.875
   55DOPE   O14 6979   0.763   6.959  12.998
   55DOPE   O11 6980   0.797   7.177  13.123
   55DOPE   O12 6981   0.579   7.124  13.025
   55DOPE    C1 6982   0.808   7.320  13.117
   55DOPE    HA 6983   0.720   7.367  13.068
   55DOPE    HB 6984   0.898   7.346  13.056
   55DOPE    C2 6985   0.822   7.391  13.256
   55DOPE    HS 6986   0.846   7.498  13.238
   55DOPE   O21 6987   0.924   7.329  13.337
   55DOPE   C21 6988   1.048   7.354  13.295
   55DOPE   O22 6989   1.077   7.430  13.204
   55DOPE   C22 6990   1.148   7.277  13.380
   55DOPE   H2R 6991   1.246   7.282  13.327
   55DOPE   H2S 6992   1.116   7.171  13.385
   55DOPE    C3 6993   0.688   7.391  13.335
   55DOPE    HX 6994   0.610   7.437  13.271
   55DOPE    HY 6995   0.704   7.457  13.423
   55DOPE   O31 6996   0.647   7.260  13.377
   55DOPE   C31 6997   0.545   7.262  13.462
   55DOPE   O32 6998   0.478   7.360  13.488
   55DOPE   C32 6999   0.526   7.124  13.524
   55DOPE   H2X 7000   0.417   7.105  13.530
   55DOPE   H2Y 7001   0.573   7.048  13.459
   55DOPE   C23 7002   1.164   7.336  13.523
   55DOPE   H3R 7003   1.069   7.323  13.579
   55DOPE   H3S 7004   1.185   7.445  13.516
   55DOPE   C24 7005   1.279   7.270  13.599
   55DOPE   H4R 7006   1.372   7.281  13.540
   55DOPE   H4S 7007   1.260   7.161  13.608
   55DOPE   C25 7008   1.304   7.328  13.739
   55DOPE   H5R 7009   1.319   7.438  13.732
   55DOPE   H5S 7010   1.398   7.285  13.778
   55DOPE   C26 7011   1.193   7.297  13.841
   55DOPE   H6R 7012   1.169   7.188  13.832
   55DOPE   H6S 7013   1.100   7.352  13.816
   55DOPE   C27 7014   1.235   7.323  13.987
   55DOPE   H7R 7015   1.338   7.285  13.999
   55DOPE   H7S 7016   1.170   7.263  14.055
   55DOPE   C28 7017   1.230   7.471  14.031
   55DOPE   H8R 7018   1.284   7.532  13.956
   55DOPE   H8S 7019   1.288   7.479  14.125
   55DOPE   C29 7020   1.088   7.520  14.048
   55DOPE   H9R 7021   1.030   7.525  13.955
   55DOPE  C210 7022   1.027   7.555  14.163
   55DOPE  H10R 7023   0.922   7.587  14.159
   55DOPE  C211 7024   1.086   7.555  14.302
   55DOPE  H11R 7025   1.059   7.650  14.354
   55DOPE  H11S 7026   1.197   7.550  14.301
   55DOPE  C212 7027   1.034   7.437  14.387
   55DOPE  H12R 7028   1.067   7.342  14.341
   55DOPE  H12S 7029   0.923   7.437  14.388
   55DOPE  C213 7030   1.083   7.443  14.533
   55DOPE  H13R 7031   1.045   7.538  14.578
   55DOPE  H13S 7032   1.194   7.448  14.534
   55DOPE  C214 7033   1.036   7.325  14.620
   55DOPE  H14R 7034   0.927   7.311  14.608
   55DOPE  H14S 7035   1.055   7.350  14.726
   55DOPE  C215 7036   1.110   7.194  14.589
   55DOPE  H15R 7037   1.219   7.211  14.603
   55DOPE  H15S 7038   1.094   7.166  14.482
   55DOPE  C216 7039   1.068   7.077  14.678
   55DOPE  H16R 7040   0.961   7.054  14.660
   55DOPE  H16S 7041   1.078   7.107  14.785
   55DOPE  C217 7042   1.153   6.952  14.654
   55DOPE  H17R 7043   1.259   6.977  14.671
   55DOPE  H17S 7044   1.142   6.922  14.547
   55DOPE  C218 7045   1.115   6.833  14.743
   55DOPE  H18R 7046   1.178   6.745  14.720
   55DOPE  H18S 7047   1.008   6.805  14.727
   55DOPE  H18T 7048   1.128   6.859  14.850
   55DOPE   C33 7049   0.588   7.120  13.666
   55DOPE   H3X 7050   0.560   7.024  13.714
   55DOPE   H3Y 7051   0.546   7.202  13.728
   55DOPE   C34 7052   0.742   7.128  13.663
   55DOPE   H4X 7053   0.781   7.046  13.600
   55DOPE   H4Y 7054   0.774   7.224  13.616
   55DOPE   C35 7055   0.806   7.118  13.803
   55DOPE   H5X 7056   0.916   7.107  13.791
   55DOPE   H5Y 7057   0.768   7.026  13.852
   55DOPE   C36 7058   0.779   7.240  13.892
   55DOPE   H6X 7059   0.670   7.253  13.906
   55DOPE   H6Y 7060   0.817   7.330  13.840
   55DOPE   C37 7061   0.845   7.231  14.030
   55DOPE   H7X 7062   0.954   7.215  14.017
   55DOPE   H7Y 7063   0.831   7.328  14.082
   55DOPE   C38 7064   0.787   7.118  14.118
   55DOPE   H8X 7065   0.806   7.020  14.070
   55DOPE   H8Y 7066   0.676   7.131  14.121
   55DOPE   C39 7067   0.846   7.118  14.257
   55DOPE   H9X 7068   0.947   7.076  14.265
   55DOPE  C310 7069   0.787   7.166  14.368
   55DOPE  H10X 7070   0.841   7.158  14.464
   55DOPE  C311 7071   0.651   7.230  14.378
   55DOPE  H11X 7072   0.655   7.318  14.446
   55DOPE  H11Y 7073   0.618   7.270  14.280
   55DOPE  C312 7074   0.542   7.133  14.428
   55DOPE  H12X 7075   0.533   7.049  14.355
   55DOPE  H12Y 7076   0.445   7.186  14.429
   55DOPE  C313 7077   0.567   7.074  14.568
   55DOPE  H13X 7078   0.485   7.002  14.591
   55DOPE  H13Y 7079   0.662   7.017  14.568
   55DOPE  C314 7080   0.570   7.179  14.680
   55DOPE  H14X 7081   0.475   7.237  14.676
   55DOPE  H14Y 7082   0.654   7.251  14.662
   55DOPE  C315 7083   0.586   7.119  14.820
   55DOPE  H15X 7084   0.508   7.042  14.836
   55DOPE  H15Y 7085   0.570   7.199  14.895
   55DOPE  C316 7086   0.725   7.057  14.845
   55DOPE  H16X 7087   0.803   7.134  14.826
   55DOPE  H16Y 7088   0.741   6.974  14.774
   55DOPE  C317 7089   0.741   7.004  14.988
   55DOPE  H17X 7090   0.725   7.088  15.060
   55DOPE  H17Y 7091   0.662   6.928  15.007
   55DOPE  C318 7092   0.878   6.942  15.015
   55DOPE  H18X 7093   0.959   7.016  14.996
   55DOPE  H18Y 7094   0.886   6.906  15.120
   55DOPE  H18Z 7095   0.895   6.855  14.947
   56DOPE     N 7096   0.988   7.600  12.818
   56DOPE   HN1 7097   0.917   7.675  12.803
   56DOPE   HN2 7098   1.067   7.622  12.754
   56DOPE   HN3 7099   0.949   7.508  12.792
   56DOPE   C12 7100   1.041   7.608  12.959
   56DOPE  H12A 7101   1.130   7.543  12.965
   56DOPE  H12B 7102   0.962   7.569  13.027
   56DOPE   C11 7103   1.077   7.753  12.995
   56DOPE  H11A 7104   1.127   7.752  13.094
   56DOPE  H11B 7105   0.984   7.813  13.004
   56DOPE     P 7106   1.217   7.957  12.915
   56DOPE   O13 7107   1.278   7.999  12.787
   56DOPE   O14 7108   1.304   7.961  13.034
   56DOPE   O11 7109   1.084   8.040  12.942
   56DOPE   O12 7110   1.162   7.809  12.895
   56DOPE    C1 7111   1.075   8.173  12.890
   56DOPE    HA 7112   1.073   8.171  12.779
   56DOPE    HB 7113   1.163   8.233  12.920
   56DOPE    C2 7114   0.948   8.251  12.936
   56DOPE    HS 7115   0.946   8.348  12.883
   56DOPE   O21 7116   0.950   8.271  13.079
   56DOPE   C21 7117   1.024   8.373  13.120
   56DOPE   O22 7118   1.086   8.450  13.049
   56DOPE   C22 7119   1.013   8.382  13.273
   56DOPE   H2R 7120   1.041   8.283  13.315
   56DOPE   H2S 7121   0.906   8.401  13.297
   56DOPE    C3 7122   0.814   8.180  12.897
   56DOPE    HX 7123   0.819   8.161  12.787
   56DOPE    HY 7124   0.731   8.252  12.912
   56DOPE   O31 7125   0.792   8.055  12.965
   56DOPE   C31 7126   0.726   8.064  13.079
   56DOPE   O32 7127   0.664   8.161  13.120
   56DOPE   C32 7128   0.730   7.928  13.151
   56DOPE   H2X 7129   0.626   7.887  13.147
   56DOPE   H2Y 7130   0.798   7.859  13.096
   56DOPE   C23 7131   1.102   8.493  13.334
   56DOPE   H3R 7132   1.082   8.588  13.282
   56DOPE   H3S 7133   1.209   8.467  13.319
   56DOPE   C24 7134   1.076   8.515  13.485
   56DOPE   H4R 7135   0.970   8.541  13.500
   56DOPE   H4S 7136   1.137   8.602  13.518
   56DOPE   C25 7137   1.112   8.393  13.572
   56DOPE   H5R 7138   1.193   8.421  13.643
   56DOPE   H5S 7139   1.153   8.313  13.507
   56DOPE   C26 7140   0.993   8.337  13.652
   56DOPE   H6R 7141   1.018   8.235  13.685
   56DOPE   H6S 7142   0.904   8.329  13.584
   56DOPE   C27 7143   0.957   8.422  13.775
   56DOPE   H7R 7144   0.944   8.528  13.744
   56DOPE   H7S 7145   1.044   8.419  13.846
   56DOPE   C28 7146   0.830   8.376  13.850
   56DOPE   H8R 7147   0.743   8.392  13.783
   56DOPE   H8S 7148   0.815   8.444  13.937
   56DOPE   C29 7149   0.834   8.232  13.894
   56DOPE   H9R 7150   0.791   8.161  13.822
   56DOPE  C210 7151   0.888   8.184  14.008
   56DOPE  H10R 7152   0.885   8.075  14.025
   56DOPE  C211 7153   0.956   8.263  14.117
   56DOPE  H11R 7154   0.930   8.371  14.112
   56DOPE  H11S 7155   1.066   8.256  14.104
   56DOPE  C212 7156   0.921   8.209  14.257
   56DOPE  H12R 7157   0.947   8.101  14.261
   56DOPE  H12S 7158   0.811   8.218  14.274
   56DOPE  C213 7159   0.997   8.279  14.371
   56DOPE  H13R 7160   1.106   8.275  14.349
   56DOPE  H13S 7161   0.979   8.222  14.465
   56DOPE  C214 7162   0.955   8.425  14.393
   56DOPE  H14R 7163   0.846   8.428  14.414
   56DOPE  H14S 7164   0.974   8.483  14.301
   56DOPE  C215 7165   1.029   8.491  14.510
   56DOPE  H15R 7166   1.138   8.483  14.491
   56DOPE  H15S 7167   1.009   8.434  14.604
   56DOPE  C216 7168   0.994   8.639  14.530
   56DOPE  H16R 7169   1.008   8.691  14.433
   56DOPE  H16S 7170   1.064   8.683  14.603
   56DOPE  C217 7171   0.850   8.666  14.579
   56DOPE  H17R 7172   0.778   8.626  14.504
   56DOPE  H17S 7173   0.835   8.776  14.582
   56DOPE  C218 7174   0.818   8.607  14.716
   56DOPE  H18R 7175   0.822   8.496  14.714
   56DOPE  H18S 7176   0.716   8.637  14.748
   56DOPE  H18T 7177   0.890   8.643  14.792
   56DOPE   C33 7178   0.774   7.942  13.298
   56DOPE   H3X 7179   0.759   7.844  13.348
   56DOPE   H3Y 7180   0.710   8.016  13.351
   56DOPE   C34 7181   0.922   7.983  13.313
   56DOPE   H4X 7182   0.987   7.911  13.260
   56DOPE   H4Y 7183   0.936   8.082  13.265
   56DOPE   C35 7184   0.966   7.994  13.461
   56DOPE   H5X 7185   0.891   8.055  13.515
   56DOPE   H5Y 7186   1.063   8.048  13.466
   56DOPE   C36 7187   0.982   7.858  13.532
   56DOPE   H6X 7188   0.896   7.793  13.506
   56DOPE   H6Y 7189   0.979   7.874  13.642
   56DOPE   C37 7190   1.113   7.786  13.496
   56DOPE   H7X 7191   1.097   7.676  13.500
   56DOPE   H7Y 7192   1.140   7.810  13.391
   56DOPE   C38 7193   1.231   7.824  13.587
   56DOPE   H8X 7194   1.238   7.935  13.592
   56DOPE   H8Y 7195   1.325   7.789  13.539
   56DOPE   C39 7196   1.221   7.760  13.724
   56DOPE   H9X 7197   1.231   7.651  13.723
   56DOPE  C310 7198   1.199   7.821  13.842
   56DOPE  H10X 7199   1.194   7.758  13.932
   56DOPE  C311 7200   1.180   7.968  13.869
   56DOPE  H11X 7201   1.189   8.028  13.776
   56DOPE  H11Y 7202   1.078   7.986  13.908
   56DOPE  C312 7203   1.281   8.024  13.971
   56DOPE  H12X 7204   1.265   8.134  13.980
   56DOPE  H12Y 7205   1.385   8.009  13.933
   56DOPE  C313 7206   1.269   7.962  14.112
   56DOPE  H13X 7207   1.164   7.974  14.147
   56DOPE  H13Y 7208   1.291   7.854  14.106
   56DOPE  C314 7209   1.365   8.027  14.213
   56DOPE  H14X 7210   1.336   8.133  14.228
   56DOPE  H14Y 7211   1.467   8.026  14.170
   56DOPE  C315 7212   1.368   7.955  14.349
   56DOPE  H15X 7213   1.446   8.003  14.412
   56DOPE  H15Y 7214   1.399   7.849  14.333
   56DOPE  C316 7215   1.234   7.959  14.424
   56DOPE  H16X 7216   1.160   7.896  14.369
   56DOPE  H16Y 7217   1.196   8.064  14.423
   56DOPE  C317 7218   1.243   7.911  14.570
   56DOPE  H17X 7219   1.308   7.980  14.626
   56DOPE  H17Y 7220   1.141   7.917  14.614
   56DOPE  C318 7221   1.295   7.768  14.586
   56DOPE  H18X 7222   1.292   7.737  14.693
   56DOPE  H18Y 7223   1.234   7.697  14.527
   56DOPE  H18Z 7224   1.401   7.760  14.551
   57DOPE     N 7225   0.018   2.741  12.799
   57DOPE   HN1 7226   9.196   2.704  12.709
   57DOPE   HN2 7227   0.104   2.797  12.780
   57DOPE   HN3 7228   0.046   2.663  12.861
   57DOPE   C12 7229   9.139   2.834  12.870
   57DOPE  H12A 7230   9.039   2.787  12.870
   57DOPE  H12B 7231   9.136   2.928  12.812
   57DOPE   C11 7232   9.186   2.862  13.016
   57DOPE  H11A 7233   9.152   2.777  13.079
   57DOPE  H11B 7234   9.134   2.952  13.054
   57DOPE     P 7235   0.193   2.984  12.954
   57DOPE   O13 7236   0.123   3.114  12.965
   57DOPE   O14 7237   0.212   2.932  12.817
   57DOPE   O11 7238   0.331   2.987  13.031
   57DOPE   O12 7239   0.111   2.873  13.031
   57DOPE    C1 7240   0.375   3.109  13.091
   57DOPE    HA 7241   0.297   3.150  13.159
   57DOPE    HB 7242   0.398   3.184  13.013
   57DOPE    C2 7243   0.504   3.089  13.177
   57DOPE    HS 7244   0.588   3.070  13.106
   57DOPE   O21 7245   0.486   2.979  13.269
   57DOPE   C21 7246   0.524   2.861  13.223
   57DOPE   O22 7247   0.588   2.841  13.121
   57DOPE   C22 7248   0.489   2.752  13.324
   57DOPE   H2R 7249   0.505   2.792  13.426
   57DOPE   H2S 7250   0.561   2.669  13.308
   57DOPE    C3 7251   0.544   3.218  13.255
   57DOPE    HX 7252   0.588   3.289  13.182
   57DOPE    HY 7253   0.622   3.189  13.328
   57DOPE   O31 7254   0.430   3.279  13.319
   57DOPE   C31 7255   0.459   3.372  13.409
   57DOPE   O32 7256   0.572   3.409  13.437
   57DOPE   C32 7257   0.330   3.429  13.467
   57DOPE   H2X 7258   0.330   3.539  13.450
   57DOPE   H2Y 7259   0.245   3.387  13.410
   57DOPE   C23 7260   0.345   2.698  13.307
   57DOPE   H3R 7261   0.331   2.665  13.202
   57DOPE   H3S 7262   0.271   2.779  13.326
   57DOPE   C24 7263   0.314   2.578  13.399
   57DOPE   H4R 7264   0.392   2.500  13.384
   57DOPE   H4S 7265   0.217   2.534  13.370
   57DOPE   C25 7266   0.308   2.615  13.548
   57DOPE   H5R 7267   0.224   2.687  13.563
   57DOPE   H5S 7268   0.402   2.666  13.577
   57DOPE   C26 7269   0.288   2.494  13.641
   57DOPE   H6R 7270   0.366   2.420  13.615
   57DOPE   H6S 7271   0.190   2.447  13.623
   57DOPE   C27 7272   0.304   2.530  13.790
   57DOPE   H7R 7273   0.386   2.605  13.799
   57DOPE   H7S 7274   0.338   2.441  13.847
   57DOPE   C28 7275   0.177   2.588  13.856
   57DOPE   H8R 7276   0.129   2.659  13.785
   57DOPE   H8S 7277   0.209   2.646  13.945
   57DOPE   C29 7278   0.079   2.479  13.895
   57DOPE   H9R 7279   0.065   2.401  13.819
   57DOPE  C210 7280   0.010   2.470  14.010
   57DOPE  H10R 7281   9.159   2.384  14.025
   57DOPE  C211 7282   0.015   2.567  14.126
   57DOPE  H11R 7283   0.052   2.666  14.092
   57DOPE  H11S 7284   0.085   2.531  14.204
   57DOPE  C212 7285   9.092   2.591  14.189
   57DOPE  H12R 7286   9.018   2.609  14.108
   57DOPE  H12S 7287   9.096   2.685  14.249
   57DOPE  C213 7288   9.042   2.476  14.279
   57DOPE  H13R 7289   9.053   2.380  14.225
   57DOPE  H13S 7290   8.933   2.492  14.297
   57DOPE  C214 7291   9.112   2.466  14.416
   57DOPE  H14R 7292   0.005   2.454  14.402
   57DOPE  H14S 7293   9.075   2.375  14.467
   57DOPE  C215 7294   9.085   2.587  14.507
   57DOPE  H15R 7295   8.976   2.608  14.507
   57DOPE  H15S 7296   9.137   2.676  14.465
   57DOPE  C216 7297   9.132   2.565  14.652
   57DOPE  H16R 7298   0.022   2.532  14.650
   57DOPE  H16S 7299   9.073   2.483  14.697
   57DOPE  C217 7300   9.121   2.690  14.740
   57DOPE  H17R 7301   9.190   2.768  14.702
   57DOPE  H17S 7302   9.154   2.664  14.843
   57DOPE  C218 7303   8.980   2.750  14.748
   57DOPE  H18R 7304   8.978   2.836  14.819
   57DOPE  H18S 7305   8.907   2.674  14.783
   57DOPE  H18T 7306   8.947   2.787  14.649
   57DOPE   C33 7307   0.307   3.400  13.618
   57DOPE   H3X 7308   0.367   3.470  13.679
   57DOPE   H3Y 7309   0.339   3.296  13.643
   57DOPE   C34 7310   0.158   3.413  13.653
   57DOPE   H4X 7311   0.122   3.511  13.614
   57DOPE   H4Y 7312   0.099   3.335  13.601
   57DOPE   C35 7313   0.128   3.408  13.804
   57DOPE   H5X 7314   0.192   3.485  13.854
   57DOPE   H5Y 7315   0.157   3.309  13.846
   57DOPE   C36 7316   9.197   3.438  13.835
   57DOPE   H6X 7317   9.135   3.349  13.814
   57DOPE   H6Y 7318   9.163   3.519  13.767
   57DOPE   C37 7319   9.174   3.488  13.979
   57DOPE   H7X 7320   0.033   3.566  14.002
   57DOPE   H7Y 7321   9.074   3.536  13.986
   57DOPE   C38 7322   9.181   3.375  14.083
   57DOPE   H8X 7323   0.053   3.313  14.058
   57DOPE   H8Y 7324   9.093   3.309  14.069
   57DOPE   C39 7325   9.188   3.425  14.225
   57DOPE   H9X 7326   9.096   3.472  14.263
   57DOPE  C310 7327   0.078   3.417  14.307
   57DOPE  H10X 7328   0.071   3.456  14.409
   57DOPE  C311 7329   0.212   3.358  14.270
   57DOPE  H11X 7330   0.214   3.250  14.297
   57DOPE  H11Y 7331   0.230   3.364  14.160
   57DOPE  C312 7332   0.331   3.428  14.339
   57DOPE  H12X 7333   0.327   3.408  14.448
   57DOPE  H12Y 7334   0.322   3.538  14.325
   57DOPE  C313 7335   0.468   3.385  14.284
   57DOPE  H13X 7336   0.475   3.420  14.178
   57DOPE  H13Y 7337   0.547   3.436  14.341
   57DOPE  C314 7338   0.495   3.233  14.285
   57DOPE  H14X 7339   0.595   3.216  14.240
   57DOPE  H14Y 7340   0.421   3.181  14.221
   57DOPE  C315 7341   0.493   3.170  14.425
   57DOPE  H15X 7342   0.390   3.177  14.467
   57DOPE  H15Y 7343   0.561   3.228  14.492
   57DOPE  C316 7344   0.538   3.023  14.423
   57DOPE  H16X 7345   0.639   3.019  14.379
   57DOPE  H16Y 7346   0.470   2.965  14.357
   57DOPE  C317 7347   0.541   2.957  14.562
   57DOPE  H17X 7348   0.593   2.859  14.552
   57DOPE  H17Y 7349   0.603   3.019  14.630
   57DOPE  C318 7350   0.403   2.933  14.623
   57DOPE  H18X 7351   0.412   2.880  14.720
   57DOPE  H18Y 7352   0.351   3.030  14.641
   57DOPE  H18Z 7353   0.341   2.872  14.555
   58DOPE     N 7354   8.996   6.992  12.681
   58DOPE   HN1 7355   8.965   6.937  12.763
   58DOPE   HN2 7356   8.931   6.972  12.602
   58DOPE   HN3 7357   9.092   6.960  12.653
   58DOPE   C12 7358   9.000   7.136  12.722
   58DOPE  H12A 7359   8.895   7.168  12.741
   58DOPE  H12B 7360   9.041   7.196  12.638
   58DOPE   C11 7361   9.085   7.153  12.850
   58DOPE  H11A 7362   9.071   7.256  12.891
   58DOPE  H11B 7363   9.192   7.146  12.821
   58DOPE     P 7364   8.918   7.046  13.020
   58DOPE   O13 7365   8.832   6.976  12.923
   58DOPE   O14 7366   8.878   7.184  13.057
   58DOPE   O11 7367   8.944   6.954  13.146
   58DOPE   O12 7368   9.060   7.054  12.950
   58DOPE    C1 7369   8.975   6.815  13.126
   58DOPE    HA 7370   9.018   6.795  13.026
   58DOPE    HB 7371   8.881   6.756  13.134
   58DOPE    C2 7372   9.079   6.758  13.228
   58DOPE    HS 7373   9.105   6.655  13.195
   58DOPE   O21 7374   9.025   6.756  13.362
   58DOPE   C21 7375   8.947   6.653  13.388
   58DOPE   O22 7376   8.907   6.571  13.307
   58DOPE   C22 7377   8.924   6.641  13.539
   58DOPE   H2R 7378   9.019   6.666  13.591
   58DOPE   H2S 7379   8.902   6.534  13.557
   58DOPE    C3 7380   9.213   6.837  13.230
   58DOPE    HX 7381   0.036   6.839  13.127
   58DOPE    HY 7382   0.065   6.777  13.295
   58DOPE   O31 7383   9.197   6.971  13.281
   58DOPE   C31 7384   0.091   7.031  13.317
   58DOPE   O32 7385   0.205   6.987  13.303
   58DOPE   C32 7386   0.058   7.165  13.381
   58DOPE   H2X 7387   0.152   7.222  13.394
   58DOPE   H2Y 7388   9.209   7.221  13.309
   58DOPE   C23 7389   8.807   6.727  13.592
   58DOPE   H3R 7390   8.765   6.674  13.680
   58DOPE   H3S 7391   8.726   6.736  13.517
   58DOPE   C24 7392   8.851   6.865  13.641
   58DOPE   H4R 7393   8.893   6.924  13.556
   58DOPE   H4S 7394   8.932   6.852  13.716
   58DOPE   C25 7395   8.735   6.942  13.707
   58DOPE   H5R 7396   8.679   6.871  13.772
   58DOPE   H5S 7397   8.665   6.978  13.628
   58DOPE   C26 7398   8.782   7.059  13.794
   58DOPE   H6R 7399   8.841   7.130  13.732
   58DOPE   H6S 7400   8.849   7.019  13.873
   58DOPE   C27 7401   8.665   7.132  13.861
   58DOPE   H7R 7402   8.596   7.056  13.903
   58DOPE   H7S 7403   8.608   7.190  13.785
   58DOPE   C28 7404   8.707   7.224  13.978
   58DOPE   H8R 7405   8.763   7.163  14.051
   58DOPE   H8S 7406   8.614   7.257  14.029
   58DOPE   C29 7407   8.791   7.342  13.934
   58DOPE   H9R 7408   8.873   7.316  13.865
   58DOPE  C210 7409   8.777   7.470  13.972
   58DOPE  H10R 7410   8.848   7.545  13.932
   58DOPE  C211 7411   8.673   7.528  14.066
   58DOPE  H11R 7412   8.583   7.463  14.072
   58DOPE  H11S 7413   8.637   7.625  14.025
   58DOPE  C212 7414   8.726   7.553  14.208
   58DOPE  H12R 7415   8.650   7.611  14.265
   58DOPE  H12S 7416   8.817   7.617  14.202
   58DOPE  C213 7417   8.760   7.426  14.288
   58DOPE  H13R 7418   8.817   7.454  14.380
   58DOPE  H13S 7419   8.827   7.361  14.227
   58DOPE  C214 7420   8.636   7.345  14.331
   58DOPE  H14R 7421   8.571   7.329  14.242
   58DOPE  H14S 7422   8.579   7.404  14.405
   58DOPE  C215 7423   8.672   7.207  14.388
   58DOPE  H15R 7424   8.734   7.219  14.480
   58DOPE  H15S 7425   8.734   7.154  14.313
   58DOPE  C216 7426   8.548   7.121  14.418
   58DOPE  H16R 7427   8.581   7.017  14.440
   58DOPE  H16S 7428   8.485   7.116  14.326
   58DOPE  C217 7429   8.461   7.171  14.535
   58DOPE  H17R 7430   8.372   7.105  14.541
   58DOPE  H17S 7431   8.425   7.273  14.513
   58DOPE  C218 7432   8.531   7.169  14.671
   58DOPE  H18R 7433   8.570   7.068  14.694
   58DOPE  H18S 7434   8.461   7.199  14.752
   58DOPE  H18T 7435   8.617   7.240  14.672
   58DOPE   C33 7436   9.201   7.150  13.516
   58DOPE   H3X 7437   9.108   7.089  13.502
   58DOPE   H3Y 7438   9.169   7.251  13.549
   58DOPE   C34 7439   0.072   7.088  13.625
   58DOPE   H4X 7440   0.093   6.981  13.601
   58DOPE   H4Y 7441   0.169   7.142  13.629
   58DOPE   C35 7442   0.006   7.095  13.764
   58DOPE   H5X 7443   9.126   7.041  13.762
   58DOPE   H5Y 7444   9.202   7.202  13.787
   58DOPE   C36 7445   0.096   7.037  13.875
   58DOPE   H6X 7446   0.198   7.079  13.863
   58DOPE   H6Y 7447   0.103   6.927  13.862
   58DOPE   C37 7448   0.047   7.070  14.017
   58DOPE   H7X 7449   0.121   7.031  14.091
   58DOPE   H7Y 7450   0.046   7.181  14.028
   58DOPE   C38 7451   9.123   7.018  14.053
   58DOPE   H8X 7452   9.050   7.058  13.980
   58DOPE   H8Y 7453   9.096   7.061  14.151
   58DOPE   C39 7454   9.117   6.867  14.055
   58DOPE   H9X 7455   9.124   6.820  13.956
   58DOPE  C310 7456   9.105   6.788  14.163
   58DOPE  H10X 7457   9.103   6.679  14.148
   58DOPE  C311 7458   9.094   6.832  14.307
   58DOPE  H11X 7459   9.049   6.934  14.315
   58DOPE  H11Y 7460   9.026   6.764  14.362
   58DOPE  C312 7461   0.014   6.833  14.379
   58DOPE  H12X 7462   0.082   6.905  14.328
   58DOPE  H12Y 7463   0.059   6.732  14.370
   58DOPE  C313 7464   0.005   6.868  14.528
   58DOPE  H13X 7465   9.146   6.802  14.577
   58DOPE  H13Y 7466   0.104   6.846  14.575
   58DOPE  C314 7467   9.188   7.015  14.556
   58DOPE  H14X 7468   9.088   7.039  14.515
   58DOPE  H14Y 7469   0.045   7.079  14.502
   58DOPE  C315 7470   9.192   7.050  14.706
   58DOPE  H15X 7471   0.074   7.020  14.747
   58DOPE  H15Y 7472   9.114   6.991  14.758
   58DOPE  C316 7473   9.170   7.199  14.732
   58DOPE  H16X 7474   9.076   7.231  14.681
   58DOPE  H16Y 7475   0.037   7.257  14.687
   58DOPE  C317 7476   9.159   7.236  14.881
   58DOPE  H17X 7477   9.141   7.346  14.889
   58DOPE  H17Y 7478   9.069   7.186  14.924
   58DOPE  C318 7479   0.065   7.200  14.965
   58DOPE  H18X 7480   0.052   7.234  15.070
   58DOPE  H18Y 7481   0.081   7.090  14.967
   58DOPE  H18Z 7482   0.156   7.248  14.924
   59DOPE     N 7483   9.016   1.174  12.867
   59DOPE   HN1 7484   8.967   1.252  12.915
   59DOPE   HN2 7485   9.003   1.180  12.764
   59DOPE   HN3 7486   8.976   1.083  12.898
   59DOPE   C12 7487   9.161   1.181  12.909
   59DOPE  H12A 7488   9.214   1.094  12.865
   59DOPE  H12B 7489   9.163   1.171  13.020
   59DOPE   C11 7490   0.014   1.314  12.868
   59DOPE  H11A 7491   0.034   1.308  12.759
   59DOPE  H11B 7492   0.113   1.319  12.918
   59DOPE     P 7493   9.082   1.467  13.028
   59DOPE   O13 7494   8.957   1.388  13.023
   59DOPE   O14 7495   9.074   1.615  13.040
   59DOPE   O11 7496   9.180   1.407  13.136
   59DOPE   O12 7497   9.156   1.434  12.892
   59DOPE    C1 7498   0.089   1.467  13.168
   59DOPE    HA 7499   0.124   1.539  13.090
   59DOPE    HB 7500   0.165   1.387  13.173
   59DOPE    C2 7501   0.090   1.541  13.306
   59DOPE    HS 7502   0.115   1.647  13.283
   59DOPE   O21 7503   0.193   1.482  13.387
   59DOPE   C21 7504   0.234   1.557  13.489
   59DOPE   O22 7505   0.205   1.674  13.506
   59DOPE   C22 7506   0.325   1.472  13.578
   59DOPE   H2R 7507   0.425   1.467  13.530
   59DOPE   H2S 7508   0.282   1.369  13.581
   59DOPE    C3 7509   9.169   1.543  13.381
   59DOPE    HX 7510   9.095   1.589  13.312
   59DOPE    HY 7511   9.175   1.611  13.468
   59DOPE   O31 7512   9.122   1.411  13.416
   59DOPE   C31 7513   9.150   1.369  13.539
   59DOPE   O32 7514   9.211   1.432  13.623
   59DOPE   C32 7515   9.089   1.230  13.561
   59DOPE   H2X 7516   9.031   1.234  13.656
   59DOPE   H2Y 7517   9.017   1.210  13.478
   59DOPE   C23 7518   0.338   1.525  13.722
   59DOPE   H3R 7519   0.237   1.542  13.765
   59DOPE   H3S 7520   0.391   1.623  13.721
   59DOPE   C24 7521   0.412   1.424  13.811
   59DOPE   H4R 7522   0.509   1.400  13.764
   59DOPE   H4S 7523   0.352   1.331  13.815
   59DOPE   C25 7524   0.437   1.472  13.955
   59DOPE   H5R 7525   0.470   1.383  14.014
   59DOPE   H5S 7526   0.343   1.509  13.999
   59DOPE   C26 7527   0.547   1.579  13.966
   59DOPE   H6R 7528   0.516   1.665  13.902
   59DOPE   H6S 7529   0.642   1.539  13.924
   59DOPE   C27 7530   0.572   1.633  14.108
   59DOPE   H7R 7531   0.477   1.669  14.153
   59DOPE   H7S 7532   0.638   1.722  14.096
   59DOPE   C28 7533   0.646   1.536  14.204
   59DOPE   H8R 7534   0.696   1.598  14.281
   59DOPE   H8S 7535   0.726   1.485  14.146
   59DOPE   C29 7536   0.556   1.436  14.272
   59DOPE   H9R 7537   0.452   1.434  14.235
   59DOPE  C210 7538   0.592   1.353  14.371
   59DOPE  H10R 7539   0.517   1.284  14.412
   59DOPE  C211 7540   0.729   1.342  14.435
   59DOPE  H11R 7541   0.800   1.414  14.389
   59DOPE  H11S 7542   0.771   1.241  14.418
   59DOPE  C212 7543   0.726   1.369  14.587
   59DOPE  H12R 7544   0.684   1.470  14.606
   59DOPE  H12S 7545   0.831   1.369  14.624
   59DOPE  C213 7546   0.647   1.264  14.666
   59DOPE  H13R 7547   0.688   1.163  14.645
   59DOPE  H13S 7548   0.541   1.266  14.631
   59DOPE  C214 7549   0.649   1.289  14.818
   59DOPE  H14R 7550   0.613   1.392  14.838
   59DOPE  H14S 7551   0.755   1.283  14.853
   59DOPE  C215 7552   0.563   1.190  14.898
   59DOPE  H15R 7553   0.576   1.213  15.006
   59DOPE  H15S 7554   0.600   1.087  14.881
   59DOPE  C216 7555   0.414   1.198  14.863
   59DOPE  H16R 7556   0.397   1.160  14.760
   59DOPE  H16S 7557   0.383   1.305  14.864
   59DOPE  C217 7558   0.325   1.120  14.961
   59DOPE  H17R 7559   0.347   1.154  15.064
   59DOPE  H17S 7560   0.351   1.013  14.954
   59DOPE  C218 7561   0.175   1.138  14.934
   59DOPE  H18R 7562   0.115   1.079  15.007
   59DOPE  H18S 7563   0.150   1.104  14.831
   59DOPE  H18T 7564   0.147   1.245  14.944
   59DOPE   C33 7565   9.194   1.116  13.566
   59DOPE   H3X 7566   0.034   1.113  13.470
   59DOPE   H3Y 7567   9.140   1.020  13.575
   59DOPE   C34 7568   0.079   1.127  13.682
   59DOPE   H4X 7569   0.144   1.037  13.680
   59DOPE   H4Y 7570   0.144   1.215  13.665
   59DOPE   C35 7571   0.017   1.140  13.823
   59DOPE   H5X 7572   9.175   1.235  13.828
   59DOPE   H5Y 7573   0.100   1.150  13.896
   59DOPE   C36 7574   9.146   1.021  13.864
   59DOPE   H6X 7575   9.205   0.928  13.852
   59DOPE   H6Y 7576   9.058   1.014  13.797
   59DOPE   C37 7577   9.097   1.029  14.010
   59DOPE   H7X 7578   9.049   0.932  14.036
   59DOPE   H7Y 7579   9.185   1.043  14.077
   59DOPE   C38 7580   8.995   1.143  14.035
   59DOPE   H8X 7581   8.911   1.129  13.964
   59DOPE   H8Y 7582   9.044   1.239  14.008
   59DOPE   C39 7583   8.943   1.144  14.177
   59DOPE   H9X 7584   8.913   1.045  14.214
   59DOPE  C310 7585   8.931   1.249  14.259
   59DOPE  H10X 7586   8.891   1.232  14.360
   59DOPE  C311 7587   8.966   1.393  14.230
   59DOPE  H11X 7588   9.013   1.405  14.131
   59DOPE  H11Y 7589   8.874   1.455  14.228
   59DOPE  C312 7590   9.062   1.455  14.334
   59DOPE  H12X 7591   9.093   1.555  14.297
   59DOPE  H12Y 7592   9.154   1.393  14.342
   59DOPE  C313 7593   8.999   1.474  14.473
   59DOPE  H13X 7594   8.900   1.523  14.460
   59DOPE  H13Y 7595   8.982   1.376  14.521
   59DOPE  C314 7596   9.084   1.563  14.567
   59DOPE  H14X 7597   9.024   1.584  14.659
   59DOPE  H14Y 7598   9.103   1.660  14.518
   59DOPE  C315 7599   0.001   1.500  14.609
   59DOPE  H15X 7600   0.062   1.481  14.518
   59DOPE  H15Y 7601   9.198   1.402  14.657
   59DOPE  C316 7602   0.079   1.590  14.706
   59DOPE  H16X 7603   0.015   1.610  14.794
   59DOPE  H16Y 7604   0.100   1.687  14.656
   59DOPE  C317 7605   0.212   1.529  14.754
   59DOPE  H17X 7606   0.255   1.598  14.830
   59DOPE  H17Y 7607   0.191   1.433  14.805
   59DOPE  C318 7608   0.316   1.507  14.643
   59DOPE  H18X 7609   0.335   1.601  14.588
   59DOPE  H18Y 7610   0.412   1.472  14.686
   59DOPE  H18Z 7611   0.280   1.431  14.570
   60DOPE     N 7612   0.023   8.980  13.291
   60DOPE   HN1 7613   0.037   8.891  13.239
   60DOPE   HN2 7614   0.115   9.026  13.304
   60DOPE   HN3 7615   9.199   8.952  13.383
   60DOPE   C12 7616   9.142   9.061  13.210
   60DOPE  H12A 7617   9.199   9.112  13.129
   60DOPE  H12B 7618   9.097   9.138  13.277
   60DOPE   C11 7619   9.033   8.973  13.146
   60DOPE  H11A 7620   8.957   9.041  13.101
   60DOPE  H11B 7621   8.979   8.913  13.223
   60DOPE     P 7622   9.134   8.743  13.064
   60DOPE   O13 7623   0.023   8.751  13.167
   60DOPE   O14 7624   9.167   8.685  12.933
   60DOPE   O11 7625   9.005   8.677  13.126
   60DOPE   O12 7626   9.086   8.893  13.041
   60DOPE    C1 7627   8.890   8.659  13.041
   60DOPE    HA 7628   8.917   8.607  12.947
   60DOPE    HB 7629   8.848   8.758  13.014
   60DOPE    C2 7630   8.778   8.575  13.111
   60DOPE    HS 7631   8.682   8.594  13.057
   60DOPE   O21 7632   8.765   8.608  13.250
   60DOPE   C21 7633   8.727   8.732  13.273
   60DOPE   O22 7634   8.684   8.811  13.191
   60DOPE   C22 7635   8.745   8.762  13.422
   60DOPE   H2R 7636   8.842   8.719  13.454
   60DOPE   H2S 7637   8.664   8.708  13.477
   60DOPE    C3 7638   8.806   8.422  13.099
   60DOPE    HX 7639   8.809   8.397  12.991
   60DOPE    HY 7640   8.721   8.366  13.144
   60DOPE   O31 7641   8.933   8.388  13.157
   60DOPE   C31 7642   8.930   8.349  13.284
   60DOPE   O32 7643   8.831   8.315  13.346
   60DOPE   C32 7644   9.073   8.352  13.339
   60DOPE   H2X 7645   9.137   8.298  13.266
   60DOPE   H2Y 7646   9.106   8.458  13.341
   60DOPE   C23 7647   8.737   8.913  13.454
   60DOPE   H3R 7648   8.642   8.953  13.412
   60DOPE   H3S 7649   8.821   8.966  13.405
   60DOPE   C24 7650   8.738   8.943  13.604
   60DOPE   H4R 7651   8.654   8.889  13.653
   60DOPE   H4S 7652   8.720   9.052  13.618
   60DOPE   C25 7653   8.869   8.904  13.675
   60DOPE   H5R 7654   8.954   8.959  13.630
   60DOPE   H5S 7655   8.887   8.795  13.660
   60DOPE   C26 7656   8.866   8.930  13.827
   60DOPE   H6R 7657   8.958   8.887  13.873
   60DOPE   H6S 7658   8.779   8.876  13.870
   60DOPE   C27 7659   8.858   9.079  13.864
   60DOPE   H7R 7660   8.767   9.125  13.818
   60DOPE   H7S 7661   8.946   9.131  13.822
   60DOPE   C28 7662   8.855   9.104  14.016
   60DOPE   H8R 7663   8.859   9.214  14.033
   60DOPE   H8S 7664   8.947   9.062  14.061
   60DOPE   C29 7665   8.729   9.049  14.080
   60DOPE   H9R 7666   8.636   9.087  14.036
   60DOPE  C210 7667   8.721   8.961  14.181
   60DOPE  H10R 7668   8.621   8.931  14.216
   60DOPE  C211 7669   8.835   8.896  14.256
   60DOPE  H11R 7670   8.931   8.907  14.201
   60DOPE  H11S 7671   8.817   8.787  14.266
   60DOPE  C212 7672   8.853   8.957  14.396
   60DOPE  H12R 7673   8.867   9.066  14.387
   60DOPE  H12S 7674   8.945   8.915  14.442
   60DOPE  C213 7675   8.735   8.928  14.491
   60DOPE  H13R 7676   8.726   8.818  14.502
   60DOPE  H13S 7677   8.640   8.964  14.446
   60DOPE  C214 7678   8.751   8.990  14.631
   60DOPE  H14R 7679   8.843   8.949  14.678
   60DOPE  H14S 7680   8.665   8.959  14.694
   60DOPE  C215 7681   8.760   9.144  14.633
   60DOPE  H15R 7682   8.850   9.177  14.578
   60DOPE  H15S 7683   8.772   9.176  14.739
   60DOPE  C216 7684   8.636   9.215  14.573
   60DOPE  H16R 7685   8.546   9.183  14.630
   60DOPE  H16S 7686   8.624   9.182  14.468
   60DOPE  C217 7687   8.645   0.152  14.574
   60DOPE  H17R 7688   8.556   0.192  14.522
   60DOPE  H17S 7689   8.734   0.183  14.515
   60DOPE  C218 7690   8.654   0.215  14.714
   60DOPE  H18R 7691   8.653   0.325  14.706
   60DOPE  H18S 7692   8.747   0.184  14.765
   60DOPE  H18T 7693   8.567   0.183  14.776
   60DOPE   C33 7694   9.089   8.288  13.479
   60DOPE   H3X 7695   9.198   8.277  13.499
   60DOPE   H3Y 7696   9.045   8.186  13.480
   60DOPE   C34 7697   9.030   8.371  13.593
   60DOPE   H4X 7698   9.066   8.476  13.585
   60DOPE   H4Y 7699   8.919   8.373  13.585
   60DOPE   C35 7700   9.070   8.316  13.731
   60DOPE   H5X 7701   9.180   8.312  13.737
   60DOPE   H5Y 7702   9.033   8.211  13.740
   60DOPE   C36 7703   9.016   8.399  13.848
   60DOPE   H6X 7704   8.906   8.388  13.853
   60DOPE   H6Y 7705   9.039   8.506  13.831
   60DOPE   C37 7706   9.078   8.355  13.982
   60DOPE   H7X 7707   9.069   8.245  13.990
   60DOPE   H7Y 7708   9.187   8.379  13.981
   60DOPE   C38 7709   9.012   8.417  14.106
   60DOPE   H8X 7710   9.059   8.371  14.196
   60DOPE   H8Y 7711   8.906   8.386  14.108
   60DOPE   C39 7712   9.021   8.568  14.115
   60DOPE   H9X 7713   8.933   8.622  14.077
   60DOPE  C310 7714   9.125   8.638  14.163
   60DOPE  H10X 7715   9.118   8.748  14.165
   60DOPE  C311 7716   0.038   8.582  14.218
   60DOPE  H11X 7717   0.051   8.475  14.191
   60DOPE  H11Y 7718   0.123   8.636  14.171
   60DOPE  C312 7719   0.051   8.595  14.371
   60DOPE  H12X 7720   0.038   8.700  14.402
   60DOPE  H12Y 7721   0.155   8.565  14.398
   60DOPE  C313 7722   9.171   8.503  14.448
   60DOPE  H13X 7723   9.066   8.537  14.434
   60DOPE  H13Y 7724   9.179   8.402  14.402
   60DOPE  C314 7725   9.204   8.488  14.598
   60DOPE  H14X 7726   0.097   8.497  14.613
   60DOPE  H14Y 7727   9.175   8.385  14.628
   60DOPE  C315 7728   9.129   8.585  14.691
   60DOPE  H15X 7729   9.150   8.555  14.796
   60DOPE  H15Y 7730   9.019   8.574  14.675
   60DOPE  C316 7731   9.168   8.732  14.674
   60DOPE  H16X 7732   9.132   8.769  14.575
   60DOPE  H16Y 7733   0.062   8.741  14.676
   60DOPE  C317 7734   9.108   8.821  14.784
   60DOPE  H17X 7735   8.998   8.809  14.784
   60DOPE  H17Y 7736   9.145   8.785  14.883
   60DOPE  C318 7737   9.142   8.969  14.768
   60DOPE  H18X 7738   0.036   8.984  14.770
   60DOPE  H18Y 7739   9.103   9.008  14.671
   60DOPE  H18Z 7740   9.097   9.029  14.850
   6123SM     N 7741   3.951   5.095  17.731
   6123SM   C15 7742   3.842   5.017  17.662
   6123SM  H15A 7743   3.767   4.984  17.733
   6123SM  H15B 7744   3.883   4.928  17.616
   6123SM  H15C 7745   3.794   5.075  17.585
   6123SM   C14 7746   3.892   5.214  17.799
   6123SM  H14A 7747   3.842   5.280  17.729
   6123SM  H14B 7748   3.967   5.270  17.852
   6123SM  H14C 7749   3.818   5.184  17.872
   6123SM   C13 7750   4.012   5.006  17.835
   6123SM  H13A 7751   3.938   4.972  17.906
   6123SM  H13B 7752   4.090   5.057  17.889
   6123SM  H13C 7753   4.057   4.921  17.786
   6123SM   C12 7754   4.059   5.134  17.631
   6123SM  H12A 7755   4.147   5.163  17.687
   6123SM  H12B 7756   4.026   5.221  17.576
   6123SM   C11 7757   4.104   5.027  17.528
   6123SM  H11A 7758   4.190   5.068  17.471
   6123SM  H11B 7759   4.021   5.013  17.455
   6123SM     P 7760   4.105   4.766  17.527
   6123SM   O13 7761   4.185   4.658  17.589
   6123SM   O14 7762   3.957   4.755  17.531
   6123SM   O11 7763   4.153   4.785  17.378
   6123SM   O12 7764   4.144   4.906  17.591
   6123SM   C1S 7765   4.060   4.769  17.270
   6123SM   H1S 7766   3.987   4.853  17.269
   6123SM   H1T 7767   4.003   4.674  17.281
   6123SM    NF 7768   4.209   4.888  17.119
   6123SM   HNF 7769   4.181   4.964  17.177
   6123SM   C2S 7770   4.132   4.765  17.132
   6123SM   H2S 7771   4.202   4.679  17.133
   6123SM   C3S 7772   4.025   4.742  17.020
   6123SM   H3S 7773   3.940   4.810  17.039
   6123SM    O3 7774   3.973   4.609  17.022
   6123SM   HO3 7775   4.002   4.569  17.104
   6123SM   C4S 7776   4.081   4.767  16.883
   6123SM   H4S 7777   4.174   4.714  16.861
   6123SM   C5S 7778   4.025   4.846  16.788
   6123SM   H5S 7779   3.930   4.896  16.811
   6123SM   C6S 7780   4.080   4.872  16.650
   6123SM   H6S 7781   4.058   4.978  16.623
   6123SM   H6T 7782   4.027   4.809  16.576
   6123SM   C7S 7783   4.233   4.852  16.633
   6123SM   H7S 7784   4.259   4.745  16.650
   6123SM   H7T 7785   4.285   4.913  16.708
   6123SM   C8S 7786   4.283   4.894  16.493
   6123SM   H8S 7787   4.394   4.904  16.497
   6123SM   H8T 7788   4.242   4.993  16.468
   6123SM   C9S 7789   4.248   4.793  16.383
   6123SM   H9S 7790   4.138   4.776  16.381
   6123SM   H9T 7791   4.297   4.696  16.405
   6123SM  C10S 7792   4.292   4.840  16.243
   6123SM  H10S 7793   4.399   4.869  16.245
   6123SM  H10T 7794   4.233   4.929  16.214
   6123SM  C11S 7795   4.273   4.730  16.137
   6123SM  H11S 7796   4.170   4.689  16.144
   6123SM  H11T 7797   4.344   4.647  16.159
   6123SM  C12S 7798   4.296   4.780  15.993
   6123SM  H12S 7799   4.390   4.839  15.988
   6123SM  H12T 7800   4.212   4.848  15.965
   6123SM  C13S 7801   4.304   4.664  15.894
   6123SM  H13S 7802   4.221   4.593  15.912
   6123SM  H13T 7803   4.399   4.609  15.912
   6123SM  C14S 7804   4.300   4.707  15.746
   6123SM  H14S 7805   4.332   4.620  15.685
   6123SM  H14T 7806   4.372   4.789  15.727
   6123SM  C15S 7807   4.159   4.748  15.700
   6123SM  H15S 7808   4.139   4.854  15.728
   6123SM  H15T 7809   4.084   4.685  15.753
   6123SM  C16S 7810   4.138   4.728  15.549
   6123SM  H16S 7811   4.165   4.623  15.523
   6123SM  H16T 7812   4.207   4.795  15.493
   6123SM  C17S 7813   3.994   4.753  15.505
   6123SM  H17S 7814   3.967   4.859  15.525
   6123SM  H17T 7815   3.926   4.689  15.566
   6123SM  C18S 7816   3.970   4.722  15.356
   6123SM  H18S 7817   4.034   4.786  15.293
   6123SM  H18T 7818   3.864   4.740  15.329
   6123SM  H18U 7819   3.994   4.616  15.335
   6123SM   C1F 7820   4.325   4.894  17.053
   6123SM    OF 7821   4.372   4.793  17.001
   6123SM   C2F 7822   4.400   5.024  17.048
   6123SM   H2F 7823   4.435   5.041  16.944
   6123SM   H2G 7824   4.491   5.013  17.111
   6123SM   C3F 7825   4.323   5.150  17.098
   6123SM   H3F 7826   4.396   5.233  17.099
   6123SM   H3G 7827   4.292   5.135  17.204
   6123SM   C4F 7828   4.203   5.195  17.013
   6123SM   H4F 7829   4.166   5.291  17.054
   6123SM   H4G 7830   4.120   5.122  17.021
   6123SM   C5F 7831   4.236   5.216  16.864
   6123SM   H5F 7832   4.257   5.117  16.817
   6123SM   H5G 7833   4.327   5.278  16.855
   6123SM   C6F 7834   4.121   5.284  16.788
   6123SM   H6F 7835   4.109   5.388  16.825
   6123SM   H6G 7836   4.027   5.229  16.810
   6123SM   C7F 7837   4.143   5.285  16.636
   6123SM   H7F 7838   4.152   5.180  16.602
   6123SM   H7G 7839   4.238   5.337  16.612
   6123SM   C8F 7840   4.027   5.353  16.561
   6123SM   H8F 7841   4.034   5.463  16.579
   6123SM   H8G 7842   3.930   5.318  16.602
   6123SM   C9F 7843   4.028   5.327  16.409
   6123SM   H9F 7844   4.129   5.346  16.369
   6123SM   H9G 7845   3.958   5.399  16.361
   6123SM  C10F 7846   3.982   5.185  16.373
   6123SM  H10F 7847   3.881   5.167  16.415
   6123SM  H10G 7848   4.051   5.111  16.420
   6123SM  C11F 7849   3.979   5.158  16.222
   6123SM  H11F 7850   4.080   5.177  16.179
   6123SM  H11G 7851   3.908   5.228  16.173
   6123SM  C12F 7852   3.939   5.013  16.190
   6123SM  H12F 7853   3.836   4.994  16.228
   6123SM  H12G 7854   4.007   4.945  16.245
   6123SM  C13F 7855   3.945   4.977  16.041
   6123SM  H13F 7856   3.937   4.867  16.032
   6123SM  H13G 7857   4.043   5.007  15.999
   6123SM  C14F 7858   3.832   5.039  15.958
   6123SM  H14F 7859   3.845   5.150  15.953
   6123SM  H14G 7860   3.735   5.019  16.009
   6123SM  C15F 7861   3.824   4.982  15.815
   6123SM  H15F 7862   3.820   4.871  15.823
   6123SM  H15G 7863   3.916   5.008  15.759
   6123SM  C16F 7864   3.699   5.030  15.739
   6123SM  H16F 7865   3.707   5.139  15.720
   6123SM  H16G 7866   3.611   5.014  15.804
   6123SM  C17F 7867   3.677   4.956  15.607
   6123SM  H17F 7868   3.680   4.846  15.627
   6123SM  H17G 7869   3.758   4.979  15.536
   6123SM  C18F 7870   3.541   4.989  15.544
   6123SM  H18F 7871   3.540   5.095  15.509
   6123SM  H18G 7872   3.463   4.981  15.623
   6123SM  C19F 7873   3.501   4.894  15.429
   6123SM  H19F 7874   3.394   4.912  15.404
   6123SM  H19G 7875   3.509   4.790  15.466
   6123SM  C20F 7876   3.583   4.910  15.300
   6123SM  H20F 7877   3.551   4.829  15.230
   6123SM  H20G 7878   3.691   4.895  15.322
   6123SM  C21F 7879   3.562   5.045  15.230
   6123SM  H21F 7880   3.610   5.125  15.290
   6123SM  H21G 7881   3.453   5.067  15.225
   6123SM  C22F 7882   3.619   5.047  15.088
   6123SM  H22F 7883   3.568   4.968  15.028
   6123SM  H22G 7884   3.726   5.021  15.092
   6123SM  C23F 7885   3.602   5.182  15.017
   6123SM  H23F 7886   3.643   5.178  14.914
   6123SM  H23G 7887   3.655   5.262  15.073
   6123SM  H23H 7888   3.495   5.210  15.011
   6223SM     N 7889   4.087   3.974  17.705
   6223SM   C15 7890   3.971   3.885  17.671
   6223SM  H15A 7891   3.879   3.920  17.716
   6223SM  H15B 7892   3.987   3.782  17.698
   6223SM  H15C 7893   3.952   3.890  17.564
   6223SM   C14 7894   4.106   3.978  17.853
   6223SM  H14A 7895   4.124   3.878  17.892
   6223SM  H14B 7896   4.019   4.016  17.904
   6223SM  H14C 7897   4.191   4.040  17.879
   6223SM   C13 7898   4.210   3.918  17.640
   6223SM  H13A 7899   4.294   3.983  17.658
   6223SM  H13B 7900   4.194   3.913  17.533
   6223SM  H13C 7901   4.232   3.819  17.676
   6223SM   C12 7902   4.063   4.115  17.650
   6223SM  H12A 7903   4.142   4.180  17.687
   6223SM  H12B 7904   3.969   4.153  17.689
   6223SM   C11 7905   4.057   4.134  17.496
   6223SM  H11A 7906   4.155   4.105  17.452
   6223SM  H11B 7907   4.044   4.242  17.473
   6223SM     P 7908   3.802   4.097  17.450
   6223SM   O13 7909   3.726   3.976  17.485
   6223SM   O14 7910   3.790   4.213  17.541
   6223SM   O11 7911   3.764   4.142  17.302
   6223SM   O12 7912   3.954   4.055  17.437
   6223SM   C1S 7913   3.830   4.074  17.194
   6223SM   H1S 7914   3.821   3.964  17.206
   6223SM   H1T 7915   3.938   4.098  17.191
   6223SM    NF 7916   3.847   4.207  16.984
   6223SM   HNF 7917   3.811   4.300  16.980
   6223SM   C2S 7918   3.768   4.107  17.054
   6223SM   H2S 7919   3.772   4.013  16.994
   6223SM   C3S 7920   3.619   4.151  17.067
   6223SM   H3S 7921   3.616   4.253  17.110
   6223SM    O3 7922   3.537   4.071  17.153
   6223SM   HO3 7923   3.600   4.024  17.208
   6223SM   C4S 7924   3.562   4.160  16.927
   6223SM   H4S 7925   3.560   4.262  16.886
   6223SM   C5S 7926   3.514   4.059  16.851
   6223SM   H5S 7927   3.512   3.957  16.889
   6223SM   C6S 7928   3.459   4.080  16.712
   6223SM   H6S 7929   3.431   4.186  16.694
   6223SM   H6T 7930   3.365   4.021  16.698
   6223SM   C7S 7931   3.560   4.039  16.603
   6223SM   H7S 7932   3.586   3.931  16.613
   6223SM   H7T 7933   3.653   4.098  16.614
   6223SM   C8S 7934   3.504   4.063  16.462
   6223SM   H8S 7935   3.475   4.171  16.454
   6223SM   H8T 7936   3.412   4.003  16.449
   6223SM   C9S 7937   3.602   4.030  16.348
   6223SM   H9S 7938   3.622   3.921  16.347
   6223SM   H9T 7939   3.698   4.082  16.367
   6223SM  C10S 7940   3.548   4.074  16.211
   6223SM  H10S 7941   3.529   4.183  16.214
   6223SM  H10T 7942   3.451   4.024  16.192
   6223SM  C11S 7943   3.644   4.044  16.095
   6223SM  H11S 7944   3.655   3.934  16.083
   6223SM  H11T 7945   3.744   4.086  16.119
   6223SM  C12S 7946   3.596   4.106  15.963
   6223SM  H12S 7947   3.576   4.214  15.979
   6223SM  H12T 7948   3.499   4.059  15.933
   6223SM  C13S 7949   3.698   4.092  15.849
   6223SM  H13S 7950   3.716   3.984  15.827
   6223SM  H13T 7951   3.794   4.136  15.884
   6223SM  C14S 7952   3.657   4.165  15.720
   6223SM  H14S 7953   3.746   4.175  15.655
   6223SM  H14T 7954   3.622   4.267  15.746
   6223SM  C15S 7955   3.547   4.092  15.641
   6223SM  H15S 7956   3.462   4.070  15.709
   6223SM  H15T 7957   3.587   3.995  15.605
   6223SM  C16S 7958   3.493   4.172  15.522
   6223SM  H16S 7959   3.448   4.267  15.560
   6223SM  H16T 7960   3.412   4.114  15.473
   6223SM  C17S 7961   3.598   4.207  15.415
   6223SM  H17S 7962   3.648   4.113  15.382
   6223SM  H17T 7963   3.676   4.272  15.461
   6223SM  C18S 7964   3.539   4.279  15.294
   6223SM  H18S 7965   3.464   4.215  15.243
   6223SM  H18T 7966   3.618   4.306  15.221
   6223SM  H18U 7967   3.488   4.373  15.326
   6223SM   C1F 7968   3.966   4.182  16.931
   6223SM    OF 7969   4.025   4.077  16.954
   6223SM   C2F 7970   4.024   4.286  16.840
   6223SM   H2F 7971   4.086   4.235  16.763
   6223SM   H2G 7972   4.090   4.354  16.899
   6223SM   C3F 7973   3.913   4.369  16.770
   6223SM   H3F 7974   3.858   4.430  16.845
   6223SM   H3G 7975   3.842   4.300  16.721
   6223SM   C4F 7976   3.967   4.466  16.664
   6223SM   H4F 7977   4.018   4.409  16.583
   6223SM   H4G 7978   4.042   4.533  16.711
   6223SM   C5F 7979   3.856   4.554  16.602
   6223SM   H5F 7980   3.901   4.622  16.528
   6223SM   H5G 7981   3.813   4.617  16.683
   6223SM   C6F 7982   3.741   4.476  16.535
   6223SM   H6F 7983   3.667   4.549  16.495
   6223SM   H6G 7984   3.687   4.416  16.612
   6223SM   C7F 7985   3.785   4.383  16.421
   6223SM   H7F 7986   3.698   4.319  16.392
   6223SM   H7G 7987   3.864   4.314  16.458
   6223SM   C8F 7988   3.833   4.457  16.296
   6223SM   H8F 7989   3.906   4.537  16.324
   6223SM   H8G 7990   3.746   4.506  16.248
   6223SM   C9F 7991   3.902   4.363  16.196
   6223SM   H9F 7992   3.840   4.271  16.185
   6223SM   H9G 7993   4.001   4.333  16.236
   6223SM  C10F 7994   3.919   4.426  16.057
   6223SM  H10F 7995   3.967   4.526  16.066
   6223SM  H10G 7996   3.818   4.442  16.013
   6223SM  C11F 7997   4.002   4.338  15.963
   6223SM  H11F 7998   3.970   4.233  15.974
   6223SM  H11G 7999   4.109   4.344  15.993
   6223SM  C12F 8000   3.986   4.378  15.816
   6223SM  H12F 8001   4.017   4.484  15.802
   6223SM  H12G 8002   3.878   4.371  15.789
   6223SM  C13F 8003   4.065   4.290  15.718
   6223SM  H13F 8004   4.030   4.312  15.615
   6223SM  H13G 8005   4.043   4.183  15.739
   6223SM  C14F 8006   4.217   4.313  15.725
   6223SM  H14F 8007   4.250   4.292  15.829
   6223SM  H14G 8008   4.240   4.420  15.704
   6223SM  C15F 8009   4.300   4.223  15.631
   6223SM  H15F 8010   4.253   4.123  15.623
   6223SM  H15G 8011   4.399   4.208  15.680
   6223SM  C16F 8012   4.328   4.283  15.492
   6223SM  H16F 8013   4.402   4.217  15.441
   6223SM  H16G 8014   4.376   4.382  15.505
   6223SM  C17F 8015   4.207   4.297  15.399
   6223SM  H17F 8016   4.243   4.335  15.300
   6223SM  H17G 8017   4.138   4.374  15.439
   6223SM  C18F 8018   4.131   4.166  15.375
   6223SM  H18F 8019   4.085   4.132  15.470
   6223SM  H18G 8020   4.203   4.088  15.343
   6223SM  C19F 8021   4.021   4.179  15.269
   6223SM  H19F 8022   4.067   4.205  15.172
   6223SM  H19G 8023   3.952   4.262  15.297
   6223SM  C20F 8024   3.939   4.050  15.253
   6223SM  H20F 8025   3.884   4.030  15.348
   6223SM  H20G 8026   4.009   3.965  15.237
   6223SM  C21F 8027   3.840   4.057  15.137
   6223SM  H21F 8028   3.896   4.065  15.041
   6223SM  H21G 8029   3.778   4.149  15.148
   6223SM  C22F 8030   3.745   3.936  15.129
   6223SM  H22F 8031   3.673   3.953  15.046
   6223SM  H22G 8032   3.687   3.930  15.223
   6223SM  C23F 8033   3.815   3.801  15.105
   6223SM  H23F 8034   3.874   3.804  15.010
   6223SM  H23G 8035   3.740   3.719  15.097
   6223SM  H23H 8036   3.884   3.777  15.188
   6323SM     N 8037   5.713   5.967  17.692
   6323SM   C15 8038   5.630   5.908  17.582
   6323SM  H15A 8039   5.616   5.801  17.591
   6323SM  H15B 8040   5.676   5.930  17.487
   6323SM  H15C 8041   5.534   5.957  17.577
   6323SM   C14 8042   5.643   5.946  17.823
   6323SM  H14A 8043   5.627   5.841  17.841
   6323SM  H14B 8044   5.546   5.993  17.821
   6323SM  H14C 8045   5.699   5.987  17.905
   6323SM   C13 8046   5.847   5.900  17.694
   6323SM  H13A 8047   5.837   5.793  17.710
   6323SM  H13B 8048   5.911   5.940  17.771
   6323SM  H13C 8049   5.896   5.914  17.599
   6323SM   C12 8050   5.730   6.117  17.666
   6323SM  H12A 8051   5.784   6.162  17.747
   6323SM  H12B 8052   5.631   6.161  17.663
   6323SM   C11 8053   5.796   6.160  17.532
   6323SM  H11A 8054   5.895   6.110  17.521
   6323SM  H11B 8055   5.817   6.269  17.535
   6323SM     P 8056   5.579   6.207  17.397
   6323SM   O13 8057   5.498   6.194  17.520
   6323SM   O14 8058   5.612   6.343  17.348
   6323SM   O11 8059   5.513   6.121  17.280
   6323SM   O12 8060   5.715   6.128  17.419
   6323SM   C1S 8061   5.592   6.099  17.162
   6323SM   H1S 8062   5.683   6.039  17.185
   6323SM   H1T 8063   5.625   6.195  17.117
   6323SM    NF 8064   5.592   6.024  16.928
   6323SM   HNF 8065   5.559   6.079  16.852
   6323SM   C2S 8066   5.513   6.023  17.051
   6323SM   H2S 8067   5.498   5.918  17.083
   6323SM   C3S 8068   5.372   6.089  17.034
   6323SM   H3S 8069   5.383   6.199  17.039
   6323SM    O3 8070   5.282   6.050  17.139
   6323SM   HO3 8071   5.339   6.053  17.216
   6323SM   C4S 8072   5.310   6.050  16.903
   6323SM   H4S 8073   5.284   5.944  16.893
   6323SM   C5S 8074   5.285   6.135  16.801
   6323SM   H5S 8075   5.309   6.242  16.813
   6323SM   C6S 8076   5.224   6.098  16.668
   6323SM   H6S 8077   5.130   6.157  16.653
   6323SM   H6T 8078   5.196   5.991  16.664
   6323SM   C7S 8079   5.320   6.129  16.552
   6323SM   H7S 8080   5.413   6.070  16.564
   6323SM   H7T 8081   5.347   6.237  16.553
   6323SM   C8S 8082   5.259   6.096  16.415
   6323SM   H8S 8083   5.167   6.157  16.400
   6323SM   H8T 8084   5.229   5.989  16.413
   6323SM   C9S 8085   5.355   6.123  16.298
   6323SM   H9S 8086   5.449   6.066  16.315
   6323SM   H9T 8087   5.381   6.231  16.295
   6323SM  C10S 8088   5.296   6.081  16.162
   6323SM  H10S 8089   5.204   6.140  16.142
   6323SM  H10T 8090   5.266   5.974  16.168
   6323SM  C11S 8091   5.395   6.098  16.046
   6323SM  H11S 8092   5.488   6.042  16.070
   6323SM  H11T 8093   5.421   6.205  16.034
   6323SM  C12S 8094   5.338   6.044  15.913
   6323SM  H12S 8095   5.250   6.105  15.883
   6323SM  H12T 8096   5.303   5.940  15.929
   6323SM  C13S 8097   5.441   6.043  15.800
   6323SM  H13S 8098   5.531   5.988  15.833
   6323SM  H13T 8099   5.472   6.147  15.777
   6323SM  C14S 8100   5.388   5.976  15.672
   6323SM  H14S 8101   5.301   6.034  15.634
   6323SM  H14T 8102   5.352   5.874  15.697
   6323SM  C15S 8103   5.494   5.965  15.562
   6323SM  H15S 8104   5.583   5.914  15.604
   6323SM  H15T 8105   5.525   6.066  15.530
   6323SM  C16S 8106   5.448   5.885  15.439
   6323SM  H16S 8107   5.416   5.783  15.470
   6323SM  H16T 8108   5.534   5.873  15.370
   6323SM  C17S 8109   5.333   5.952  15.361
   6323SM  H17S 8110   5.362   6.057  15.340
   6323SM  H17T 8111   5.242   5.955  15.426
   6323SM  C18S 8112   5.299   5.882  15.230
   6323SM  H18S 8113   5.388   5.880  15.163
   6323SM  H18T 8114   5.218   5.936  15.177
   6323SM  H18U 8115   5.266   5.778  15.248
   6323SM   C1F 8116   5.704   5.953  16.915
   6323SM    OF 8117   5.739   5.874  17.002
   6323SM   C2F 8118   5.780   5.969  16.787
   6323SM   H2F 8119   5.719   5.927  16.705
   6323SM   H2G 8120   5.874   5.910  16.794
   6323SM   C3F 8121   5.814   6.117  16.755
   6323SM   H3F 8122   5.890   6.153  16.827
   6323SM   H3G 8123   5.725   6.182  16.763
   6323SM   C4F 8124   5.869   6.134  16.612
   6323SM   H4F 8125   5.791   6.104  16.540
   6323SM   H4G 8126   5.956   6.067  16.597
   6323SM   C5F 8127   5.913   6.278  16.583
   6323SM   H5F 8128   6.005   6.299  16.640
   6323SM   H5G 8129   5.835   6.349  16.618
   6323SM   C6F 8130   5.939   6.305  16.433
   6323SM   H6F 8131   5.996   6.220  16.390
   6323SM   H6G 8132   6.002   6.395  16.424
   6323SM   C7F 8133   5.810   6.328  16.353
   6323SM   H7F 8134   5.757   6.417  16.396
   6323SM   H7G 8135   5.742   6.241  16.363
   6323SM   C8F 8136   5.836   6.355  16.204
   6323SM   H8F 8137   5.875   6.263  16.156
   6323SM   H8G 8138   5.914   6.434  16.196
   6323SM   C9F 8139   5.711   6.404  16.130
   6323SM   H9F 8140   5.672   6.494  16.183
   6323SM   H9G 8141   5.632   6.326  16.133
   6323SM  C10F 8142   5.740   6.442  15.984
   6323SM  H10F 8143   5.774   6.352  15.929
   6323SM  H10G 8144   5.824   6.515  15.983
   6323SM  C11F 8145   5.620   6.506  15.913
   6323SM  H11F 8146   5.585   6.593  15.972
   6323SM  H11G 8147   5.537   6.432  15.909
   6323SM  C12F 8148   5.655   6.552  15.771
   6323SM  H12F 8149   5.690   6.465  15.712
   6323SM  H12G 8150   5.739   6.625  15.776
   6323SM  C13F 8151   5.537   6.618  15.698
   6323SM  H13F 8152   5.502   6.706  15.755
   6323SM  H13G 8153   5.454   6.545  15.693
   6323SM  C14F 8154   5.577   6.662  15.556
   6323SM  H14F 8155   5.623   6.576  15.503
   6323SM  H14G 8156   5.655   6.741  15.563
   6323SM  C15F 8157   5.460   6.716  15.471
   6323SM  H15F 8158   5.500   6.745  15.372
   6323SM  H15G 8159   5.420   6.809  15.518
   6323SM  C16F 8160   5.343   6.618  15.451
   6323SM  H16F 8161   5.274   6.659  15.374
   6323SM  H16G 8162   5.286   6.611  15.546
   6323SM  C17F 8163   5.382   6.475  15.410
   6323SM  H17F 8164   5.291   6.413  15.399
   6323SM  H17G 8165   5.442   6.430  15.492
   6323SM  C18F 8166   5.464   6.466  15.280
   6323SM  H18F 8167   5.543   6.544  15.281
   6323SM  H18G 8168   5.398   6.486  15.192
   6323SM  C19F 8169   5.533   6.330  15.265
   6323SM  H19F 8170   5.456   6.250  15.256
   6323SM  H19G 8171   5.592   6.311  15.357
   6323SM  C20F 8172   5.629   6.324  15.145
   6323SM  H20F 8173   5.689   6.417  15.143
   6323SM  H20G 8174   5.570   6.320  15.051
   6323SM  C21F 8175   5.725   6.204  15.152
   6323SM  H21F 8176   5.785   6.211  15.245
   6323SM  H21G 8177   5.797   6.212  15.067
   6323SM  C22F 8178   5.656   6.067  15.146
   6323SM  H22F 8179   5.595   6.063  15.053
   6323SM  H22G 8180   5.588   6.058  15.232
   6323SM  C23F 8181   5.755   5.950  15.147
   6323SM  H23F 8182   5.823   5.956  15.059
   6323SM  H23G 8183   5.701   5.853  15.143
   6323SM  H23H 8184   5.817   5.953  15.239
   6423SM     N 8185   6.636   4.512  17.756
   6423SM   C15 8186   6.518   4.421  17.777
   6423SM  H15A 8187   6.434   4.460  17.722
   6423SM  H15B 8188   6.492   4.411  17.882
   6423SM  H15C 8189   6.538   4.324  17.736
   6423SM   C14 8190   6.603   4.649  17.808
   6423SM  H14A 8191   6.518   4.688  17.753
   6423SM  H14B 8192   6.685   4.717  17.795
   6423SM  H14C 8193   6.577   4.646  17.913
   6423SM   C13 8194   6.754   4.457  17.830
   6423SM  H13A 8195   6.735   4.448  17.936
   6423SM  H13B 8196   6.841   4.519  17.817
   6423SM  H13C 8197   6.779   4.358  17.793
   6423SM   C12 8198   6.666   4.519  17.607
   6423SM  H12A 8199   6.677   4.418  17.570
   6423SM  H12B 8200   6.762   4.566  17.592
   6423SM   C11 8201   6.563   4.588  17.514
   6423SM  H11A 8202   6.605   4.593  17.411
   6423SM  H11B 8203   6.548   4.693  17.546
   6423SM     P 8204   6.421   4.383  17.438
   6423SM   O13 8205   6.533   4.295  17.477
   6423SM   O14 8206   6.284   4.332  17.458
   6423SM   O11 8207   6.442   4.424  17.286
   6423SM   O12 8208   6.437   4.521  17.515
   6423SM   C1S 8209   6.369   4.533  17.228
   6423SM   H1S 8210   6.409   4.629  17.266
   6423SM   H1T 8211   6.261   4.528  17.254
   6423SM    NF 8212   6.326   4.652  17.012
   6423SM   HNF 8213   6.244   4.641  16.956
   6423SM   C2S 8214   6.381   4.531  17.073
   6423SM   H2S 8215   6.489   4.526  17.047
   6423SM   C3S 8216   6.312   4.403  17.018
   6423SM   H3S 8217   6.206   4.402  17.053
   6423SM    O3 8218   6.372   4.283  17.064
   6423SM   HO3 8219   6.413   4.308  17.147
   6423SM   C4S 8220   6.314   4.404  16.867
   6423SM   H4S 8221   6.415   4.395  16.824
   6423SM   C5S 8222   6.207   4.410  16.786
   6423SM   H5S 8223   6.106   4.412  16.830
   6423SM   C6S 8224   6.210   4.412  16.635
   6423SM   H6S 8225   6.139   4.490  16.598
   6423SM   H6T 8226   6.172   4.315  16.596
   6423SM   C7S 8227   6.347   4.438  16.570
   6423SM   H7S 8228   6.419   4.361  16.604
   6423SM   H7T 8229   6.386   4.537  16.603
   6423SM   C8S 8230   6.344   4.434  16.416
   6423SM   H8S 8231   6.307   4.335  16.383
   6423SM   H8T 8232   6.449   4.444  16.379
   6423SM   C9S 8233   6.260   4.544  16.350
   6423SM   H9S 8234   6.288   4.643  16.391
   6423SM   H9T 8235   6.152   4.527  16.373
   6423SM  C10S 8236   6.279   4.546  16.197
   6423SM  H10S 8237   6.260   4.444  16.157
   6423SM  H10T 8238   6.385   4.572  16.175
   6423SM  C11S 8239   6.187   4.645  16.124
   6423SM  H11S 8240   6.201   4.747  16.166
   6423SM  H11T 8241   6.081   4.616  16.142
   6423SM  C12S 8242   6.215   4.647  15.973
   6423SM  H12S 8243   6.209   4.543  15.934
   6423SM  H12T 8244   6.319   4.683  15.957
   6423SM  C13S 8245   6.118   4.735  15.893
   6423SM  H13S 8246   6.120   4.839  15.932
   6423SM  H13T 8247   6.014   4.697  15.906
   6423SM  C14S 8248   6.153   4.736  15.744
   6423SM  H14S 8249   6.158   4.631  15.708
   6423SM  H14T 8250   6.254   4.781  15.731
   6423SM  C15S 8251   6.054   4.815  15.657
   6423SM  H15S 8252   6.045   4.918  15.698
   6423SM  H15T 8253   5.954   4.767  15.663
   6423SM  C16S 8254   6.097   4.825  15.509
   6423SM  H16S 8255   6.197   4.872  15.503
   6423SM  H16T 8256   6.025   4.891  15.456
   6423SM  C17S 8257   6.101   4.689  15.436
   6423SM  H17S 8258   6.001   4.641  15.444
   6423SM  H17T 8259   6.174   4.623  15.487
   6423SM  C18S 8260   6.141   4.701  15.289
   6423SM  H18S 8261   6.068   4.765  15.234
   6423SM  H18T 8262   6.141   4.601  15.241
   6423SM  H18U 8263   6.242   4.745  15.279
   6423SM   C1F 8264   6.386   4.771  17.020
   6423SM    OF 8265   6.481   4.790  17.094
   6423SM   C2F 8266   6.332   4.880  16.932
   6423SM   H2F 8267   6.287   4.958  16.996
   6423SM   H2G 8268   6.253   4.839  16.866
   6423SM   C3F 8269   6.443   4.943  16.844
   6423SM   H3F 8270   6.523   4.986  16.908
   6423SM   H3G 8271   6.399   5.027  16.786
   6423SM   C4F 8272   6.508   4.845  16.744
   6423SM   H4F 8273   6.429   4.799  16.681
   6423SM   H4G 8274   6.559   4.764  16.800
   6423SM   C5F 8275   6.612   4.915  16.654
   6423SM   H5F 8276   6.685   4.967  16.718
   6423SM   H5G 8277   6.561   4.991  16.592
   6423SM   C6F 8278   6.690   4.819  16.561
   6423SM   H6F 8279   6.742   4.743  16.623
   6423SM   H6G 8280   6.767   4.878  16.508
   6423SM   C7F 8281   6.602   4.747  16.457
   6423SM   H7F 8282   6.546   4.822  16.398
   6423SM   H7G 8283   6.528   4.685  16.511
   6423SM   C8F 8284   6.682   4.655  16.363
   6423SM   H8F 8285   6.610   4.590  16.308
   6423SM   H8G 8286   6.746   4.588  16.425
   6423SM   C9F 8287   6.770   4.727  16.259
   6423SM   H9F 8288   6.830   4.649  16.207
   6423SM   H9G 8289   6.841   4.795  16.309
   6423SM  C10F 8290   6.688   4.804  16.154
   6423SM  H10F 8291   6.636   4.888  16.205
   6423SM  H10G 8292   6.611   4.737  16.112
   6423SM  C11F 8293   6.773   4.864  16.040
   6423SM  H11F 8294   6.859   4.916  16.087
   6423SM  H11G 8295   6.714   4.940  15.986
   6423SM  C12F 8296   6.827   4.762  15.937
   6423SM  H12F 8297   6.842   4.662  15.985
   6423SM  H12G 8298   6.927   4.797  15.904
   6423SM  C13F 8299   6.741   4.747  15.810
   6423SM  H13F 8300   6.798   4.687  15.736
   6423SM  H13G 8301   6.723   4.847  15.766
   6423SM  C14F 8302   6.606   4.677  15.834
   6423SM  H14F 8303   6.548   4.736  15.909
   6423SM  H14G 8304   6.624   4.576  15.877
   6423SM  C15F 8305   6.517   4.665  15.709
   6423SM  H15F 8306   6.493   4.766  15.671
   6423SM  H15G 8307   6.422   4.616  15.739
   6423SM  C16F 8308   6.578   4.582  15.595
   6423SM  H16F 8309   6.616   4.486  15.636
   6423SM  H16G 8310   6.664   4.636  15.551
   6423SM  C17F 8311   6.474   4.551  15.485
   6423SM  H17F 8312   6.433   4.647  15.446
   6423SM  H17G 8313   6.390   4.497  15.533
   6423SM  C18F 8314   6.528   4.465  15.370
   6423SM  H18F 8315   6.442   4.433  15.307
   6423SM  H18G 8316   6.573   4.373  15.413
   6423SM  C19F 8317   6.631   4.534  15.279
   6423SM  H19F 8318   6.665   4.460  15.204
   6423SM  H19G 8319   6.720   4.564  15.339
   6423SM  C20F 8320   6.575   4.657  15.205
   6423SM  H20F 8321   6.554   4.738  15.278
   6423SM  H20G 8322   6.479   4.629  15.156
   6423SM  C21F 8323   6.671   4.709  15.097
   6423SM  H21F 8324   6.692   4.629  15.024
   6423SM  H21G 8325   6.768   4.737  15.145
   6423SM  C22F 8326   6.616   4.831  15.023
   6423SM  H22F 8327   6.596   4.913  15.096
   6423SM  H22G 8328   6.519   4.804  14.977
   6423SM  C23F 8329   6.710   4.883  14.913
   6423SM  H23F 8330   6.807   4.916  14.958
   6423SM  H23G 8331   6.665   4.970  14.860
   6423SM  H23H 8332   6.731   4.803  14.839
   6523SM     N 8333   6.478   5.293  17.762
   6523SM   C15 8334   6.359   5.298  17.672
   6523SM  H15A 8335   6.278   5.233  17.702
   6523SM  H15B 8336   6.390   5.268  17.572
   6523SM  H15C 8337   6.322   5.399  17.661
   6523SM   C14 8338   6.438   5.336  17.900
   6523SM  H14A 8339   6.361   5.271  17.940
   6523SM  H14B 8340   6.399   5.437  17.900
   6523SM  H14C 8341   6.522   5.332  17.968
   6523SM   C13 8342   6.531   5.154  17.767
   6523SM  H13A 8343   6.623   5.151  17.823
   6523SM  H13B 8344   6.554   5.120  17.667
   6523SM  H13C 8345   6.461   5.085  17.812
   6523SM   C12 8346   6.586   5.386  17.708
   6523SM  H12A 8347   6.664   5.393  17.783
   6523SM  H12B 8348   6.544   5.484  17.693
   6523SM   C11 8349   6.655   5.348  17.574
   6523SM  H11A 8350   6.708   5.251  17.590
   6523SM  H11B 8351   6.734   5.422  17.551
   6523SM     P 8352   6.502   5.468  17.402
   6523SM   O13 8353   6.393   5.430  17.309
   6523SM   O14 8354   6.466   5.560  17.512
   6523SM   O11 8355   6.626   5.525  17.322
   6523SM   O12 8356   6.563   5.335  17.465
   6523SM   C1S 8357   6.625   5.658  17.268
   6523SM   H1S 8358   6.726   5.701  17.281
   6523SM   H1T 8359   6.555   5.726  17.321
   6523SM    NF 8360   6.451   5.663  17.094
   6523SM   HNF 8361   6.405   5.575  17.100
   6523SM   C2S 8362   6.595   5.661  17.115
   6523SM   H2S 8363   6.638   5.755  17.075
   6523SM   C3S 8364   6.663   5.541  17.042
   6523SM   H3S 8365   6.603   5.450  17.061
   6523SM    O3 8366   6.795   5.511  17.089
   6523SM   HO3 8367   6.788   5.528  17.183
   6523SM   C4S 8368   6.660   5.568  16.893
   6523SM   H4S 8369   6.566   5.536  16.845
   6523SM   C5S 8370   6.755   5.626  16.816
   6523SM   H5S 8371   6.849   5.657  16.865
   6523SM   C6S 8372   6.749   5.653  16.668
   6523SM   H6S 8373   6.830   5.596  16.617
   6523SM   H6T 8374   6.769   5.760  16.649
   6523SM   C7S 8375   6.616   5.619  16.597
   6523SM   H7S 8376   6.533   5.673  16.648
   6523SM   H7T 8377   6.595   5.510  16.604
   6523SM   C8S 8378   6.613   5.660  16.448
   6523SM   H8S 8379   6.634   5.768  16.439
   6523SM   H8T 8380   6.511   5.641  16.408
   6523SM   C9S 8381   6.713   5.582  16.360
   6523SM   H9S 8382   6.701   5.473  16.379
   6523SM   H9T 8383   6.817   5.610  16.389
   6523SM  C10S 8384   6.695   5.610  16.210
   6523SM  H10S 8385   6.711   5.718  16.191
   6523SM  H10T 8386   6.590   5.585  16.181
   6523SM  C11S 8387   6.791   5.528  16.124
   6523SM  H11S 8388   6.780   5.420  16.148
   6523SM  H11T 8389   6.896   5.557  16.149
   6523SM  C12S 8390   6.769   5.547  15.973
   6523SM  H12S 8391   6.782   5.654  15.947
   6523SM  H12T 8392   6.664   5.518  15.948
   6523SM  C13S 8393   6.866   5.462  15.889
   6523SM  H13S 8394   6.857   5.356  15.920
   6523SM  H13T 8395   6.970   5.495  15.912
   6523SM  C14S 8396   6.844   5.472  15.737
   6523SM  H14S 8397   6.925   5.414  15.687
   6523SM  H14T 8398   6.854   5.578  15.705
   6523SM  C15S 8399   6.709   5.416  15.691
   6523SM  H15S 8400   6.628   5.486  15.721
   6523SM  H15T 8401   6.690   5.320  15.744
   6523SM  C16S 8402   6.701   5.390  15.540
   6523SM  H16S 8403   6.601   5.346  15.516
   6523SM  H16T 8404   6.778   5.314  15.512
   6523SM  C17S 8405   6.721   5.515  15.454
   6523SM  H17S 8406   6.821   5.558  15.476
   6523SM  H17T 8407   6.645   5.591  15.482
   6523SM  C18S 8408   6.712   5.488  15.303
   6523SM  H18S 8409   6.789   5.414  15.272
   6523SM  H18T 8410   6.728   5.581  15.245
   6523SM  H18U 8411   6.612   5.447  15.277
   6523SM   C1F 8412   6.381   5.776  17.112
   6523SM    OF 8413   6.437   5.882  17.135
   6523SM   C2F 8414   6.231   5.764  17.111
   6523SM   H2F 8415   6.192   5.826  17.195
   6523SM   H2G 8416   6.202   5.659  17.130
   6523SM   C3F 8417   6.168   5.814  16.979
   6523SM   H3F 8418   6.195   5.920  16.961
   6523SM   H3G 8419   6.058   5.809  16.991
   6523SM   C4F 8420   6.206   5.729  16.856
   6523SM   H4F 8421   6.206   5.622  16.885
   6523SM   H4G 8422   6.309   5.755  16.823
   6523SM   C5F 8423   6.108   5.747  16.739
   6523SM   H5F 8424   6.105   5.854  16.708
   6523SM   H5G 8425   6.007   5.720  16.776
   6523SM   C6F 8426   6.140   5.658  16.618
   6523SM   H6F 8427   6.046   5.634  16.563
   6523SM   H6G 8428   6.182   5.562  16.655
   6523SM   C7F 8429   6.240   5.720  16.518
   6523SM   H7F 8430   6.281   5.639  16.454
   6523SM   H7G 8431   6.326   5.762  16.575
   6523SM   C8F 8432   6.182   5.829  16.427
   6523SM   H8F 8433   6.265   5.871  16.366
   6523SM   H8G 8434   6.144   5.912  16.490
   6523SM   C9F 8435   6.070   5.784  16.332
   6523SM   H9F 8436   6.037   5.872  16.272
   6523SM   H9G 8437   5.982   5.750  16.390
   6523SM  C10F 8438   6.112   5.673  16.234
   6523SM  H10F 8439   6.138   5.581  16.291
   6523SM  H10G 8440   6.202   5.706  16.178
   6523SM  C11F 8441   6.001   5.637  16.133
   6523SM  H11F 8442   5.978   5.725  16.071
   6523SM  H11G 8443   5.908   5.612  16.190
   6523SM  C12F 8444   6.034   5.516  16.043
   6523SM  H12F 8445   5.946   5.493  15.979
   6523SM  H12G 8446   6.052   5.428  16.108
   6523SM  C13F 8447   6.157   5.534  15.952
   6523SM  H13F 8448   6.179   5.437  15.903
   6523SM  H13G 8449   6.246   5.560  16.014
   6523SM  C14F 8450   6.139   5.641  15.842
   6523SM  H14F 8451   6.105   5.735  15.890
   6523SM  H14G 8452   6.059   5.609  15.772
   6523SM  C15F 8453   6.268   5.672  15.765
   6523SM  H15F 8454   6.346   5.700  15.838
   6523SM  H15G 8455   6.250   5.760  15.700
   6523SM  C16F 8456   6.322   5.557  15.677
   6523SM  H16F 8457   6.334   5.465  15.737
   6523SM  H16G 8458   6.423   5.587  15.641
   6523SM  C17F 8459   6.235   5.528  15.553
   6523SM  H17F 8460   6.217   5.623  15.499
   6523SM  H17G 8461   6.137   5.487  15.584
   6523SM  C18F 8462   6.303   5.430  15.456
   6523SM  H18F 8463   6.316   5.332  15.507
   6523SM  H18G 8464   6.405   5.469  15.432
   6523SM  C19F 8465   6.226   5.411  15.325
   6523SM  H19F 8466   6.206   5.512  15.283
   6523SM  H19G 8467   6.128   5.363  15.345
   6523SM  C20F 8468   6.304   5.331  15.219
   6523SM  H20F 8469   6.405   5.375  15.210
   6523SM  H20G 8470   6.254   5.343  15.120
   6523SM  C21F 8471   6.318   5.181  15.250
   6523SM  H21F 8472   6.351   5.168  15.356
   6523SM  H21G 8473   6.399   5.138  15.186
   6523SM  C22F 8474   6.191   5.098  15.226
   6523SM  H22F 8475   6.106   5.144  15.282
   6523SM  H22G 8476   6.207   4.997  15.269
   6523SM  C23F 8477   6.153   5.082  15.079
   6523SM  H23F 8478   6.129   5.180  15.033
   6523SM  H23G 8479   6.064   5.017  15.068
   6523SM  H23H 8480   6.237   5.036  15.022
   6623SM     N 8481   4.989   2.394  17.824
   6623SM   C15 8482   5.091   2.497  17.787
   6623SM  H15A 8483   5.181   2.453  17.746
   6623SM  H15B 8484   5.120   2.557  17.871
   6623SM  H15C 8485   5.049   2.563  17.712
   6623SM   C14 8486   5.045   2.300  17.927
   6623SM  H14A 8487   5.133   2.249  17.890
   6623SM  H14B 8488   4.972   2.225  17.953
   6623SM  H14C 8489   5.074   2.352  18.017
   6623SM   C13 8490   4.870   2.463  17.883
   6623SM  H13A 8491   4.823   2.522  17.805
   6623SM  H13B 8492   4.897   2.527  17.965
   6623SM  H13C 8493   4.797   2.391  17.916
   6623SM   C12 8494   4.944   2.315  17.702
   6623SM  H12A 8495   4.860   2.254  17.731
   6623SM  H12B 8496   5.023   2.247  17.673
   6623SM   C11 8497   4.903   2.396  17.575
   6623SM  H11A 8498   4.867   2.323  17.500
   6623SM  H11B 8499   4.993   2.445  17.532
   6623SM     P 8500   4.690   2.532  17.502
   6623SM   O13 8501   4.586   2.426  17.509
   6623SM   O14 8502   4.646   2.672  17.520
   6623SM   O11 8503   4.763   2.520  17.361
   6623SM   O12 8504   4.805   2.496  17.605
   6623SM   C1S 8505   4.682   2.505  17.243
   6623SM   H1S 8506   4.574   2.522  17.261
   6623SM   H1T 8507   4.692   2.401  17.205
   6623SM    NF 8508   4.626   2.600  17.025
   6623SM   HNF 8509   4.646   2.551  16.940
   6623SM   C2S 8510   4.726   2.603  17.130
   6623SM   H2S 8511   4.731   2.706  17.172
   6623SM   C3S 8512   4.870   2.565  17.083
   6623SM   H3S 8513   4.874   2.455  17.066
   6623SM    O3 8514   4.970   2.597  17.179
   6623SM   HO3 8515   4.923   2.592  17.263
   6623SM   C4S 8516   4.903   2.635  16.954
   6623SM   H4S 8517   4.889   2.744  16.955
   6623SM   C5S 8518   4.949   2.576  16.842
   6623SM   H5S 8519   4.968   2.468  16.841
   6623SM   C6S 8520   4.981   2.647  16.713
   6623SM   H6S 8521   5.092   2.654  16.699
   6623SM   H6T 8522   4.941   2.751  16.712
   6623SM   C7S 8523   4.923   2.571  16.592
   6623SM   H7S 8524   4.815   2.553  16.607
   6623SM   H7T 8525   4.974   2.473  16.583
   6623SM   C8S 8526   4.941   2.646  16.459
   6623SM   H8S 8527   5.048   2.672  16.445
   6623SM   H8T 8528   4.884   2.741  16.464
   6623SM   C9S 8529   4.893   2.564  16.338
   6623SM   H9S 8530   4.789   2.531  16.356
   6623SM   H9T 8531   4.956   2.473  16.329
   6623SM  C10S 8532   4.898   2.642  16.206
   6623SM  H10S 8533   5.003   2.672  16.185
   6623SM  H10T 8534   4.839   2.736  16.216
   6623SM  C11S 8535   4.844   2.561  16.087
   6623SM  H11S 8536   4.737   2.537  16.105
   6623SM  H11T 8537   4.900   2.465  16.081
   6623SM  C12S 8538   4.857   2.636  15.954
   6623SM  H12S 8539   4.965   2.658  15.936
   6623SM  H12T 8540   4.804   2.733  15.960
   6623SM  C13S 8541   4.803   2.556  15.835
   6623SM  H13S 8542   4.693   2.541  15.847
   6623SM  H13T 8543   4.851   2.456  15.833
   6623SM  C14S 8544   4.830   2.627  15.701
   6623SM  H14S 8545   4.939   2.637  15.687
   6623SM  H14T 8546   4.786   2.729  15.704
   6623SM  C15S 8547   4.772   2.551  15.580
   6623SM  H15S 8548   4.661   2.554  15.585
   6623SM  H15T 8549   4.803   2.444  15.587
   6623SM  C16S 8550   4.819   2.606  15.444
   6623SM  H16S 8551   4.775   2.544  15.363
   6623SM  H16T 8552   4.929   2.596  15.438
   6623SM  C17S 8553   4.781   2.753  15.419
   6623SM  H17S 8554   4.828   2.817  15.498
   6623SM  H17T 8555   4.671   2.764  15.428
   6623SM  C18S 8556   4.826   2.803  15.282
   6623SM  H18S 8557   4.800   2.911  15.270
   6623SM  H18T 8558   4.777   2.746  15.201
   6623SM  H18U 8559   4.936   2.793  15.271
   6623SM   C1F 8560   4.508   2.660  17.043
   6623SM    OF 8561   4.492   2.734  17.139
   6623SM   C2F 8562   4.399   2.633  16.944
   6623SM   H2F 8563   4.308   2.603  17.000
   6623SM   H2G 8564   4.428   2.548  16.878
   6623SM   C3F 8565   4.366   2.758  16.860
   6623SM   H3F 8566   4.329   2.837  16.928
   6623SM   H3G 8567   4.281   2.732  16.793
   6623SM   C4F 8568   4.483   2.813  16.776
   6623SM   H4F 8569   4.560   2.855  16.844
   6623SM   H4G 8570   4.444   2.898  16.715
   6623SM   C5F 8571   4.550   2.712  16.682
   6623SM   H5F 8572   4.603   2.635  16.743
   6623SM   H5G 8573   4.628   2.764  16.623
   6623SM   C6F 8574   4.454   2.641  16.586
   6623SM   H6F 8575   4.397   2.718  16.529
   6623SM   H6G 8576   4.380   2.582  16.645
   6623SM   C7F 8577   4.526   2.547  16.489
   6623SM   H7F 8578   4.589   2.476  16.546
   6623SM   H7G 8579   4.592   2.608  16.423
   6623SM   C8F 8580   4.427   2.468  16.403
   6623SM   H8F 8581   4.365   2.539  16.344
   6623SM   H8G 8582   4.359   2.411  16.470
   6623SM   C9F 8583   4.494   2.370  16.306
   6623SM   H9F 8584   4.554   2.296  16.363
   6623SM   H9G 8585   4.563   2.426  16.239
   6623SM  C10F 8586   4.390   2.296  16.220
   6623SM  H10F 8587   4.334   2.371  16.160
   6623SM  H10G 8588   4.317   2.246  16.288
   6623SM  C11F 8589   4.448   2.190  16.125
   6623SM  H11F 8590   4.364   2.139  16.074
   6623SM  H11G 8591   4.504   2.114  16.184
   6623SM  C12F 8592   4.540   2.251  16.018
   6623SM  H12F 8593   4.633   2.288  16.065
   6623SM  H12G 8594   4.489   2.338  15.972
   6623SM  C13F 8595   4.577   2.153  15.905
   6623SM  H13F 8596   4.640   2.208  15.832
   6623SM  H13G 8597   4.485   2.120  15.852
   6623SM  C14F 8598   4.653   2.028  15.954
   6623SM  H14F 8599   4.587   1.968  16.020
   6623SM  H14G 8600   4.740   2.061  16.016
   6623SM  C15F 8601   4.704   1.937  15.840
   6623SM  H15F 8602   4.616   1.894  15.787
   6623SM  H15G 8603   4.760   1.852  15.885
   6623SM  C16F 8604   4.794   2.006  15.736
   6623SM  H16F 8605   4.735   2.083  15.682
   6623SM  H16G 8606   4.825   1.931  15.660
   6623SM  C17F 8607   4.920   2.072  15.795
   6623SM  H17F 8608   4.987   1.993  15.835
   6623SM  H17G 8609   4.891   2.137  15.880
   6623SM  C18F 8610   4.996   2.160  15.694
   6623SM  H18F 8611   5.081   2.209  15.747
   6623SM  H18G 8612   4.928   2.240  15.658
   6623SM  C19F 8613   5.052   2.082  15.574
   6623SM  H19F 8614   4.968   2.038  15.516
   6623SM  H19G 8615   5.115   1.999  15.611
   6623SM  C20F 8616   5.137   2.170  15.480
   6623SM  H20F 8617   5.176   2.106  15.397
   6623SM  H20G 8618   5.225   2.208  15.536
   6623SM  C21F 8619   5.062   2.291  15.419
   6623SM  H21F 8620   5.132   2.345  15.352
   6623SM  H21G 8621   5.035   2.361  15.500
   6623SM  C22F 8622   4.935   2.255  15.340
   6623SM  H22F 8623   4.893   2.349  15.299
   6623SM  H22G 8624   4.860   2.213  15.410
   6623SM  C23F 8625   4.957   2.157  15.225
   6623SM  H23F 8626   4.862   2.141  15.169
   6623SM  H23G 8627   4.991   2.058  15.263
   6623SM  H23H 8628   5.033   2.196  15.154
   6723SM     N 8629   4.078   7.107  17.801
   6723SM   C15 8630   4.060   7.256  17.809
   6723SM  H15A 8631   4.151   7.304  17.842
   6723SM  H15B 8632   3.980   7.283  17.875
   6723SM  H15C 8633   4.037   7.295  17.711
   6723SM   C14 8634   4.190   7.079  17.705
   6723SM  H14A 8635   4.163   7.112  17.605
   6723SM  H14B 8636   4.210   6.973  17.699
   6723SM  H14C 8637   4.281   7.130  17.734
   6723SM   C13 8638   4.120   7.053  17.934
   6723SM  H13A 8639   4.214   7.097  17.964
   6723SM  H13B 8640   4.135   6.947  17.931
   6723SM  H13C 8641   4.048   7.075  18.011
   6723SM   C12 8642   3.952   7.038  17.751
   6723SM  H12A 8643   3.877   7.041  17.829
   6723SM  H12B 8644   3.975   6.934  17.733
   6723SM   C11 8645   3.887   7.091  17.621
   6723SM  H11A 8646   3.857   7.197  17.635
   6723SM  H11B 8647   3.793   7.036  17.602
   6723SM     P 8648   3.996   6.941  17.437
   6723SM   O13 8649   4.121   6.948  17.359
   6723SM   O14 8650   3.987   6.836  17.540
   6723SM   O11 8651   3.871   6.934  17.339
   6723SM   O12 8652   3.976   7.082  17.509
   6723SM   C1S 8653   3.803   7.049  17.288
   6723SM   H1S 8654   3.838   7.144  17.333
   6723SM   H1T 8655   3.694   7.042  17.313
   6723SM    NF 8656   3.778   7.195  17.089
   6723SM   HNF 8657   3.694   7.203  17.036
   6723SM   C2S 8658   3.816   7.061  17.133
   6723SM   H2S 8659   3.922   7.045  17.106
   6723SM   C3S 8660   3.729   6.951  17.065
   6723SM   H3S 8661   3.623   6.968  17.091
   6723SM    O3 8662   3.761   6.819  17.109
   6723SM   HO3 8663   3.811   6.832  17.190
   6723SM   C4S 8664   3.746   6.956  16.915
   6723SM   H4S 8665   3.842   6.917  16.880
   6723SM   C5S 8666   3.654   7.001  16.826
   6723SM   H5S 8667   3.557   7.037  16.864
   6723SM   C6S 8668   3.670   7.007  16.676
   6723SM   H6S 8669   3.696   7.111  16.646
   6723SM   H6T 8670   3.572   6.984  16.629
   6723SM   C7S 8671   3.774   6.912  16.614
   6723SM   H7S 8672   3.742   6.807  16.630
   6723SM   H7T 8673   3.872   6.925  16.664
   6723SM   C8S 8674   3.799   6.935  16.463
   6723SM   H8S 8675   3.873   6.860  16.429
   6723SM   H8T 8676   3.844   7.035  16.449
   6723SM   C9S 8677   3.674   6.926  16.374
   6723SM   H9S 8678   3.605   7.009  16.401
   6723SM   H9T 8679   3.620   6.830  16.393
   6723SM  C10S 8680   3.708   6.937  16.224
   6723SM  H10S 8681   3.784   7.017  16.211
   6723SM  H10T 8682   3.617   6.969  16.168
   6723SM  C11S 8683   3.760   6.807  16.163
   6723SM  H11S 8684   3.682   6.729  16.168
   6723SM  H11T 8685   3.847   6.772  16.222
   6723SM  C12S 8686   3.805   6.824  16.017
   6723SM  H12S 8687   3.882   6.904  16.013
   6723SM  H12T 8688   3.720   6.856  15.954
   6723SM  C13S 8689   3.866   6.695  15.959
   6723SM  H13S 8690   3.786   6.619  15.944
   6723SM  H13T 8691   3.937   6.653  16.034
   6723SM  C14S 8692   3.944   6.716  15.828
   6723SM  H14S 8693   3.999   6.622  15.805
   6723SM  H14T 8694   4.020   6.795  15.843
   6723SM  C15S 8695   3.857   6.750  15.707
   6723SM  H15S 8696   3.806   6.848  15.723
   6723SM  H15T 8697   3.779   6.672  15.695
   6723SM  C16S 8698   3.941   6.756  15.578
   6723SM  H16S 8699   3.993   6.659  15.565
   6723SM  H16T 8700   4.019   6.835  15.589
   6723SM  C17S 8701   3.858   6.785  15.452
   6723SM  H17S 8702   3.807   6.883  15.464
   6723SM  H17T 8703   3.780   6.707  15.442
   6723SM  C18S 8704   3.943   6.787  15.324
   6723SM  H18S 8705   4.021   6.866  15.331
   6723SM  H18T 8706   3.880   6.807  15.235
   6723SM  H18U 8707   3.994   6.689  15.310
   6723SM   C1F 8708   3.850   7.305  17.112
   6723SM    OF 8709   3.957   7.300  17.173
   6723SM   C2F 8710   3.795   7.435  17.063
   6723SM   H2F 8711   3.814   7.513  17.140
   6723SM   H2G 8712   3.685   7.426  17.048
   6723SM   C3F 8713   3.862   7.479  16.931
   6723SM   H3F 8714   3.972   7.487  16.946
   6723SM   H3G 8715   3.826   7.580  16.905
   6723SM   C4F 8716   3.833   7.385  16.812
   6723SM   H4F 8717   3.724   7.380  16.795
   6723SM   H4G 8718   3.869   7.282  16.835
   6723SM   C5F 8719   3.902   7.431  16.683
   6723SM   H5F 8720   4.012   7.432  16.699
   6723SM   H5G 8721   3.871   7.535  16.661
   6723SM   C6F 8722   3.870   7.342  16.563
   6723SM   H6F 8723   3.760   7.343  16.547
   6723SM   H6G 8724   3.900   7.237  16.584
   6723SM   C7F 8725   3.941   7.391  16.436
   6723SM   H7F 8726   4.051   7.383  16.451
   6723SM   H7G 8727   3.918   7.499  16.424
   6723SM   C8F 8728   3.903   7.317  16.307
   6723SM   H8F 8729   3.932   7.210  16.314
   6723SM   H8G 8730   3.961   7.361  16.224
   6723SM   C9F 8731   3.753   7.326  16.273
   6723SM   H9F 8732   3.716   7.428  16.297
   6723SM   H9G 8733   3.697   7.254  16.335
   6723SM  C10F 8734   3.725   7.300  16.124
   6723SM  H10F 8735   3.774   7.205  16.094
   6723SM  H10G 8736   3.771   7.381  16.064
   6723SM  C11F 8737   3.575   7.291  16.092
   6723SM  H11F 8738   3.525   7.387  16.119
   6723SM  H11G 8739   3.531   7.211  16.155
   6723SM  C12F 8740   3.547   7.259  15.945
   6723SM  H12F 8741   3.440   7.232  15.934
   6723SM  H12G 8742   3.607   7.169  15.916
   6723SM  C13F 8743   3.578   7.374  15.849
   6723SM  H13F 8744   3.685   7.403  15.855
   6723SM  H13G 8745   3.518   7.462  15.880
   6723SM  C14F 8746   3.543   7.340  15.703
   6723SM  H14F 8747   3.533   7.434  15.645
   6723SM  H14G 8748   3.444   7.290  15.702
   6723SM  C15F 8749   3.646   7.250  15.634
   6723SM  H15F 8750   3.592   7.172  15.576
   6723SM  H15G 8751   3.709   7.197  15.709
   6723SM  C16F 8752   3.736   7.327  15.536
   6723SM  H16F 8753   3.792   7.405  15.591
   6723SM  H16G 8754   3.671   7.379  15.463
   6723SM  C17F 8755   3.835   7.237  15.460
   6723SM  H17F 8756   3.779   7.153  15.412
   6723SM  H17G 8757   3.905   7.193  15.533
   6723SM  C18F 8758   3.915   7.313  15.352
   6723SM  H18F 8759   4.002   7.252  15.321
   6723SM  H18G 8760   3.953   7.407  15.397
   6723SM  C19F 8761   3.833   7.347  15.226
   6723SM  H19F 8762   3.883   7.429  15.171
   6723SM  H19G 8763   3.733   7.384  15.256
   6723SM  C20F 8764   3.816   7.228  15.130
   6723SM  H20F 8765   3.805   7.135  15.189
   6723SM  H20G 8766   3.909   7.218  15.069
   6723SM  C21F 8767   3.695   7.240  15.036
   6723SM  H21F 8768   3.602   7.235  15.097
   6723SM  H21G 8769   3.693   7.153  14.967
   6723SM  C22F 8770   3.692   7.369  14.953
   6723SM  H22F 8771   3.783   7.374  14.890
   6723SM  H22G 8772   3.693   7.457  15.020
   6723SM  C23F 8773   3.568   7.379  14.863
   6723SM  H23F 8774   3.569   7.474  14.805
   6723SM  H23G 8775   3.475   7.376  14.924
   6723SM  H23H 8776   3.565   7.294  14.791
   6823SM     N 8777   4.019   1.723  17.667
   6823SM   C15 8778   3.969   1.794  17.789
   6823SM  H15A 8779   3.921   1.726  17.857
   6823SM  H15B 8780   3.896   1.868  17.758
   6823SM  H15C 8781   4.048   1.846  17.841
   6823SM   C14 8782   4.116   1.615  17.705
   6823SM  H14A 8783   4.150   1.561  17.618
   6823SM  H14B 8784   4.069   1.543  17.770
   6823SM  H14C 8785   4.203   1.655  17.756
   6823SM   C13 8786   3.903   1.660  17.595
   6823SM  H13A 8787   3.840   1.738  17.557
   6823SM  H13B 8788   3.845   1.596  17.660
   6823SM  H13C 8789   3.938   1.603  17.511
   6823SM   C12 8790   4.085   1.823  17.572
   6823SM  H12A 8791   4.105   1.773  17.478
   6823SM  H12B 8792   4.181   1.852  17.613
   6823SM   C11 8793   4.006   1.952  17.539
   6823SM  H11A 8794   4.065   2.012  17.466
   6823SM  H11B 8795   3.997   2.012  17.631
   6823SM     P 8796   3.752   2.008  17.502
   6823SM   O13 8797   3.647   1.920  17.559
   6823SM   O14 8798   3.787   2.130  17.578
   6823SM   O11 8799   3.712   2.046  17.353
   6823SM   O12 8800   3.881   1.920  17.480
   6823SM   C1S 8801   3.744   1.951  17.249
   6823SM   H1S 8802   3.715   1.848  17.280
   6823SM   H1T 8803   3.853   1.952  17.228
   6823SM    NF 8804   3.693   1.875  17.019
   6823SM   HNF 8805   3.752   1.895  16.941
   6823SM   C2S 8806   3.670   1.983  17.116
   6823SM   H2S 8807   3.561   1.987  17.137
   6823SM   C3S 8808   3.715   2.123  17.063
   6823SM   H3S 8809   3.826   2.121  17.052
   6823SM    O3 8810   3.684   2.230  17.151
   6823SM   HO3 8811   3.677   2.188  17.237
   6823SM   C4S 8812   3.656   2.146  16.925
   6823SM   H4S 8813   3.726   2.117  16.845
   6823SM   C5S 8814   3.537   2.199  16.892
   6823SM   H5S 8815   3.470   2.234  16.972
   6823SM   C6S 8816   3.486   2.218  16.751
   6823SM   H6S 8817   3.485   2.326  16.725
   6823SM   H6T 8818   3.380   2.182  16.746
   6823SM   C7S 8819   3.563   2.142  16.640
   6823SM   H7S 8820   3.562   2.033  16.663
   6823SM   H7T 8821   3.669   2.175  16.638
   6823SM   C8S 8822   3.503   2.162  16.500
   6823SM   H8S 8823   3.515   2.268  16.470
   6823SM   H8T 8824   3.395   2.137  16.503
   6823SM   C9S 8825   3.571   2.072  16.395
   6823SM   H9S 8826   3.557   1.966  16.424
   6823SM   H9T 8827   3.680   2.092  16.394
   6823SM  C10S 8828   3.515   2.093  16.253
   6823SM  H10S 8829   3.540   2.196  16.219
   6823SM  H10T 8830   3.405   2.083  16.255
   6823SM  C11S 8831   3.573   1.991  16.153
   6823SM  H11S 8832   3.544   1.889  16.186
   6823SM  H11T 8833   3.684   1.996  16.156
   6823SM  C12S 8834   3.525   2.013  16.009
   6823SM  H12S 8835   3.569   2.107  15.970
   6823SM  H12T 8836   3.415   2.023  16.008
   6823SM  C13S 8837   3.565   1.896  15.917
   6823SM  H13S 8838   3.513   1.804  15.950
   6823SM  H13T 8839   3.674   1.878  15.926
   6823SM  C14S 8840   3.532   1.922  15.769
   6823SM  H14S 8841   3.585   2.014  15.736
   6823SM  H14T 8842   3.423   1.941  15.759
   6823SM  C15S 8843   3.571   1.805  15.678
   6823SM  H15S 8844   3.517   1.714  15.711
   6823SM  H15T 8845   3.680   1.786  15.688
   6823SM  C16S 8846   3.538   1.831  15.530
   6823SM  H16S 8847   3.593   1.922  15.497
   6823SM  H16T 8848   3.430   1.852  15.521
   6823SM  C17S 8849   3.575   1.714  15.439
   6823SM  H17S 8850   3.521   1.623  15.473
   6823SM  H17T 8851   3.684   1.694  15.448
   6823SM  C18S 8852   3.541   1.740  15.292
   6823SM  H18S 8853   3.570   1.653  15.229
   6823SM  H18T 8854   3.595   1.830  15.254
   6823SM  H18U 8855   3.432   1.757  15.279
   6823SM   C1F 8856   3.640   1.754  17.034
   6823SM    OF 8857   3.568   1.727  17.129
   6823SM   C2F 8858   3.666   1.655  16.924
   6823SM   H2F 8859   3.706   1.707  16.834
   6823SM   H2G 8860   3.568   1.610  16.896
   6823SM   C3F 8861   3.762   1.541  16.966
   6823SM   H3F 8862   3.768   1.468  16.883
   6823SM   H3G 8863   3.718   1.488  17.053
   6823SM   C4F 8864   3.905   1.586  17.002
   6823SM   H4F 8865   3.964   1.495  17.027
   6823SM   H4G 8866   3.903   1.650  17.092
   6823SM   C5F 8867   3.978   1.660  16.888
   6823SM   H5F 8868   3.932   1.761  16.876
   6823SM   H5G 8869   3.964   1.605  16.793
   6823SM   C6F 8870   4.128   1.677  16.916
   6823SM   H6F 8871   4.177   1.577  16.908
   6823SM   H6G 8872   4.142   1.712  17.020
   6823SM   C7F 8873   4.199   1.777  16.823
   6823SM   H7F 8874   4.307   1.780  16.851
   6823SM   H7G 8875   4.157   1.878  16.840
   6823SM   C8F 8876   4.188   1.744  16.673
   6823SM   H8F 8877   4.082   1.752  16.642
   6823SM   H8G 8878   4.220   1.639  16.655
   6823SM   C9F 8879   4.273   1.839  16.587
   6823SM   H9F 8880   4.380   1.824  16.613
   6823SM   H9G 8881   4.247   1.944  16.613
   6823SM  C10F 8882   4.256   1.821  16.435
   6823SM  H10F 8883   4.274   1.716  16.407
   6823SM  H10G 8884   4.332   1.884  16.384
   6823SM  C11F 8885   4.117   1.865  16.385
   6823SM  H11F 8886   4.094   1.965  16.427
   6823SM  H11G 8887   4.040   1.794  16.421
   6823SM  C12F 8888   4.109   1.874  16.231
   6823SM  H12F 8889   4.131   1.775  16.187
   6823SM  H12G 8890   4.186   1.945  16.195
   6823SM  C13F 8891   3.970   1.921  16.184
   6823SM  H13F 8892   3.947   2.018  16.233
   6823SM  H13G 8893   3.894   1.848  16.219
   6823SM  C14F 8894   3.957   1.938  16.032
   6823SM  H14F 8895   3.853   1.972  16.011
   6823SM  H14G 8896   3.972   1.841  15.981
   6823SM  C15F 8897   4.053   2.043  15.974
   6823SM  H15F 8898   4.152   1.997  15.953
   6823SM  H15G 8899   4.068   2.123  16.050
   6823SM  C16F 8900   3.999   2.111  15.847
   6823SM  H16F 8901   4.069   2.192  15.818
   6823SM  H16G 8902   3.901   2.159  15.871
   6823SM  C17F 8903   3.979   2.018  15.726
   6823SM  H17F 8904   3.907   1.937  15.752
   6823SM  H17G 8905   4.076   1.971  15.701
   6823SM  C18F 8906   3.926   2.095  15.604
   6823SM  H18F 8907   3.994   2.181  15.586
   6823SM  H18G 8908   3.825   2.136  15.628
   6823SM  C19F 8909   3.917   2.010  15.477
   6823SM  H19F 8910   3.854   1.921  15.498
   6823SM  H19G 8911   4.019   1.973  15.451
   6823SM  C20F 8912   3.860   2.084  15.355
   6823SM  H20F 8913   3.755   2.114  15.377
   6823SM  H20G 8914   3.857   2.014  15.270
   6823SM  C21F 8915   3.940   2.210  15.315
   6823SM  H21F 8916   4.047   2.182  15.303
   6823SM  H21G 8917   3.933   2.284  15.397
   6823SM  C22F 8918   3.890   2.276  15.185
   6823SM  H22F 8919   3.940   2.375  15.176
   6823SM  H22G 8920   3.781   2.295  15.194
   6823SM  C23F 8921   3.919   2.196  15.058
   6823SM  H23F 8922   3.885   2.252  14.968
   6823SM  H23G 8923   3.867   2.098  15.060
   6823SM  H23H 8924   4.028   2.177  15.048
   6923SM     N 8925   6.513   2.555  17.819
   6923SM   C15 8926   6.383   2.523  17.751
   6923SM  H15A 8927   6.299   2.542  17.815
   6923SM  H15B 8928   6.379   2.420  17.721
   6923SM  H15C 8929   6.373   2.581  17.660
   6923SM   C14 8930   6.514   2.701  17.855
   6923SM  H14A 8931   6.507   2.761  17.766
   6923SM  H14B 8932   6.605   2.728  17.907
   6923SM  H14C 8933   6.431   2.726  17.918
   6923SM   C13 8934   6.520   2.475  17.945
   6923SM  H13A 8935   6.433   2.493  18.007
   6923SM  H13B 8936   6.607   2.501  18.004
   6923SM  H13C 8937   6.523   2.369  17.925
   6923SM   C12 8938   6.632   2.522  17.728
   6923SM  H12A 8939   6.621   2.421  17.692
   6923SM  H12B 8940   6.722   2.525  17.788
   6923SM   C11 8941   6.656   2.610  17.602
   6923SM  H11A 8942   6.749   2.575  17.552
   6923SM  H11B 8943   6.676   2.714  17.634
   6923SM     P 8944   6.511   2.476  17.431
   6923SM   O13 8945   6.601   2.366  17.474
   6923SM   O14 8946   6.366   2.455  17.441
   6923SM   O11 8947   6.551   2.515  17.283
   6923SM   O12 8948   6.546   2.609  17.512
   6923SM   C1S 8949   6.476   2.612  17.209
   6923SM   H1S 8950   6.542   2.699  17.188
   6923SM   H1T 8951   6.390   2.654  17.266
   6923SM    NF 8952   6.278   2.555  17.069
   6923SM   HNF 8953   6.235   2.465  17.077
   6923SM   C2S 8954   6.423   2.561  17.070
   6923SM   H2S 8955   6.455   2.636  16.995
   6923SM   C3S 8956   6.485   2.423  17.029
   6923SM   H3S 8957   6.439   2.344  17.093
   6923SM    O3 8958   6.626   2.410  17.049
   6923SM   HO3 8959   6.644   2.476  17.116
   6923SM   C4S 8960   6.452   2.396  16.885
   6923SM   H4S 8961   6.477   2.479  16.817
   6923SM   C5S 8962   6.397   2.284  16.831
   6923SM   H5S 8963   6.373   2.198  16.896
   6923SM   C6S 8964   6.367   2.268  16.684
   6923SM   H6S 8965   6.354   2.367  16.636
   6923SM   H6T 8966   6.271   2.214  16.671
   6923SM   C7S 8967   6.476   2.193  16.605
   6923SM   H7S 8968   6.488   2.090  16.645
   6923SM   H7T 8969   6.573   2.246  16.618
   6923SM   C8S 8970   6.445   2.186  16.455
   6923SM   H8S 8971   6.421   2.288  16.419
   6923SM   H8T 8972   6.354   2.123  16.438
   6923SM   C9S 8973   6.561   2.131  16.370
   6923SM   H9S 8974   6.582   2.025  16.396
   6923SM   H9T 8975   6.652   2.191  16.395
   6923SM  C10S 8976   6.537   2.144  16.218
   6923SM  H10S 8977   6.634   2.138  16.165
   6923SM  H10T 8978   6.494   2.244  16.197
   6923SM  C11S 8979   6.444   2.035  16.161
   6923SM  H11S 8980   6.357   2.023  16.229
   6923SM  H11T 8981   6.499   1.939  16.159
   6923SM  C12S 8982   6.391   2.068  16.020
   6923SM  H12S 8983   6.325   2.157  16.027
   6923SM  H12T 8984   6.328   1.983  15.985
   6923SM  C13S 8985   6.499   2.096  15.915
   6923SM  H13S 8986   6.569   2.009  15.909
   6923SM  H13T 8987   6.558   2.185  15.946
   6923SM  C14S 8988   6.440   2.122  15.776
   6923SM  H14S 8989   6.363   2.202  15.784
   6923SM  H14T 8990   6.389   2.030  15.739
   6923SM  C15S 8991   6.544   2.167  15.672
   6923SM  H15S 8992   6.622   2.088  15.660
   6923SM  H15T 8993   6.594   2.259  15.709
   6923SM  C16S 8994   6.481   2.197  15.535
   6923SM  H16S 8995   6.403   2.274  15.547
   6923SM  H16T 8996   6.432   2.105  15.496
   6923SM  C17S 8997   6.584   2.245  15.431
   6923SM  H17S 8998   6.661   2.167  15.417
   6923SM  H17T 8999   6.635   2.335  15.472
   6923SM  C18S 9000   6.521   2.279  15.296
   6923SM  H18S 9001   6.473   2.190  15.251
   6923SM  H18T 9002   6.599   2.317  15.225
   6923SM  H18U 9003   6.444   2.358  15.307
   6923SM   C1F 9004   6.202   2.665  17.073
   6923SM    OF 9005   6.253   2.776  17.084
   6923SM   C2F 9006   6.053   2.645  17.069
   6923SM   H2F 9007   6.012   2.668  17.169
   6923SM   H2G 9008   6.031   2.538  17.046
   6923SM   C3F 9009   5.984   2.735  16.964
   6923SM   H3F 9010   5.997   2.841  16.993
   6923SM   H3G 9011   5.875   2.714  16.965
   6923SM   C4F 9012   6.035   2.718  16.819
   6923SM   H4F 9013   6.142   2.748  16.814
   6923SM   H4G 9014   5.979   2.789  16.755
   6923SM   C5F 9015   6.019   2.577  16.761
   6923SM   H5F 9016   5.912   2.548  16.762
   6923SM   H5G 9017   6.075   2.505  16.825
   6923SM   C6F 9018   6.074   2.565  16.617
   6923SM   H6F 9019   6.087   2.458  16.591
   6923SM   H6G 9020   6.174   2.613  16.615
   6923SM   C7F 9021   5.983   2.630  16.511
   6923SM   H7F 9022   5.937   2.722  16.553
   6923SM   H7G 9023   5.900   2.561  16.486
   6923SM   C8F 9024   6.059   2.671  16.383
   6923SM   H8F 9025   6.135   2.746  16.412
   6923SM   H8G 9026   5.988   2.721  16.313
   6923SM   C9F 9027   6.130   2.555  16.310
   6923SM   H9F 9028   6.193   2.500  16.382
   6923SM   H9G 9029   6.198   2.599  16.234
   6923SM  C10F 9030   6.036   2.456  16.240
   6923SM  H10F 9031   5.969   2.408  16.315
   6923SM  H10G 9032   6.099   2.375  16.196
   6923SM  C11F 9033   5.950   2.514  16.126
   6923SM  H11F 9034   5.874   2.584  16.168
   6923SM  H11G 9035   5.895   2.431  16.077
   6923SM  C12F 9036   6.032   2.589  16.020
   6923SM  H12F 9037   6.121   2.528  15.993
   6923SM  H12G 9038   6.071   2.683  16.066
   6923SM  C13F 9039   5.954   2.626  15.893
   6923SM  H13F 9040   6.017   2.696  15.834
   6923SM  H13G 9041   5.862   2.682  15.922
   6923SM  C14F 9042   5.916   2.508  15.802
   6923SM  H14F 9043   5.869   2.550  15.711
   6923SM  H14G 9044   5.840   2.444  15.852
   6923SM  C15F 9045   6.037   2.421  15.762
   6923SM  H15F 9046   6.049   2.341  15.837
   6923SM  H15G 9047   6.129   2.483  15.765
   6923SM  C16F 9048   6.026   2.361  15.621
   6923SM  H16F 9049   5.926   2.316  15.607
   6923SM  H16G 9050   6.101   2.279  15.612
   6923SM  C17F 9051   6.054   2.464  15.511
   6923SM  H17F 9052   6.153   2.511  15.530
   6923SM  H17G 9053   5.977   2.544  15.514
   6923SM  C18F 9054   6.056   2.403  15.370
   6923SM  H18F 9055   5.957   2.356  15.350
   6923SM  H18G 9056   6.133   2.323  15.366
   6923SM  C19F 9057   6.085   2.507  15.261
   6923SM  H19F 9058   6.178   2.562  15.288
   6923SM  H19G 9059   6.002   2.582  15.259
   6923SM  C20F 9060   6.103   2.448  15.121
   6923SM  H20F 9061   6.191   2.380  15.121
   6923SM  H20G 9062   6.124   2.530  15.050
   6923SM  C21F 9063   5.980   2.370  15.070
   6923SM  H21F 9064   5.890   2.434  15.082
   6923SM  H21G 9065   5.965   2.280  15.134
   6923SM  C22F 9066   5.991   2.326  14.924
   6923SM  H22F 9067   5.997   2.416  14.859
   6923SM  H22G 9068   5.897   2.272  14.896
   6923SM  C23F 9069   6.110   2.234  14.894
   6923SM  H23F 9070   6.206   2.288  14.910
   6923SM  H23G 9071   6.107   2.200  14.788
   6923SM  H23H 9072   6.108   2.145  14.959
   7023SM     N 9073   5.715   1.908  17.825
   7023SM   C15 9074   5.716   1.777  17.751
   7023SM  H15A 9075   5.684   1.793  17.649
   7023SM  H15B 9076   5.645   1.708  17.794
   7023SM  H15C 9077   5.814   1.732  17.747
   7023SM   C14 9078   5.573   1.958  17.831
   7023SM  H14A 9079   5.537   1.980  17.732
   7023SM  H14B 9080   5.566   2.048  17.890
   7023SM  H14C 9081   5.508   1.883  17.874
   7023SM   C13 9082   5.763   1.884  17.964
   7023SM  H13A 9083   5.865   1.848  17.966
   7023SM  H13B 9084   5.701   1.810  18.013
   7023SM  H13C 9085   5.759   1.974  18.023
   7023SM   C12 9086   5.804   2.009  17.753
   7023SM  H12A 9087   5.899   1.962  17.733
   7023SM  H12B 9088   5.823   2.092  17.820
   7023SM   C11 9089   5.754   2.070  17.619
   7023SM  H11A 9090   5.835   2.135  17.579
   7023SM  H11B 9091   5.669   2.139  17.640
   7023SM     P 9092   5.577   1.943  17.468
   7023SM   O13 9093   5.553   1.798  17.488
   7023SM   O14 9094   5.483   2.035  17.535
   7023SM   O11 9095   5.588   1.977  17.314
   7023SM   O12 9096   5.725   1.971  17.521
   7023SM   C1S 9097   5.690   1.911  17.237
   7023SM   H1S 9098   5.679   1.800  17.244
   7023SM   H1T 9099   5.791   1.938  17.274
   7023SM    NF 9100   5.784   1.874  17.012
   7023SM   HNF 9101   5.870   1.920  16.993
   7023SM   C2S 9102   5.683   1.948  17.086
   7023SM   H2S 9103   5.583   1.919  17.048
   7023SM   C3S 9104   5.699   2.102  17.067
   7023SM   H3S 9105   5.795   2.134  17.113
   7023SM    O3 9106   5.597   2.179  17.131
   7023SM   HO3 9107   5.563   2.120  17.198
   7023SM   C4S 9108   5.699   2.136  16.921
   7023SM   H4S 9109   5.602   2.126  16.871
   7023SM   C5S 9110   5.807   2.176  16.850
   7023SM   H5S 9111   5.904   2.187  16.900
   7023SM   C6S 9112   5.807   2.208  16.702
   7023SM   H6S 9113   5.845   2.311  16.685
   7023SM   H6T 9114   5.705   2.202  16.658
   7023SM   C7S 9115   5.899   2.107  16.630
   7023SM   H7S 9116   5.861   2.004  16.646
   7023SM   H7T 9117   6.001   2.113  16.673
   7023SM   C8S 9118   5.910   2.132  16.478
   7023SM   H8S 9119   5.947   2.236  16.462
   7023SM   H8T 9120   5.810   2.123  16.432
   7023SM   C9S 9121   6.008   2.033  16.412
   7023SM   H9S 9122   5.970   1.930  16.424
   7023SM   H9T 9123   6.105   2.040  16.465
   7023SM  C10S 9124   6.033   2.061  16.263
   7023SM  H10S 9125   6.120   2.000  16.229
   7023SM  H10T 9126   6.061   2.168  16.250
   7023SM  C11S 9127   5.914   2.029  16.172
   7023SM  H11S 9128   5.825   2.086  16.204
   7023SM  H11T 9129   5.890   1.920  16.181
   7023SM  C12S 9130   5.942   2.061  16.024
   7023SM  H12S 9131   6.038   2.014  15.994
   7023SM  H12T 9132   5.954   2.171  16.013
   7023SM  C13S 9133   5.831   2.012  15.930
   7023SM  H13S 9134   5.734   2.053  15.963
   7023SM  H13T 9135   5.825   1.901  15.937
   7023SM  C14S 9136   5.855   2.051  15.784
   7023SM  H14S 9137   5.955   2.016  15.752
   7023SM  H14T 9138   5.854   2.162  15.776
   7023SM  C15S 9139   5.748   1.992  15.689
   7023SM  H15S 9140   5.648   2.020  15.728
   7023SM  H15T 9141   5.755   1.882  15.691
   7023SM  C16S 9142   5.759   2.041  15.544
   7023SM  H16S 9143   5.751   2.152  15.542
   7023SM  H16T 9144   5.674   2.000  15.486
   7023SM  C17S 9145   5.890   2.001  15.474
   7023SM  H17S 9146   5.903   1.891  15.483
   7023SM  H17T 9147   5.975   2.049  15.525
   7023SM  C18S 9148   5.892   2.039  15.325
   7023SM  H18S 9149   5.990   2.013  15.280
   7023SM  H18T 9150   5.875   2.148  15.313
   7023SM  H18U 9151   5.812   1.985  15.270
   7023SM   C1F 9152   5.771   1.744  16.982
   7023SM    OF 9153   5.679   1.678  17.027
   7023SM   C2F 9154   5.874   1.684  16.892
   7023SM   H2F 9155   5.935   1.612  16.951
   7023SM   H2G 9156   5.942   1.764  16.854
   7023SM   C3F 9157   5.808   1.610  16.773
   7023SM   H3F 9158   5.738   1.534  16.814
   7023SM   H3G 9159   5.886   1.556  16.715
   7023SM   C4F 9160   5.730   1.702  16.677
   7023SM   H4F 9161   5.801   1.759  16.613
   7023SM   H4G 9162   5.673   1.777  16.737
   7023SM   C5F 9163   5.628   1.628  16.590
   7023SM   H5F 9164   5.565   1.703  16.538
   7023SM   H5G 9165   5.561   1.569  16.657
   7023SM   C6F 9166   5.690   1.534  16.486
   7023SM   H6F 9167   5.763   1.467  16.535
   7023SM   H6G 9168   5.745   1.595  16.411
   7023SM   C7F 9169   5.586   1.446  16.414
   7023SM   H7F 9170   5.542   1.377  16.489
   7023SM   H7G 9171   5.638   1.383  16.339
   7023SM   C8F 9172   5.470   1.521  16.346
   7023SM   H8F 9173   5.411   1.573  16.424
   7023SM   H8G 9174   5.403   1.447  16.298
   7023SM   C9F 9175   5.514   1.624  16.240
   7023SM   H9F 9176   5.582   1.699  16.286
   7023SM   H9G 9177   5.424   1.679  16.206
   7023SM  C10F 9178   5.582   1.561  16.118
   7023SM  H10F 9179   5.513   1.487  16.072
   7023SM  H10G 9180   5.674   1.507  16.149
   7023SM  C11F 9181   5.620   1.667  16.014
   7023SM  H11F 9182   5.692   1.738  16.060
   7023SM  H11G 9183   5.529   1.725  15.986
   7023SM  C12F 9184   5.682   1.610  15.885
   7023SM  H12F 9185   5.775   1.555  15.910
   7023SM  H12G 9186   5.710   1.695  15.820
   7023SM  C13F 9187   5.587   1.518  15.807
   7023SM  H13F 9188   5.484   1.559  15.818
   7023SM  H13G 9189   5.587   1.416  15.851
   7023SM  C14F 9190   5.618   1.512  15.657
   7023SM  H14F 9191   5.620   1.616  15.618
   7023SM  H14G 9192   5.537   1.458  15.604
   7023SM  C15F 9193   5.752   1.445  15.622
   7023SM  H15F 9194   5.742   1.335  15.631
   7023SM  H15G 9195   5.829   1.477  15.696
   7023SM  C16F 9196   5.804   1.483  15.482
   7023SM  H16F 9197   5.902   1.434  15.465
   7023SM  H16G 9198   5.820   1.592  15.480
   7023SM  C17F 9199   5.708   1.445  15.368
   7023SM  H17F 9200   5.606   1.482  15.391
   7023SM  H17G 9201   5.703   1.334  15.358
   7023SM  C18F 9202   5.751   1.507  15.234
   7023SM  H18F 9203   5.850   1.465  15.202
   7023SM  H18G 9204   5.764   1.616  15.248
   7023SM  C19F 9205   5.648   1.484  15.122
   7023SM  H19F 9206   5.548   1.513  15.159
   7023SM  H19G 9207   5.644   1.376  15.096
   7023SM  C20F 9208   5.679   1.566  14.996
   7023SM  H20F 9209   5.780   1.539  14.958
   7023SM  H20G 9210   5.682   1.674  15.025
   7023SM  C21F 9211   5.575   1.546  14.885
   7023SM  H21F 9212   5.474   1.567  14.925
   7023SM  H21G 9213   5.578   1.439  14.854
   7023SM  C22F 9214   5.599   1.635  14.762
   7023SM  H22F 9215   5.533   1.599  14.680
   7023SM  H22G 9216   5.704   1.620  14.728
   7023SM  C23F 9217   5.573   1.784  14.785
   7023SM  H23F 9218   5.589   1.841  14.691
   7023SM  H23G 9219   5.642   1.825  14.862
   7023SM  H23H 9220   5.469   1.800  14.819
   7123SM     N 9221   5.538   7.827  17.616
   7123SM   C15 9222   5.687   7.827  17.639
   7123SM  H15A 9223   5.721   7.929  17.649
   7123SM  H15B 9224   5.740   7.785  17.554
   7123SM  H15C 9225   5.714   7.770  17.727
   7123SM   C14 9226   5.494   7.686  17.590
   7123SM  H14A 9227   5.540   7.647  17.501
   7123SM  H14B 9228   5.387   7.680  17.578
   7123SM  H14C 9229   5.521   7.622  17.672
   7123SM   C13 9230   5.471   7.881  17.738
   7123SM  H13A 9231   5.505   7.982  17.756
   7123SM  H13B 9232   5.496   7.821  17.825
   7123SM  H13C 9233   5.364   7.882  17.727
   7123SM   C12 9234   5.508   7.916  17.496
   7123SM  H12A 9235   5.406   7.901  17.465
   7123SM  H12B 9236   5.569   7.883  17.412
   7123SM   C11 9237   5.532   8.069  17.510
   7123SM  H11A 9238   5.463   8.111  17.587
   7123SM  H11B 9239   5.504   8.115  17.413
   7123SM     P 9240   5.734   8.233  17.501
   7123SM   O13 9241   5.634   8.341  17.522
   7123SM   O14 9242   5.865   8.247  17.567
   7123SM   O11 9243   5.753   8.214  17.345
   7123SM   O12 9244   5.667   8.097  17.546
   7123SM   C1S 9245   5.791   8.089  17.286
   7123SM   H1S 9246   5.755   8.002  17.344
   7123SM   H1T 9247   5.901   8.082  17.280
   7123SM    NF 9248   5.747   7.944  17.087
   7123SM   HNF 9249   5.807   7.934  17.008
   7123SM   C2S 9250   5.732   8.078  17.142
   7123SM   H2S 9251   5.623   8.101  17.148
   7123SM   C3S 9252   5.799   8.186  17.051
   7123SM   H3S 9253   5.909   8.168  17.051
   7123SM    O3 9254   5.778   8.319  17.095
   7123SM   HO3 9255   5.756   8.310  17.188
   7123SM   C4S 9256   5.747   8.173  16.910
   7123SM   H4S 9257   5.640   8.194  16.899
   7123SM   C5S 9258   5.821   8.143  16.801
   7123SM   H5S 9259   5.929   8.127  16.811
   7123SM   C6S 9260   5.767   8.131  16.660
   7123SM   H6S 9261   5.655   8.129  16.659
   7123SM   H6T 9262   5.801   8.036  16.614
   7123SM   C7S 9263   5.812   8.248  16.571
   7123SM   H7S 9264   5.923   8.256  16.572
   7123SM   H7T 9265   5.771   8.343  16.611
   7123SM   C8S 9266   5.767   8.233  16.425
   7123SM   H8S 9267   5.657   8.215  16.422
   7123SM   H8T 9268   5.816   8.144  16.381
   7123SM   C9S 9269   5.799   8.356  16.340
   7123SM   H9S 9270   5.908   8.379  16.349
   7123SM   H9T 9271   5.744   8.443  16.381
   7123SM  C10S 9272   5.764   8.339  16.192
   7123SM  H10S 9273   5.658   8.308  16.182
   7123SM  H10T 9274   5.827   8.259  16.149
   7123SM  C11S 9275   5.784   8.470  16.113
   7123SM  H11S 9276   5.888   8.506  16.128
   7123SM  H11T 9277   5.716   8.547  16.154
   7123SM  C12S 9278   5.758   8.456  15.962
   7123SM  H12S 9279   5.762   8.558  15.917
   7123SM  H12T 9280   5.657   8.415  15.944
   7123SM  C13S 9281   5.863   8.369  15.890
   7123SM  H13S 9282   5.850   8.263  15.919
   7123SM  H13T 9283   5.964   8.401  15.923
   7123SM  C14S 9284   5.856   8.382  15.737
   7123SM  H14S 9285   5.861   8.489  15.709
   7123SM  H14T 9286   5.758   8.342  15.702
   7123SM  C15S 9287   5.971   8.308  15.667
   7123SM  H15S 9288   5.964   8.200  15.689
   7123SM  H15T 9289   6.067   8.345  15.709
   7123SM  C16S 9290   5.975   8.329  15.515
   7123SM  H16S 9291   6.065   8.278  15.474
   7123SM  H16T 9292   5.985   8.437  15.492
   7123SM  C17S 9293   5.851   8.275  15.442
   7123SM  H17S 9294   5.762   8.333  15.473
   7123SM  H17T 9295   5.834   8.170  15.473
   7123SM  C18S 9296   5.864   8.280  15.289
   7123SM  H18S 9297   5.880   8.385  15.255
   7123SM  H18T 9298   5.772   8.240  15.241
   7123SM  H18U 9299   5.950   8.219  15.256
   7123SM   C1F 9300   5.676   7.838  17.129
   7123SM    OF 9301   5.608   7.843  17.230
   7123SM   C2F 9302   5.683   7.715  17.044
   7123SM   H2F 9303   5.707   7.628  17.108
   7123SM   H2G 9304   5.765   7.727  16.970
   7123SM   C3F 9305   5.549   7.691  16.971
   7123SM   H3F 9306   5.516   7.784  16.920
   7123SM   H3G 9307   5.471   7.666  17.047
   7123SM   C4F 9308   5.553   7.577  16.867
   7123SM   H4F 9309   5.452   7.566  16.823
   7123SM   H4G 9310   5.576   7.482  16.918
   7123SM   C5F 9311   5.654   7.597  16.752
   7123SM   H5F 9312   5.644   7.512  16.681
   7123SM   H5G 9313   5.757   7.592  16.794
   7123SM   C6F 9314   5.640   7.729  16.674
   7123SM   H6F 9315   5.725   7.737  16.603
   7123SM   H6G 9316   5.646   7.816  16.743
   7123SM   C7F 9317   5.510   7.738  16.591
   7123SM   H7F 9318   5.422   7.725  16.658
   7123SM   H7G 9319   5.509   7.653  16.519
   7123SM   C8F 9320   5.497   7.871  16.516
   7123SM   H8F 9321   5.589   7.889  16.456
   7123SM   H8G 9322   5.489   7.952  16.591
   7123SM   C9F 9323   5.374   7.878  16.423
   7123SM   H9F 9324   5.359   7.983  16.390
   7123SM   H9G 9325   5.284   7.850  16.483
   7123SM  C10F 9326   5.381   7.787  16.299
   7123SM  H10F 9327   5.282   7.786  16.249
   7123SM  H10G 9328   5.402   7.683  16.332
   7123SM  C11F 9329   5.486   7.829  16.195
   7123SM  H11F 9330   5.504   7.743  16.127
   7123SM  H11G 9331   5.583   7.851  16.245
   7123SM  C12F 9332   5.443   7.949  16.109
   7123SM  H12F 9333   5.406   8.030  16.175
   7123SM  H12G 9334   5.359   7.918  16.043
   7123SM  C13F 9335   5.557   8.007  16.022
   7123SM  H13F 9336   5.632   8.053  16.090
   7123SM  H13G 9337   5.516   8.088  15.959
   7123SM  C14F 9338   5.630   7.904  15.933
   7123SM  H14F 9339   5.679   7.829  15.998
   7123SM  H14G 9340   5.711   7.958  15.879
   7123SM  C15F 9341   5.541   7.830  15.832
   7123SM  H15F 9342   5.463   7.773  15.887
   7123SM  H15G 9343   5.603   7.756  15.777
   7123SM  C16F 9344   5.470   7.920  15.729
   7123SM  H16F 9345   5.397   7.985  15.782
   7123SM  H16G 9346   5.411   7.855  15.660
   7123SM  C17F 9347   5.561   8.010  15.644
   7123SM  H17F 9348   5.616   8.083  15.708
   7123SM  H17G 9349   5.495   8.070  15.578
   7123SM  C18F 9350   5.662   7.936  15.553
   7123SM  H18F 9351   5.678   7.998  15.462
   7123SM  H18G 9352   5.618   7.839  15.519
   7123SM  C19F 9353   5.800   7.914  15.618
   7123SM  H19F 9354   5.793   7.835  15.695
   7123SM  H19G 9355   5.830   8.008  15.668
   7123SM  C20F 9356   5.910   7.877  15.517
   7123SM  H20F 9357   6.007   7.871  15.572
   7123SM  H20G 9358   5.919   7.957  15.441
   7123SM  C21F 9359   5.886   7.743  15.445
   7123SM  H21F 9360   5.792   7.750  15.386
   7123SM  H21G 9361   5.873   7.663  15.520
   7123SM  C22F 9362   6.001   7.707  15.351
   7123SM  H22F 9363   6.094   7.697  15.411
   7123SM  H22G 9364   6.017   7.791  15.280
   7123SM  C23F 9365   5.977   7.578  15.273
   7123SM  H23F 9366   5.957   7.493  15.342
   7123SM  H23G 9367   6.065   7.553  15.211
   7123SM  H23H 9368   5.889   7.589  15.206
   7223SM     N 9369   8.028   3.178  17.648
   7223SM   C15 9370   8.116   3.210  17.765
   7223SM  H15A 9371   8.057   3.227  17.854
   7223SM  H15B 9372   8.173   3.299  17.743
   7223SM  H15C 9373   8.187   3.131  17.783
   7223SM   C14 9374   8.114   3.163  17.526
   7223SM  H14A 9375   8.191   3.087  17.540
   7223SM  H14B 9376   8.164   3.257  17.507
   7223SM  H14C 9377   8.056   3.140  17.439
   7223SM   C13 9378   7.955   3.050  17.675
   7223SM  H13A 9379   7.898   3.019  17.589
   7223SM  H13B 9380   7.887   3.062  17.758
   7223SM  H13C 9381   8.024   2.970  17.698
   7223SM   C12 9382   7.928   3.290  17.625
   7223SM  H12A 9383   7.850   3.281  17.700
   7223SM  H12B 9384   7.882   3.274  17.529
   7223SM   C11 9385   7.979   3.437  17.628
   7223SM  H11A 9386   8.014   3.462  17.731
   7223SM  H11B 9387   7.892   3.503  17.608
   7223SM     P 9388   8.222   3.515  17.563
   7223SM   O13 9389   8.213   3.628  17.658
   7223SM   O14 9390   8.305   3.399  17.604
   7223SM   O11 9391   8.271   3.566  17.422
   7223SM   O12 9392   8.078   3.460  17.528
   7223SM   C1S 9393   8.287   3.475  17.313
   7223SM   H1S 9394   8.278   3.368  17.344
   7223SM   H1T 9395   8.389   3.487  17.271
   7223SM    NF 9396   8.205   3.400  17.094
   7223SM   HNF 9397   8.238   3.430  17.004
   7223SM   C2S 9398   8.186   3.501  17.197
   7223SM   H2S 9399   8.082   3.493  17.236
   7223SM   C3S 9400   8.207   3.648  17.147
   7223SM   H3S 9401   8.316   3.666  17.135
   7223SM    O3 9402   8.157   3.747  17.237
   7223SM   HO3 9403   8.157   3.703  17.322
   7223SM   C4S 9404   8.144   3.665  17.010
   7223SM   H4S 9405   8.221   3.671  16.931
   7223SM   C5S 9406   8.015   3.679  16.975
   7223SM   H5S 9407   7.938   3.681  17.053
   7223SM   C6S 9408   7.964   3.696  16.833
   7223SM   H6S 9409   7.895   3.783  16.828
   7223SM   H6T 9410   7.905   3.607  16.804
   7223SM   C7S 9411   8.072   3.717  16.724
   7223SM   H7S 9412   8.147   3.635  16.728
   7223SM   H7T 9413   8.126   3.813  16.746
   7223SM   C8S 9414   8.017   3.723  16.581
   7223SM   H8S 9415   7.934   3.797  16.575
   7223SM   H8T 9416   7.975   3.624  16.555
   7223SM   C9S 9417   8.126   3.761  16.480
   7223SM   H9S 9418   8.214   3.695  16.495
   7223SM   H9T 9419   8.158   3.865  16.499
   7223SM  C10S 9420   8.081   3.748  16.333
   7223SM  H10S 9421   7.986   3.804  16.319
   7223SM  H10T 9422   8.060   3.641  16.311
   7223SM  C11S 9423   8.187   3.801  16.236
   7223SM  H11S 9424   8.285   3.757  16.261
   7223SM  H11T 9425   8.195   3.911  16.248
   7223SM  C12S 9426   8.155   3.769  16.089
   7223SM  H12S 9427   8.052   3.803  16.065
   7223SM  H12T 9428   8.158   3.659  16.074
   7223SM  C13S 9429   8.253   3.836  15.991
   7223SM  H13S 9430   8.357   3.811  16.020
   7223SM  H13T 9431   8.242   3.947  16.000
   7223SM  C14S 9432   8.231   3.795  15.845
   7223SM  H14S 9433   8.124   3.811  15.819
   7223SM  H14T 9434   8.252   3.687  15.834
   7223SM  C15S 9435   8.318   3.875  15.747
   7223SM  H15S 9436   8.425   3.863  15.775
   7223SM  H15T 9437   8.292   3.982  15.756
   7223SM  C16S 9438   8.299   3.830  15.601
   7223SM  H16S 9439   8.191   3.834  15.576
   7223SM  H16T 9440   8.332   3.724  15.591
   7223SM  C17S 9441   8.376   3.918  15.502
   7223SM  H17S 9442   8.484   3.914  15.527
   7223SM  H17T 9443   8.342   4.023  15.513
   7223SM  C18S 9444   8.356   3.875  15.356
   7223SM  H18S 9445   8.393   3.771  15.341
   7223SM  H18T 9446   8.411   3.942  15.288
   7223SM  H18U 9447   8.248   3.878  15.329
   7223SM   C1F 9448   8.174   3.272  17.114
   7223SM    OF 9449   8.109   3.238  17.212
   7223SM   C2F 9450   8.220   3.170  17.013
   7223SM   H2F 9451   8.149   3.085  17.016
   7223SM   H2G 9452   8.320   3.133  17.044
   7223SM   C3F 9453   8.228   3.224  16.868
   7223SM   H3F 9454   8.302   3.307  16.859
   7223SM   H3G 9455   8.128   3.264  16.839
   7223SM   C4F 9456   8.265   3.114  16.768
   7223SM   H4F 9457   8.201   3.025  16.788
   7223SM   H4G 9458   8.371   3.082  16.783
   7223SM   C5F 9459   8.244   3.153  16.621
   7223SM   H5F 9460   8.139   3.188  16.607
   7223SM   H5G 9461   8.256   3.062  16.558
   7223SM   C6F 9462   8.340   3.261  16.568
   7223SM   H6F 9463   8.444   3.224  16.577
   7223SM   H6G 9464   8.330   3.353  16.628
   7223SM   C7F 9465   8.311   3.294  16.420
   7223SM   H7F 9466   8.208   3.335  16.412
   7223SM   H7G 9467   8.315   3.200  16.360
   7223SM   C8F 9468   8.410   3.395  16.359
   7223SM   H8F 9469   8.512   3.351  16.360
   7223SM   H8G 9470   8.411   3.487  16.421
   7223SM   C9F 9471   8.371   3.433  16.215
   7223SM   H9F 9472   8.269   3.477  16.218
   7223SM   H9G 9473   8.366   3.341  16.152
   7223SM  C10F 9474   8.466   3.535  16.150
   7223SM  H10F 9475   8.476   3.622  16.219
   7223SM  H10G 9476   8.419   3.573  16.057
   7223SM  C11F 9477   8.607   3.482  16.116
   7223SM  H11F 9478   8.655   3.445  16.209
   7223SM  H11G 9479   8.668   3.567  16.079
   7223SM  C12F 9480   8.611   3.370  16.010
   7223SM  H12F 9481   8.555   3.281  16.047
   7223SM  H12G 9482   8.716   3.339  15.997
   7223SM  C13F 9483   8.555   3.412  15.873
   7223SM  H13F 9484   8.604   3.507  15.842
   7223SM  H13G 9485   8.446   3.433  15.882
   7223SM  C14F 9486   8.578   3.306  15.765
   7223SM  H14F 9487   8.526   3.212  15.793
   7223SM  H14G 9488   8.687   3.284  15.760
   7223SM  C15F 9489   8.532   3.349  15.624
   7223SM  H15F 9490   8.569   3.274  15.551
   7223SM  H15G 9491   8.578   3.447  15.599
   7223SM  C16F 9492   8.379   3.359  15.610
   7223SM  H16F 9493   8.341   3.433  15.684
   7223SM  H16G 9494   8.334   3.261  15.635
   7223SM  C17F 9495   8.332   3.403  15.470
   7223SM  H17F 9496   8.371   3.505  15.450
   7223SM  H17G 9497   8.221   3.410  15.471
   7223SM  C18F 9498   8.375   3.310  15.354
   7223SM  H18F 9499   8.486   3.316  15.344
   7223SM  H18G 9500   8.333   3.351  15.260
   7223SM  C19F 9501   8.336   3.162  15.369
   7223SM  H19F 9502   8.388   3.123  15.459
   7223SM  H19G 9503   8.375   3.105  15.282
   7223SM  C20F 9504   8.186   3.132  15.385
   7223SM  H20F 9505   8.136   3.208  15.449
   7223SM  H20G 9506   8.178   3.035  15.438
   7223SM  C21F 9507   8.108   3.114  15.253
   7223SM  H21F 9508   8.011   3.066  15.277
   7223SM  H21G 9509   8.163   3.045  15.186
   7223SM  C22F 9510   8.077   3.245  15.178
   7223SM  H22F 9511   8.172   3.289  15.141
   7223SM  H22G 9512   8.032   3.317  15.250
   7223SM  C23F 9513   7.982   3.226  15.060
   7223SM  H23F 9514   7.885   3.184  15.094
   7223SM  H23G 9515   8.026   3.156  14.985
   7223SM  H23H 9516   7.962   3.323  15.009
   7323SM     N 9517   6.341   1.226  17.797
   7323SM   C15 9518   6.401   1.343  17.725
   7323SM  H15A 9519   6.458   1.406  17.791
   7323SM  H15B 9520   6.323   1.400  17.677
   7323SM  H15C 9521   6.463   1.307  17.644
   7323SM   C14 9522   6.450   1.147  17.862
   7323SM  H14A 9523   6.502   1.205  17.937
   7323SM  H14B 9524   6.522   1.114  17.788
   7323SM  H14C 9525   6.411   1.058  17.910
   7323SM   C13 9526   6.249   1.278  17.904
   7323SM  H13A 9527   6.300   1.345  17.971
   7323SM  H13B 9528   6.207   1.196  17.961
   7323SM  H13C 9529   6.167   1.333  17.859
   7323SM   C12 9530   6.262   1.139  17.700
   7323SM  H12A 9531   6.178   1.198  17.664
   7323SM  H12B 9532   6.220   1.056  17.755
   7323SM   C11 9533   6.333   1.084  17.574
   7323SM  H11A 9534   6.267   1.009  17.526
   7323SM  H11B 9535   6.425   1.030  17.606
   7323SM     P 9536   6.256   1.269  17.408
   7323SM   O13 9537   6.180   1.176  17.321
   7323SM   O14 9538   6.180   1.346  17.509
   7323SM   O11 9539   6.339   1.369  17.318
   7323SM   O12 9540   6.370   1.186  17.480
   7323SM   C1S 9541   6.436   1.323  17.224
   7323SM   H1S 9542   6.454   1.213  17.230
   7323SM   H1T 9543   6.534   1.370  17.244
   7323SM    NF 9544   6.463   1.275  16.980
   7323SM   HNF 9545   6.530   1.320  16.921
   7323SM   C2S 9546   6.394   1.359  17.078
   7323SM   H2S 9547   6.285   1.341  17.067
   7323SM   C3S 9548   6.421   1.512  17.059
   7323SM   H3S 9549   6.529   1.530  17.077
   7323SM    O3 9550   6.350   1.594  17.152
   7323SM   HO3 9551   6.324   1.533  17.222
   7323SM   C4S 9552   6.392   1.553  16.916
   7323SM   H4S 9553   6.479   1.543  16.850
   7323SM   C5S 9554   6.278   1.604  16.864
   7323SM   H5S 9555   6.192   1.620  16.930
   7323SM   C6S 9556   6.256   1.645  16.720
   7323SM   H6S 9557   6.229   1.753  16.717
   7323SM   H6T 9558   6.170   1.590  16.678
   7323SM   C7S 9559   6.375   1.626  16.622
   7323SM   H7S 9560   6.396   1.517  16.613
   7323SM   H7T 9561   6.466   1.676  16.662
   7323SM   C8S 9562   6.347   1.685  16.483
   7323SM   H8S 9563   6.334   1.795  16.493
   7323SM   H8T 9564   6.251   1.644  16.444
   7323SM   C9S 9565   6.458   1.658  16.379
   7323SM   H9S 9566   6.554   1.698  16.415
   7323SM   H9T 9567   6.431   1.712  16.286
   7323SM  C10S 9568   6.474   1.508  16.346
   7323SM  H10S 9569   6.374   1.466  16.321
   7323SM  H10T 9570   6.511   1.455  16.436
   7323SM  C11S 9571   6.570   1.479  16.229
   7323SM  H11S 9572   6.578   1.369  16.220
   7323SM  H11T 9573   6.671   1.518  16.252
   7323SM  C12S 9574   6.523   1.535  16.094
   7323SM  H12S 9575   6.551   1.642  16.085
   7323SM  H12T 9576   6.412   1.529  16.089
   7323SM  C13S 9577   6.578   1.457  15.973
   7323SM  H13S 9578   6.535   1.498  15.880
   7323SM  H13T 9579   6.544   1.351  15.982
   7323SM  C14S 9580   6.732   1.457  15.961
   7323SM  H14S 9581   6.776   1.436  16.061
   7323SM  H14T 9582   6.767   1.557  15.929
   7323SM  C15S 9583   6.784   1.350  15.865
   7323SM  H15S 9584   6.742   1.251  15.895
   7323SM  H15T 9585   6.895   1.343  15.875
   7323SM  C16S 9586   6.750   1.375  15.717
   7323SM  H16S 9587   6.808   1.464  15.683
   7323SM  H16T 9588   6.642   1.399  15.706
   7323SM  C17S 9589   6.783   1.255  15.629
   7323SM  H17S 9590   6.713   1.172  15.653
   7323SM  H17T 9591   6.885   1.219  15.654
   7323SM  C18S 9592   6.778   1.284  15.479
   7323SM  H18S 9593   6.849   1.365  15.453
   7323SM  H18T 9594   6.676   1.316  15.449
   7323SM  H18U 9595   6.805   1.193  15.420
   7323SM   C1F 9596   6.437   1.145  16.962
   7323SM    OF 9597   6.382   1.077  17.048
   7323SM   C2F 9598   6.478   1.087  16.830
   7323SM   H2F 9599   6.558   1.012  16.847
   7323SM   H2G 9600   6.518   1.168  16.766
   7323SM   C3F 9601   6.358   1.020  16.758
   7323SM   H3F 9602   6.325   0.931  16.815
   7323SM   H3G 9603   6.394   0.985  16.659
   7323SM   C4F 9604   6.237   1.114  16.738
   7323SM   H4F 9605   6.271   1.211  16.696
   7323SM   H4G 9606   6.192   1.135  16.837
   7323SM   C5F 9607   6.127   1.054  16.648
   7323SM   H5F 9608   6.033   1.110  16.664
   7323SM   H5G 9609   6.108   0.949  16.681
   7323SM   C6F 9610   6.160   1.054  16.498
   7323SM   H6F 9611   6.082   0.996  16.444
   7323SM   H6G 9612   6.257   1.001  16.482
   7323SM   C7F 9613   6.169   1.193  16.433
   7323SM   H7F 9614   6.205   1.180  16.328
   7323SM   H7G 9615   6.244   1.256  16.486
   7323SM   C8F 9616   6.035   1.268  16.427
   7323SM   H8F 9617   5.993   1.275  16.530
   7323SM   H8G 9618   5.962   1.211  16.366
   7323SM   C9F 9619   6.047   1.412  16.372
   7323SM   H9F 9620   6.119   1.467  16.437
   7323SM   H9G 9621   5.949   1.463  16.380
   7323SM  C10F 9622   6.095   1.422  16.227
   7323SM  H10F 9623   6.189   1.364  16.214
   7323SM  H10G 9624   6.119   1.528  16.205
   7323SM  C11F 9625   5.991   1.375  16.124
   7323SM  H11F 9626   5.902   1.441  16.132
   7323SM  H11G 9627   5.958   1.271  16.147
   7323SM  C12F 9628   6.044   1.379  15.979
   7323SM  H12F 9629   6.096   1.475  15.962
   7323SM  H12G 9630   5.957   1.374  15.909
   7323SM  C13F 9631   6.138   1.262  15.947
   7323SM  H13F 9632   6.081   1.167  15.956
   7323SM  H13G 9633   6.221   1.259  16.020
   7323SM  C14F 9634   6.198   1.271  15.805
   7323SM  H14F 9635   6.267   1.358  15.800
   7323SM  H14G 9636   6.116   1.288  15.732
   7323SM  C15F 9637   6.274   1.143  15.766
   7323SM  H15F 9638   6.202   1.059  15.765
   7323SM  H15G 9639   6.351   1.121  15.844
   7323SM  C16F 9640   6.343   1.154  15.630
   7323SM  H16F 9641   6.424   1.229  15.636
   7323SM  H16G 9642   6.269   1.190  15.555
   7323SM  C17F 9643   6.401   1.019  15.583
   7323SM  H17F 9644   6.317   0.949  15.561
   7323SM  H17G 9645   6.460   0.976  15.666
   7323SM  C18F 9646   6.492   1.030  15.459
   7323SM  H18F 9647   6.533   0.929  15.437
   7323SM  H18G 9648   6.578   1.096  15.485
   7323SM  C19F 9649   6.423   1.086  15.334
   7323SM  H19F 9650   6.382   1.186  15.359
   7323SM  H19G 9651   6.337   1.022  15.305
   7323SM  C20F 9652   6.517   1.104  15.214
   7323SM  H20F 9653   6.620   1.125  15.250
   7323SM  H20G 9654   6.484   1.193  15.157
   7323SM  C21F 9655   6.520   0.986  15.115
   7323SM  H21F 9656   6.585   1.014  15.029
   7323SM  H21G 9657   6.418   0.970  15.074
   7323SM  C22F 9658   6.572   0.854  15.173
   7323SM  H22F 9659   6.500   0.818  15.251
   7323SM  H22G 9660   6.669   0.873  15.223
   7323SM  C23F 9661   6.590   0.744  15.068
   7323SM  H23F 9662   6.664   0.775  14.991
   7323SM  H23G 9663   6.494   0.722  15.017
   7323SM  H23H 9664   6.627   0.650  15.116
   7423SM     N 9665   0.510   5.339  17.660
   7423SM   C15 9666   0.581   5.401  17.777
   7423SM  H15A 9667   0.664   5.462  17.746
   7423SM  H15B 9668   0.618   5.326  17.846
   7423SM  H15C 9669   0.513   5.464  17.833
   7423SM   C14 9670   0.394   5.259  17.712
   7423SM  H14A 9671   0.426   5.181  17.780
   7423SM  H14B 9672   0.345   5.211  17.629
   7423SM  H14C 9673   0.322   5.321  17.762
   7423SM   C13 9674   0.453   5.447  17.574
   7423SM  H13A 9675   0.401   5.403  17.490
   7423SM  H13B 9676   0.529   5.514  17.536
   7423SM  H13C 9677   0.380   5.505  17.629
   7423SM   C12 9678   0.603   5.250  17.579
   7423SM  H12A 9679   0.629   5.164  17.639
   7423SM  H12B 9680   0.694   5.303  17.557
   7423SM   C11 9681   0.549   5.192  17.446
   7423SM  H11A 9682   0.630   5.138  17.393
   7423SM  H11B 9683   0.518   5.274  17.378
   7423SM     P 9684   0.456   4.960  17.520
   7423SM   O13 9685   0.551   4.964  17.634
   7423SM   O14 9686   0.322   4.904  17.547
   7423SM   O11 9687   0.522   4.887  17.394
   7423SM   O12 9688   0.436   5.107  17.468
   7423SM   C1S 9689   0.453   4.885  17.268
   7423SM   H1S 9690   0.365   4.952  17.266
   7423SM   H1T 9691   0.415   4.782  17.249
   7423SM    NF 9692   0.466   4.912  17.022
   7423SM   HNF 9693   0.494   4.842  16.956
   7423SM   C2S 9694   0.543   4.923  17.145
   7423SM   H2S 9695   0.575   5.029  17.157
   7423SM   C3S 9696   0.672   4.834  17.142
   7423SM   H3S 9697   0.640   4.728  17.148
   7423SM    O3 9698   0.757   4.856  17.254
   7423SM   HO3 9699   0.699   4.892  17.321
   7423SM   C4S 9700   0.749   4.858  17.014
   7423SM   H4S 9701   0.783   4.961  16.998
   7423SM   C5S 9702   0.778   4.762  16.923
   7423SM   H5S 9703   0.747   4.659  16.944
   7423SM   C6S 9704   0.853   4.777  16.793
   7423SM   H6S 9705   0.801   4.715  16.717
   7423SM   H6T 9706   0.955   4.734  16.803
   7423SM   C7S 9707   0.868   4.919  16.732
   7423SM   H7S 9708   0.934   4.979  16.798
   7423SM   H7T 9709   0.769   4.969  16.727
   7423SM   C8S 9710   0.928   4.917  16.589
   7423SM   H8S 9711   1.019   4.854  16.589
   7423SM   H8T 9712   0.959   5.021  16.563
   7423SM   C9S 9713   0.830   4.868  16.481
   7423SM   H9S 9714   0.740   4.933  16.482
   7423SM   H9T 9715   0.798   4.765  16.504
   7423SM  C10S 9716   0.890   4.868  16.338
   7423SM  H10S 9717   0.977   4.799  16.336
   7423SM  H10T 9718   0.925   4.970  16.313
   7423SM  C11S 9719   0.787   4.823  16.233
   7423SM  H11S 9720   0.700   4.892  16.235
   7423SM  H11T 9721   0.749   4.722  16.261
   7423SM  C12S 9722   0.842   4.817  16.089
   7423SM  H12S 9723   0.925   4.743  16.085
   7423SM  H12T 9724   0.883   4.916  16.062
   7423SM  C13S 9725   0.734   4.777  15.987
   7423SM  H13S 9726   0.651   4.850  15.992
   7423SM  H13T 9727   0.693   4.677  16.016
   7423SM  C14S 9728   0.785   4.769  15.843
   7423SM  H14S 9729   0.865   4.693  15.836
   7423SM  H14T 9730   0.829   4.867  15.814
   7423SM  C15S 9731   0.673   4.734  15.743
   7423SM  H15S 9732   0.594   4.811  15.748
   7423SM  H15T 9733   0.628   4.637  15.772
   7423SM  C16S 9734   0.723   4.724  15.598
   7423SM  H16S 9735   0.802   4.646  15.591
   7423SM  H16T 9736   0.768   4.821  15.568
   7423SM  C17S 9737   0.610   4.689  15.499
   7423SM  H17S 9738   0.529   4.765  15.509
   7423SM  H17T 9739   0.567   4.591  15.527
   7423SM  C18S 9740   0.656   4.684  15.353
   7423SM  H18S 9741   0.735   4.607  15.340
   7423SM  H18T 9742   0.697   4.782  15.322
   7423SM  H18U 9743   0.571   4.659  15.286
   7423SM   C1F 9744   0.365   4.994  16.992
   7423SM    OF 9745   0.337   5.087  17.066
   7423SM   C2F 9746   0.289   4.965  16.866
   7423SM   H2F 9747   0.233   4.870  16.879
   7423SM   H2G 9748   0.362   4.953  16.783
   7423SM   C3F 9749   0.190   5.079  16.831
   7423SM   H3F 9750   0.246   5.173  16.814
   7423SM   H3G 9751   0.122   5.096  16.917
   7423SM   C4F 9752   0.102   5.048  16.709
   7423SM   H4F 9753   0.029   5.131  16.696
   7423SM   H4G 9754   0.043   4.956  16.729
   7423SM   C5F 9755   0.178   5.029  16.577
   7423SM   H5F 9756   0.104   5.010  16.496
   7423SM   H5G 9757   0.243   4.939  16.584
   7423SM   C6F 9758   0.266   5.149  16.534
   7423SM   H6F 9759   0.310   5.124  16.435
   7423SM   H6G 9760   0.350   5.161  16.605
   7423SM   C7F 9761   0.189   5.282  16.524
   7423SM   H7F 9762   0.157   5.312  16.626
   7423SM   H7G 9763   0.096   5.266  16.464
   7423SM   C8F 9764   0.271   5.397  16.463
   7423SM   H8F 9765   0.364   5.409  16.522
   7423SM   H8G 9766   0.213   5.491  16.472
   7423SM   C9F 9767   0.308   5.378  16.314
   7423SM   H9F 9768   0.364   5.283  16.301
   7423SM   H9G 9769   0.376   5.461  16.286
   7423SM  C10F 9770   0.187   5.380  16.219
   7423SM  H10F 9771   0.141   5.481  16.222
   7423SM  H10G 9772   0.111   5.308  16.255
   7423SM  C11F 9773   0.223   5.343  16.074
   7423SM  H11F 9774   0.129   5.343  16.014
   7423SM  H11G 9775   0.263   5.240  16.073
   7423SM  C12F 9776   0.323   5.438  16.008
   7423SM  H12F 9777   0.421   5.432  16.062
   7423SM  H12G 9778   0.286   5.542  16.018
   7423SM  C13F 9779   0.347   5.408  15.859
   7423SM  H13F 9780   0.417   5.485  15.819
   7423SM  H13G 9781   0.251   5.418  15.804
   7423SM  C14F 9782   0.406   5.269  15.833
   7423SM  H14F 9783   0.332   5.191  15.864
   7423SM  H14G 9784   0.497   5.256  15.894
   7423SM  C15F 9785   0.441   5.247  15.685
   7423SM  H15F 9786   0.516   5.323  15.654
   7423SM  H15G 9787   0.349   5.263  15.624
   7423SM  C16F 9788   0.497   5.107  15.658
   7423SM  H16F 9789   0.421   5.030  15.685
   7423SM  H16G 9790   0.586   5.091  15.723
   7423SM  C17F 9791   0.540   5.086  15.512
   7423SM  H17F 9792   0.595   4.990  15.504
   7423SM  H17G 9793   0.611   5.168  15.484
   7423SM  C18F 9794   0.422   5.083  15.413
   7423SM  H18F 9795   0.368   5.180  15.416
   7423SM  H18G 9796   0.351   5.004  15.445
   7423SM  C19F 9797   0.465   5.055  15.268
   7423SM  H19F 9798   0.374   5.043  15.205
   7423SM  H19G 9799   0.521   4.959  15.264
   7423SM  C20F 9800   0.552   5.167  15.207
   7423SM  H20F 9801   0.647   5.175  15.264
   7423SM  H20G 9802   0.497   5.263  15.219
   7423SM  C21F 9803   0.585   5.147  15.059
   7423SM  H21F 9804   0.638   5.237  15.022
   7423SM  H21G 9805   0.490   5.138  15.000
   7423SM  C22F 9806   0.673   5.024  15.031
   7423SM  H22F 9807   0.616   4.932  15.056
   7423SM  H22G 9808   0.761   5.028  15.098
   7423SM  C23F 9809   0.721   5.016  14.886
   7423SM  H23F 9810   0.786   5.103  14.862
   7423SM  H23G 9811   0.634   5.018  14.816
   7423SM  H23H 9812   0.778   4.923  14.868
   7523SM     N 9813   8.123   6.482  17.620
   7523SM   C15 9814   8.000   6.446  17.698
   7523SM  H15A 9815   7.931   6.393  17.634
   7523SM  H15B 9816   7.948   6.534  17.733
   7523SM  H15C 9817   8.024   6.384  17.783
   7523SM   C14 9818   8.183   6.356  17.563
   7523SM  H14A 9819   8.278   6.381  17.518
   7523SM  H14B 9820   8.120   6.312  17.488
   7523SM  H14C 9821   8.204   6.284  17.640
   7523SM   C13 9822   8.081   6.568  17.504
   7523SM  H13A 9823   8.034   6.659  17.537
   7523SM  H13B 9824   8.011   6.515  17.442
   7523SM  H13C 9825   8.167   6.593  17.444
   7523SM   C12 9826   8.226   6.553  17.706
   7523SM  H12A 9827   8.261   6.486  17.782
   7523SM  H12B 9828   8.178   6.635  17.757
   7523SM   C11 9829   8.352   6.609  17.633
   7523SM  H11A 9830   8.413   6.661  17.710
   7523SM  H11B 9831   8.321   6.685  17.559
   7523SM     P 9832   8.554   6.543  17.484
   7523SM   O13 9833   8.642   6.632  17.564
   7523SM   O14 9834   8.615   6.421  17.427
   7523SM   O11 9835   8.486   6.626  17.367
   7523SM   O12 9836   8.428   6.504  17.572
   7523SM   C1S 9837   8.392   6.563  17.278
   7523SM   H1S 9838   8.293   6.611  17.294
   7523SM   H1T 9839   8.378   6.454  17.297
   7523SM    NF 9840   8.504   6.469  17.078
   7523SM   HNF 9841   8.602   6.468  17.096
   7523SM   C2S 9842   8.428   6.583  17.127
   7523SM   H2S 9843   8.332   6.588  17.071
   7523SM   C3S 9844   8.501   6.718  17.106
   7523SM   H3S 9845   8.600   6.714  17.156
   7523SM    O3 9846   8.431   6.828  17.165
   7523SM   HO3 9847   8.424   6.801  17.257
   7523SM   C4S 9848   8.521   6.742  16.959
   7523SM   H4S 9849   8.434   6.712  16.898
   7523SM   C5S 9850   8.630   6.793  16.898
   7523SM   H5S 9851   8.714   6.828  16.960
   7523SM   C6S 9852   8.646   6.813  16.749
   7523SM   H6S 9853   8.748   6.783  16.719
   7523SM   H6T 9854   8.636   6.921  16.725
   7523SM   C7S 9855   8.548   6.734  16.659
   7523SM   H7S 9856   8.443   6.763  16.681
   7523SM   H7T 9857   8.558   6.625  16.682
   7523SM   C8S 9858   8.573   6.754  16.509
   7523SM   H8S 9859   8.679   6.728  16.488
   7523SM   H8T 9860   8.558   6.861  16.481
   7523SM   C9S 9861   8.484   6.665  16.420
   7523SM   H9S 9862   8.381   6.706  16.417
   7523SM   H9T 9863   8.479   6.564  16.467
   7523SM  C10S 9864   8.538   6.646  16.277
   7523SM  H10S 9865   8.480   6.565  16.228
   7523SM  H10T 9866   8.644   6.613  16.282
   7523SM  C11S 9867   8.528   6.771  16.189
   7523SM  H11S 9868   8.573   6.858  16.242
   7523SM  H11T 9869   8.420   6.795  16.173
   7523SM  C12S 9870   8.598   6.755  16.053
   7523SM  H12S 9871   8.563   6.662  16.004
   7523SM  H12T 9872   8.707   6.746  16.070
   7523SM  C13S 9873   8.570   6.874  15.960
   7523SM  H13S 9874   8.589   6.968  16.016
   7523SM  H13T 9875   8.463   6.873  15.931
   7523SM  C14S 9876   8.656   6.877  15.833
   7523SM  H14S 9877   8.649   6.779  15.780
   7523SM  H14T 9878   8.762   6.892  15.862
   7523SM  C15S 9879   8.613   6.990  15.738
   7523SM  H15S 9880   8.595   7.082  15.797
   7523SM  H15T 9881   8.516   6.962  15.691
   7523SM  C16S 9882   8.716   7.021  15.629
   7523SM  H16S 9883   8.741   6.928  15.574
   7523SM  H16T 9884   8.809   7.057  15.678
   7523SM  C17S 9885   8.666   7.128  15.530
   7523SM  H17S 9886   8.629   7.216  15.587
   7523SM  H17T 9887   8.580   7.086  15.474
   7523SM  C18S 9888   8.773   7.174  15.431
   7523SM  H18S 9889   8.855   7.228  15.483
   7523SM  H18T 9890   8.729   7.243  15.355
   7523SM  H18U 9891   8.817   7.087  15.378
   7523SM   C1F 9892   8.443   6.356  17.045
   7523SM    OF 9893   8.321   6.346  17.054
   7523SM   C2F 9894   8.529   6.241  17.000
   7523SM   H2F 9895   8.559   6.183  17.089
   7523SM   H2G 9896   8.621   6.282  16.952
   7523SM   C3F 9897   8.454   6.149  16.901
   7523SM   H3F 9898   8.425   6.205  16.809
   7523SM   H3G 9899   8.360   6.117  16.950
   7523SM   C4F 9900   8.531   6.022  16.863
   7523SM   H4F 9901   8.457   5.940  16.852
   7523SM   H4G 9902   8.598   5.994  16.947
   7523SM   C5F 9903   8.609   6.028  16.730
   7523SM   H5F 9904   8.538   6.057  16.649
   7523SM   H5G 9905   8.644   5.926  16.706
   7523SM   C6F 9906   8.729   6.124  16.727
   7523SM   H6F 9907   8.785   6.114  16.823
   7523SM   H6G 9908   8.693   6.228  16.720
   7523SM   C7F 9909   8.826   6.095  16.611
   7523SM   H7F 9910   8.863   5.991  16.621
   7523SM   H7G 9911   8.915   6.162  16.620
   7523SM   C8F 9912   8.765   6.111  16.471
   7523SM   H8F 9913   8.742   6.218  16.451
   7523SM   H8G 9914   8.669   6.056  16.467
   7523SM   C9F 9915   8.853   6.055  16.358
   7523SM   H9F 9916   8.793   6.044  16.266
   7523SM   H9G 9917   8.886   5.953  16.388
   7523SM  C10F 9918   8.979   6.136  16.325
   7523SM  H10F 9919   9.046   6.073  16.263
   7523SM  H10G 9920   9.034   6.159  16.419
   7523SM  C11F 9921   8.954   6.266  16.247
   7523SM  H11F 9922   9.049   6.323  16.242
   7523SM  H11G 9923   8.880   6.329  16.303
   7523SM  C12F 9924   8.902   6.244  16.104
   7523SM  H12F 9925   8.802   6.196  16.110
   7523SM  H12G 9926   8.970   6.174  16.051
   7523SM  C13F 9927   8.892   6.375  16.024
   7523SM  H13F 9928   8.994   6.418  16.014
   7523SM  H13G 9929   8.830   6.448  16.080
   7523SM  C14F 9930   8.832   6.356  15.883
   7523SM  H14F 9931   8.891   6.278  15.829
   7523SM  H14G 9932   8.842   6.451  15.827
   7523SM  C15F 9933   8.684   6.315  15.885
   7523SM  H15F 9934   8.626   6.392  15.940
   7523SM  H15G 9935   8.673   6.219  15.939
   7523SM  C16F 9936   8.625   6.299  15.744
   7523SM  H16F 9937   8.689   6.229  15.686
   7523SM  H16G 9938   8.626   6.397  15.692
   7523SM  C17F 9939   8.482   6.243  15.748
   7523SM  H17F 9940   8.417   6.312  15.805
   7523SM  H17G 9941   8.484   6.146  15.803
   7523SM  C18F 9942   8.422   6.217  15.609
   7523SM  H18F 9943   8.330   6.157  15.621
   7523SM  H18G 9944   8.494   6.157  15.549
   7523SM  C19F 9945   8.386   6.346  15.534
   7523SM  H19F 9946   8.477   6.408  15.518
   7523SM  H19G 9947   8.316   6.404  15.597
   7523SM  C20F 9948   8.319   6.319  15.398
   7523SM  H20F 9949   8.271   6.413  15.363
   7523SM  H20G 9950   8.239   6.243  15.411
   7523SM  C21F 9951   8.418   6.272  15.290
   7523SM  H21F 9952   8.471   6.180  15.324
   7523SM  H21G 9953   8.494   6.351  15.274
   7523SM  C22F 9954   8.349   6.242  15.156
   7523SM  H22F 9955   8.290   6.332  15.126
   7523SM  H22G 9956   8.277   6.159  15.170
   7523SM  C23F 9957   8.447   6.207  15.044
   7523SM  H23F 9958   8.393   6.184  14.950
   7523SM  H23G 9959   8.508   6.118  15.072
   7523SM  H23H 9960   8.517   6.291  15.026
   7623SM     N 9961   0.820   7.119  17.751
   7623SM   C15 9962   0.766   6.996  17.816
   7623SM  H15A 9963   0.691   6.952  17.752
   7623SM  H15B 9964   0.724   7.016  17.914
   7623SM  H15C 9965   0.845   6.922  17.827
   7623SM   C14 9966   0.716   7.228  17.754
   7623SM  H14A 9967   0.687   7.252  17.855
   7623SM  H14B 9968   0.627   7.197  17.701
   7623SM  H14C 9969   0.753   7.319  17.708
   7623SM   C13 9970   0.940   7.164  17.828
   7623SM  H13A 9971   1.014   7.086  17.832
   7623SM  H13B 9972   0.914   7.192  17.929
   7623SM  H13C 9973   0.987   7.249  17.779
   7623SM   C12 9974   0.860   7.088  17.607
   7623SM  H12A 9975   0.943   7.020  17.608
   7623SM  H12B 9976   0.896   7.179  17.560
   7623SM   C11 9977   0.753   7.021  17.517
   7623SM  H11A 9978   0.783   7.031  17.411
   7623SM  H11B 9979   0.656   7.074  17.527
   7623SM     P 9980   0.842   6.777  17.505
   7623SM   O13 9981   0.976   6.828  17.541
   7623SM   O14 9982   0.806   6.642  17.554
   7623SM   O11 9983   0.823   6.780  17.347
   7623SM   O12 9984   0.734   6.883  17.553
   7623SM   C1S 9985   0.703   6.725  17.291
   7623SM   H1S 9986   0.620   6.797  17.301
   7623SM   H1T 9987   0.671   6.632  17.344
   7623SM    NF 9988   0.628   6.570  17.112
   7623SM   HNF 9989   0.670   6.489  17.071
   7623SM   C2S 9990   0.714   6.685  17.139
   7623SM   H2S 9991   0.676   6.771  17.080
   7623SM   C3S 9992   0.862   6.660  17.096
   7623SM   H3S 9993   0.900   6.574  17.155
   7623SM    O3 9994   0.951   6.768  17.121
   7623SM   HO3 9995   0.910   6.812  17.196
   7623SM   C4S 9996   0.871   6.628  16.949
   7623SM   H4S 9997   0.819   6.698  16.882
   7623SM   C5S 9998   0.940   6.524  16.898
   7623SM   H5S 9999   0.993   6.458  16.969
   7623SM   C6S10000   0.957   6.485  16.754
   7623SM   H6S10001   0.928   6.378  16.742
   7623SM   H6T10002   1.065   6.490  16.730
   7623SM   C7S10003   0.884   6.564  16.643
   7623SM   H7S10004   0.898   6.673  16.657
   7623SM   H7T10005   0.775   6.542  16.648
   7623SM   C8S10006   0.940   6.525  16.505
   7623SM   H8S10007   0.943   6.414  16.498
   7623SM   H8T10008   1.045   6.561  16.499
   7623SM   C9S10009   0.862   6.580  16.385
   7623SM   H9S10010   0.851   6.690  16.395
   7623SM   H9T10011   0.760   6.536  16.384
   7623SM  C10S10012   0.933   6.548  16.253
   7623SM  H10S10013   0.953   6.438  16.248
   7623SM  H10T10014   1.031   6.599  16.252
   7623SM  C11S10015   0.854   6.589  16.128
   7623SM  H11S10016   0.825   6.696  16.137
   7623SM  H11T10017   0.762   6.528  16.122
   7623SM  C12S10018   0.936   6.571  15.999
   7623SM  H12S10019   0.983   6.470  16.000
   7623SM  H12T10020   1.018   6.646  15.997
   7623SM  C13S10021   0.852   6.584  15.871
   7623SM  H13S10022   0.807   6.686  15.866
   7623SM  H13T10023   0.768   6.511  15.876
   7623SM  C14S10024   0.933   6.559  15.744
   7623SM  H14S10025   0.986   6.461  15.754
   7623SM  H14T10026   1.011   6.638  15.734
   7623SM  C15S10027   0.847   6.556  15.617
   7623SM  H15S10028   0.791   6.651  15.608
   7623SM  H15T10029   0.772   6.474  15.627
   7623SM  C16S10030   0.930   6.534  15.490
   7623SM  H16S10031   0.988   6.440  15.499
   7623SM  H16T10032   1.002   6.618  15.481
   7623SM  C17S10033   0.845   6.528  15.361
   7623SM  H17S10034   0.915   6.529  15.274
   7623SM  H17T10035   0.783   6.620  15.355
   7623SM  C18S10036   0.755   6.404  15.351
   7623SM  H18S10037   0.701   6.404  15.254
   7623SM  H18T10038   0.680   6.403  15.432
   7623SM  H18U10039   0.816   6.312  15.358
   7623SM   C1F10040   0.497   6.567  17.137
   7623SM    OF10041   0.439   6.666  17.180
   7623SM   C2F10042   0.426   6.437  17.115
   7623SM   H2F10043   0.420   6.384  17.212
   7623SM   H2G10044   0.486   6.373  17.046
   7623SM   C3F10045   0.283   6.455  17.058
   7623SM   H3F10046   0.223   6.513  17.130
   7623SM   H3G10047   0.237   6.354  17.050
   7623SM   C4F10048   0.278   6.523  16.920
   7623SM   H4F10049   0.319   6.626  16.928
   7623SM   H4G10050   0.172   6.533  16.889
   7623SM   C5F10051   0.353   6.447  16.810
   7623SM   H5F10052   0.314   6.343  16.804
   7623SM   H5G10053   0.461   6.442  16.835
   7623SM   C6F10054   0.338   6.514  16.673
   7623SM   H6F10055   0.376   6.619  16.681
   7623SM   H6G10056   0.230   6.519  16.646
   7623SM   C7F10057   0.415   6.439  16.564
   7623SM   H7F10058   0.372   6.337  16.554
   7623SM   H7G10059   0.521   6.429  16.595
   7623SM   C8F10060   0.410   6.508  16.427
   7623SM   H8F10061   0.305   6.521  16.394
   7623SM   H8G10062   0.460   6.442  16.352
   7623SM   C9F10063   0.482   6.644  16.425
   7623SM   H9F10064   0.578   6.636  16.480
   7623SM   H9G10065   0.419   6.719  16.477
   7623SM  C10F10066   0.511   6.692  16.282
   7623SM  H10F10067   0.416   6.690  16.224
   7623SM  H10G10068   0.581   6.621  16.233
   7623SM  C11F10069   0.569   6.833  16.276
   7623SM  H11F10070   0.668   6.835  16.326
   7623SM  H11G10071   0.501   6.903  16.329
   7623SM  C12F10072   0.585   6.880  16.131
   7623SM  H12F10073   0.485   6.879  16.082
   7623SM  H12G10074   0.648   6.808  16.076
   7623SM  C13F10075   0.643   7.022  16.117
   7623SM  H13F10076   0.747   7.024  16.157
   7623SM  H13G10077   0.582   7.091  16.179
   7623SM  C14F10078   0.642   7.071  15.972
   7623SM  H14F10079   0.662   7.181  15.969
   7623SM  H14G10080   0.540   7.056  15.932
   7623SM  C15F10081   0.745   7.001  15.882
   7623SM  H15F10082   0.756   6.894  15.912
   7623SM  H15G10083   0.844   7.049  15.896
   7623SM  C16F10084   0.707   7.003  15.733
   7623SM  H16F10085   0.796   6.976  15.672
   7623SM  H16G10086   0.677   7.106  15.704
   7623SM  C17F10087   0.594   6.904  15.698
   7623SM  H17F10088   0.506   6.924  15.763
   7623SM  H17G10089   0.628   6.801  15.719
   7623SM  C18F10090   0.549   6.915  15.551
   7623SM  H18F10091   0.636   6.894  15.485
   7623SM  H18G10092   0.516   7.019  15.532
   7623SM  C19F10093   0.434   6.819  15.518
   7623SM  H19F10094   0.356   6.828  15.596
   7623SM  H19G10095   0.472   6.714  15.520
   7623SM  C20F10096   0.369   6.847  15.382
   7623SM  H20F10097   0.333   6.953  15.381
   7623SM  H20G10098   0.280   6.782  15.371
   7623SM  C21F10099   0.462   6.823  15.262
   7623SM  H21F10100   0.494   6.717  15.263
   7623SM  H21G10101   0.553   6.886  15.271
   7623SM  C22F10102   0.395   6.854  15.127
   7623SM  H22F10103   0.298   6.800  15.121
   7623SM  H22G10104   0.460   6.813  15.046
   7623SM  C23F10105   0.372   7.003  15.101
   7623SM  H23F10106   0.324   7.018  15.002
   7623SM  H23G10107   0.469   7.058  15.102
   7623SM  H23H10108   0.306   7.047  15.178
   7723SM     N10109   0.416   2.369  17.807
   7723SM   C1510110   0.398   2.222  17.784
   7723SM  H15A10111   0.294   2.192  17.795
   7723SM  H15B10112   0.457   2.162  17.852
   7723SM  H15C10113   0.429   2.198  17.684
   7723SM   C1410114   0.375   2.404  17.947
   7723SM  H14A10115   0.435   2.351  18.019
   7723SM  H14B10116   0.271   2.379  17.965
   7723SM  H14C10117   0.388   2.510  17.966
   7723SM   C1310118   0.563   2.399  17.794
   7723SM  H13A10119   0.623   2.337  17.859
   7723SM  H13B10120   0.584   2.503  17.815
   7723SM  H13C10121   0.595   2.380  17.692
   7723SM   C1210122   0.336   2.449  17.704
   7723SM  H12A10123   0.371   2.551  17.704
   7723SM  H12B10124   0.233   2.453  17.735
   7723SM   C1110125   0.338   2.402  17.556
   7723SM  H11A10126   0.273   2.469  17.496
   7723SM  H11B10127   0.293   2.301  17.549
   7723SM     P10128   0.548   2.530  17.471
   7723SM   O1310129   0.465   2.646  17.508
   7723SM   O1410130   0.681   2.520  17.537
   7723SM   O1110131   0.569   2.524  17.313
   7723SM   O1210132   0.470   2.397  17.502
   7723SM   C1S10133   0.453   2.541  17.231
   7723SM   H1S10134   0.411   2.643  17.244
   7723SM   H1T10135   0.373   2.468  17.256
   7723SM    NF10136   0.374   2.567  16.996
   7723SM   HNF10137   0.322   2.498  16.947
   7723SM   C2S10138   0.486   2.523  17.079
   7723SM   H2S10139   0.574   2.587  17.056
   7723SM   C3S10140   0.525   2.375  17.050
   7723SM   H3S10141   0.438   2.311  17.074
   7723SM    O310142   0.633   2.326  17.130
   7723SM   HO310143   0.640   2.391  17.201
   7723SM   C4S10144   0.560   2.361  16.904
   7723SM   H4S10145   0.645   2.422  16.871
   7723SM   C5S10146   0.497   2.280  16.816
   7723SM   H5S10147   0.416   2.215  16.851
   7723SM   C6S10148   0.529   2.265  16.669
   7723SM   H6S10149   0.434   2.259  16.613
   7723SM   H6T10150   0.581   2.169  16.653
   7723SM   C7S10151   0.612   2.378  16.603
   7723SM   H7S10152   0.715   2.379  16.644
   7723SM   H7T10153   0.565   2.476  16.626
   7723SM   C8S10154   0.619   2.365  16.449
   7723SM   H8S10155   0.659   2.459  16.405
   7723SM   H8T10156   0.515   2.353  16.411
   7723SM   C9S10157   0.705   2.247  16.400
   7723SM   H9S10158   0.685   2.160  16.466
   7723SM   H9T10159   0.813   2.272  16.410
   7723SM  C10S10160   0.673   2.203  16.257
   7723SM  H10S10161   0.563   2.190  16.246
   7723SM  H10T10162   0.719   2.103  16.240
   7723SM  C11S10163   0.722   2.296  16.146
   7723SM  H11S10164   0.832   2.310  16.155
   7723SM  H11T10165   0.675   2.396  16.156
   7723SM  C12S10166   0.690   2.238  16.007
   7723SM  H12S10167   0.580   2.228  15.997
   7723SM  H12T10168   0.733   2.136  16.000
   7723SM  C13S10169   0.743   2.322  15.891
   7723SM  H13S10170   0.854   2.330  15.898
   7723SM  H13T10171   0.702   2.425  15.898
   7723SM  C14S10172   0.706   2.262  15.754
   7723SM  H14S10173   0.595   2.253  15.748
   7723SM  H14T10174   0.748   2.160  15.747
   7723SM  C15S10175   0.757   2.346  15.637
   7723SM  H15S10176   0.867   2.354  15.642
   7723SM  H15T10177   0.714   2.449  15.646
   7723SM  C16S10178   0.716   2.289  15.500
   7723SM  H16S10179   0.606   2.281  15.495
   7723SM  H16T10180   0.759   2.187  15.489
   7723SM  C17S10181   0.765   2.376  15.383
   7723SM  H17S10182   0.875   2.386  15.389
   7723SM  H17T10183   0.722   2.478  15.394
   7723SM  C18S10184   0.727   2.320  15.246
   7723SM  H18S10185   0.772   2.219  15.232
   7723SM  H18T10186   0.764   2.386  15.165
   7723SM  H18U10187   0.617   2.311  15.236
   7723SM   C1F10188   0.344   2.696  16.983
   7723SM    OF10189   0.409   2.781  17.041
   7723SM   C2F10190   0.229   2.731  16.893
   7723SM   H2F10191   0.145   2.769  16.954
   7723SM   H2G10192   0.196   2.640  16.840
   7723SM   C3F10193   0.274   2.839  16.791
   7723SM   H3F10194   0.368   2.805  16.742
   7723SM   H3G10195   0.297   2.933  16.846
   7723SM   C4F10196   0.173   2.867  16.679
   7723SM   H4F10197   0.217   2.943  16.612
   7723SM   H4G10198   0.079   2.909  16.721
   7723SM   C5F10199   0.140   2.742  16.597
   7723SM   H5F10200   0.063   2.682  16.650
   7723SM   H5G10201   0.232   2.680  16.590
   7723SM   C6F10202   0.092   2.773  16.455
   7723SM   H6F10203   0.176   2.819  16.398
   7723SM   H6G10204   0.009   2.847  16.459
   7723SM   C7F10205   0.043   2.649  16.379
   7723SM   H7F10206   0.025   2.677  16.273
   7723SM   H7G10207   9.161   2.618  16.421
   7723SM   C8F10208   0.139   2.529  16.384
   7723SM   H8F10209   0.146   2.491  16.488
   7723SM   H8G10210   0.240   2.561  16.351
   7723SM   C9F10211   0.092   2.414  16.294
   7723SM   H9F10212   0.091   2.451  16.189
   7723SM   H9G10213   9.204   2.386  16.320
   7723SM  C10F10214   0.181   2.289  16.304
   7723SM  H10F10215   0.177   2.251  16.408
   7723SM  H10G10216   0.286   2.316  16.282
   7723SM  C11F10217   0.138   2.175  16.209
   7723SM  H11F10218   0.032   2.151  16.226
   7723SM  H11G10219   0.198   2.084  16.231
   7723SM  C12F10220   0.158   2.212  16.061
   7723SM  H12F10221   0.266   2.233  16.043
   7723SM  H12G10222   0.102   2.305  16.038
   7723SM  C13F10223   0.110   2.105  15.962
   7723SM  H13F10224   0.004   2.079  15.984
   7723SM  H13G10225   0.171   2.013  15.973
   7723SM  C14F10226   0.120   2.159  15.818
   7723SM  H14F10227   0.225   2.188  15.800
   7723SM  H14G10228   0.057   2.250  15.810
   7723SM  C15F10229   0.074   2.059  15.711
   7723SM  H15F10230   9.189   2.022  15.736
   7723SM  H15G10231   0.143   1.972  15.712
   7723SM  C16F10232   0.071   2.120  15.570
   7723SM  H16F10233   9.206   2.196  15.566
   7723SM  H16G10234   0.046   2.041  15.497
   7723SM  C17F10235   0.203   2.188  15.529
   7723SM  H17F10236   0.285   2.114  15.537
   7723SM  H17G10237   0.225   2.272  15.598
   7723SM  C18F10238   0.201   2.243  15.386
   7723SM  H18F10239   0.117   2.315  15.376
   7723SM  H18G10240   0.183   2.160  15.314
   7723SM  C19F10241   0.331   2.317  15.350
   7723SM  H19F10242   0.413   2.243  15.341
   7723SM  H19G10243   0.357   2.387  15.432
   7723SM  C20F10244   0.321   2.398  15.220
   7723SM  H20F10245   0.417   2.450  15.202
   7723SM  H20G10246   0.243   2.476  15.232
   7723SM  C21F10247   0.287   2.313  15.097
   7723SM  H21F10248   0.188   2.264  15.111
   7723SM  H21G10249   0.363   2.232  15.086
   7723SM  C22F10250   0.283   2.395  14.967
   7723SM  H22F10251   0.382   2.442  14.951
   7723SM  H22G10252   0.208   2.476  14.979
   7723SM  C23F10253   0.247   2.311  14.844
   7723SM  H23F10254   0.321   2.230  14.829
   7723SM  H23G10255   0.245   2.374  14.753
   7723SM  H23H10256   0.146   2.265  14.856
   7823SM     N10257   1.560   8.524  17.764
   7823SM   C1510258   1.654   8.413  17.728
   7823SM  H15A10259   1.656   8.401  17.621
   7823SM  H15B10260   1.624   8.319  17.771
   7823SM  H15C10261   1.755   8.435  17.760
   7823SM   C1410262   1.424   8.489  17.714
   7823SM  H14A10263   1.426   8.489  17.606
   7823SM  H14B10264   1.350   8.563  17.743
   7823SM  H14C10265   1.392   8.392  17.749
   7823SM   C1310266   1.558   8.542  17.913
   7823SM  H13A10267   1.521   8.453  17.962
   7823SM  H13B10268   1.495   8.624  17.943
   7823SM  H13C10269   1.657   8.562  17.952
   7823SM   C1210270   1.606   8.653  17.696
   7823SM  H12A10271   1.692   8.693  17.748
   7823SM  H12B10272   1.528   8.727  17.705
   7823SM   C1110273   1.645   8.644  17.546
   7823SM  H11A10274   1.744   8.593  17.541
   7823SM  H11B10275   1.661   8.748  17.510
   7823SM     P10276   1.587   8.478  17.353
   7823SM   O1310277   1.642   8.358  17.421
   7823SM   O1410278   1.474   8.455  17.260
   7823SM   O1110279   1.704   8.554  17.277
   7823SM   O1210280   1.544   8.581  17.466
   7823SM   C1S10281   1.687   8.691  17.235
   7823SM   H1S10282   1.777   8.748  17.267
   7823SM   H1T10283   1.600   8.742  17.282
   7823SM    NF10284   1.538   8.688  17.037
   7823SM   HNF10285   1.515   8.596  17.006
   7823SM   C2S10286   1.676   8.709  17.079
   7823SM   H2S10287   1.702   8.815  17.057
   7823SM   C3S10288   1.776   8.616  17.005
   7823SM   H3S10289   1.749   8.509  17.021
   7823SM    O310290   1.912   8.630  17.045
   7823SM   HO310291   1.916   8.713  17.094
   7823SM   C4S10292   1.768   8.649  16.858
   7823SM   H4S10293   1.802   8.751  16.836
   7823SM   C5S10294   1.726   8.569  16.759
   7823SM   H5S10295   1.690   8.468  16.783
   7823SM   C6S10296   1.718   8.608  16.613
   7823SM   H6S10297   1.626   8.564  16.569
   7823SM   H6T10298   1.804   8.565  16.556
   7823SM   C7S10299   1.712   8.760  16.586
   7823SM   H7S10300   1.807   8.809  16.616
   7823SM   H7T10301   1.630   8.804  16.648
   7823SM   C8S10302   1.682   8.795  16.439
   7823SM   H8S10303   1.591   8.740  16.408
   7823SM   H8T10304   1.766   8.762  16.374
   7823SM   C9S10305   1.657   8.945  16.420
   7823SM   H9S10306   1.752   9.001  16.437
   7823SM   H9T10307   1.584   8.979  16.496
   7823SM  C10S10308   1.600   8.981  16.281
   7823SM  H10S10309   1.568   9.087  16.283
   7823SM  H10T10310   1.509   8.919  16.262
   7823SM  C11S10311   1.698   8.962  16.166
   7823SM  H11S10312   1.730   8.856  16.160
   7823SM  H11T10313   1.789   9.023  16.185
   7823SM  C12S10314   1.638   9.004  16.031
   7823SM  H12S10315   1.600   9.109  16.039
   7823SM  H12T10316   1.551   8.939  16.008
   7823SM  C13S10317   1.738   8.997  15.915
   7823SM  H13S10318   1.781   8.894  15.910
   7823SM  H13T10319   1.822   9.067  15.934
   7823SM  C14S10320   1.674   9.030  15.780
   7823SM  H14S10321   1.627   9.131  15.785
   7823SM  H14T10322   1.592   8.956  15.761
   7823SM  C15S10323   1.774   9.026  15.664
   7823SM  H15S10324   1.826   8.928  15.664
   7823SM  H15T10325   1.851   9.105  15.682
   7823SM  C16S10326   1.712   9.050  15.526
   7823SM  H16S10327   1.794   9.063  15.452
   7823SM  H16T10328   1.652   9.144  15.527
   7823SM  C17S10329   1.624   8.933  15.478
   7823SM  H17S10330   1.539   8.921  15.548
   7823SM  H17T10331   1.684   8.840  15.481
   7823SM  C18S10332   1.569   8.953  15.336
   7823SM  H18S10333   1.507   8.867  15.306
   7823SM  H18T10334   1.652   8.964  15.264
   7823SM  H18U10335   1.507   9.045  15.331
   7823SM   C1F10336   1.440   8.774  17.064
   7823SM    OF10337   1.465   8.882  17.117
   7823SM   C2F10338   1.301   8.729  17.033
   7823SM   H2F10339   1.248   8.711  17.130
   7823SM   H2G10340   1.305   8.632  16.978
   7823SM   C3F10341   1.220   8.830  16.949
   7823SM   H3F10342   1.213   8.927  17.004
   7823SM   H3G10343   1.116   8.791  16.938
   7823SM   C4F10344   1.276   8.855  16.808
   7823SM   H4F10345   1.293   8.758  16.756
   7823SM   H4G10346   1.374   8.906  16.818
   7823SM   C5F10347   1.183   8.943  16.723
   7823SM   H5F10348   1.152   9.030  16.784
   7823SM   H5G10349   1.090   8.886  16.698
   7823SM   C6F10350   1.247   8.996  16.593
   7823SM   H6F10351   1.340   9.050  16.621
   7823SM   H6G10352   1.179   9.069  16.547
   7823SM   C7F10353   1.283   8.889  16.488
   7823SM   H7F10354   1.349   8.812  16.533
   7823SM   H7G10355   1.339   8.939  16.408
   7823SM   C8F10356   1.160   8.821  16.424
   7823SM   H8F10357   1.088   8.900  16.394
   7823SM   H8G10358   1.110   8.756  16.499
   7823SM   C9F10359   1.195   8.739  16.298
   7823SM   H9F10360   1.244   8.805  16.224
   7823SM   H9G10361   1.101   8.701  16.253
   7823SM  C10F10362   1.287   8.619  16.327
   7823SM  H10F10363   1.239   8.552  16.401
   7823SM  H10G10364   1.382   8.656  16.371
   7823SM  C11F10365   1.322   8.538  16.200
   7823SM  H11F10366   1.364   8.607  16.124
   7823SM  H11G10367   1.229   8.494  16.158
   7823SM  C12F10368   1.424   8.428  16.229
   7823SM  H12F10369   1.382   8.357  16.304
   7823SM  H12G10370   1.514   8.475  16.275
   7823SM  C13F10371   1.470   8.350  16.104
   7823SM  H13F10372   1.560   8.291  16.133
   7823SM  H13G10373   1.502   8.422  16.026
   7823SM  C14F10374   1.365   8.253  16.047
   7823SM  H14F10375   1.285   8.235  16.122
   7823SM  H14G10376   1.415   8.155  16.028
   7823SM  C15F10377   1.303   8.300  15.915
   7823SM  H15F10378   1.384   8.316  15.841
   7823SM  H15G10379   1.251   8.397  15.931
   7823SM  C16F10380   1.203   8.197  15.858
   7823SM  H16F10381   1.123   8.181  15.934
   7823SM  H16G10382   1.254   8.100  15.843
   7823SM  C17F10383   1.136   8.241  15.727
   7823SM  H17F10384   1.089   8.341  15.743
   7823SM  H17G10385   1.054   8.170  15.703
   7823SM  C18F10386   1.229   8.250  15.605
   7823SM  H18F10387   1.312   8.321  15.624
   7823SM  H18G10388   1.170   8.290  15.519
   7823SM  C19F10389   1.288   8.114  15.562
   7823SM  H19F10390   1.206   8.040  15.554
   7823SM  H19G10391   1.359   8.079  15.639
   7823SM  C20F10392   1.360   8.122  15.426
   7823SM  H20F10393   1.442   8.197  15.432
   7823SM  H20G10394   1.288   8.157  15.349
   7823SM  C21F10395   1.419   7.987  15.381
   7823SM  H21F10396   1.339   7.910  15.382
   7823SM  H21G10397   1.497   7.955  15.454
   7823SM  C22F10398   1.481   7.993  15.241
   7823SM  H22F10399   1.558   8.073  15.239
   7823SM  H22G10400   1.402   8.021  15.168
   7823SM  C23F10401   1.546   7.861  15.197
   7823SM  H23F10402   1.470   7.780  15.195
   7823SM  H23G10403   1.627   7.833  15.267
   7823SM  H23H10404   1.589   7.871  15.095
   7923SM     N10405   8.316   0.596  17.717
   7923SM   C1510406   8.286   0.734  17.765
   7923SM  H15A10407   8.226   0.735  17.855
   7923SM  H15B10408   8.232   0.789  17.690
   7923SM  H15C10409   8.376   0.790  17.786
   7923SM   C1410410   8.401   0.605  17.594
   7923SM  H14A10411   8.434   0.507  17.564
   7923SM  H14B10412   8.489   0.666  17.611
   7923SM  H14C10413   8.343   0.645  17.513
   7923SM   C1310414   8.393   0.521  17.821
   7923SM  H13A10415   8.420   0.423  17.786
   7923SM  H13B10416   8.337   0.511  17.913
   7923SM  H13C10417   8.486   0.572  17.843
   7923SM   C1210418   8.186   0.523  17.683
   7923SM  H12A10419   8.127   0.513  17.773
   7923SM  H12B10420   8.208   0.423  17.648
   7923SM   C1110421   8.096   0.586  17.573
   7923SM  H11A10422   8.076   0.692  17.596
   7923SM  H11B10423   7.997   0.535  17.573
   7923SM     P10424   8.161   0.436  17.371
   7923SM   O1310425   8.162   0.328  17.472
   7923SM   O1410426   8.058   0.435  17.266
   7923SM   O1110427   8.306   0.438  17.304
   7923SM   O1210428   8.158   0.576  17.445
   7923SM   C1S10429   8.356   0.555  17.237
   7923SM   H1S10430   8.466   0.546  17.231
   7923SM   H1T10431   8.335   0.648  17.293
   7923SM    NF10432   8.172   0.630  17.091
   7923SM   HNF10433   8.098   0.566  17.112
   7923SM   C2S10434   8.304   0.569  17.089
   7923SM   H2S10435   8.374   0.637  17.036
   7923SM   C3S10436   8.306   0.432  17.016
   7923SM   H3S10437   8.227   0.367  17.059
   7923SM    O310438   8.429   0.359  17.033
   7923SM   HO310439   8.463   0.389  17.117
   7923SM   C4S10440   8.272   0.454  16.870
   7923SM   H4S10441   8.164   0.463  16.852
   7923SM   C5S10442   8.357   0.464  16.765
   7923SM   H5S10443   8.465   0.452  16.783
   7923SM   C6S10444   8.316   0.487  16.622
   7923SM   H6S10445   8.210   0.519  16.615
   7923SM   H6T10446   8.325   0.392  16.565
   7923SM   C7S10447   8.405   0.592  16.554
   7923SM   H7S10448   8.511   0.560  16.559
   7923SM   H7T10449   8.396   0.689  16.606
   7923SM   C8S10450   8.369   0.612  16.405
   7923SM   H8S10451   8.264   0.647  16.398
   7923SM   H8T10452   8.375   0.514  16.353
   7923SM   C9S10453   8.462   0.712  16.335
   7923SM   H9S10454   8.567   0.677  16.341
   7923SM   H9T10455   8.456   0.809  16.389
   7923SM  C10S10456   8.424   0.736  16.188
   7923SM  H10S10457   8.470   0.832  16.155
   7923SM  H10T10458   8.314   0.747  16.180
   7923SM  C11S10459   8.472   0.626  16.092
   7923SM  H11S10460   8.428   0.528  16.120
   7923SM  H11T10461   8.583   0.618  16.103
   7923SM  C12S10462   8.439   0.658  15.945
   7923SM  H12S10463   8.509   0.601  15.880
   7923SM  H12T10464   8.457   0.766  15.927
   7923SM  C13S10465   8.296   0.621  15.905
   7923SM  H13S10466   8.224   0.661  15.980
   7923SM  H13T10467   8.286   0.510  15.905
   7923SM  C14S10468   8.259   0.676  15.767
   7923SM  H14S10469   8.338   0.649  15.694
   7923SM  H14T10470   8.257   0.787  15.774
   7923SM  C15S10471   8.124   0.627  15.713
   7923SM  H15S10472   8.047   0.635  15.792
   7923SM  H15T10473   8.133   0.520  15.685
   7923SM  C16S10474   8.078   0.708  15.591
   7923SM  H16S10475   8.161   0.714  15.517
   7923SM  H16T10476   8.054   0.811  15.623
   7923SM  C17S10477   7.956   0.646  15.520
   7923SM  H17S10478   7.876   0.629  15.595
   7923SM  H17T10479   7.985   0.547  15.479
   7923SM  C18S10480   7.902   0.735  15.407
   7923SM  H18S10481   7.981   0.754  15.331
   7923SM  H18T10482   7.868   0.833  15.447
   7923SM  H18U10483   7.816   0.686  15.356
   7923SM   C1F10484   8.156   0.759  17.120
   7923SM    OF10485   8.254   0.831  17.134
   7923SM   C2F10486   8.017   0.809  17.142
   7923SM   H2F10487   8.009   0.844  17.247
   7923SM   H2G10488   7.945   0.726  17.127
   7923SM   C3F10489   7.986   0.927  17.047
   7923SM   H3F10490   8.057   1.010  17.066
   7923SM   H3G10491   7.884   0.966  17.070
   7923SM   C4F10492   7.991   0.891  16.897
   7923SM   H4F10493   8.091   0.850  16.872
   7923SM   H4G10494   7.979   0.985  16.838
   7923SM   C5F10495   7.882   0.792  16.853
   7923SM   H5F10496   7.783   0.836  16.875
   7923SM   H5G10497   7.892   0.698  16.912
   7923SM   C6F10498   7.889   0.757  16.704
   7923SM   H6F10499   7.988   0.711  16.683
   7923SM   H6G10500   7.882   0.850  16.643
   7923SM   C7F10501   7.778   0.660  16.663
   7923SM   H7F10502   7.679   0.710  16.679
   7923SM   H7G10503   7.781   0.571  16.729
   7923SM   C8F10504   7.786   0.613  16.517
   7923SM   H8F10505   7.780   0.700  16.448
   7923SM   H8G10506   7.698   0.548  16.497
   7923SM   C9F10507   7.913   0.532  16.486
   7923SM   H9F10508   7.935   0.467  16.574
   7923SM   H9G10509   8.000   0.600  16.472
   7923SM  C10F10510   7.898   0.439  16.364
   7923SM  H10F10511   7.810   0.374  16.380
   7923SM  H10G10512   7.987   0.372  16.359
   7923SM  C11F10513   7.883   0.512  16.230
   7923SM  H11F10514   7.981   0.557  16.200
   7923SM  H11G10515   7.811   0.595  16.242
   7923SM  C12F10516   7.830   0.421  16.118
   7923SM  H12F10517   7.806   0.481  16.028
   7923SM  H12G10518   7.735   0.377  16.154
   7923SM  C13F10519   7.925   0.306  16.078
   7923SM  H13F10520   7.863   0.219  16.047
   7923SM  H13G10521   7.985   0.273  16.165
   7923SM  C14F10522   8.017   0.341  15.960
   7923SM  H14F10523   8.083   0.426  15.988
   7923SM  H14G10524   7.955   0.374  15.875
   7923SM  C15F10525   8.102   0.220  15.917
   7923SM  H15F10526   8.037   0.130  15.911
   7923SM  H15G10527   8.180   0.201  15.994
   7923SM  C16F10528   8.169   0.240  15.780
   7923SM  H16F10529   8.229   0.333  15.781
   7923SM  H16G10530   8.089   0.252  15.703
   7923SM  C17F10531   8.259   0.121  15.741
   7923SM  H17F10532   8.203   0.027  15.759
   7923SM  H17G10533   8.347   0.120  15.808
   7923SM  C18F10534   8.305   0.124  15.595
   7923SM  H18F10535   8.216   0.114  15.529
   7923SM  H18G10536   8.370   0.036  15.576
   7923SM  C19F10537   8.382   0.251  15.556
   7923SM  H19F10538   8.462   0.268  15.631
   7923SM  H19G10539   8.314   0.339  15.560
   7923SM  C20F10540   8.447   0.245  15.417
   7923SM  H20F10541   8.518   0.159  15.414
   7923SM  H20G10542   8.506   0.337  15.401
   7923SM  C21F10543   8.346   0.230  15.302
   7923SM  H21F10544   8.274   0.315  15.305
   7923SM  H21G10545   8.288   0.136  15.317
   7923SM  C22F10546   8.411   0.224  15.162
   7923SM  H22F10547   8.331   0.200  15.088
   7923SM  H22G10548   8.484   0.140  15.161
   7923SM  C23F10549   8.480   0.353  15.119
   7923SM  H23F10550   8.520   0.343  15.016
   7923SM  H23G10551   8.565   0.377  15.187
   7923SM  H23H10552   8.409   0.439  15.121
   8023SM     N10553   0.695   0.528  17.689
   8023SM   C1510554   0.826   0.582  17.737
   8023SM  H15A10555   0.900   0.504  17.744
   8023SM  H15B10556   0.816   0.628  17.834
   8023SM  H15C10557   0.866   0.657  17.670
   8023SM   C1410558   0.708   0.475  17.550
   8023SM  H14A10559   0.742   0.549  17.479
   8023SM  H14B10560   0.611   0.445  17.514
   8023SM  H14C10561   0.774   0.390  17.544
   8023SM   C1310562   0.650   0.417  17.779
   8023SM  H13A10563   0.722   0.336  17.780
   8023SM  H13B10564   0.557   0.377  17.744
   8023SM  H13C10565   0.637   0.451  17.881
   8023SM   C1210566   0.590   0.639  17.690
   8023SM  H12A10567   0.616   0.710  17.613
   8023SM  H12B10568   0.596   0.692  17.784
   8023SM   C1110569   0.442   0.598  17.665
   8023SM  H11A10570   0.381   0.691  17.663
   8023SM  H11B10571   0.407   0.537  17.751
   8023SM     P10572   0.294   0.457  17.502
   8023SM   O1310573   0.316   0.311  17.508
   8023SM   O1410574   0.183   0.513  17.584
   8023SM   O1110575   0.272   0.499  17.352
   8023SM   O1210576   0.429   0.528  17.542
   8023SM   C1S10577   0.373   0.556  17.267
   8023SM   H1S10578   0.459   0.599  17.324
   8023SM   H1T10579   0.328   0.641  17.210
   8023SM    NF10580   0.533   0.514  17.081
   8023SM   HNF10581   0.511   0.532  16.985
   8023SM   C2S10582   0.428   0.454  17.162
   8023SM   H2S10583   0.472   0.368  17.217
   8023SM   C3S10584   0.309   0.401  17.076
   8023SM   H3S10585   0.257   0.488  17.031
   8023SM    O310586   0.212   0.330  17.152
   8023SM   HO310587   0.214   0.375  17.236
   8023SM   C4S10588   0.358   0.311  16.966
   8023SM   H4S10589   0.415   0.223  17.001
   8023SM   C5S10590   0.336   0.328  16.834
   8023SM   H5S10591   0.276   0.414  16.800
   8023SM   C6S10592   0.386   0.237  16.724
   8023SM   H6S10593   0.302   0.172  16.689
   8023SM   H6T10594   0.467   0.170  16.760
   8023SM   C7S10595   0.437   0.315  16.601
   8023SM   H7S10596   0.522   0.380  16.630
   8023SM   H7T10597   0.357   0.381  16.561
   8023SM   C8S10598   0.484   0.222  16.487
   8023SM   H8S10599   0.400   0.155  16.458
   8023SM   H8T10600   0.567   0.159  16.524
   8023SM   C9S10601   0.532   0.299  16.363
   8023SM   H9S10602   0.609   0.372  16.394
   8023SM   H9T10603   0.447   0.357  16.319
   8023SM  C10S10604   0.592   0.207  16.255
   8023SM  H10S10605   0.514   0.138  16.217
   8023SM  H10T10606   0.672   0.146  16.302
   8023SM  C11S10607   0.652   0.286  16.137
   8023SM  H11S10608   0.717   0.366  16.180
   8023SM  H11T10609   0.572   0.335  16.078
   8023SM  C12S10610   0.740   0.200  16.045
   8023SM  H12S10611   0.797   0.127  16.107
   8023SM  H12T10612   0.814   0.264  15.994
   8023SM  C13S10613   0.662   0.123  15.937
   8023SM  H13S10614   0.567   0.082  15.979
   8023SM  H13T10615   0.724   0.037  15.905
   8023SM  C14S10616   0.632   0.207  15.812
   8023SM  H14S10617   0.726   0.255  15.779
   8023SM  H14T10618   0.560   0.288  15.836
   8023SM  C15S10619   0.578   0.123  15.695
   8023SM  H15S10620   0.477   0.084  15.721
   8023SM  H15T10621   0.645   0.036  15.679
   8023SM  C16S10622   0.570   0.203  15.564
   8023SM  H16S10623   0.671   0.243  15.540
   8023SM  H16T10624   0.502   0.290  15.578
   8023SM  C17S10625   0.522   0.119  15.445
   8023SM  H17S10626   0.420   0.081  15.466
   8023SM  H17T10627   0.588   0.031  15.434
   8023SM  C18S10628   0.520   0.197  15.313
   8023SM  H18S10629   0.485   0.132  15.230
   8023SM  H18T10630   0.622   0.233  15.287
   8023SM  H18U10631   0.453   0.284  15.319
   8023SM   C1F10632   0.654   0.547  17.127
   8023SM    OF10633   0.683   0.535  17.246
   8023SM   C2F10634   0.755   0.589  17.025
   8023SM   H2F10635   0.711   0.578  16.923
   8023SM   H2G10636   0.842   0.521  17.032
   8023SM   C3F10637   0.805   0.734  17.045
   8023SM   H3F10638   0.882   0.755  16.968
   8023SM   H3G10639   0.856   0.742  17.144
   8023SM   C4F10640   0.696   0.843  17.037
   8023SM   H4F10641   0.746   0.942  17.042
   8023SM   H4G10642   0.630   0.835  17.125
   8023SM   C5F10643   0.608   0.839  16.910
   8023SM   H5F10644   0.537   0.925  16.913
   8023SM   H5G10645   0.546   0.747  16.913
   8023SM   C6F10646   0.685   0.844  16.777
   8023SM   H6F10647   0.752   0.757  16.768
   8023SM   H6G10648   0.748   0.936  16.776
   8023SM   C7F10649   0.592   0.847  16.654
   8023SM   H7F10650   0.654   0.866  16.563
   8023SM   H7G10651   0.521   0.932  16.664
   8023SM   C8F10652   0.512   0.718  16.633
   8023SM   H8F10653   0.453   0.697  16.725
   8023SM   H8G10654   0.581   0.633  16.618
   8023SM   C9F10655   0.412   0.725  16.516
   8023SM   H9F10656   0.348   0.815  16.528
   8023SM   H9G10657   0.345   0.636  16.521
   8023SM  C10F10658   0.478   0.727  16.377
   8023SM  H10F10659   0.541   0.637  16.365
   8023SM  H10G10660   0.543   0.816  16.368
   8023SM  C11F10661   0.373   0.731  16.264
   8023SM  H11F10662   0.310   0.821  16.280
   8023SM  H11G10663   0.306   0.642  16.272
   8023SM  C12F10664   0.432   0.738  16.123
   8023SM  H12F10665   0.506   0.821  16.119
   8023SM  H12G10666   0.350   0.762  16.052
   8023SM  C13F10667   0.500   0.608  16.078
   8023SM  H13F10668   0.427   0.524  16.085
   8023SM  H13G10669   0.584   0.586  16.147
   8023SM  C14F10670   0.555   0.613  15.934
   8023SM  H14F10671   0.615   0.521  15.916
   8023SM  H14G10672   0.624   0.700  15.924
   8023SM  C15F10673   0.446   0.621  15.826
   8023SM  H15F10674   0.392   0.718  15.835
   8023SM  H15G10675   0.373   0.539  15.843
   8023SM  C16F10676   0.503   0.610  15.683
   8023SM  H16F10677   0.549   0.510  15.669
   8023SM  H16G10678   0.583   0.686  15.671
   8023SM  C17F10679   0.398   0.633  15.573
   8023SM  H17F10680   0.449   0.641  15.475
   8023SM  H17G10681   0.348   0.731  15.592
   8023SM  C18F10682   0.291   0.523  15.563
   8023SM  H18F10683   0.248   0.502  15.663
   8023SM  H18G10684   0.340   0.429  15.527
   8023SM  C19F10685   0.176   0.560  15.467
   8023SM  H19F10686   0.218   0.595  15.370
   8023SM  H19G10687   0.122   0.646  15.512
   8023SM  C20F10688   0.076   0.446  15.443
   8023SM  H20F10689   9.200   0.489  15.400
   8023SM  H20G10690   0.050   0.400  15.541
   8023SM  C21F10691   0.127   0.336  15.347
   8023SM  H21F10692   0.054   0.253  15.349
   8023SM  H21G10693   0.224   0.296  15.383
   8023SM  C22F10694   0.141   0.384  15.202
   8023SM  H22F10695   0.219   0.464  15.196
   8023SM  H22G10696   0.045   0.429  15.169
   8023SM  C23F10697   0.179   0.272  15.104
   8023SM  H23F10698   0.277   0.227  15.132
   8023SM  H23G10699   0.187   0.311  15.001
   8023SM  H23H10700   0.102   0.191  15.106
   8123SM     N10701   4.148   4.530  12.179
   8123SM   C1510702   4.100   4.391  12.150
   8123SM  H15A10703   4.181   4.327  12.119
   8123SM  H15B10704   4.027   4.393  12.070
   8123SM  H15C10705   4.055   4.348  12.238
   8123SM   C1410706   4.198   4.591  12.051
   8123SM  H14A10707   4.226   4.694  12.065
   8123SM  H14B10708   4.121   4.585  11.975
   8123SM  H14C10709   4.285   4.538  12.016
   8123SM   C1310710   4.033   4.612  12.229
   8123SM  H13A10711   3.949   4.609  12.162
   8123SM  H13B10712   4.062   4.715  12.243
   8123SM  H13C10713   4.004   4.576  12.327
   8123SM   C1210714   4.260   4.527  12.283
   8123SM  H12A10715   4.289   4.628  12.306
   8123SM  H12B10716   4.347   4.480  12.239
   8123SM   C1110717   4.228   4.460  12.419
   8123SM  H11A10718   4.321   4.451  12.478
   8123SM  H11B10719   4.192   4.356  12.403
   8123SM     P10720   4.169   4.664  12.568
   8123SM   O1310721   4.276   4.733  12.493
   8123SM   O1410722   4.046   4.742  12.597
   8123SM   O1110723   4.224   4.602  12.704
   8123SM   O1210724   4.127   4.533  12.489
   8123SM   C1S10725   4.127   4.530  12.783
   8123SM   H1S10726   4.094   4.438  12.730
   8123SM   H1T10727   4.038   4.592  12.804
   8123SM    NF10728   4.071   4.430  13.002
   8123SM   HNF10729   4.044   4.479  13.084
   8123SM   C2S10730   4.181   4.486  12.923
   8123SM   H2S10731   4.258   4.407  12.909
   8123SM   C3S10732   4.250   4.608  12.994
   8123SM   H3S10733   4.178   4.692  12.996
   8123SM    O310734   4.367   4.655  12.927
   8123SM   HO310735   4.353   4.629  12.836
   8123SM   C4S10736   4.283   4.572  13.137
   8123SM   H4S10737   4.218   4.626  13.209
   8123SM   C5S10738   4.379   4.490  13.185
   8123SM   H5S10739   4.446   4.440  13.115
   8123SM   C6S10740   4.404   4.462  13.332
   8123SM   H6S10741   4.514   4.459  13.350
   8123SM   H6T10742   4.365   4.361  13.358
   8123SM   C7S10743   4.344   4.564  13.431
   8123SM   H7S10744   4.234   4.570  13.418
   8123SM   H7T10745   4.387   4.664  13.407
   8123SM   C8S10746   4.372   4.533  13.579
   8123SM   H8S10747   4.480   4.509  13.592
   8123SM   H8T10748   4.314   4.443  13.608
   8123SM   C9S10749   4.336   4.652  13.669
   8123SM   H9S10750   4.235   4.689  13.641
   8123SM   H9T10751   4.408   4.734  13.647
   8123SM  C10S10752   4.339   4.622  13.819
   8123SM  H10S10753   4.334   4.720  13.873
   8123SM  H10T10754   4.435   4.574  13.848
   8123SM  C11S10755   4.220   4.537  13.866
   8123SM  H11S10756   4.236   4.431  13.837
   8123SM  H11T10757   4.129   4.572  13.812
   8123SM  C12S10758   4.190   4.547  14.016
   8123SM  H12S10759   4.094   4.495  14.037
   8123SM  H12T10760   4.177   4.654  14.043
   8123SM  C13S10761   4.299   4.486  14.106
   8123SM  H13S10762   4.395   4.540  14.089
   8123SM  H13T10763   4.314   4.380  14.077
   8123SM  C14S10764   4.261   4.493  14.254
   8123SM  H14S10765   4.167   4.437  14.271
   8123SM  H14T10766   4.242   4.599  14.282
   8123SM  C15S10767   4.370   4.436  14.346
   8123SM  H15S10768   4.463   4.497  14.336
   8123SM  H15T10769   4.394   4.333  14.312
   8123SM  C16S10770   4.329   4.430  14.494
   8123SM  H16S10771   4.409   4.378  14.551
   8123SM  H16T10772   4.237   4.370  14.504
   8123SM  C17S10773   4.306   4.568  14.559
   8123SM  H17S10774   4.222   4.618  14.507
   8123SM  H17T10775   4.397   4.630  14.543
   8123SM  C18S10776   4.276   4.560  14.709
   8123SM  H18S10777   4.360   4.512  14.763
   8123SM  H18T10778   4.184   4.499  14.726
   8123SM  H18U10779   4.259   4.661  14.751
   8123SM   C1F10780   4.010   4.316  12.970
   8123SM    OF10781   4.050   4.245  12.879
   8123SM   C2F10782   3.888   4.279  13.048
   8123SM   H2F10783   3.807   4.256  12.975
   8123SM   H2G10784   3.854   4.365  13.110
   8123SM   C3F10785   3.911   4.153  13.136
   8123SM   H3F10786   3.949   4.071  13.073
   8123SM   H3G10787   3.813   4.120  13.177
   8123SM   C4F10788   4.007   4.175  13.254
   8123SM   H4F10789   4.106   4.208  13.218
   8123SM   H4G10790   4.022   4.077  13.305
   8123SM   C5F10791   3.953   4.274  13.358
   8123SM   H5F10792   3.851   4.242  13.388
   8123SM   H5G10793   3.946   4.375  13.313
   8123SM   C6F10794   4.042   4.283  13.484
   8123SM   H6F10795   4.146   4.307  13.452
   8123SM   H6G10796   4.044   4.184  13.534
   8123SM   C7F10797   3.996   4.391  13.583
   8123SM   H7F10798   3.994   4.489  13.530
   8123SM   H7G10799   4.072   4.400  13.664
   8123SM   C8F10800   3.858   4.367  13.647
   8123SM   H8F10801   3.784   4.344  13.566
   8123SM   H8G10802   3.824   4.461  13.695
   8123SM   C9F10803   3.854   4.255  13.752
   8123SM   H9F10804   3.906   4.164  13.713
   8123SM   H9G10805   3.748   4.228  13.770
   8123SM  C10F10806   3.914   4.297  13.887
   8123SM  H10F10807   3.864   4.391  13.918
   8123SM  H10G10808   4.022   4.319  13.875
   8123SM  C11F10809   3.897   4.191  13.997
   8123SM  H11F10810   3.964   4.106  13.974
   8123SM  H11G10811   3.792   4.153  13.996
   8123SM  C12F10812   3.928   4.245  14.137
   8123SM  H12F10813   4.022   4.304  14.133
   8123SM  H12G10814   3.946   4.159  14.206
   8123SM  C13F10815   3.814   4.330  14.195
   8123SM  H13F10816   3.729   4.264  14.221
   8123SM  H13G10817   3.778   4.401  14.118
   8123SM  C14F10818   3.853   4.413  14.319
   8123SM  H14F10819   3.764   4.471  14.352
   8123SM  H14G10820   3.932   4.487  14.290
   8123SM  C15F10821   3.905   4.329  14.437
   8123SM  H15F10822   3.998   4.277  14.404
   8123SM  H15G10823   3.830   4.252  14.464
   8123SM  C16F10824   3.940   4.413  14.561
   8123SM  H16F10825   4.008   4.495  14.530
   8123SM  H16G10826   3.995   4.349  14.633
   8123SM  C17F10827   3.817   4.472  14.633
   8123SM  H17F10828   3.750   4.388  14.660
   8123SM  H17G10829   3.761   4.539  14.564
   8123SM  C18F10830   3.853   4.551  14.760
   8123SM  H18F10831   3.920   4.489  14.823
   8123SM  H18G10832   3.760   4.569  14.818
   8123SM  C19F10833   3.919   4.686  14.731
   8123SM  H19F10834   3.848   4.751  14.676
   8123SM  H19G10835   4.008   4.670  14.666
   8123SM  C20F10836   3.966   4.758  14.859
   8123SM  H20F10837   4.035   4.690  14.914
   8123SM  H20G10838   3.878   4.778  14.924
   8123SM  C21F10839   4.040   4.889  14.829
   8123SM  H21F10840   3.968   4.962  14.784
   8123SM  H21G10841   4.118   4.869  14.753
   8123SM  C22F10842   4.107   4.952  14.952
   8123SM  H22F10843   4.168   5.039  14.918
   8123SM  H22G10844   4.178   4.878  14.995
   8123SM  C23F10845   4.010   5.000  15.060
   8123SM  H23F10846   4.065   5.045  15.145
   8123SM  H23G10847   3.950   4.915  15.099
   8123SM  H23H10848   3.941   5.076  15.019
   8223SM     N10849   4.801   5.217  12.348
   8223SM   C1510850   4.691   5.284  12.270
   8223SM  H15A10851   4.707   5.277  12.164
   8223SM  H15B10852   4.688   5.388  12.297
   8223SM  H15C10853   4.595   5.242  12.295
   8223SM   C1410854   4.797   5.069  12.326
   8223SM  H14A10855   4.882   5.022  12.373
   8223SM  H14B10856   4.800   5.045  12.221
   8223SM  H14C10857   4.708   5.025  12.370
   8223SM   C1310858   4.933   5.269  12.299
   8223SM  H13A10859   4.947   5.252  12.194
   8223SM  H13B10860   5.015   5.222  12.352
   8223SM  H13C10861   4.939   5.376  12.317
   8223SM   C1210862   4.785   5.249  12.496
   8223SM  H12A10863   4.850   5.184  12.552
   8223SM  H12B10864   4.684   5.225  12.526
   8223SM   C1110865   4.812   5.395  12.541
   8223SM  H11A10866   4.920   5.417  12.527
   8223SM  H11B10867   4.790   5.402  12.649
   8223SM     P10868   4.763   5.639  12.462
   8223SM   O1310869   4.885   5.656  12.379
   8223SM   O1410870   4.641   5.708  12.416
   8223SM   O1110871   4.793   5.675  12.614
   8223SM   O1210872   4.729   5.486  12.469
   8223SM   C1S10873   4.679   5.677  12.703
   8223SM   H1S10874   4.601   5.604  12.674
   8223SM   H1T10875   4.633   5.778  12.702
   8223SM    NF10876   4.595   5.631  12.929
   8223SM   HNF10877   4.570   5.708  12.988
   8223SM   C2S10878   4.718   5.644  12.851
   8223SM   H2S10879   4.770   5.546  12.851
   8223SM   C3S10880   4.815   5.751  12.908
   8223SM   H3S10881   4.762   5.849  12.908
   8223SM    O310882   4.934   5.771  12.833
   8223SM   HO310883   4.914   5.732  12.747
   8223SM   C4S10884   4.846   5.716  13.052
   8223SM   H4S10885   4.784   5.773  13.124
   8223SM   C5S10886   4.938   5.631  13.100
   8223SM   H5S10887   5.004   5.576  13.031
   8223SM   C6S10888   4.960   5.604  13.247
   8223SM   H6S10889   4.943   5.497  13.270
   8223SM   H6T10890   4.888   5.662  13.310
   8223SM   C7S10891   5.103   5.640  13.293
   8223SM   H7S10892   5.124   5.747  13.269
   8223SM   H7T10893   5.175   5.578  13.236
   8223SM   C8S10894   5.127   5.618  13.443
   8223SM   H8S10895   5.235   5.635  13.463
   8223SM   H8T10896   5.105   5.512  13.469
   8223SM   C9S10897   5.046   5.712  13.533
   8223SM   H9S10898   4.938   5.684  13.530
   8223SM   H9T10899   5.055   5.815  13.493
   8223SM  C10S10900   5.093   5.714  13.680
   8223SM  H10S10901   5.040   5.797  13.732
   8223SM  H10T10902   5.202   5.738  13.683
   8223SM  C11S10903   5.068   5.584  13.757
   8223SM  H11S10904   5.123   5.501  13.709
   8223SM  H11T10905   4.959   5.560  13.753
   8223SM  C12S10906   5.110   5.596  13.904
   8223SM  H12S10907   5.057   5.682  13.950
   8223SM  H12T10908   5.219   5.617  13.909
   8223SM  C13S10909   5.081   5.470  13.988
   8223SM  H13S10910   5.134   5.383  13.944
   8223SM  H13T10911   4.972   5.449  13.984
   8223SM  C14S10912   5.124   5.487  14.134
   8223SM  H14S10913   5.072   5.576  14.177
   8223SM  H14T10914   5.233   5.508  14.138
   8223SM  C15S10915   5.093   5.365  14.222
   8223SM  H15S10916   5.145   5.276  14.180
   8223SM  H15T10917   4.984   5.345  14.219
   8223SM  C16S10918   5.137   5.385  14.368
   8223SM  H16S10919   5.085   5.474  14.409
   8223SM  H16T10920   5.246   5.405  14.370
   8223SM  C17S10921   5.106   5.263  14.457
   8223SM  H17S10922   5.157   5.174  14.414
   8223SM  H17T10923   4.997   5.244  14.454
   8223SM  C18S10924   5.150   5.283  14.602
   8223SM  H18S10925   5.260   5.300  14.607
   8223SM  H18T10926   5.126   5.193  14.663
   8223SM  H18U10927   5.099   5.370  14.647
   8223SM   C1F10928   4.513   5.527  12.915
   8223SM    OF10929   4.546   5.429  12.850
   8223SM   C2F10930   4.378   5.537  12.979
   8223SM   H2F10931   4.304   5.497  12.906
   8223SM   H2G10932   4.353   5.644  12.998
   8223SM   C3F10933   4.369   5.455  13.110
   8223SM   H3F10934   4.393   5.349  13.087
   8223SM   H3G10935   4.264   5.458  13.146
   8223SM   C4F10936   4.461   5.503  13.224
   8223SM   H4F10937   4.567   5.484  13.195
   8223SM   H4G10938   4.440   5.441  13.314
   8223SM   C5F10939   4.447   5.652  13.261
   8223SM   H5F10940   4.483   5.714  13.176
   8223SM   H5G10941   4.514   5.673  13.347
   8223SM   C6F10942   4.304   5.697  13.296
   8223SM   H6F10943   4.236   5.671  13.212
   8223SM   H6G10944   4.303   5.808  13.305
   8223SM   C7F10945   4.248   5.638  13.426
   8223SM   H7F10946   4.254   5.527  13.425
   8223SM   H7G10947   4.141   5.666  13.432
   8223SM   C8F10948   4.319   5.693  13.551
   8223SM   H8F10949   4.331   5.803  13.537
   8223SM   H8G10950   4.420   5.649  13.561
   8223SM   C9F10951   4.238   5.671  13.680
   8223SM   H9F10952   4.131   5.693  13.658
   8223SM   H9G10953   4.270   5.746  13.756
   8223SM  C10F10954   4.250   5.530  13.739
   8223SM  H10F10955   4.235   5.454  13.659
   8223SM  H10G10956   4.168   5.517  13.813
   8223SM  C11F10957   4.382   5.501  13.813
   8223SM  H11F10958   4.467   5.499  13.742
   8223SM  H11G10959   4.374   5.400  13.859
   8223SM  C12F10960   4.411   5.604  13.924
   8223SM  H12F10961   4.315   5.632  13.973
   8223SM  H12G10962   4.453   5.696  13.878
   8223SM  C13F10963   4.506   5.553  14.034
   8223SM  H13F10964   4.601   5.518  13.989
   8223SM  H13G10965   4.458   5.467  14.085
   8223SM  C14F10966   4.535   5.664  14.136
   8223SM  H14F10967   4.439   5.714  14.161
   8223SM  H14G10968   4.601   5.740  14.088
   8223SM  C15F10969   4.599   5.617  14.267
   8223SM  H15F10970   4.639   5.707  14.319
   8223SM  H15G10971   4.685   5.550  14.246
   8223SM  C16F10972   4.499   5.547  14.360
   8223SM  H16F10973   4.467   5.452  14.312
   8223SM  H16G10974   4.409   5.610  14.371
   8223SM  C17F10975   4.556   5.514  14.500
   8223SM  H17F10976   4.647   5.453  14.487
   8223SM  H17G10977   4.482   5.451  14.555
   8223SM  C18F10978   4.590   5.636  14.588
   8223SM  H18F10979   4.660   5.702  14.533
   8223SM  H18G10980   4.642   5.599  14.678
   8223SM  C19F10981   4.467   5.718  14.632
   8223SM  H19F10982   4.401   5.655  14.695
   8223SM  H19G10983   4.409   5.748  14.542
   8223SM  C20F10984   4.503   5.847  14.709
   8223SM  H20F10985   4.410   5.902  14.731
   8223SM  H20G10986   4.566   5.911  14.643
   8223SM  C21F10987   4.578   5.823  14.841
   8223SM  H21F10988   4.673   5.768  14.820
   8223SM  H21G10989   4.517   5.758  14.907
   8223SM  C22F10990   4.612   5.953  14.913
   8223SM  H22F10991   4.518   6.005  14.941
   8223SM  H22G10992   4.667   6.020  14.843
   8223SM  C23F10993   4.698   5.933  15.039
   8223SM  H23F10994   4.646   5.866  15.111
   8223SM  H23G10995   4.718   6.030  15.089
   8223SM  H23H10996   4.795   5.886  15.012
   8323SM     N10997   5.793   5.386  12.227
   8323SM   C1510998   5.908   5.481  12.238
   8323SM  H15A10999   5.880   5.580  12.205
   8323SM  H15B11000   5.992   5.447  12.180
   8323SM  H15C11001   5.941   5.489  12.341
   8323SM   C1411002   5.756   5.368  12.083
   8323SM  H14A11003   5.722   5.460  12.037
   8323SM  H14B11004   5.675   5.297  12.072
   8323SM  H14C11005   5.838   5.329  12.026
   8323SM   C1311006   5.837   5.253  12.280
   8323SM  H13A11007   5.931   5.222  12.237
   8323SM  H13B11008   5.763   5.177  12.258
   8323SM  H13C11009   5.846   5.259  12.388
   8323SM   C1211010   5.674   5.436  12.308
   8323SM  H12A11011   5.594   5.364  12.302
   8323SM  H12B11012   5.638   5.528  12.265
   8323SM   C1111013   5.697   5.459  12.460
   8323SM  H11A11014   5.611   5.514  12.501
   8323SM  H11B11015   5.786   5.524  12.476
   8323SM     P11016   5.594   5.249  12.575
   8323SM   O1311017   5.499   5.239  12.462
   8323SM   O1411018   5.641   5.122  12.634
   8323SM   O1111019   5.530   5.337  12.690
   8323SM   O1211020   5.719   5.335  12.529
   8323SM   C1S11021   5.608   5.416  12.781
   8323SM   H1S11022   5.545   5.501  12.816
   8323SM   H1T11023   5.697   5.462  12.733
   8323SM    NF11024   5.774   5.263  12.877
   8323SM   HNF11025   5.760   5.177  12.829
   8323SM   C2S11026   5.655   5.339  12.909
   8323SM   H2S11027   5.679   5.414  12.986
   8323SM   C3S11028   5.540   5.250  12.964
   8323SM   H3S11029   5.515   5.171  12.889
   8323SM    O311030   5.418   5.321  12.985
   8323SM   HO311031   5.422   5.395  12.923
   8323SM   C4S11032   5.581   5.185  13.094
   8323SM   H4S11033   5.589   5.255  13.178
   8323SM   C5S11034   5.605   5.054  13.112
   8323SM   H5S11035   5.594   4.986  13.025
   8323SM   C6S11036   5.645   4.986  13.240
   8323SM   H6S11037   5.746   4.939  13.226
   8323SM   H6T11038   5.574   4.902  13.259
   8323SM   C7S11039   5.651   5.070  13.369
   8323SM   H7S11040   5.554   5.121  13.385
   8323SM   H7T11041   5.730   5.148  13.360
   8323SM   C8S11042   5.680   4.981  13.491
   8323SM   H8S11043   5.777   4.929  13.475
   8323SM   H8T11044   5.601   4.903  13.497
   8323SM   C9S11045   5.685   5.055  13.626
   8323SM   H9S11046   5.591   5.113  13.639
   8323SM   H9T11047   5.769   5.127  13.625
   8323SM  C10S11048   5.700   4.956  13.743
   8323SM  H10S11049   5.781   4.884  13.719
   8323SM  H10T11050   5.605   4.899  13.752
   8323SM  C11S11051   5.733   5.022  13.877
   8323SM  H11S11052   5.663   5.107  13.896
   8323SM  H11T11053   5.836   5.063  13.873
   8323SM  C12S11054   5.723   4.923  13.994
   8323SM  H12S11055   5.785   4.833  13.971
   8323SM  H12T11056   5.617   4.888  14.003
   8323SM  C13S11057   5.768   4.981  14.129
   8323SM  H13S11058   5.709   5.073  14.150
   8323SM  H13T11059   5.875   5.009  14.122
   8323SM  C14S11060   5.747   4.880  14.244
   8323SM  H14S11061   5.803   4.787  14.222
   8323SM  H14T11062   5.639   4.854  14.247
   8323SM  C15S11063   5.788   4.934  14.382
   8323SM  H15S11064   5.750   4.863  14.459
   8323SM  H15T11065   5.739   5.032  14.400
   8323SM  C16S11066   5.940   4.948  14.400
   8323SM  H16S11067   5.978   5.025  14.330
   8323SM  H16T11068   5.988   4.851  14.374
   8323SM  C17S11069   5.979   4.986  14.543
   8323SM  H17S11070   5.939   4.909  14.613
   8323SM  H17T11071   5.930   5.083  14.569
   8323SM  C18S11072   6.130   4.999  14.564
   8323SM  H18S11073   6.172   5.076  14.495
   8323SM  H18T11074   6.180   4.902  14.543
   8323SM  H18U11075   6.153   5.029  14.668
   8323SM   C1F11076   5.893   5.323  12.870
   8323SM    OF11077   5.904   5.442  12.899
   8323SM   C2F11078   6.008   5.244  12.817
   8323SM   H2F11079   6.064   5.308  12.746
   8323SM   H2G11080   5.971   5.155  12.762
   8323SM   C3F11081   6.104   5.199  12.931
   8323SM   H3F11082   6.137   5.288  12.988
   8323SM   H3G11083   6.194   5.154  12.884
   8323SM   C4F11084   6.042   5.095  13.026
   8323SM   H4F11085   6.003   5.011  12.965
   8323SM   H4G11086   5.956   5.139  13.082
   8323SM   C5F11087   6.144   5.038  13.127
   8323SM   H5F11088   6.237   5.013  13.071
   8323SM   H5G11089   6.105   4.942  13.168
   8323SM   C6F11090   6.177   5.132  13.244
   8323SM   H6F11091   6.149   5.236  13.217
   8323SM   H6G11092   6.287   5.131  13.261
   8323SM   C7F11093   6.108   5.091  13.375
   8323SM   H7F11094   6.140   4.988  13.401
   8323SM   H7G11095   5.998   5.090  13.361
   8323SM   C8F11096   6.144   5.184  13.492
   8323SM   H8F11097   6.102   5.285  13.471
   8323SM   H8G11098   6.254   5.194  13.498
   8323SM   C9F11099   6.092   5.132  13.627
   8323SM   H9F11100   6.135   5.031  13.644
   8323SM   H9G11101   5.981   5.120  13.623
   8323SM  C10F11102   6.130   5.222  13.746
   8323SM  H10F11103   6.239   5.244  13.736
   8323SM  H10G11104   6.118   5.165  13.840
   8323SM  C11F11105   6.052   5.354  13.753
   8323SM  H11F11106   6.013   5.380  13.652
   8323SM  H11G11107   6.121   5.436  13.783
   8323SM  C12F11108   5.935   5.354  13.853
   8323SM  H12F11109   5.862   5.275  13.826
   8323SM  H12G11110   5.882   5.452  13.843
   8323SM  C13F11111   5.977   5.338  14.000
   8323SM  H13F11112   6.062   5.407  14.020
   8323SM  H13G11113   6.013   5.235  14.019
   8323SM  C14F11114   5.863   5.370  14.098
   8323SM  H14F11115   5.777   5.303  14.076
   8323SM  H14G11116   5.829   5.474  14.080
   8323SM  C15F11117   5.900   5.357  14.247
   8323SM  H15F11118   5.919   5.250  14.272
   8323SM  H15G11119   5.812   5.390  14.307
   8323SM  C16F11120   6.022   5.441  14.288
   8323SM  H16F11121   6.024   5.533  14.226
   8323SM  H16G11122   6.115   5.385  14.267
   8323SM  C17F11123   6.019   5.486  14.435
   8323SM  H17F11124   5.930   5.551  14.450
   8323SM  H17G11125   6.110   5.548  14.455
   8323SM  C18F11126   6.016   5.372  14.538
   8323SM  H18F11127   6.101   5.304  14.517
   8323SM  H18G11128   5.922   5.313  14.525
   8323SM  C19F11129   6.026   5.420  14.684
   8323SM  H19F11130   6.118   5.481  14.695
   8323SM  H19G11131   6.036   5.331  14.750
   8323SM  C20F11132   5.905   5.503  14.731
   8323SM  H20F11133   5.813   5.440  14.725
   8323SM  H20G11134   5.890   5.588  14.661
   8323SM  C21F11135   5.919   5.560  14.873
   8323SM  H21F11136   5.833   5.629  14.892
   8323SM  H21G11137   6.012   5.620  14.879
   8323SM  C22F11138   5.920   5.454  14.984
   8323SM  H22F11139   6.009   5.388  14.971
   8323SM  H22G11140   5.830   5.390  14.973
   8323SM  C23F11141   5.922   5.514  15.125
   8323SM  H23F11142   6.013   5.577  15.138
   8323SM  H23G11143   5.924   5.434  15.201
   8323SM  H23H11144   5.833   5.577  15.141
   8423SM     N11145   5.055   2.811  12.240
   8423SM   C1511146   4.987   2.701  12.164
   8423SM  H15A11147   4.921   2.741  12.089
   8423SM  H15B11148   4.928   2.642  12.233
   8423SM  H15C11149   5.058   2.635  12.117
   8423SM   C1411150   5.142   2.748  12.345
   8423SM  H14A11151   5.079   2.697  12.416
   8423SM  H14B11152   5.194   2.824  12.402
   8423SM  H14C11153   5.213   2.679  12.304
   8423SM   C1311154   5.141   2.891  12.147
   8423SM  H13A11155   5.215   2.828  12.099
   8423SM  H13B11156   5.193   2.969  12.200
   8423SM  H13C11157   5.081   2.938  12.070
   8423SM   C1211158   4.950   2.901  12.306
   8423SM  H12A11159   4.899   2.958  12.230
   8423SM  H12B11160   5.001   2.971  12.370
   8423SM   C1111161   4.842   2.833  12.395
   8423SM  H11A11162   4.783   2.761  12.334
   8423SM  H11B11163   4.771   2.910  12.429
   8423SM     P11164   4.952   2.844  12.630
   8423SM   O1311165   5.029   2.754  12.718
   8423SM   O1411166   5.023   2.965  12.582
   8423SM   O1111167   4.818   2.887  12.703
   8423SM   O1211168   4.901   2.763  12.505
   8423SM   C1S11169   4.814   3.004  12.785
   8423SM   H1S11170   4.712   3.048  12.778
   8423SM   H1T11171   4.883   3.084  12.750
   8423SM    NF11172   4.982   2.972  12.966
   8423SM   HNF11173   5.024   2.882  12.975
   8423SM   C2S11174   4.840   2.976  12.937
   8423SM   H2S11175   4.796   3.061  12.994
   8423SM   C3S11176   4.766   2.845  12.982
   8423SM   H3S11177   4.812   2.758  12.930
   8423SM    O311178   4.628   2.845  12.946
   8423SM   HO311179   4.630   2.879  12.856
   8423SM   C4S11180   4.779   2.828  13.131
   8423SM   H4S11181   4.722   2.902  13.190
   8423SM   C5S11182   4.851   2.733  13.194
   8423SM   H5S11183   4.907   2.660  13.133
   8423SM   C6S11184   4.866   2.716  13.343
   8423SM   H6S11185   4.973   2.700  13.366
   8423SM   H6T11186   4.813   2.624  13.376
   8423SM   C7S11187   4.818   2.834  13.431
   8423SM   H7S11188   4.708   2.842  13.427
   8423SM   H7T11189   4.862   2.928  13.390
   8423SM   C8S11190   4.863   2.824  13.578
   8423SM   H8S11191   4.842   2.921  13.628
   8423SM   H8T11192   4.973   2.808  13.581
   8423SM   C9S11193   4.796   2.712  13.660
   8423SM   H9S11194   4.814   2.614  13.612
   8423SM   H9T11195   4.686   2.730  13.661
   8423SM  C10S11196   4.848   2.710  13.804
   8423SM  H10S11197   4.839   2.812  13.847
   8423SM  H10T11198   4.956   2.684  13.803
   8423SM  C11S11199   4.774   2.611  13.896
   8423SM  H11S11200   4.782   2.508  13.854
   8423SM  H11T11201   4.666   2.639  13.899
   8423SM  C12S11202   4.830   2.613  14.039
   8423SM  H12S11203   4.831   2.718  14.076
   8423SM  H12T11204   4.935   2.578  14.037
   8423SM  C13S11205   4.749   2.527  14.137
   8423SM  H13S11206   4.747   2.422  14.102
   8423SM  H13T11207   4.645   2.564  14.140
   8423SM  C14S11208   4.808   2.531  14.279
   8423SM  H14S11209   4.817   2.637  14.311
   8423SM  H14T11210   4.910   2.488  14.278
   8423SM  C15S11211   4.721   2.455  14.381
   8423SM  H15S11212   4.705   2.352  14.343
   8423SM  H15T11213   4.622   2.505  14.389
   8423SM  C16S11214   4.784   2.446  14.521
   8423SM  H16S11215   4.884   2.399  14.513
   8423SM  H16T11216   4.721   2.379  14.583
   8423SM  C17S11217   4.797   2.581  14.593
   8423SM  H17S11218   4.697   2.629  14.597
   8423SM  H17T11219   4.865   2.647  14.535
   8423SM  C18S11220   4.852   2.568  14.736
   8423SM  H18S11221   4.953   2.522  14.735
   8423SM  H18T11222   4.785   2.504  14.797
   8423SM  H18U11223   4.859   2.668  14.784
   8423SM   C1F11224   5.060   3.080  12.961
   8423SM    OF11225   5.011   3.192  12.946
   8423SM   C2F11226   5.208   3.058  12.969
   8423SM   H2F11227   5.256   3.132  12.901
   8423SM   H2G11228   5.232   2.956  12.931
   8423SM   C3F11229   5.265   3.075  13.112
   8423SM   H3F11230   5.236   3.175  13.152
   8423SM   H3G11231   5.375   3.072  13.105
   8423SM   C4F11232   5.221   2.965  13.210
   8423SM   H4F11233   5.240   2.866  13.164
   8423SM   H4G11234   5.112   2.972  13.229
   8423SM   C5F11235   5.296   2.971  13.345
   8423SM   H5F11236   5.278   3.069  13.393
   8423SM   H5G11237   5.406   2.962  13.326
   8423SM   C6F11238   5.254   2.858  13.441
   8423SM   H6F11239   5.270   2.760  13.391
   8423SM   H6G11240   5.146   2.868  13.462
   8423SM   C7F11241   5.332   2.859  13.574
   8423SM   H7F11242   5.318   2.956  13.625
   8423SM   H7G11243   5.440   2.847  13.552
   8423SM   C8F11244   5.288   2.745  13.668
   8423SM   H8F11245   5.298   2.649  13.614
   8423SM   H8G11246   5.181   2.758  13.695
   8423SM   C9F11247   5.372   2.736  13.797
   8423SM   H9F11248   5.362   2.830  13.855
   8423SM   H9G11249   5.479   2.726  13.769
   8423SM  C10F11250   5.333   2.616  13.884
   8423SM  H10F11251   5.334   2.525  13.820
   8423SM  H10G11252   5.229   2.629  13.921
   8423SM  C11F11253   5.427   2.590  14.004
   8423SM  H11F11254   5.532   2.583  13.967
   8423SM  H11G11255   5.400   2.492  14.048
   8423SM  C12F11256   5.419   2.696  14.115
   8423SM  H12F11257   5.313   2.709  14.143
   8423SM  H12G11258   5.457   2.793  14.076
   8423SM  C13F11259   5.501   2.656  14.239
   8423SM  H13F11260   5.606   2.638  14.208
   8423SM  H13G11261   5.461   2.561  14.280
   8423SM  C14F11262   5.501   2.762  14.351
   8423SM  H14F11263   5.547   2.856  14.313
   8423SM  H14G11264   5.566   2.725  14.434
   8423SM  C15F11265   5.362   2.793  14.408
   8423SM  H15F11266   5.314   2.698  14.440
   8423SM  H15G11267   5.299   2.837  14.328
   8423SM  C16F11268   5.365   2.891  14.526
   8423SM  H16F11269   5.429   2.978  14.497
   8423SM  H16G11270   5.413   2.843  14.614
   8423SM  C17F11271   5.226   2.945  14.565
   8423SM  H17F11272   5.179   2.986  14.473
   8423SM  H17G11273   5.238   3.030  14.636
   8423SM  C18F11274   5.131   2.840  14.626
   8423SM  H18F11275   5.138   2.746  14.568
   8423SM  H18G11276   5.027   2.877  14.616
   8423SM  C19F11277   5.157   2.811  14.775
   8423SM  H19F11278   5.264   2.787  14.791
   8423SM  H19G11279   5.098   2.721  14.802
   8423SM  C20F11280   5.113   2.926  14.868
   8423SM  H20F11281   5.013   2.961  14.836
   8423SM  H20G11282   5.183   3.011  14.857
   8423SM  C21F11283   5.104   2.885  15.016
   8423SM  H21F11284   5.034   2.799  15.025
   8423SM  H21G11285   5.060   2.969  15.073
   8423SM  C22F11286   5.239   2.848  15.079
   8423SM  H22F11287   5.308   2.934  15.068
   8423SM  H22G11288   5.283   2.763  15.023
   8423SM  C23F11289   5.227   2.810  15.227
   8423SM  H23F11290   5.327   2.782  15.268
   8423SM  H23G11291   5.159   2.724  15.240
   8423SM  H23H11292   5.187   2.896  15.286
   8523SM     N11293   7.000   4.350  12.290
   8523SM   C1511294   6.879   4.432  12.258
   8523SM  H15A11295   6.897   4.534  12.288
   8523SM  H15B11296   6.791   4.395  12.308
   8523SM  H15C11297   6.859   4.431  12.152
   8523SM   C1411298   7.005   4.330  12.438
   8523SM  H14A11299   6.914   4.282  12.473
   8523SM  H14B11300   7.012   4.426  12.487
   8523SM  H14C11301   7.090   4.270  12.468
   8523SM   C1311302   6.985   4.218  12.219
   8523SM  H13A11303   6.993   4.232  12.113
   8523SM  H13B11304   6.889   4.174  12.240
   8523SM  H13C11305   7.063   4.149  12.247
   8523SM   C1211306   7.124   4.422  12.240
   8523SM  H12A11307   7.107   4.449  12.137
   8523SM  H12B11308   7.207   4.354  12.238
   8523SM   C1111309   7.167   4.551  12.316
   8523SM  H11A11310   7.254   4.594  12.262
   8523SM  H11B11311   7.200   4.525  12.419
   8523SM     P11312   7.081   4.793  12.366
   8523SM   O1311313   7.192   4.851  12.287
   8523SM   O1411314   6.949   4.859  12.359
   8523SM   O1111315   7.125   4.777  12.518
   8523SM   O1211316   7.059   4.644  12.321
   8523SM   C1S11317   7.021   4.752  12.614
   8523SM   H1S11318   6.977   4.652  12.597
   8523SM   H1T11319   6.940   4.828  12.607
   8523SM    NF11320   6.960   4.736  12.852
   8523SM   HNF11321   6.922   4.814  12.900
   8523SM   C2S11322   7.072   4.758  12.761
   8523SM   H2S11323   7.147   4.677  12.776
   8523SM   C3S11324   7.144   4.894  12.786
   8523SM   H3S11325   7.075   4.976  12.757
   8523SM    O311326   7.262   4.910  12.708
   8523SM   HO311327   7.238   4.869  12.625
   8523SM   C4S11328   7.181   4.910  12.931
   8523SM   H4S11329   7.242   4.829  12.972
   8523SM   C5S11330   7.145   5.015  13.009
   8523SM   H5S11331   7.087   5.096  12.963
   8523SM   C6S11332   7.179   5.036  13.154
   8523SM   H6S11333   7.086   5.063  13.209
   8523SM   H6T11334   7.248   5.123  13.163
   8523SM   C7S11335   7.244   4.918  13.230
   8523SM   H7S11336   7.335   4.885  13.175
   8523SM   H7T11337   7.173   4.833  13.234
   8523SM   C8S11338   7.288   4.954  13.374
   8523SM   H8S11339   7.361   5.037  13.369
   8523SM   H8T11340   7.339   4.866  13.418
   8523SM   C9S11341   7.172   4.995  13.467
   8523SM   H9S11342   7.098   4.913  13.471
   8523SM   H9T11343   7.122   5.085  13.427
   8523SM  C10S11344   7.220   5.025  13.610
   8523SM  H10S11345   7.296   5.107  13.607
   8523SM  H10T11346   7.271   4.935  13.651
   8523SM  C11S11347   7.106   5.066  13.704
   8523SM  H11S11348   7.031   4.985  13.706
   8523SM  H11T11349   7.056   5.157  13.665
   8523SM  C12S11350   7.154   5.093  13.848
   8523SM  H12S11351   7.225   5.178  13.849
   8523SM  H12T11352   7.209   5.003  13.884
   8523SM  C13S11353   7.037   5.121  13.944
   8523SM  H13S11354   6.964   5.038  13.935
   8523SM  H13T11355   6.985   5.214  13.914
   8523SM  C14S11356   7.081   5.130  14.091
   8523SM  H14S11357   7.141   5.223  14.107
   8523SM  H14T11358   7.147   5.044  14.114
   8523SM  C15S11359   6.962   5.127  14.187
   8523SM  H15S11360   6.902   5.036  14.166
   8523SM  H15T11361   6.896   5.214  14.169
   8523SM  C16S11362   7.004   5.122  14.335
   8523SM  H16S11363   7.049   5.220  14.364
   8523SM  H16T11364   7.083   5.044  14.347
   8523SM  C17S11365   6.887   5.088  14.428
   8523SM  H17S11366   6.844   4.990  14.396
   8523SM  H17T11367   6.808   5.165  14.415
   8523SM  C18S11368   6.926   5.079  14.576
   8523SM  H18S11369   6.967   5.176  14.610
   8523SM  H18T11370   7.002   5.001  14.591
   8523SM  H18U11371   6.837   5.055  14.638
   8523SM   C1F11372   6.901   4.616  12.860
   8523SM    OF11373   6.953   4.518  12.807
   8523SM   C2F11374   6.768   4.610  12.929
   8523SM   H2F11375   6.692   4.584  12.851
   8523SM   H2G11376   6.741   4.710  12.970
   8523SM   C3F11377   6.761   4.503  13.041
   8523SM   H3F11378   6.807   4.408  13.007
   8523SM   H3G11379   6.653   4.482  13.058
   8523SM   C4F11380   6.821   4.546  13.176
   8523SM   H4F11381   6.786   4.471  13.251
   8523SM   H4G11382   6.778   4.644  13.207
   8523SM   C5F11383   6.974   4.553  13.181
   8523SM   H5F11384   7.007   4.648  13.133
   8523SM   H5G11385   7.017   4.469  13.123
   8523SM   C6F11386   7.030   4.547  13.325
   8523SM   H6F11387   6.971   4.615  13.390
   8523SM   H6G11388   7.135   4.584  13.324
   8523SM   C7F11389   7.029   4.404  13.382
   8523SM   H7F11390   7.097   4.341  13.321
   8523SM   H7G11391   6.926   4.363  13.372
   8523SM   C8F11392   7.068   4.393  13.530
   8523SM   H8F11393   7.063   4.286  13.559
   8523SM   H8G11394   6.994   4.447  13.592
   8523SM   C9F11395   7.209   4.445  13.563
   8523SM   H9F11396   7.207   4.556  13.564
   8523SM   H9G11397   7.279   4.413  13.482
   8523SM  C10F11398   7.264   4.393  13.697
   8523SM  H10F11399   7.363   4.440  13.716
   8523SM  H10G11400   7.280   4.283  13.688
   8523SM  C11F11401   7.171   4.418  13.816
   8523SM  H11F11402   7.075   4.365  13.799
   8523SM  H11G11403   7.149   4.527  13.823
   8523SM  C12F11404   7.231   4.371  13.950
   8523SM  H12F11405   7.319   4.434  13.973
   8523SM  H12G11406   7.266   4.266  13.941
   8523SM  C13F11407   7.132   4.380  14.068
   8523SM  H13F11408   7.080   4.478  14.063
   8523SM  H13G11409   7.189   4.376  14.163
   8523SM  C14F11410   7.028   4.266  14.068
   8523SM  H14F11411   7.079   4.170  14.091
   8523SM  H14G11412   6.984   4.258  13.966
   8523SM  C15F11413   6.912   4.288  14.167
   8523SM  H15F11414   6.840   4.204  14.155
   8523SM  H15G11415   6.859   4.381  14.140
   8523SM  C16F11416   6.955   4.294  14.314
   8523SM  H16F11417   7.026   4.379  14.329
   8523SM  H16G11418   7.009   4.200  14.340
   8523SM  C17F11419   6.835   4.312  14.409
   8523SM  H17F11420   6.763   4.229  14.391
   8523SM  H17G11421   6.784   4.407  14.383
   8523SM  C18F11422   6.875   4.313  14.557
   8523SM  H18F11423   6.942   4.399  14.576
   8523SM  H18G11424   6.933   4.220  14.577
   8523SM  C19F11425   6.756   4.317  14.654
   8523SM  H19F11426   6.795   4.306  14.758
   8523SM  H19G11427   6.689   4.231  14.633
   8523SM  C20F11428   6.674   4.447  14.646
   8523SM  H20F11429   6.631   4.458  14.544
   8523SM  H20G11430   6.741   4.534  14.664
   8523SM  C21F11431   6.560   4.450  14.749
   8523SM  H21F11432   6.602   4.442  14.851
   8523SM  H21G11433   6.494   4.362  14.732
   8523SM  C22F11434   6.475   4.578  14.739
   8523SM  H22F11435   6.435   4.586  14.636
   8523SM  H22G11436   6.541   4.666  14.757
   8523SM  C23F11437   6.359   4.581  14.839
   8523SM  H23F11438   6.290   4.496  14.822
   8523SM  H23G11439   6.302   4.676  14.830
   8523SM  H23H11440   6.398   4.574  14.943
   8623SM     N11441   4.440   1.951  12.208
   8623SM   C1511442   4.295   1.989  12.206
   8623SM  H15A11443   4.235   1.914  12.256
   8623SM  H15B11444   4.258   2.004  12.105
   8623SM  H15C11445   4.282   2.080  12.262
   8623SM   C1411446   4.457   1.821  12.135
   8623SM  H14A11447   4.398   1.743  12.181
   8623SM  H14B11448   4.560   1.789  12.135
   8623SM  H14C11449   4.425   1.831  12.033
   8623SM   C1311450   4.518   2.058  12.139
   8623SM  H13A11451   4.505   2.151  12.191
   8623SM  H13B11452   4.482   2.071  12.037
   8623SM  H13C11453   4.623   2.035  12.137
   8623SM   C1211454   4.485   1.937  12.354
   8623SM  H12A11455   4.584   1.894  12.357
   8623SM  H12B11456   4.418   1.869  12.404
   8623SM   C1111457   4.487   2.065  12.441
   8623SM  H11A11458   4.554   2.141  12.395
   8623SM  H11B11459   4.534   2.040  12.539
   8623SM     P11460   4.253   2.050  12.555
   8623SM   O1311461   4.129   2.132  12.551
   8623SM   O1411462   4.243   1.908  12.515
   8623SM   O1111463   4.320   2.064  12.698
   8623SM   O1211464   4.357   2.122  12.459
   8623SM   C1S11465   4.387   2.186  12.733
   8623SM   H1S11466   4.315   2.271  12.731
   8623SM   H1T11467   4.468   2.211  12.663
   8623SM    NF11468   4.568   2.100  12.883
   8623SM   HNF11469   4.560   2.009  12.923
   8623SM   C2S11470   4.447   2.181  12.877
   8623SM   H2S11471   4.476   2.285  12.903
   8623SM   C3S11472   4.341   2.132  12.979
   8623SM   H3S11473   4.328   2.022  12.969
   8623SM    O311474   4.212   2.188  12.958
   8623SM   HO311475   4.201   2.185  12.863
   8623SM   C4S11476   4.386   2.164  13.119
   8623SM   H4S11477   4.369   2.269  13.148
   8623SM   C5S11478   4.439   2.079  13.209
   8623SM   H5S11479   4.453   1.973  13.183
   8623SM   C6S11480   4.482   2.119  13.348
   8623SM   H6S11481   4.441   2.218  13.377
   8623SM   H6T11482   4.592   2.126  13.353
   8623SM   C7S11483   4.438   2.015  13.454
   8623SM   H7S11484   4.478   1.916  13.424
   8623SM   H7T11485   4.327   2.007  13.456
   8623SM   C8S11486   4.489   2.046  13.595
   8623SM   H8S11487   4.598   2.066  13.592
   8623SM   H8T11488   4.473   1.956  13.658
   8623SM   C9S11489   4.417   2.164  13.663
   8623SM   H9S11490   4.308   2.143  13.665
   8623SM   H9T11491   4.433   2.257  13.604
   8623SM  C10S11492   4.466   2.187  13.807
   8623SM  H10S11493   4.573   2.218  13.806
   8623SM  H10T11494   4.461   2.090  13.861
   8623SM  C11S11495   4.383   2.291  13.883
   8623SM  H11S11496   4.275   2.267  13.871
   8623SM  H11T11497   4.401   2.392  13.840
   8623SM  C12S11498   4.416   2.291  14.033
   8623SM  H12S11499   4.524   2.308  14.048
   8623SM  H12T11500   4.391   2.191  14.075
   8623SM  C13S11501   4.338   2.398  14.112
   8623SM  H13S11502   4.230   2.391  14.087
   8623SM  H13T11503   4.373   2.499  14.080
   8623SM  C14S11504   4.356   2.383  14.263
   8623SM  H14S11505   4.464   2.376  14.287
   8623SM  H14T11506   4.309   2.288  14.296
   8623SM  C15S11507   4.295   2.500  14.342
   8623SM  H15S11508   4.189   2.513  14.312
   8623SM  H15T11509   4.349   2.593  14.316
   8623SM  C16S11510   4.302   2.478  14.494
   8623SM  H16S11511   4.407   2.458  14.524
   8623SM  H16T11512   4.242   2.388  14.520
   8623SM  C17S11513   4.250   2.598  14.574
   8623SM  H17S11514   4.147   2.624  14.539
   8623SM  H17T11515   4.314   2.686  14.551
   8623SM  C18S11516   4.247   2.575  14.725
   8623SM  H18S11517   4.348   2.549  14.762
   8623SM  H18T11518   4.178   2.491  14.750
   8623SM  H18U11519   4.211   2.666  14.778
   8623SM   C1F11520   4.682   2.133  12.822
   8623SM    OF11521   4.690   2.232  12.752
   8623SM   C2F11522   4.802   2.045  12.848
   8623SM   H2F11523   4.816   2.034  12.957
   8623SM   H2G11524   4.891   2.098  12.808
   8623SM   C3F11525   4.795   1.905  12.781
   8623SM   H3F11526   4.894   1.857  12.795
   8623SM   H3G11527   4.781   1.918  12.671
   8623SM   C4F11528   4.687   1.809  12.834
   8623SM   H4F11529   4.701   1.711  12.784
   8623SM   H4G11530   4.587   1.846  12.803
   8623SM   C5F11531   4.690   1.787  12.986
   8623SM   H5F11532   4.667   1.881  13.039
   8623SM   H5G11533   4.793   1.756  13.015
   8623SM   C6F11534   4.593   1.678  13.035
   8623SM   H6F11535   4.602   1.668  13.145
   8623SM   H6G11536   4.623   1.580  12.991
   8623SM   C7F11537   4.446   1.704  12.998
   8623SM   H7F11538   4.439   1.704  12.887
   8623SM   H7G11539   4.415   1.805  13.033
   8623SM   C8F11540   4.349   1.598  13.051
   8623SM   H8F11541   4.403   1.503  13.070
   8623SM   H8G11542   4.275   1.577  12.970
   8623SM   C9F11543   4.270   1.641  13.176
   8623SM   H9F11544   4.186   1.569  13.190
   8623SM   H9G11545   4.226   1.741  13.158
   8623SM  C10F11546   4.352   1.643  13.306
   8623SM  H10F11547   4.436   1.714  13.296
   8623SM  H10G11548   4.396   1.542  13.322
   8623SM  C11F11549   4.266   1.681  13.427
   8623SM  H11F11550   4.177   1.614  13.432
   8623SM  H11G11551   4.230   1.785  13.415
   8623SM  C12F11552   4.342   1.669  13.560
   8623SM  H12F11553   4.436   1.728  13.554
   8623SM  H12G11554   4.372   1.563  13.575
   8623SM  C13F11555   4.260   1.716  13.681
   8623SM  H13F11556   4.166   1.657  13.686
   8623SM  H13G11557   4.233   1.823  13.667
   8623SM  C14F11558   4.337   1.700  13.813
   8623SM  H14F11559   4.430   1.761  13.808
   8623SM  H14G11560   4.368   1.594  13.822
   8623SM  C15F11561   4.258   1.739  13.939
   8623SM  H15F11562   4.323   1.715  14.026
   8623SM  H15G11563   4.167   1.676  13.946
   8623SM  C16F11564   4.219   1.887  13.945
   8623SM  H16F11565   4.142   1.907  13.867
   8623SM  H16G11566   4.308   1.949  13.921
   8623SM  C17F11567   4.164   1.932  14.082
   8623SM  H17F11568   4.076   1.869  14.109
   8623SM  H17G11569   4.130   2.037  14.073
   8623SM  C18F11570   4.269   1.925  14.194
   8623SM  H18F11571   4.361   1.979  14.160
   8623SM  H18G11572   4.298   1.819  14.213
   8623SM  C19F11573   4.222   1.987  14.326
   8623SM  H19F11574   4.134   1.930  14.363
   8623SM  H19G11575   4.189   2.091  14.308
   8623SM  C20F11576   4.333   1.986  14.433
   8623SM  H20F11577   4.421   2.039  14.391
   8623SM  H20G11578   4.363   1.881  14.453
   8623SM  C21F11579   4.294   2.054  14.565
   8623SM  H21F11580   4.262   2.159  14.544
   8623SM  H21G11581   4.383   2.059  14.630
   8623SM  C22F11582   4.182   1.982  14.641
   8623SM  H22F11583   4.211   1.876  14.655
   8623SM  H22G11584   4.089   1.983  14.580
   8623SM  C23F11585   4.153   2.044  14.778
   8623SM  H23F11586   4.243   2.041  14.842
   8623SM  H23G11587   4.071   1.989  14.830
   8623SM  H23H11588   4.121   2.150  14.767
   8723SM     N11589   5.479   2.005  12.181
   8723SM   C1511590   5.540   2.138  12.153
   8723SM  H15A11591   5.648   2.130  12.146
   8723SM  H15B11592   5.514   2.209  12.230
   8723SM  H15C11593   5.505   2.178  12.059
   8723SM   C1411594   5.330   2.018  12.180
   8723SM  H14A11595   5.284   1.926  12.211
   8723SM  H14B11596   5.292   2.050  12.084
   8723SM  H14C11597   5.301   2.091  12.254
   8723SM   C1311598   5.522   1.910  12.073
   8723SM  H13A11599   5.630   1.908  12.067
   8723SM  H13B11600   5.486   1.943  11.977
   8723SM  H13C11601   5.486   1.810  12.092
   8723SM   C1211602   5.524   1.952  12.317
   8723SM  H12A11603   5.629   1.927  12.312
   8723SM  H12B11604   5.470   1.861  12.337
   8723SM   C1111605   5.502   2.041  12.442
   8723SM  H11A11606   5.557   2.137  12.429
   8723SM  H11B11607   5.548   1.991  12.530
   8723SM     P11608   5.271   1.951  12.521
   8723SM   O1311609   5.134   2.005  12.537
   8723SM   O1411610   5.288   1.834  12.431
   8723SM   O1111611   5.337   1.925  12.662
   8723SM   O1211612   5.363   2.068  12.465
   8723SM   C1S11613   5.322   2.024  12.764
   8723SM   H1S11614   5.215   2.040  12.788
   8723SM   H1T11615   5.363   2.121  12.728
   8723SM    NF11616   5.296   1.945  12.996
   8723SM   HNF11617   5.264   2.013  13.061
   8723SM   C2S11618   5.395   1.986  12.897
   8723SM   H2S11619   5.464   1.901  12.877
   8723SM   C3S11620   5.481   2.107  12.943
   8723SM   H3S11621   5.416   2.197  12.946
   8723SM    O311622   5.589   2.137  12.855
   8723SM   HO311623   5.580   2.076  12.781
   8723SM   C4S11624   5.538   2.082  13.080
   8723SM   H4S11625   5.606   1.996  13.086
   8723SM   C5S11626   5.514   2.156  13.190
   8723SM   H5S11627   5.449   2.245  13.182
   8723SM   C6S11628   5.572   2.130  13.327
   8723SM   H6S11629   5.536   2.207  13.398
   8723SM   H6T11630   5.683   2.139  13.324
   8723SM   C7S11631   5.536   1.991  13.382
   8723SM   H7S11632   5.580   1.913  13.317
   8723SM   H7T11633   5.425   1.976  13.382
   8723SM   C8S11634   5.588   1.968  13.525
   8723SM   H8S11635   5.691   2.007  13.533
   8723SM   H8T11636   5.592   1.859  13.544
   8723SM   C9S11637   5.499   2.031  13.634
   8723SM   H9S11638   5.400   1.982  13.632
   8723SM   H9T11639   5.484   2.139  13.614
   8723SM  C10S11640   5.560   2.015  13.775
   8723SM  H10S11641   5.648   2.081  13.784
   8723SM  H10T11642   5.594   1.910  13.788
   8723SM  C11S11643   5.460   2.047  13.887
   8723SM  H11S11644   5.375   1.977  13.879
   8723SM  H11T11645   5.420   2.150  13.873
   8723SM  C12S11646   5.521   2.035  14.028
   8723SM  H12S11647   5.576   1.939  14.036
   8723SM  H12T11648   5.438   2.033  14.102
   8723SM  C13S11649   5.614   2.151  14.064
   8723SM  H13S11650   5.558   2.247  14.054
   8723SM  H13T11651   5.699   2.155  13.993
   8723SM  C14S11652   5.670   2.141  14.207
   8723SM  H14S11653   5.728   2.046  14.216
   8723SM  H14T11654   5.586   2.136  14.279
   8723SM  C15S11655   5.761   2.259  14.242
   8723SM  H15S11656   5.702   2.353  14.236
   8723SM  H15T11657   5.843   2.266  14.168
   8723SM  C16S11658   5.823   2.248  14.382
   8723SM  H16S11659   5.883   2.155  14.388
   8723SM  H16T11660   5.743   2.241  14.458
   8723SM  C17S11661   5.914   2.368  14.415
   8723SM  H17S11662   5.852   2.460  14.413
   8723SM  H17T11663   5.991   2.377  14.336
   8723SM  C18S11664   5.983   2.356  14.551
   8723SM  H18S11665   5.908   2.345  14.633
   8723SM  H18T11666   6.044   2.446  14.572
   8723SM  H18U11667   6.050   2.267  14.553
   8723SM   C1F11668   5.238   1.825  12.990
   8723SM    OF11669   5.294   1.732  12.934
   8723SM   C2F11670   5.103   1.810  13.052
   8723SM   H2F11671   5.030   1.792  12.970
   8723SM   H2G11672   5.074   1.904  13.104
   8723SM   C3F11673   5.096   1.690  13.151
   8723SM   H3F11674   5.122   1.597  13.096
   8723SM   H3G11675   4.991   1.679  13.185
   8723SM   C4F11676   5.189   1.702  13.274
   8723SM   H4F11677   5.294   1.696  13.240
   8723SM   H4G11678   5.170   1.614  13.339
   8723SM   C5F11679   5.171   1.830  13.357
   8723SM   H5F11680   5.202   1.918  13.296
   8723SM   H5G11681   5.241   1.825  13.444
   8723SM   C6F11682   5.029   1.853  13.409
   8723SM   H6F11683   4.998   1.769  13.475
   8723SM   H6G11684   4.959   1.854  13.323
   8723SM   C7F11685   5.012   1.987  13.483
   8723SM   H7F11686   4.904   2.012  13.492
   8723SM   H7G11687   5.060   2.067  13.421
   8723SM   C8F11688   5.074   1.991  13.624
   8723SM   H8F11689   5.088   2.097  13.652
   8723SM   H8G11690   5.174   1.943  13.623
   8723SM   C9F11691   4.986   1.923  13.731
   8723SM   H9F11692   4.967   1.818  13.701
   8723SM   H9G11693   4.887   1.975  13.733
   8723SM  C10F11694   5.046   1.925  13.872
   8723SM  H10F11695   5.139   1.865  13.872
   8723SM  H10G11696   4.974   1.875  13.941
   8723SM  C11F11697   5.077   2.065  13.926
   8723SM  H11F11698   4.987   2.129  13.917
   8723SM  H11G11699   5.157   2.111  13.863
   8723SM  C12F11700   5.124   2.064  14.072
   8723SM  H12F11701   5.205   1.989  14.082
   8723SM  H12G11702   5.040   2.033  14.138
   8723SM  C13F11703   5.179   2.201  14.118
   8723SM  H13F11704   5.099   2.278  14.112
   8723SM  H13G11705   5.259   2.230  14.047
   8723SM  C14F11706   5.238   2.198  14.259
   8723SM  H14F11707   5.305   2.286  14.272
   8723SM  H14G11708   5.301   2.107  14.271
   8723SM  C15F11709   5.133   2.203  14.371
   8723SM  H15F11710   5.057   2.123  14.355
   8723SM  H15G11711   5.080   2.300  14.366
   8723SM  C16F11712   5.195   2.185  14.510
   8723SM  H16F11713   5.281   2.254  14.521
   8723SM  H16G11714   5.234   2.081  14.519
   8723SM  C17F11715   5.095   2.212  14.624
   8723SM  H17F11716   5.003   2.151  14.609
   8723SM  H17G11717   5.066   2.319  14.619
   8723SM  C18F11718   5.153   2.184  14.764
   8723SM  H18F11719   5.090   2.236  14.839
   8723SM  H18G11720   5.255   2.226  14.770
   8723SM  C19F11721   5.156   2.035  14.800
   8723SM  H19F11722   5.215   1.979  14.725
   8723SM  H19G11723   5.052   1.996  14.797
   8723SM  C20F11724   5.215   2.009  14.939
   8723SM  H20F11725   5.165   2.076  15.013
   8723SM  H20G11726   5.323   2.036  14.938
   8723SM  C21F11727   5.197   1.864  14.986
   8723SM  H21F11728   5.249   1.796  14.915
   8723SM  H21G11729   5.088   1.840  14.983
   8723SM  C22F11730   5.248   1.838  15.128
   8723SM  H22F11731   5.217   1.735  15.158
   8723SM  H22G11732   5.198   1.909  15.198
   8723SM  C23F11733   5.400   1.850  15.144
   8723SM  H23F11734   5.452   1.779  15.075
   8723SM  H23G11735   5.431   1.826  15.248
   8723SM  H23H11736   5.434   1.953  15.121
   8823SM     N11737   2.160   2.812  12.233
   8823SM   C1511738   2.191   2.740  12.105
   8823SM  H15A11739   2.105   2.738  12.039
   8823SM  H15B11740   2.224   2.639  12.124
   8823SM  H15C11741   2.270   2.792  12.052
   8823SM   C1411742   2.284   2.811  12.318
   8823SM  H14A11743   2.310   2.711  12.349
   8823SM  H14B11744   2.267   2.869  12.407
   8823SM  H14C11745   2.368   2.853  12.265
   8823SM   C1311746   2.129   2.954  12.201
   8823SM  H13A11747   2.120   3.011  12.292
   8823SM  H13B11748   2.035   2.963  12.149
   8823SM  H13C11749   2.208   2.998  12.141
   8823SM   C1211750   2.047   2.743  12.308
   8823SM  H12A11751   2.081   2.645  12.337
   8823SM  H12B11752   1.962   2.733  12.244
   8823SM   C1111753   1.996   2.810  12.438
   8823SM  H11A11754   2.083   2.835  12.503
   8823SM  H11B11755   1.935   2.735  12.493
   8823SM     P11756   1.935   3.065  12.473
   8823SM   O1311757   2.081   3.088  12.486
   8823SM   O1411758   1.858   3.163  12.393
   8823SM   O1111759   1.869   3.058  12.616
   8823SM   O1211760   1.912   2.923  12.409
   8823SM   C1S11761   1.882   2.943  12.701
   8823SM   H1S11762   1.983   2.899  12.693
   8823SM   H1T11763   1.807   2.866  12.673
   8823SM    NF11764   1.879   2.864  12.937
   8823SM   HNF11765   1.799   2.827  12.983
   8823SM   C2S11766   1.860   2.981  12.851
   8823SM   H2S11767   1.936   3.057  12.879
   8823SM   C3S11768   1.718   3.045  12.869
   8823SM   H3S11769   1.642   2.969  12.840
   8823SM    O311770   1.696   3.158  12.785
   8823SM   HO311771   1.765   3.146  12.719
   8823SM   C4S11772   1.697   3.086  13.012
   8823SM   H4S11773   1.761   3.169  13.045
   8823SM   C5S11774   1.610   3.030  13.098
   8823SM   H5S11775   1.545   2.947  13.065
   8823SM   C6S11776   1.592   3.074  13.241
   8823SM   H6S11777   1.486   3.064  13.271
   8823SM   H6T11778   1.620   3.180  13.255
   8823SM   C7S11779   1.680   2.989  13.336
   8823SM   H7S11780   1.786   3.004  13.309
   8823SM   H7T11781   1.657   2.881  13.323
   8823SM   C8S11782   1.662   3.024  13.485
   8823SM   H8S11783   1.669   3.135  13.498
   8823SM   H8T11784   1.747   2.979  13.541
   8823SM   C9S11785   1.531   2.972  13.545
   8823SM   H9S11786   1.526   2.862  13.532
   8823SM   H9T11787   1.445   3.016  13.488
   8823SM  C10S11788   1.512   3.005  13.694
   8823SM  H10S11789   1.411   2.969  13.724
   8823SM  H10T11790   1.513   3.115  13.708
   8823SM  C11S11791   1.615   2.941  13.787
   8823SM  H11S11792   1.717   2.980  13.764
   8823SM  H11T11793   1.616   2.831  13.769
   8823SM  C12S11794   1.585   2.966  13.935
   8823SM  H12S11795   1.482   2.930  13.958
   8823SM  H12T11796   1.586   3.076  13.955
   8823SM  C13S11797   1.684   2.897  14.029
   8823SM  H13S11798   1.787   2.933  14.007
   8823SM  H13T11799   1.682   2.788  14.010
   8823SM  C14S11800   1.654   2.923  14.178
   8823SM  H14S11801   1.551   2.888  14.200
   8823SM  H14T11802   1.658   3.032  14.198
   8823SM  C15S11803   1.752   2.850  14.271
   8823SM  H15S11804   1.856   2.884  14.249
   8823SM  H15T11805   1.747   2.741  14.251
   8823SM  C16S11806   1.722   2.875  14.420
   8823SM  H16S11807   1.618   2.842  14.442
   8823SM  H16T11808   1.728   2.984  14.440
   8823SM  C17S11809   1.819   2.801  14.513
   8823SM  H17S11810   1.923   2.833  14.490
   8823SM  H17T11811   1.813   2.692  14.492
   8823SM  C18S11812   1.791   2.826  14.662
   8823SM  H18S11813   1.689   2.791  14.688
   8823SM  H18T11814   1.799   2.934  14.685
   8823SM  H18U11815   1.864   2.771  14.725
   8823SM   C1F11816   1.999   2.806  12.954
   8823SM    OF11817   2.098   2.848  12.896
   8823SM   C2F11818   2.005   2.687  13.045
   8823SM   H2F11819   2.029   2.598  12.983
   8823SM   H2G11820   1.907   2.671  13.094
   8823SM   C3F11821   2.115   2.703  13.153
   8823SM   H3F11822   2.089   2.787  13.221
   8823SM   H3G11823   2.212   2.728  13.104
   8823SM   C4F11824   2.134   2.575  13.236
   8823SM   H4F11825   2.161   2.493  13.166
   8823SM   H4G11826   2.039   2.547  13.286
   8823SM   C5F11827   2.246   2.587  13.341
   8823SM   H5F11828   2.333   2.641  13.298
   8823SM   H5G11829   2.280   2.484  13.367
   8823SM   C6F11830   2.202   2.655  13.472
   8823SM   H6F11831   2.114   2.600  13.511
   8823SM   H6G11832   2.171   2.759  13.452
   8823SM   C7F11833   2.315   2.654  13.577
   8823SM   H7F11834   2.395   2.723  13.544
   8823SM   H7G11835   2.359   2.552  13.580
   8823SM   C8F11836   2.271   2.690  13.720
   8823SM   H8F11837   2.235   2.795  13.724
   8823SM   H8G11838   2.361   2.683  13.785
   8823SM   C9F11839   2.162   2.596  13.775
   8823SM   H9F11840   2.179   2.495  13.734
   8823SM   H9G11841   2.063   2.631  13.740
   8823SM  C10F11842   2.163   2.584  13.929
   8823SM  H10F11843   2.155   2.685  13.976
   8823SM  H10G11844   2.260   2.540  13.959
   8823SM  C11F11845   2.049   2.494  13.980
   8823SM  H11F11846   2.026   2.420  13.900
   8823SM  H11G11847   1.958   2.554  13.997
   8823SM  C12F11848   2.085   2.414  14.106
   8823SM  H12F11849   2.178   2.356  14.086
   8823SM  H12G11850   2.004   2.341  14.126
   8823SM  C13F11851   2.107   2.499  14.233
   8823SM  H13F11852   2.012   2.551  14.259
   8823SM  H13G11853   2.184   2.576  14.213
   8823SM  C14F11854   2.152   2.411  14.350
   8823SM  H14F11855   2.248   2.363  14.323
   8823SM  H14G11856   2.077   2.330  14.366
   8823SM  C15F11857   2.171   2.487  14.483
   8823SM  H15F11858   2.072   2.522  14.519
   8823SM  H15G11859   2.234   2.576  14.465
   8823SM  C16F11860   2.237   2.397  14.589
   8823SM  H16F11861   2.338   2.370  14.551
   8823SM  H16G11862   2.179   2.303  14.599
   8823SM  C17F11863   2.253   2.463  14.727
   8823SM  H17F11864   2.298   2.564  14.716
   8823SM  H17G11865   2.323   2.401  14.786
   8823SM  C18F11866   2.120   2.472  14.804
   8823SM  H18F11867   2.069   2.374  14.797
   8823SM  H18G11868   2.054   2.548  14.758
   8823SM  C19F11869   2.139   2.505  14.954
   8823SM  H19F11870   2.210   2.431  14.998
   8823SM  H19G11871   2.041   2.491  15.005
   8823SM  C20F11872   2.189   2.647  14.981
   8823SM  H20F11873   2.120   2.720  14.934
   8823SM  H20G11874   2.289   2.661  14.935
   8823SM  C21F11875   2.199   2.677  15.132
   8823SM  H21F11876   2.269   2.605  15.179
   8823SM  H21G11877   2.099   2.661  15.178
   8823SM  C22F11878   2.247   2.820  15.162
   8823SM  H22F11879   2.176   2.891  15.114
   8823SM  H22G11880   2.346   2.835  15.114
   8823SM  C23F11881   2.257   2.851  15.311
   8823SM  H23F11882   2.291   2.956  15.327
   8823SM  H23G11883   2.329   2.783  15.360
   8823SM  H23H11884   2.158   2.839  15.360
   8923SM     N11885   7.320   3.128  12.135
   8923SM   C1511886   7.241   3.160  12.011
   8923SM  H15A11887   7.142   3.117  12.021
   8923SM  H15B11888   7.287   3.116  11.924
   8923SM  H15C11889   7.231   3.266  11.996
   8923SM   C1411890   7.323   2.979  12.148
   8923SM  H14A11891   7.222   2.941  12.147
   8923SM  H14B11892   7.364   2.952  12.244
   8923SM  H14C11893   7.379   2.932  12.069
   8923SM   C1311894   7.459   3.180  12.120
   8923SM  H13A11895   7.517   3.157  12.209
   8923SM  H13B11896   7.461   3.287  12.105
   8923SM  H13C11897   7.508   3.135  12.036
   8923SM   C1211898   7.250   3.187  12.257
   8923SM  H12A11899   7.150   3.147  12.261
   8923SM  H12B11900   7.241   3.294  12.246
   8923SM   C1111901   7.311   3.156  12.396
   8923SM  H11A11902   7.266   3.222  12.473
   8923SM  H11B11903   7.420   3.178  12.396
   8923SM     P11904   7.151   2.970  12.486
   8923SM   O1311905   7.042   3.029  12.404
   8923SM   O1411906   7.153   2.823  12.500
   8923SM   O1111907   7.148   3.038  12.629
   8923SM   O1211908   7.291   3.018  12.430
   8923SM   C1S11909   7.252   3.006  12.723
   8923SM   H1S11910   7.348   3.052  12.689
   8923SM   H1T11911   7.267   2.897  12.731
   8923SM    NF11912   7.331   3.028  12.956
   8923SM   HNF11913   7.319   2.952  13.019
   8923SM   C2S11914   7.220   3.059  12.866
   8923SM   H2S11915   7.209   3.170  12.860
   8923SM   C3S11916   7.084   3.000  12.914
   8923SM   H3S11917   7.090   2.890  12.909
   8923SM    O311918   6.975   3.040  12.831
   8923SM   HO311919   7.018   3.057  12.747
   8923SM   C4S11920   7.054   3.043  13.055
   8923SM   H4S11921   7.045   3.152  13.069
   8923SM   C5S11922   7.035   2.961  13.160
   8923SM   H5S11923   7.038   2.852  13.146
   8923SM   C6S11924   7.003   3.006  13.301
   8923SM   H6S11925   7.025   3.114  13.315
   8923SM   H6T11926   7.067   2.951  13.374
   8923SM   C7S11927   6.855   2.982  13.334
   8923SM   H7S11928   6.830   2.874  13.321
   8923SM   H7T11929   6.792   3.039  13.263
   8923SM   C8S11930   6.814   3.023  13.477
   8923SM   H8S11931   6.704   3.016  13.484
   8923SM   H8T11932   6.843   3.129  13.494
   8923SM   C9S11933   6.875   2.934  13.587
   8923SM   H9S11934   6.983   2.955  13.597
   8923SM   H9T11935   6.864   2.828  13.556
   8923SM  C10S11936   6.806   2.950  13.724
   8923SM  H10S11937   6.849   2.876  13.794
   8923SM  H10T11938   6.698   2.926  13.713
   8923SM  C11S11939   6.820   3.091  13.784
   8923SM  H11S11940   6.778   3.165  13.713
   8923SM  H11T11941   6.927   3.114  13.798
   8923SM  C12S11942   6.746   3.108  13.918
   8923SM  H12S11943   6.638   3.088  13.905
   8923SM  H12T11944   6.756   3.214  13.950
   8923SM  C13S11945   6.801   3.018  14.031
   8923SM  H13S11946   6.912   3.020  14.028
   8923SM  H13T11947   6.769   2.913  14.013
   8923SM  C14S11948   6.754   3.063  14.170
   8923SM  H14S11949   6.643   3.060  14.175
   8923SM  H14T11950   6.786   3.169  14.185
   8923SM  C15S11951   6.813   2.978  14.283
   8923SM  H15S11952   6.924   2.977  14.274
   8923SM  H15T11953   6.778   2.873  14.272
   8923SM  C16S11954   6.776   3.031  14.422
   8923SM  H16S11955   6.665   3.033  14.431
   8923SM  H16T11956   6.813   3.135  14.433
   8923SM  C17S11957   6.833   2.945  14.536
   8923SM  H17S11958   6.944   2.940  14.524
   8923SM  H17T11959   6.794   2.842  14.526
   8923SM  C18S11960   6.799   2.999  14.675
   8923SM  H18S11961   6.843   2.933  14.754
   8923SM  H18T11962   6.689   3.003  14.689
   8923SM  H18U11963   6.841   3.101  14.688
   8923SM   C1F11964   7.449   3.090  12.948
   8923SM    OF11965   7.462   3.189  12.876
   8923SM   C2F11966   7.560   3.031  13.031
   8923SM   H2F11967   7.580   2.929  12.993
   8923SM   H2G11968   7.525   3.022  13.136
   8923SM   C3F11969   7.693   3.111  13.028
   8923SM   H3F11970   7.730   3.115  12.923
   8923SM   H3G11971   7.768   3.053  13.086
   8923SM   C4F11972   7.690   3.254  13.085
   8923SM   H4F11973   7.633   3.321  13.017
   8923SM   H4G11974   7.795   3.290  13.085
   8923SM   C5F11975   7.636   3.268  13.229
   8923SM   H5F11976   7.687   3.355  13.275
   8923SM   H5G11977   7.661   3.179  13.290
   8923SM   C6F11978   7.485   3.298  13.235
   8923SM   H6F11979   7.425   3.207  13.212
   8923SM   H6G11980   7.462   3.374  13.156
   8923SM   C7F11981   7.441   3.359  13.369
   8923SM   H7F11982   7.338   3.399  13.358
   8923SM   H7G11983   7.507   3.445  13.392
   8923SM   C8F11984   7.440   3.261  13.488
   8923SM   H8F11985   7.416   3.320  13.579
   8923SM   H8G11986   7.542   3.218  13.503
   8923SM   C9F11987   7.337   3.149  13.474
   8923SM   H9F11988   7.377   3.071  13.406
   8923SM   H9G11989   7.245   3.191  13.427
   8923SM  C10F11990   7.295   3.084  13.608
   8923SM  H10F11991   7.221   3.005  13.587
   8923SM  H10G11992   7.245   3.161  13.671
   8923SM  C11F11993   7.411   3.023  13.688
   8923SM  H11F11994   7.480   3.104  13.722
   8923SM  H11G11995   7.470   2.955  13.622
   8923SM  C12F11996   7.362   2.944  13.810
   8923SM  H12F11997   7.298   2.860  13.774
   8923SM  H12G11998   7.298   3.010  13.872
   8923SM  C13F11999   7.475   2.887  13.896
   8923SM  H13F12000   7.527   2.970  13.948
   8923SM  H13G12001   7.549   2.838  13.829
   8923SM  C14F12002   7.428   2.783  13.999
   8923SM  H14F12003   7.517   2.745  14.054
   8923SM  H14G12004   7.383   2.697  13.945
   8923SM  C15F12005   7.326   2.837  14.101
   8923SM  H15F12006   7.240   2.880  14.045
   8923SM  H15G12007   7.371   2.918  14.161
   8923SM  C16F12008   7.268   2.728  14.193
   8923SM  H16F12009   7.231   2.644  14.130
   8923SM  H16G12010   7.181   2.770  14.247
   8923SM  C17F12011   7.367   2.671  14.297
   8923SM  H17F12012   7.455   2.627  14.247
   8923SM  H17G12013   7.315   2.589  14.351
   8923SM  C18F12014   7.413   2.775  14.400
   8923SM  H18F12015   7.325   2.836  14.432
   8923SM  H18G12016   7.486   2.845  14.354
   8923SM  C19F12017   7.474   2.711  14.526
   8923SM  H19F12018   7.562   2.649  14.497
   8923SM  H19G12019   7.398   2.644  14.571
   8923SM  C20F12020   7.517   2.815  14.631
   8923SM  H20F12021   7.434   2.887  14.644
   8923SM  H20G12022   7.605   2.871  14.594
   8923SM  C21F12023   7.549   2.753  14.768
   8923SM  H21F12024   7.459   2.701  14.807
   8923SM  H21G12025   7.572   2.836  14.839
   8923SM  C22F12026   7.667   2.655  14.768
   8923SM  H22F12027   7.755   2.706  14.723
   8923SM  H22G12028   7.642   2.569  14.702
   8923SM  C23F12029   7.703   2.604  14.907
   8923SM  H23F12030   7.731   2.689  14.974
   8923SM  H23G12031   7.789   2.533  14.903
   8923SM  H23H12032   7.616   2.551  14.953
   9023SM     N12033   6.820   2.334  12.204
   9023SM   C1512034   6.922   2.244  12.140
   9023SM  H15A12035   7.022   2.282  12.153
   9023SM  H15B12036   6.901   2.236  12.034
   9023SM  H15C12037   6.915   2.146  12.183
   9023SM   C1412038   6.828   2.470  12.141
   9023SM  H14A12039   6.924   2.516  12.157
   9023SM  H14B12040   6.752   2.534  12.182
   9023SM  H14C12041   6.812   2.461  12.035
   9023SM   C1312042   6.685   2.276  12.175
   9023SM  H13A12043   6.675   2.182  12.226
   9023SM  H13B12044   6.671   2.261  12.069
   9023SM  H13C12045   6.607   2.339  12.214
   9023SM   C1212046   6.841   2.341  12.355
   9023SM  H12A12047   6.757   2.394  12.398
   9023SM  H12B12048   6.929   2.398  12.377
   9023SM   C1112049   6.848   2.207  12.433
   9023SM  H11A12050   6.875   2.229  12.538
   9023SM  H11B12051   6.931   2.144  12.393
   9023SM     P12052   6.600   2.183  12.508
   9023SM   O1312053   6.598   2.331  12.502
   9023SM   O1412054   6.481   2.113  12.456
   9023SM   O1112055   6.631   2.136  12.656
   9023SM   O1212056   6.726   2.133  12.424
   9023SM   C1S12057   6.717   2.025  12.685
   9023SM   H1S12058   6.806   2.022  12.618
   9023SM   H1T12059   6.662   1.930  12.674
   9023SM    NF12060   6.892   1.951  12.844
   9023SM   HNF12061   6.882   1.863  12.891
   9023SM   C2S12062   6.772   2.034  12.831
   9023SM   H2S12063   6.801   2.140  12.850
   9023SM   C3S12064   6.661   1.994  12.932
   9023SM   H3S12065   6.642   1.885  12.920
   9023SM    O312066   6.536   2.059  12.909
   9023SM   HO312067   6.545   2.103  12.825
   9023SM   C4S12068   6.712   2.017  13.073
   9023SM   H4S12069   6.781   1.939  13.107
   9023SM   C5S12070   6.683   2.117  13.159
   9023SM   H5S12071   6.612   2.195  13.129
   9023SM   C6S12072   6.742   2.129  13.298
   9023SM   H6S12073   6.720   2.230  13.339
   9023SM   H6T12074   6.853   2.120  13.292
   9023SM   C7S12075   6.692   2.025  13.400
   9023SM   H7S12076   6.752   2.037  13.493
   9023SM   H7T12077   6.711   1.922  13.363
   9023SM   C8S12078   6.543   2.039  13.436
   9023SM   H8S12079   6.483   2.023  13.344
   9023SM   H8T12080   6.523   2.142  13.471
   9023SM   C9S12081   6.496   1.938  13.543
   9023SM   H9S12082   6.528   1.836  13.514
   9023SM   H9T12083   6.385   1.939  13.545
   9023SM  C10S12084   6.546   1.969  13.685
   9023SM  H10S12085   6.510   2.069  13.716
   9023SM  H10T12086   6.658   1.972  13.685
   9023SM  C11S12087   6.499   1.864  13.787
   9023SM  H11S12088   6.545   1.767  13.762
   9023SM  H11T12089   6.389   1.853  13.776
   9023SM  C12S12090   6.529   1.898  13.934
   9023SM  H12S12091   6.490   1.815  13.997
   9023SM  H12T12092   6.475   1.990  13.963
   9023SM  C13S12093   6.679   1.917  13.963
   9023SM  H13S12094   6.714   2.008  13.910
   9023SM  H13T12095   6.736   1.830  13.923
   9023SM  C14S12096   6.710   1.932  14.113
   9023SM  H14S12097   6.639   2.004  14.159
   9023SM  H14T12098   6.812   1.976  14.123
   9023SM  C15S12099   6.709   1.800  14.191
   9023SM  H15S12100   6.773   1.726  14.138
   9023SM  H15T12101   6.605   1.759  14.193
   9023SM  C16S12102   6.761   1.815  14.335
   9023SM  H16S12103   6.697   1.886  14.390
   9023SM  H16T12104   6.864   1.859  14.331
   9023SM  C17S12105   6.768   1.682  14.410
   9023SM  H17S12106   6.830   1.611  14.352
   9023SM  H17T12107   6.665   1.639  14.417
   9023SM  C18S12108   6.826   1.695  14.551
   9023SM  H18S12109   6.829   1.596  14.602
   9023SM  H18T12110   6.764   1.765  14.613
   9023SM  H18U12111   6.930   1.735  14.547
   9023SM   C1F12112   7.010   1.986  12.792
   9023SM    OF12113   7.026   2.094  12.738
   9023SM   C2F12114   7.122   1.886  12.801
   9023SM   H2F12115   7.181   1.893  12.707
   9023SM   H2G12116   7.081   1.783  12.808
   9023SM   C3F12117   7.215   1.916  12.921
   9023SM   H3F12118   7.246   2.022  12.919
   9023SM   H3G12119   7.307   1.855  12.910
   9023SM   C4F12120   7.152   1.883  13.057
   9023SM   H4F12121   7.139   1.773  13.065
   9023SM   H4G12122   7.051   1.930  13.065
   9023SM   C5F12123   7.235   1.933  13.176
   9023SM   H5F12124   7.237   2.044  13.173
   9023SM   H5G12125   7.340   1.897  13.167
   9023SM   C6F12126   7.177   1.886  13.310
   9023SM   H6F12127   7.198   1.777  13.323
   9023SM   H6G12128   7.067   1.899  13.308
   9023SM   C7F12129   7.232   1.963  13.430
   9023SM   H7F12130   7.201   2.070  13.421
   9023SM   H7G12131   7.343   1.960  13.430
   9023SM   C8F12132   7.180   1.907  13.563
   9023SM   H8F12133   7.230   1.810  13.584
   9023SM   H8G12134   7.071   1.887  13.553
   9023SM   C9F12135   7.200   2.002  13.682
   9023SM   H9F12136   7.142   2.095  13.663
   9023SM   H9G12137   7.307   2.031  13.690
   9023SM  C10F12138   7.154   1.939  13.814
   9023SM  H10F12139   7.225   1.860  13.843
   9023SM  H10G12140   7.055   1.891  13.798
   9023SM  C11F12141   7.141   2.041  13.928
   9023SM  H11F12142   7.061   2.114  13.902
   9023SM  H11G12143   7.236   2.097  13.938
   9023SM  C12F12144   7.106   1.973  14.061
   9023SM  H12F12145   7.190   1.908  14.093
   9023SM  H12G12146   7.018   1.907  14.044
   9023SM  C13F12147   7.071   2.071  14.174
   9023SM  H13F12148   7.035   2.011  14.261
   9023SM  H13G12149   6.987   2.137  14.141
   9023SM  C14F12150   7.188   2.159  14.221
   9023SM  H14F12151   7.228   2.215  14.134
   9023SM  H14G12152   7.269   2.093  14.258
   9023SM  C15F12153   7.151   2.260  14.331
   9023SM  H15F12154   7.074   2.331  14.293
   9023SM  H15G12155   7.242   2.319  14.354
   9023SM  C16F12156   7.102   2.196  14.462
   9023SM  H16F12157   7.139   2.258  14.547
   9023SM  H16G12158   7.146   2.095  14.473
   9023SM  C17F12159   6.948   2.188  14.475
   9023SM  H17F12160   6.906   2.137  14.385
   9023SM  H17G12161   6.907   2.291  14.476
   9023SM  C18F12162   6.900   2.113  14.600
   9023SM  H18F12163   6.935   2.008  14.595
   9023SM  H18G12164   6.789   2.112  14.600
   9023SM  C19F12165   6.949   2.176  14.731
   9023SM  H19F12166   6.926   2.285  14.729
   9023SM  H19G12167   7.059   2.165  14.740
   9023SM  C20F12168   6.883   2.115  14.856
   9023SM  H20F12169   6.903   2.005  14.857
   9023SM  H20G12170   6.773   2.129  14.848
   9023SM  C21F12171   6.933   2.178  14.986
   9023SM  H21F12172   6.927   2.289  14.976
   9023SM  H21G12173   7.040   2.152  15.000
   9023SM  C22F12174   6.854   2.136  15.111
   9023SM  H22F12175   6.749   2.168  15.098
   9023SM  H22G12176   6.895   2.190  15.198
   9023SM  C23F12177   6.857   1.985  15.140
   9023SM  H23F12178   6.962   1.949  15.146
   9023SM  H23G12179   6.805   1.928  15.059
   9023SM  H23H12180   6.806   1.964  15.236
   9123SM     N12181   7.795   5.315  12.257
   9123SM   C1512182   7.858   5.192  12.200
   9123SM  H15A12183   7.963   5.207  12.182
   9123SM  H15B12184   7.814   5.165  12.106
   9123SM  H15C12185   7.848   5.108  12.267
   9123SM   C1412186   7.859   5.348  12.389
   9123SM  H14A12187   7.808   5.433  12.431
   9123SM  H14B12188   7.963   5.375  12.376
   9123SM  H14C12189   7.853   5.266  12.459
   9123SM   C1312190   7.820   5.430  12.165
   9123SM  H13A12191   7.783   5.521  12.210
   9123SM  H13B12192   7.771   5.416  12.069
   9123SM  H13C12193   7.926   5.444  12.147
   9123SM   C1212194   7.644   5.296  12.277
   9123SM  H12A12195   7.629   5.227  12.358
   9123SM  H12B12196   7.603   5.250  12.188
   9123SM   C1112197   7.558   5.422  12.307
   9123SM  H11A12198   7.453   5.389  12.322
   9123SM  H11B12199   7.559   5.488  12.217
   9123SM     P12200   7.632   5.644  12.425
   9123SM   O1312201   7.770   5.661  12.374
   9123SM   O1412202   7.524   5.716  12.354
   9123SM   O1112203   7.628   5.679  12.580
   9123SM   O1212204   7.602   5.489  12.426
   9123SM   C1S12205   7.746   5.649  12.657
   9123SM   H1S12206   7.829   5.717  12.626
   9123SM   H1T12207   7.780   5.544  12.642
   9123SM    NF12208   7.855   5.655  12.875
   9123SM   HNF12209   7.885   5.562  12.892
   9123SM   C2S12210   7.725   5.669  12.810
   9123SM   H2S12211   7.686   5.772  12.826
   9123SM   C3S12212   7.619   5.569  12.864
   9123SM   H3S12213   7.656   5.465  12.846
   9123SM    O312214   7.493   5.578  12.800
   9123SM   HO312215   7.512   5.621  12.716
   9123SM   C4S12216   7.598   5.590  13.012
   9123SM   H4S12217   7.555   5.688  13.036
   9123SM   C5S12218   7.626   5.502  13.110
   9123SM   H5S12219   7.668   5.404  13.083
   9123SM   C6S12220   7.605   5.524  13.258
   9123SM   H6S12221   7.702   5.511  13.311
   9123SM   H6T12222   7.537   5.445  13.297
   9123SM   C7S12223   7.547   5.661  13.301
   9123SM   H7S12224   7.447   5.675  13.254
   9123SM   H7T12225   7.614   5.742  13.263
   9123SM   C8S12226   7.533   5.678  13.453
   9123SM   H8S12227   7.497   5.781  13.473
   9123SM   H8T12228   7.633   5.669  13.500
   9123SM   C9S12229   7.436   5.579  13.518
   9123SM   H9S12230   7.477   5.476  13.512
   9123SM   H9T12231   7.341   5.580  13.461
   9123SM  C10S12232   7.403   5.611  13.666
   9123SM  H10S12233   7.325   5.539  13.699
   9123SM  H10T12234   7.359   5.713  13.673
   9123SM  C11S12235   7.524   5.602  13.759
   9123SM  H11S12236   7.597   5.681  13.731
   9123SM  H11T12237   7.574   5.503  13.746
   9123SM  C12S12238   7.489   5.620  13.908
   9123SM  H12S12239   7.431   5.714  13.921
   9123SM  H12T12240   7.584   5.631  13.965
   9123SM  C13S12241   7.410   5.502  13.967
   9123SM  H13S12242   7.469   5.409  13.954
   9123SM  H13T12243   7.315   5.490  13.911
   9123SM  C14S12244   7.374   5.519  14.116
   9123SM  H14S12245   7.308   5.435  14.145
   9123SM  H14T12246   7.317   5.613  14.130
   9123SM  C15S12247   7.496   5.518  14.210
   9123SM  H15S12248   7.560   5.607  14.189
   9123SM  H15T12249   7.557   5.427  14.190
   9123SM  C16S12250   7.456   5.518  14.358
   9123SM  H16S12251   7.392   5.429  14.378
   9123SM  H16T12252   7.394   5.608  14.379
   9123SM  C17S12253   7.576   5.515  14.453
   9123SM  H17S12254   7.640   5.604  14.433
   9123SM  H17T12255   7.637   5.425  14.430
   9123SM  C18S12256   7.538   5.513  14.601
   9123SM  H18S12257   7.476   5.423  14.624
   9123SM  H18T12258   7.478   5.603  14.627
   9123SM  H18U12259   7.628   5.511  14.665
   9123SM   C1F12260   7.943   5.755  12.878
   9123SM    OF12261   7.907   5.871  12.860
   9123SM   C2F12262   8.087   5.719  12.900
   9123SM   H2F12263   8.141   5.731  12.804
   9123SM   H2G12264   8.094   5.612  12.931
   9123SM   C3F12265   8.155   5.808  13.007
   9123SM   H3F12266   8.146   5.915  12.978
   9123SM   H3G12267   8.263   5.783  13.010
   9123SM   C4F12268   8.098   5.789  13.149
   9123SM   H4F12269   8.110   5.683  13.179
   9123SM   H4G12270   7.989   5.811  13.149
   9123SM   C5F12271   8.166   5.880  13.253
   9123SM   H5F12272   8.149   5.986  13.223
   9123SM   H5G12273   8.275   5.862  13.252
   9123SM   C6F12274   8.113   5.859  13.396
   9123SM   H6F12275   8.002   5.865  13.396
   9123SM   H6G12276   8.150   5.942  13.459
   9123SM   C7F12277   8.158   5.726  13.459
   9123SM   H7F12278   8.269   5.720  13.449
   9123SM   H7G12279   8.115   5.640  13.403
   9123SM   C8F12280   8.123   5.714  13.609
   9123SM   H8F12281   8.159   5.805  13.661
   9123SM   H8G12282   8.179   5.628  13.652
   9123SM   C9F12283   7.973   5.697  13.639
   9123SM   H9F12284   7.917   5.781  13.594
   9123SM   H9G12285   7.959   5.704  13.749
   9123SM  C10F12286   7.911   5.564  13.591
   9123SM  H10F12287   7.915   5.561  13.480
   9123SM  H10G12288   7.804   5.563  13.620
   9123SM  C11F12289   7.978   5.436  13.646
   9123SM  H11F12290   8.080   5.428  13.604
   9123SM  H11G12291   7.921   5.349  13.609
   9123SM  C12F12292   7.987   5.428  13.800
   9123SM  H12F12293   8.055   5.509  13.836
   9123SM  H12G12294   8.034   5.331  13.827
   9123SM  C13F12295   7.852   5.440  13.871
   9123SM  H13F12296   7.781   5.365  13.827
   9123SM  H13G12297   7.809   5.541  13.852
   9123SM  C14F12298   7.859   5.418  14.023
   9123SM  H14F12299   7.888   5.313  14.044
   9123SM  H14G12300   7.757   5.434  14.065
   9123SM  C15F12301   7.957   5.513  14.094
   9123SM  H15F12302   7.942   5.616  14.053
   9123SM  H15G12303   8.061   5.483  14.070
   9123SM  C16F12304   7.939   5.519  14.246
   9123SM  H16F12305   7.839   5.561  14.270
   9123SM  H16G12306   8.015   5.589  14.288
   9123SM  C17F12307   7.953   5.383  14.316
   9123SM  H17F12308   8.048   5.334  14.285
   9123SM  H17G12309   7.869   5.317  14.285
   9123SM  C18F12310   7.952   5.397  14.469
   9123SM  H18F12311   7.862   5.456  14.499
   9123SM  H18G12312   8.041   5.454  14.502
   9123SM  C19F12313   7.948   5.262  14.543
   9123SM  H19F12314   8.040   5.204  14.520
   9123SM  H19G12315   7.861   5.204  14.506
   9123SM  C20F12316   7.935   5.280  14.695
   9123SM  H20F12317   7.845   5.343  14.715
   9123SM  H20G12318   8.024   5.335  14.733
   9123SM  C21F12319   7.922   5.147  14.770
   9123SM  H21F12320   8.010   5.084  14.746
   9123SM  H21G12321   7.832   5.094  14.734
   9123SM  C22F12322   7.913   5.163  14.923
   9123SM  H22F12323   8.006   5.212  14.959
   9123SM  H22G12324   7.910   5.061  14.969
   9123SM  C23F12325   7.791   5.242  14.972
   9123SM  H23F12326   7.795   5.347  14.936
   9123SM  H23G12327   7.788   5.244  15.083
   9123SM  H23H12328   7.698   5.195  14.935
   9223SM     N12329   6.390   1.468  12.217
   9223SM   C1512330   6.263   1.389  12.202
   9223SM  H15A12331   6.217   1.404  12.106
   9223SM  H15B12332   6.191   1.422  12.276
   9223SM  H15C12333   6.279   1.284  12.218
   9223SM   C1412334   6.442   1.448  12.356
   9223SM  H14A12335   6.537   1.499  12.370
   9223SM  H14B12336   6.454   1.343  12.380
   9223SM  H14C12337   6.373   1.492  12.426
   9223SM   C1312338   6.492   1.423  12.117
   9223SM  H13A12339   6.581   1.484  12.123
   9223SM  H13B12340   6.454   1.430  12.017
   9223SM  H13C12341   6.520   1.320  12.135
   9223SM   C1212342   6.360   1.617  12.199
   9223SM  H12A12343   6.350   1.639  12.094
   9223SM  H12B12344   6.446   1.672  12.235
   9223SM   C1112345   6.236   1.674  12.272
   9223SM  H11A12346   6.146   1.639  12.217
   9223SM  H11B12347   6.237   1.785  12.261
   9223SM     P12348   6.098   1.598  12.479
   9223SM   O1312349   6.017   1.720  12.494
   9223SM   O1412350   6.042   1.487  12.398
   9223SM   O1112351   6.147   1.543  12.620
   9223SM   O1212352   6.235   1.640  12.411
   9223SM   C1S12353   6.082   1.595  12.738
   9223SM   H1S12354   5.971   1.582  12.731
   9223SM   H1T12355   6.102   1.704  12.750
   9223SM    NF12356   6.055   1.575  12.983
   9223SM   HNF12357   6.102   1.641  13.042
   9223SM   C2S12358   6.128   1.523  12.868
   9223SM   H2S12359   6.105   1.415  12.858
   9223SM   C3S12360   6.282   1.538  12.888
   9223SM   H3S12361   6.307   1.646  12.892
   9223SM    O312362   6.359   1.482  12.782
   9223SM   HO312363   6.297   1.481  12.709
   9223SM   C4S12364   6.323   1.471  13.017
   9223SM   H4S12365   6.317   1.362  13.016
   9223SM   C5S12366   6.365   1.535  13.129
   9223SM   H5S12367   6.370   1.645  13.129
   9223SM   C6S12368   6.406   1.469  13.258
   9223SM   H6S12369   6.508   1.502  13.285
   9223SM   H6T12370   6.409   1.358  13.249
   9223SM   C7S12371   6.312   1.504  13.376
   9223SM   H7S12372   6.215   1.450  13.364
   9223SM   H7T12373   6.291   1.613  13.377
   9223SM   C8S12374   6.374   1.468  13.512
   9223SM   H8S12375   6.468   1.526  13.522
   9223SM   H8T12376   6.401   1.360  13.514
   9223SM   C9S12377   6.283   1.499  13.632
   9223SM   H9S12378   6.209   1.417  13.645
   9223SM   H9T12379   6.225   1.592  13.610
   9223SM  C10S12380   6.362   1.521  13.762
   9223SM  H10S12381   6.357   1.629  13.788
   9223SM  H10T12382   6.469   1.497  13.745
   9223SM  C11S12383   6.314   1.440  13.883
   9223SM  H11S12384   6.324   1.332  13.862
   9223SM  H11T12385   6.206   1.462  13.900
   9223SM  C12S12386   6.394   1.477  14.010
   9223SM  H12S12387   6.393   1.587  14.021
   9223SM  H12T12388   6.500   1.446  13.997
   9223SM  C13S12389   6.338   1.415  14.138
   9223SM  H13S12390   6.351   1.305  14.136
   9223SM  H13T12391   6.229   1.435  14.143
   9223SM  C14S12392   6.404   1.473  14.264
   9223SM  H14S12393   6.397   1.584  14.259
   9223SM  H14T12394   6.512   1.447  14.266
   9223SM  C15S12395   6.337   1.426  14.394
   9223SM  H15S12396   6.352   1.317  14.406
   9223SM  H15T12397   6.228   1.445  14.387
   9223SM  C16S12398   6.390   1.499  14.518
   9223SM  H16S12399   6.376   1.609  14.505
   9223SM  H16T12400   6.500   1.481  14.528
   9223SM  C17S12401   6.321   1.455  14.648
   9223SM  H17S12402   6.337   1.346  14.662
   9223SM  H17T12403   6.211   1.472  14.637
   9223SM  C18S12404   6.370   1.530  14.772
   9223SM  H18S12405   6.479   1.515  14.786
   9223SM  H18T12406   6.317   1.494  14.863
   9223SM  H18U12407   6.351   1.639  14.762
   9223SM   C1F12408   5.928   1.544  13.008
   9223SM    OF12409   5.866   1.467  12.937
   9223SM   C2F12410   5.867   1.608  13.130
   9223SM   H2F12411   5.756   1.610  13.118
   9223SM   H2G12412   5.904   1.712  13.138
   9223SM   C3F12413   5.904   1.527  13.257
   9223SM   H3F12414   6.014   1.510  13.260
   9223SM   H3G12415   5.855   1.428  13.251
   9223SM   C4F12416   5.864   1.595  13.389
   9223SM   H4F12417   5.881   1.523  13.471
   9223SM   H4G12418   5.756   1.619  13.387
   9223SM   C5F12419   5.945   1.722  13.419
   9223SM   H5F12420   5.920   1.801  13.345
   9223SM   H5G12421   6.053   1.700  13.410
   9223SM   C6F12422   5.918   1.777  13.560
   9223SM   H6F12423   5.948   1.700  13.635
   9223SM   H6G12424   5.809   1.794  13.572
   9223SM   C7F12425   5.993   1.908  13.589
   9223SM   H7F12426   5.974   1.978  13.505
   9223SM   H7G12427   6.103   1.888  13.590
   9223SM   C8F12428   5.950   1.977  13.719
   9223SM   H8F12429   5.844   2.007  13.709
   9223SM   H8G12430   6.009   2.070  13.732
   9223SM   C9F12431   5.964   1.891  13.847
   9223SM   H9F12432   5.908   1.797  13.834
   9223SM   H9G12433   5.918   1.946  13.931
   9223SM  C10F12434   6.110   1.860  13.882
   9223SM  H10F12435   6.162   1.954  13.910
   9223SM  H10G12436   6.161   1.818  13.793
   9223SM  C11F12437   6.126   1.757  13.996
   9223SM  H11F12438   6.234   1.745  14.016
   9223SM  H11G12439   6.087   1.659  13.962
   9223SM  C12F12440   6.055   1.795  14.127
   9223SM  H12F12441   5.945   1.796  14.111
   9223SM  H12G12442   6.086   1.898  14.157
   9223SM  C13F12443   6.089   1.697  14.240
   9223SM  H13F12444   6.198   1.704  14.262
   9223SM  H13G12445   6.070   1.594  14.203
   9223SM  C14F12446   6.010   1.718  14.369
   9223SM  H14F12447   6.043   1.640  14.442
   9223SM  H14G12448   5.902   1.701  14.350
   9223SM  C15F12449   6.029   1.856  14.433
   9223SM  H15F12450   5.984   1.933  14.366
   9223SM  H15G12451   6.138   1.878  14.441
   9223SM  C16F12452   5.966   1.868  14.573
   9223SM  H16F12453   5.859   1.837  14.568
   9223SM  H16G12454   5.969   1.975  14.603
   9223SM  C17F12455   6.039   1.786  14.680
   9223SM  H17F12456   6.147   1.813  14.679
   9223SM  H17G12457   6.032   1.677  14.657
   9223SM  C18F12458   5.984   1.810  14.822
   9223SM  H18F12459   5.878   1.776  14.826
   9223SM  H18G12460   5.986   1.919  14.843
   9223SM  C19F12461   6.065   1.736  14.929
   9223SM  H19F12462   6.171   1.768  14.922
   9223SM  H19G12463   6.061   1.627  14.910
   9223SM  C20F12464   6.013   1.765  15.071
   9223SM  H20F12465   5.906   1.735  15.076
   9223SM  H20G12466   6.017   1.874  15.090
   9223SM  C21F12467   6.090   1.690  15.182
   9223SM  H21F12468   6.082   1.581  15.163
   9223SM  H21G12469   6.040   1.711  15.279
   9223SM  C22F12470   6.239   1.728  15.195
   9223SM  H22F12471   6.291   1.701  15.101
   9223SM  H22G12472   6.283   1.666  15.276
   9223SM  C23F12473   6.265   1.876  15.227
   9223SM  H23F12474   6.212   1.905  15.320
   9223SM  H23G12475   6.228   1.941  15.144
   9223SM  H23H12476   6.373   1.894  15.240
   9323SM     N12477   8.155   4.563  12.171
   9323SM   C1512478   8.079   4.499  12.284
   9323SM  H15A12479   8.120   4.403  12.310
   9323SM  H15B12480   7.975   4.487  12.258
   9323SM  H15C12481   8.084   4.563  12.371
   9323SM   C1412482   8.143   4.477  12.048
   9323SM  H14A12483   8.184   4.379  12.065
   9323SM  H14B12484   8.194   4.521  11.964
   9323SM  H14C12485   8.040   4.465  12.021
   9323SM   C1312486   8.089   4.696  12.143
   9323SM  H13A12487   8.102   4.760  12.229
   9323SM  H13B12488   7.984   4.684  12.124
   9323SM  H13C12489   8.133   4.746  12.058
   9323SM   C1212490   8.300   4.586  12.211
   9323SM  H12A12491   8.346   4.650  12.137
   9323SM  H12B12492   8.352   4.492  12.208
   9323SM   C1112493   8.327   4.650  12.350
   9323SM  H11A12494   8.436   4.666  12.361
   9323SM  H11B12495   8.299   4.576  12.428
   9323SM     P12496   8.186   4.809  12.500
   9323SM   O1312497   8.142   4.951  12.498
   9323SM   O1412498   8.080   4.708  12.522
   9323SM   O1112499   8.301   4.791  12.608
   9323SM   O1212500   8.260   4.776  12.364
   9323SM   C1S12501   8.276   4.823  12.745
   9323SM   H1S12502   8.170   4.810  12.774
   9323SM   H1T12503   8.302   4.930  12.760
   9323SM    NF12504   8.283   4.619  12.883
   9323SM   HNF12505   8.240   4.621  12.973
   9323SM   C2S12506   8.361   4.735  12.843
   9323SM   H2S12507   8.453   4.701  12.790
   9323SM   C3S12508   8.406   4.823  12.964
   9323SM   H3S12509   8.316   4.874  13.006
   9323SM    O312510   8.499   4.927  12.929
   9323SM   HO312511   8.506   4.923  12.833
   9323SM   C4S12512   8.469   4.737  13.070
   9323SM   H4S12513   8.565   4.692  13.042
   9323SM   C5S12514   8.417   4.711  13.192
   9323SM   H5S12515   8.321   4.758  13.221
   9323SM   C6S12516   8.480   4.623  13.296
   9323SM   H6S12517   8.585   4.598  13.271
   9323SM   H6T12518   8.424   4.527  13.300
   9323SM   C7S12519   8.477   4.682  13.439
   9323SM   H7S12520   8.375   4.720  13.462
   9323SM   H7T12521   8.547   4.768  13.446
   9323SM   C8S12522   8.512   4.577  13.545
   9323SM   H8S12523   8.617   4.543  13.531
   9323SM   H8T12524   8.447   4.488  13.529
   9323SM   C9S12525   8.492   4.624  13.690
   9323SM   H9S12526   8.501   4.535  13.756
   9323SM   H9T12527   8.390   4.665  13.702
   9323SM  C10S12528   8.595   4.728  13.735
   9323SM  H10S12529   8.583   4.822  13.677
   9323SM  H10T12530   8.697   4.688  13.715
   9323SM  C11S12531   8.584   4.760  13.885
   9323SM  H11S12532   8.589   4.665  13.943
   9323SM  H11T12533   8.485   4.807  13.905
   9323SM  C12S12534   8.695   4.853  13.934
   9323SM  H12S12535   8.690   4.949  13.878
   9323SM  H12T12536   8.794   4.807  13.912
   9323SM  C13S12537   8.687   4.882  14.085
   9323SM  H13S12538   8.693   4.785  14.140
   9323SM  H13T12539   8.588   4.928  14.108
   9323SM  C14S12540   8.799   4.975  14.133
   9323SM  H14S12541   8.800   5.065  14.068
   9323SM  H14T12542   8.896   4.923  14.121
   9323SM  C15S12543   8.785   5.022  14.279
   9323SM  H15S12544   8.871   5.089  14.300
   9323SM  H15T12545   8.692   5.082  14.291
   9323SM  C16S12546   8.786   4.909  14.384
   9323SM  H16S12547   8.837   4.947  14.475
   9323SM  H16T12548   8.846   4.823  14.346
   9323SM  C17S12549   8.646   4.862  14.425
   9323SM  H17S12550   8.592   4.821  14.337
   9323SM  H17T12551   8.590   4.951  14.460
   9323SM  C18S12552   8.647   4.757  14.537
   9323SM  H18S12553   8.543   4.729  14.565
   9323SM  H18T12554   8.698   4.797  14.627
   9323SM  H18U12555   8.701   4.666  14.504
   9323SM   C1F12556   8.258   4.517  12.801
   9323SM    OF12557   8.331   4.492  12.706
   9323SM   C2F12558   8.140   4.429  12.833
   9323SM   H2F12559   8.170   4.323  12.818
   9323SM   H2G12560   8.059   4.453  12.761
   9323SM   C3F12561   8.086   4.447  12.977
   9323SM   H3F12562   8.052   4.551  12.993
   9323SM   H3G12563   8.168   4.424  13.049
   9323SM   C4F12564   7.967   4.354  13.008
   9323SM   H4F12565   8.000   4.248  13.003
   9323SM   H4G12566   7.891   4.370  12.929
   9323SM   C5F12567   7.899   4.380  13.144
   9323SM   H5F12568   7.805   4.321  13.145
   9323SM   H5G12569   7.870   4.487  13.153
   9323SM   C6F12570   7.981   4.336  13.267
   9323SM   H6F12571   8.041   4.246  13.240
   9323SM   H6G12572   7.910   4.303  13.346
   9323SM   C7F12573   8.072   4.443  13.329
   9323SM   H7F12574   8.140   4.485  13.252
   9323SM   H7G12575   8.136   4.394  13.405
   9323SM   C8F12576   7.997   4.558  13.399
   9323SM   H8F12577   7.932   4.516  13.479
   9323SM   H8G12578   7.932   4.610  13.326
   9323SM   C9F12579   8.094   4.660  13.460
   9323SM   H9F12580   8.163   4.693  13.380
   9323SM   H9G12581   8.156   4.610  13.538
   9323SM  C10F12582   8.027   4.785  13.519
   9323SM  H10F12583   7.966   4.834  13.440
   9323SM  H10G12584   8.106   4.857  13.549
   9323SM  C11F12585   7.937   4.760  13.642
   9323SM  H11F12586   7.852   4.695  13.613
   9323SM  H11G12587   7.895   4.857  13.674
   9323SM  C12F12588   8.011   4.696  13.761
   9323SM  H12F12589   8.108   4.749  13.778
   9323SM  H12G12590   8.036   4.591  13.735
   9323SM  C13F12591   7.929   4.697  13.891
   9323SM  H13F12592   7.969   4.620  13.960
   9323SM  H13G12593   7.825   4.666  13.866
   9323SM  C14F12594   7.925   4.833  13.963
   9323SM  H14F12595   7.844   4.831  14.038
   9323SM  H14G12596   7.901   4.912  13.890
   9323SM  C15F12597   8.056   4.871  14.036
   9323SM  H15F12598   8.048   4.976  14.070
   9323SM  H15G12599   8.142   4.865  13.966
   9323SM  C16F12600   8.084   4.784  14.160
   9323SM  H16F12601   8.098   4.678  14.128
   9323SM  H16G12602   7.995   4.787  14.226
   9323SM  C17F12603   8.208   4.829  14.238
   9323SM  H17F12604   8.195   4.934  14.270
   9323SM  H17G12605   8.296   4.824  14.170
   9323SM  C18F12606   8.236   4.742  14.362
   9323SM  H18F12607   8.339   4.761  14.398
   9323SM  H18G12608   8.230   4.635  14.333
   9323SM  C19F12609   8.139   4.768  14.478
   9323SM  H19F12610   8.034   4.765  14.441
   9323SM  H19G12611   8.157   4.870  14.519
   9323SM  C20F12612   8.152   4.665  14.591
   9323SM  H20F12613   8.256   4.664  14.630
   9323SM  H20G12614   8.131   4.565  14.548
   9323SM  C21F12615   8.054   4.693  14.707
   9323SM  H21F12616   7.952   4.704  14.666
   9323SM  H21G12617   8.083   4.789  14.754
   9323SM  C22F12618   8.053   4.582  14.814
   9323SM  H22F12619   7.994   4.619  14.901
   9323SM  H22G12620   8.156   4.565  14.850
   9323SM  C23F12621   7.991   4.450  14.767
   9323SM  H23F12622   7.987   4.377  14.851
   9323SM  H23G12623   8.052   4.405  14.685
   9323SM  H23H12624   7.888   4.466  14.729
   9423SM     N12625   6.226   8.009  12.147
   9423SM   C1512626   6.092   8.074  12.163
   9423SM  H15A12627   6.051   8.057  12.261
   9423SM  H15B12628   6.022   8.036  12.090
   9423SM  H15C12629   6.097   8.181  12.148
   9423SM   C1412630   6.206   7.861  12.160
   9423SM  H14A12631   6.131   7.826  12.091
   9423SM  H14B12632   6.175   7.840  12.262
   9423SM  H14C12633   6.299   7.808  12.144
   9423SM   C1312634   6.278   8.039  12.010
   9423SM  H13A12635   6.287   8.146  11.994
   9423SM  H13B12636   6.211   8.001  11.935
   9423SM  H13C12637   6.376   7.995  11.995
   9423SM   C1212638   6.322   8.057  12.255
   9423SM  H12A12639   6.348   8.160  12.235
   9423SM  H12B12640   6.412   7.998  12.250
   9423SM   C1112641   6.273   8.048  12.402
   9423SM  H11A12642   6.180   8.107  12.415
   9423SM  H11B12643   6.349   8.096  12.468
   9423SM     P12644   6.367   7.820  12.488
   9423SM   O1312645   6.318   7.680  12.480
   9423SM   O1412646   6.487   7.854  12.408
   9423SM   O1112647   6.385   7.860  12.640
   9423SM   O1212648   6.248   7.913  12.441
   9423SM   C1S12649   6.277   7.926  12.710
   9423SM   H1S12650   6.179   7.882  12.682
   9423SM   H1T12651   6.274   8.033  12.684
   9423SM    NF12652   6.383   8.010  12.917
   9423SM   HNF12653   6.477   7.980  12.927
   9423SM   C2S12654   6.288   7.913  12.865
   9423SM   H2S12655   6.187   7.936  12.906
   9423SM   C3S12656   6.324   7.767  12.906
   9423SM   H3S12657   6.432   7.750  12.886
   9423SM    O312658   6.255   7.666  12.831
   9423SM   HO312659   6.246   7.706  12.744
   9423SM   C4S12660   6.297   7.748  13.053
   9423SM   H4S12661   6.193   7.769  13.082
   9423SM   C5S12662   6.383   7.708  13.149
   9423SM   H5S12663   6.486   7.682  13.124
   9423SM   C6S12664   6.344   7.694  13.294
   9423SM   H6S12665   6.248   7.746  13.315
   9423SM   H6T12666   6.420   7.742  13.358
   9423SM   C7S12667   6.327   7.547  13.339
   9423SM   H7S12668   6.424   7.494  13.330
   9423SM   H7T12669   6.255   7.497  13.272
   9423SM   C8S12670   6.275   7.533  13.483
   9423SM   H8S12671   6.254   7.425  13.502
   9423SM   H8T12672   6.179   7.588  13.493
   9423SM   C9S12673   6.374   7.582  13.590
   9423SM   H9S12674   6.395   7.690  13.575
   9423SM   H9T12675   6.469   7.527  13.579
   9423SM  C10S12676   6.321   7.562  13.733
   9423SM  H10S12677   6.296   7.455  13.748
   9423SM  H10T12678   6.227   7.621  13.747
   9423SM  C11S12679   6.423   7.604  13.840
   9423SM  H11S12680   6.449   7.712  13.827
   9423SM  H11T12681   6.516   7.545  13.825
   9423SM  C12S12682   6.373   7.581  13.983
   9423SM  H12S12683   6.340   7.476  13.994
   9423SM  H12T12684   6.285   7.646  14.003
   9423SM  C13S12685   6.482   7.609  14.088
   9423SM  H13S12686   6.514   7.716  14.080
   9423SM  H13T12687   6.570   7.546  14.064
   9423SM  C14S12688   6.438   7.580  14.232
   9423SM  H14S12689   6.395   7.478  14.236
   9423SM  H14T12690   6.359   7.652  14.262
   9423SM  C15S12691   6.556   7.588  14.330
   9423SM  H15S12692   6.602   7.689  14.323
   9423SM  H15T12693   6.633   7.514  14.300
   9423SM  C16S12694   6.515   7.561  14.476
   9423SM  H16S12695   6.464   7.462  14.482
   9423SM  H16T12696   6.441   7.638  14.508
   9423SM  C17S12697   6.634   7.561  14.572
   9423SM  H17S12698   6.687   7.658  14.563
   9423SM  H17T12699   6.706   7.482  14.540
   9423SM  C18S12700   6.595   7.538  14.718
   9423SM  H18S12701   6.685   7.537  14.783
   9423SM  H18T12702   6.544   7.440  14.729
   9423SM  H18U12703   6.527   7.618  14.753
   9423SM   C1F12704   6.352   8.140  12.919
   9423SM    OF12705   6.235   8.176  12.912
   9423SM   C2F12706   6.466   8.238  12.922
   9423SM   H2F12707   6.477   8.279  12.819
   9423SM   H2G12708   6.560   8.185  12.948
   9423SM   C3F12709   6.443   8.355  13.020
   9423SM   H3F12710   6.347   8.405  12.999
   9423SM   H3G12711   6.524   8.430  13.002
   9423SM   C4F12712   6.449   8.313  13.168
   9423SM   H4F12713   6.540   8.252  13.185
   9423SM   H4G12714   6.361   8.250  13.192
   9423SM   C5F12715   6.454   8.434  13.264
   9423SM   H5F12716   6.359   8.491  13.257
   9423SM   H5G12717   6.536   8.501  13.230
   9423SM   C6F12718   6.480   8.395  13.410
   9423SM   H6F12719   6.503   8.487  13.469
   9423SM   H6G12720   6.571   8.330  13.414
   9423SM   C7F12721   6.362   8.323  13.476
   9423SM   H7F12722   6.333   8.235  13.415
   9423SM   H7G12723   6.275   8.392  13.478
   9423SM   C8F12724   6.390   8.274  13.619
   9423SM   H8F12725   6.296   8.232  13.659
   9423SM   H8G12726   6.419   8.359  13.685
   9423SM   C9F12727   6.497   8.164  13.626
   9423SM   H9F12728   6.599   8.210  13.626
   9423SM   H9G12729   6.489   8.101  13.535
   9423SM  C10F12730   6.482   8.071  13.748
   9423SM  H10F12731   6.556   7.989  13.738
   9423SM  H10G12732   6.381   8.024  13.746
   9423SM  C11F12733   6.504   8.139  13.884
   9423SM  H11F12734   6.429   8.219  13.899
   9423SM  H11G12735   6.605   8.185  13.885
   9423SM  C12F12736   6.494   8.038  14.000
   9423SM  H12F12737   6.561   7.952  13.977
   9423SM  H12G12738   6.390   7.998  14.006
   9423SM  C13F12739   6.534   8.096  14.136
   9423SM  H13F12740   6.459   8.172  14.168
   9423SM  H13G12741   6.632   8.148  14.126
   9423SM  C14F12742   6.547   7.988  14.244
   9423SM  H14F12743   6.624   7.915  14.210
   9423SM  H14G12744   6.451   7.933  14.254
   9423SM  C15F12745   6.590   8.043  14.381
   9423SM  H15F12746   6.505   8.100  14.425
   9423SM  H15G12747   6.675   8.113  14.367
   9423SM  C16F12748   6.634   7.932  14.477
   9423SM  H16F12749   6.722   7.882  14.432
   9423SM  H16G12750   6.554   7.856  14.487
   9423SM  C17F12751   6.674   7.983  14.617
   9423SM  H17F12752   6.719   8.083  14.606
   9423SM  H17G12753   6.751   7.916  14.660
   9423SM  C18F12754   6.556   7.988  14.715
   9423SM  H18F12755   6.533   7.884  14.747
   9423SM  H18G12756   6.465   8.026  14.663
   9423SM  C19F12757   6.584   8.076  14.837
   9423SM  H19F12758   6.688   8.060  14.871
   9423SM  H19G12759   6.517   8.045  14.920
   9423SM  C20F12760   6.559   8.225  14.809
   9423SM  H20F12761   6.452   8.238  14.786
   9423SM  H20G12762   6.617   8.256  14.720
   9423SM  C21F12763   6.596   8.316  14.927
   9423SM  H21F12764   6.707   8.315  14.941
   9423SM  H21G12765   6.550   8.277  15.020
   9423SM  C22F12766   6.549   8.460  14.905
   9423SM  H22F12767   6.439   8.459  14.890
   9423SM  H22G12768   6.594   8.500  14.812
   9423SM  C23F12769   6.582   8.554  15.022
   9423SM  H23F12770   6.542   8.656  15.003
   9423SM  H23G12771   6.692   8.562  15.035
   9423SM  H23H12772   6.538   8.516  15.116
   9523SM     N12773   1.370   1.950  12.157
   9523SM   C1512774   1.223   1.976  12.140
   9523SM  H15A12775   1.202   2.082  12.138
   9523SM  H15B12776   1.167   1.933  12.221
   9523SM  H15C12777   1.188   1.933  12.047
   9523SM   C1412778   1.393   1.802  12.157
   9523SM  H14A12779   1.498   1.779  12.169
   9523SM  H14B12780   1.358   1.756  12.066
   9523SM  H14C12781   1.341   1.755  12.239
   9523SM   C1312782   1.443   2.009  12.039
   9523SM  H13A12783   1.548   1.984  12.041
   9523SM  H13B12784   1.433   2.116  12.037
   9523SM  H13C12785   1.402   1.971  11.947
   9523SM   C1212786   1.421   2.012  12.286
   9523SM  H12A12787   1.397   2.117  12.289
   9523SM  H12B12788   1.528   2.006  12.290
   9523SM   C1112789   1.370   1.950  12.417
   9523SM  H11A12790   1.400   1.843  12.427
   9523SM  H11B12791   1.259   1.954  12.420
   9523SM     P12792   1.572   2.022  12.566
   9523SM   O1312793   1.655   2.036  12.444
   9523SM   O1412794   1.594   2.123  12.672
   9523SM   O1112795   1.587   1.876  12.624
   9523SM   O1212796   1.420   2.028  12.524
   9523SM   C1S12797   1.680   1.846  12.731
   9523SM   H1S12798   1.752   1.929  12.748
   9523SM   H1T12799   1.740   1.757  12.703
   9523SM    NF12800   1.704   1.798  12.974
   9523SM   HNF12801   1.712   1.709  13.017
   9523SM   C2S12802   1.607   1.815  12.866
   9523SM   H2S12803   1.544   1.903  12.889
   9523SM   C3S12804   1.516   1.689  12.852
   9523SM   H3S12805   1.581   1.599  12.853
   9523SM    O312806   1.443   1.680  12.730
   9523SM   HO312807   1.478   1.753  12.678
   9523SM   C4S12808   1.420   1.686  12.968
   9523SM   H4S12809   1.343   1.764  12.965
   9523SM   C5S12810   1.421   1.599  13.072
   9523SM   H5S12811   1.498   1.521  13.079
   9523SM   C6S12812   1.322   1.602  13.186
   9523SM   H6S12813   1.286   1.500  13.208
   9523SM   H6T12814   1.232   1.664  13.161
   9523SM   C7S12815   1.386   1.660  13.313
   9523SM   H7S12816   1.420   1.764  13.295
   9523SM   H7T12817   1.475   1.599  13.340
   9523SM   C8S12818   1.291   1.659  13.434
   9523SM   H8S12819   1.260   1.554  13.452
   9523SM   H8T12820   1.200   1.719  13.413
   9523SM   C9S12821   1.359   1.711  13.562
   9523SM   H9S12822   1.379   1.820  13.553
   9523SM   H9T12823   1.457   1.659  13.571
   9523SM  C10S12824   1.279   1.682  13.690
   9523SM  H10S12825   1.247   1.575  13.687
   9523SM  H10T12826   1.187   1.744  13.692
   9523SM  C11S12827   1.362   1.703  13.817
   9523SM  H11S12828   1.393   1.810  13.824
   9523SM  H11T12829   1.455   1.643  13.807
   9523SM  C12S12830   1.290   1.661  13.945
   9523SM  H12S12831   1.245   1.560  13.930
   9523SM  H12T12832   1.207   1.732  13.967
   9523SM  C13S12833   1.385   1.654  14.066
   9523SM  H13S12834   1.434   1.752  14.079
   9523SM  H13T12835   1.464   1.579  14.043
   9523SM  C14S12836   1.314   1.614  14.197
   9523SM  H14S12837   1.258   1.519  14.182
   9523SM  H14T12838   1.240   1.694  14.221
   9523SM  C15S12839   1.410   1.598  14.316
   9523SM  H15S12840   1.350   1.596  14.409
   9523SM  H15T12841   1.477   1.687  14.321
   9523SM  C16S12842   1.495   1.470  14.309
   9523SM  H16S12843   1.546   1.466  14.210
   9523SM  H16T12844   1.428   1.382  14.315
   9523SM  C17S12845   1.603   1.460  14.418
   9523SM  H17S12846   1.674   1.544  14.405
   9523SM  H17T12847   1.660   1.366  14.401
   9523SM  C18S12848   1.550   1.460  14.561
   9523SM  H18S12849   1.476   1.378  14.575
   9523SM  H18T12850   1.500   1.556  14.585
   9523SM  H18U12851   1.633   1.445  14.634
   9523SM   C1F12852   1.781   1.898  13.018
   9523SM    OF12853   1.757   2.014  12.986
   9523SM   C2F12854   1.898   1.864  13.105
   9523SM   H2F12855   1.942   1.959  13.141
   9523SM   H2G12856   1.974   1.812  13.043
   9523SM   C3F12857   1.862   1.776  13.227
   9523SM   H3F12858   1.824   1.676  13.195
   9523SM   H3G12859   1.783   1.825  13.287
   9523SM   C4F12860   1.985   1.754  13.318
   9523SM   H4F12861   2.027   1.854  13.344
   9523SM   H4G12862   2.063   1.699  13.262
   9523SM   C5F12863   1.954   1.679  13.448
   9523SM   H5F12864   1.922   1.575  13.425
   9523SM   H5G12865   1.870   1.730  13.500
   9523SM   C6F12866   2.076   1.677  13.542
   9523SM   H6F12867   2.111   1.781  13.556
   9523SM   H6G12868   2.158   1.620  13.494
   9523SM   C7F12869   2.046   1.617  13.680
   9523SM   H7F12870   2.025   1.508  13.669
   9523SM   H7G12871   1.954   1.665  13.721
   9523SM   C8F12872   2.162   1.638  13.778
   9523SM   H8F12873   2.181   1.747  13.788
   9523SM   H8G12874   2.253   1.592  13.734
   9523SM   C9F12875   2.139   1.579  13.918
   9523SM   H9F12876   2.231   1.596  13.979
   9523SM   H9G12877   2.125   1.469  13.910
   9523SM  C10F12878   2.018   1.640  13.992
   9523SM  H10F12879   1.926   1.607  13.939
   9523SM  H10G12880   2.023   1.751  13.986
   9523SM  C11F12881   2.009   1.595  14.139
   9523SM  H11F12882   2.037   1.488  14.144
   9523SM  H11G12883   1.903   1.604  14.173
   9523SM  C12F12884   2.097   1.677  14.234
   9523SM  H12F12885   2.199   1.688  14.190
   9523SM  H12G12886   2.108   1.621  14.330
   9523SM  C13F12887   2.039   1.816  14.266
   9523SM  H13F12888   1.941   1.802  14.317
   9523SM  H13G12889   2.020   1.871  14.172
   9523SM  C14F12890   2.131   1.901  14.354
   9523SM  H14F12891   2.228   1.913  14.301
   9523SM  H14G12892   2.153   1.847  14.449
   9523SM  C15F12893   2.076   2.041  14.385
   9523SM  H15F12894   2.052   2.091  14.288
   9523SM  H15G12895   2.155   2.101  14.435
   9523SM  C16F12896   1.950   2.044  14.474
   9523SM  H16F12897   1.870   1.981  14.428
   9523SM  H16G12898   1.912   2.148  14.477
   9523SM  C17F12899   1.976   1.997  14.618
   9523SM  H17F12900   2.051   2.063  14.666
   9523SM  H17G12901   2.019   1.894  14.615
   9523SM  C18F12902   1.849   1.991  14.706
   9523SM  H18F12903   1.878   1.945  14.803
   9523SM  H18G12904   1.774   1.925  14.658
   9523SM  C19F12905   1.785   2.128  14.733
   9523SM  H19F12906   1.753   2.172  14.636
   9523SM  H19G12907   1.861   2.196  14.777
   9523SM  C20F12908   1.663   2.122  14.826
   9523SM  H20F12909   1.590   2.048  14.786
   9523SM  H20G12910   1.614   2.221  14.827
   9523SM  C21F12911   1.698   2.084  14.971
   9523SM  H21F12912   1.774   2.155  15.010
   9523SM  H21G12913   1.743   1.982  14.974
   9523SM  C22F12914   1.576   2.086  15.064
   9523SM  H22F12915   1.499   2.016  15.024
   9523SM  H22G12916   1.531   2.187  15.063
   9523SM  C23F12917   1.609   2.046  15.208
   9523SM  H23F12918   1.518   2.051  15.272
   9523SM  H23G12919   1.685   2.115  15.251
   9523SM  H23H12920   1.649   1.943  15.212
   9623SM     N12921   3.191   0.417  12.264
   9623SM   C1512922   3.335   0.458  12.258
   9623SM  H15A12923   3.368   0.469  12.156
   9623SM  H15B12924   3.397   0.382  12.305
   9623SM  H15C12925   3.352   0.551  12.311
   9623SM   C1412926   3.107   0.520  12.195
   9623SM  H14A12927   3.002   0.493  12.196
   9623SM  H14B12928   3.137   0.531  12.092
   9623SM  H14C12929   3.117   0.617  12.241
   9623SM   C1312930   3.176   0.286  12.193
   9623SM  H13A12931   3.232   0.211  12.247
   9623SM  H13B12932   3.212   0.292  12.091
   9623SM  H13C12933   3.073   0.254  12.191
   9623SM   C1212934   3.149   0.399  12.410
   9623SM  H12A12935   3.052   0.351  12.412
   9623SM  H12B12936   3.135   0.496  12.455
   9623SM   C1112937   3.243   0.318  12.502
   9623SM  H11A12938   3.193   0.307  12.601
   9623SM  H11B12939   3.335   0.379  12.519
   9623SM     P12940   3.407   0.117  12.489
   9623SM   O1312941   3.398   9.189  12.460
   9623SM   O1412942   3.521   0.192  12.429
   9623SM   O1112943   3.413   0.140  12.646
   9623SM   O1212944   3.272   0.189  12.449
   9623SM   C1S12945   3.334   0.058  12.733
   9623SM   H1S12946   3.363   9.168  12.721
   9623SM   H1T12947   3.226   0.067  12.709
   9623SM    NF12948   3.292   0.004  12.975
   9623SM   HNF12949   3.218   0.038  13.032
   9623SM   C2S12950   3.354   0.099  12.883
   9623SM   H2S12951   3.463   0.100  12.903
   9623SM   C3S12952   3.299   0.244  12.902
   9623SM   H3S12953   3.191   0.245  12.874
   9623SM    O312954   3.363   0.341  12.819
   9623SM   HO312955   3.403   0.287  12.750
   9623SM   C4S12956   3.314   0.287  13.045
   9623SM   H4S12957   3.418   0.300  13.078
   9623SM   C5S12958   3.213   0.313  13.131
   9623SM   H5S12959   3.109   0.303  13.098
   9623SM   C6S12960   3.232   0.356  13.274
   9623SM   H6S12961   3.183   0.455  13.289
   9623SM   H6T12962   3.339   0.369  13.300
   9623SM   C7S12963   3.171   0.256  13.374
   9623SM   H7S12964   3.217   0.156  13.358
   9623SM   H7T12965   3.062   0.246  13.357
   9623SM   C8S12966   3.194   0.294  13.522
   9623SM   H8S12967   3.303   0.306  13.539
   9623SM   H8T12968   3.159   0.211  13.586
   9623SM   C9S12969   3.122   0.423  13.564
   9623SM   H9S12970   3.012   0.411  13.549
   9623SM   H9T12971   3.156   0.507  13.499
   9623SM  C10S12972   3.148   0.464  13.710
   9623SM  H10S12973   3.105   0.565  13.727
   9623SM  H10T12974   3.258   0.471  13.727
   9623SM  C11S12975   3.087   0.369  13.814
   9623SM  H11S12976   3.134   0.268  13.805
   9623SM  H11T12977   2.978   0.357  13.792
   9623SM  C12S12978   3.104   0.419  13.958
   9623SM  H12S12979   3.064   0.523  13.964
   9623SM  H12T12980   3.212   0.424  13.983
   9623SM  C13S12981   3.030   0.332  14.060
   9623SM  H13S12982   3.079   0.232  14.064
   9623SM  H13T12983   2.926   0.317  14.027
   9623SM  C14S12984   3.029   0.393  14.201
   9623SM  H14S12985   2.978   0.491  14.196
   9623SM  H14T12986   3.133   0.410  14.235
   9623SM  C15S12987   2.956   0.303  14.303
   9623SM  H15S12988   3.012   0.208  14.313
   9623SM  H15T12989   2.855   0.279  14.264
   9623SM  C16S12990   2.942   0.371  14.440
   9623SM  H16S12991   2.886   0.466  14.426
   9623SM  H16T12992   3.042   0.396  14.480
   9623SM  C17S12993   2.867   0.284  14.543
   9623SM  H17S12994   2.770   0.252  14.500
   9623SM  H17T12995   2.844   0.348  14.632
   9623SM  C18S12996   2.945   0.162  14.591
   9623SM  H18S12997   2.887   0.104  14.666
   9623SM  H18T12998   3.041   0.193  14.638
   9623SM  H18U12999   2.969   0.094  14.506
   9623SM   C1F13000   3.337   9.096  12.991
   9623SM    OF13001   3.421   9.049  12.917
   9623SM   C2F13002   3.280   9.018  13.107
   9623SM   H2F13003   3.171   9.007  13.092
   9623SM   H2G13004   3.298   9.075  13.200
   9623SM   C3F13005   3.345   8.878  13.118
   9623SM   H3F13006   3.455   8.888  13.131
   9623SM   H3G13007   3.328   8.823  13.023
   9623SM   C4F13008   3.289   8.793  13.233
   9623SM   H4F13009   3.324   8.689  13.221
   9623SM   H4G13010   3.178   8.793  13.228
   9623SM   C5F13011   3.334   8.840  13.373
   9623SM   H5F13012   3.306   8.947  13.387
   9623SM   H5G13013   3.444   8.833  13.380
   9623SM   C6F13014   3.269   8.758  13.485
   9623SM   H6F13015   3.297   8.651  13.473
   9623SM   H6G13016   3.159   8.765  13.475
   9623SM   C7F13017   3.310   8.805  13.625
   9623SM   H7F13018   3.301   8.915  13.630
   9623SM   H7G13019   3.417   8.779  13.643
   9623SM   C8F13020   3.222   8.744  13.735
   9623SM   H8F13021   3.231   8.634  13.734
   9623SM   H8G13022   3.116   8.770  13.713
   9623SM   C9F13023   3.256   8.798  13.874
   9623SM   H9F13024   3.263   8.909  13.870
   9623SM   H9G13025   3.357   8.760  13.905
   9623SM  C10F13026   3.152   8.760  13.981
   9623SM  H10F13027   3.154   8.650  13.995
   9623SM  H10G13028   3.051   8.788  13.945
   9623SM  C11F13029   3.179   8.831  14.114
   9623SM  H11F13030   3.161   8.940  14.102
   9623SM  H11G13031   3.286   8.817  14.141
   9623SM  C12F13032   3.093   8.777  14.229
   9623SM  H12F13033   3.114   8.669  14.243
   9623SM  H12G13034   2.986   8.788  14.204
   9623SM  C13F13035   3.124   8.851  14.361
   9623SM  H13F13036   3.097   8.958  14.349
   9623SM  H13G13037   3.233   8.846  14.379
   9623SM  C14F13038   3.051   8.791  14.482
   9623SM  H14F13039   3.073   8.683  14.486
   9623SM  H14G13040   2.941   8.803  14.469
   9623SM  C15F13041   3.095   8.855  14.615
   9623SM  H15F13042   3.206   8.851  14.621
   9623SM  H15G13043   3.054   8.795  14.699
   9623SM  C16F13044   3.048   9.000  14.633
   9623SM  H16F13045   2.937   9.000  14.636
   9623SM  H16G13046   3.078   9.062  14.545
   9623SM  C17F13047   3.102   9.066  14.760
   9623SM  H17F13048   3.096   8.993  14.844
   9623SM  H17G13049   3.038   9.153  14.786
   9623SM  C18F13050   3.247   9.116  14.746
   9623SM  H18F13051   3.248   9.201  14.674
   9623SM  H18G13052   3.309   9.036  14.702
   9623SM  C19F13053   3.312   9.160  14.879
   9623SM  H19F13054   3.414   9.199  14.858
   9623SM  H19G13055   3.323   9.070  14.942
   9623SM  C20F13056   3.233   0.049  14.958
   9623SM  H20F13057   3.277   0.058  15.060
   9623SM  H20G13058   3.128   0.014  14.971
   9623SM  C21F13059   3.232   0.188  14.893
   9623SM  H21F13060   3.214   0.178  14.784
   9623SM  H21G13061   3.333   0.234  14.906
   9623SM  C22F13062   3.125   0.282  14.951
   9623SM  H22F13063   3.025   0.243  14.922
   9623SM  H22G13064   3.136   0.382  14.903
   9623SM  C23F13065   3.130   0.299  15.103
   9623SM  H23F13066   3.230   0.334  15.136
   9623SM  H23G13067   3.108   0.203  15.154
   9623SM  H23H13068   3.054   0.374  15.136
   9723SM     N13069   5.162   9.107  12.209
   9723SM   C1513070   5.013   9.099  12.201
   9723SM  H15A13071   4.978   9.130  12.103
   9723SM  H15B13072   4.969   9.163  12.276
   9723SM  H15C13073   4.978   8.998  12.219
   9723SM   C1413074   5.222   9.020  12.103
   9723SM  H14A13075   5.195   8.917  12.117
   9723SM  H14B13076   5.330   9.026  12.102
   9723SM  H14C13077   5.187   9.050  12.005
   9723SM   C1313078   5.203   0.033  12.182
   9723SM  H13A13079   5.166   0.068  12.087
   9723SM  H13B13080   5.310   0.044  12.183
   9723SM  H13C13081   5.165   0.097  12.261
   9723SM   C1213082   5.210   9.064  12.347
   9723SM  H12A13083   5.315   9.088  12.356
   9723SM  H12B13084   5.203   8.957  12.355
   9723SM   C1113085   5.139   9.126  12.471
   9723SM  H11A13086   5.182   9.082  12.563
   9723SM  H11B13087   5.032   9.096  12.470
   9723SM     P13088   5.274   0.127  12.527
   9723SM   O1313089   5.387   0.032  12.541
   9723SM   O1413090   5.295   0.247  12.445
   9723SM   O1113091   5.230   0.171  12.673
   9723SM   O1213092   5.147   0.051  12.470
   9723SM   C1S13093   5.091   0.185  12.706
   9723SM   H1S13094   5.031   0.099  12.670
   9723SM   H1T13095   5.049   0.277  12.659
   9723SM    NF13096   5.108   0.323  12.910
   9723SM   HNF13097   5.200   0.329  12.946
   9723SM   C2S13098   5.071   0.191  12.860
   9723SM   H2S13099   4.963   0.175  12.881
   9723SM   C3S13100   5.152   0.076  12.928
   9723SM   H3S13101   5.259   0.082  12.899
   9723SM    O313102   5.110   9.160  12.892
   9723SM   HO313103   5.036   9.172  12.832
   9723SM   C4S13104   5.141   0.088  13.078
   9723SM   H4S13105   5.042   0.062  13.118
   9723SM   C5S13106   5.240   0.123  13.162
   9723SM   H5S13107   5.340   0.145  13.122
   9723SM   C6S13108   5.225   0.135  13.312
   9723SM   H6S13109   5.126   0.099  13.346
   9723SM   H6T13110   5.232   0.242  13.341
   9723SM   C7S13111   5.333   0.056  13.390
   9723SM   H7S13112   5.434   0.093  13.363
   9723SM   H7T13113   5.327   9.166  13.361
   9723SM   C8S13114   5.316   0.065  13.543
   9723SM   H8S13115   5.388   9.212  13.591
   9723SM   H8T13116   5.214   0.032  13.571
   9723SM   C9S13117   5.340   0.206  13.601
   9723SM   H9S13118   5.268   0.277  13.555
   9723SM   H9T13119   5.443   0.239  13.574
   9723SM  C10S13120   5.324   0.213  13.754
   9723SM  H10S13121   5.398   0.146  13.803
   9723SM  H10T13122   5.222   0.176  13.780
   9723SM  C11S13123   5.340   0.356  13.808
   9723SM  H11S13124   5.273   0.422  13.749
   9723SM  H11T13125   5.444   0.391  13.790
   9723SM  C12S13126   5.304   0.372  13.956
   9723SM  H12S13127   5.206   0.324  13.976
   9723SM  H12T13128   5.293   0.480  13.978
   9723SM  C13S13129   5.410   0.315  14.052
   9723SM  H13S13130   5.508   0.360  14.027
   9723SM  H13T13131   5.418   0.205  14.039
   9723SM  C14S13132   5.378   0.346  14.199
   9723SM  H14S13133   5.283   0.296  14.228
   9723SM  H14T13134   5.362   0.456  14.210
   9723SM  C15S13135   5.490   0.304  14.296
   9723SM  H15S13136   5.584   0.354  14.265
   9723SM  H15T13137   5.506   0.194  14.288
   9723SM  C16S13138   5.459   0.340  14.442
   9723SM  H16S13139   5.366   0.289  14.473
   9723SM  H16T13140   5.441   0.450  14.449
   9723SM  C17S13141   5.572   0.301  14.538
   9723SM  H17S13142   5.665   0.352  14.507
   9723SM  H17T13143   5.589   0.192  14.531
   9723SM  C18S13144   5.542   0.338  14.684
   9723SM  H18S13145   5.525   0.448  14.694
   9723SM  H18T13146   5.626   0.309  14.750
   9723SM  H18U13147   5.450   0.286  14.719
   9723SM   C1F13148   5.035   0.433  12.894
   9723SM    OF13149   4.939   0.439  12.817
   9723SM   C2F13150   5.077   0.552  12.976
   9723SM   H2F13151   5.016   0.640  12.946
   9723SM   H2G13152   5.184   0.574  12.956
   9723SM   C3F13153   5.055   0.522  13.126
   9723SM   H3F13154   5.115   0.433  13.156
   9723SM   H3G13155   4.948   0.496  13.142
   9723SM   C4F13156   5.093   0.638  13.220
   9723SM   H4F13157   5.027   0.725  13.200
   9723SM   H4G13158   5.197   0.668  13.199
   9723SM   C5F13159   5.082   0.599  13.369
   9723SM   H5F13160   5.131   0.677  13.430
   9723SM   H5G13161   5.137   0.504  13.384
   9723SM   C6F13162   4.937   0.582  13.418
   9723SM   H6F13163   4.879   0.526  13.342
   9723SM   H6G13164   4.890   0.681  13.430
   9723SM   C7F13165   4.926   0.502  13.550
   9723SM   H7F13166   4.973   0.403  13.536
   9723SM   H7G13167   4.818   0.486  13.571
   9723SM   C8F13168   4.990   0.572  13.671
   9723SM   H8F13169   4.937   0.667  13.690
   9723SM   H8G13170   5.096   0.596  13.647
   9723SM   C9F13171   4.988   0.486  13.799
   9723SM   H9F13172   5.044   0.540  13.878
   9723SM   H9G13173   5.042   0.391  13.778
   9723SM  C10F13174   4.848   0.452  13.851
   9723SM  H10F13175   4.791   0.401  13.771
   9723SM  H10G13176   4.793   0.545  13.876
   9723SM  C11F13177   4.850   0.358  13.973
   9723SM  H11F13178   4.914   0.270  13.951
   9723SM  H11G13179   4.747   0.321  13.991
   9723SM  C12F13180   4.899   0.426  14.102
   9723SM  H12F13181   4.831   0.511  14.126
   9723SM  H12G13182   5.001   0.467  14.088
   9723SM  C13F13183   4.901   0.328  14.221
   9723SM  H13F13184   4.976   0.249  14.202
   9723SM  H13G13185   4.802   0.279  14.229
   9723SM  C14F13186   4.932   0.398  14.354
   9723SM  H14F13187   4.855   0.476  14.371
   9723SM  H14G13188   5.030   0.450  14.348
   9723SM  C15F13189   4.932   0.303  14.475
   9723SM  H15F13190   4.840   0.241  14.474
   9723SM  H15G13191   4.931   0.364  14.568
   9723SM  C16F13192   5.056   0.212  14.482
   9723SM  H16F13193   5.146   0.277  14.482
   9723SM  H16G13194   5.061   0.148  14.391
   9723SM  C17F13195   5.058   0.123  14.607
   9723SM  H17F13196   4.974   0.051  14.602
   9723SM  H17G13197   5.043   0.187  14.697
   9723SM  C18F13198   5.190   0.046  14.622
   9723SM  H18F13199   5.273   0.119  14.637
   9723SM  H18G13200   5.211   9.209  14.527
   9723SM  C19F13201   5.192   9.160  14.737
   9723SM  H19F13202   5.292   9.112  14.736
   9723SM  H19G13203   5.117   9.081  14.717
   9723SM  C20F13204   5.168   0.003  14.877
   9723SM  H20F13205   5.199   0.110  14.878
   9723SM  H20G13206   5.234   9.166  14.949
   9723SM  C21F13207   5.024   9.204  14.927
   9723SM  H21F13208   4.996   9.097  14.920
   9723SM  H21G13209   4.955   0.044  14.860
   9723SM  C22F13210   5.003   0.034  15.072
   9723SM  H22F13211   5.075   9.197  15.137
   9723SM  H22G13212   4.901   0.004  15.104
   9723SM  C23F13213   5.018   0.185  15.092
   9723SM  H23F13214   5.120   0.219  15.064
   9723SM  H23G13215   5.001   0.212  15.199
   9723SM  H23H13216   4.944   0.240  15.030
   9823SM     N13217   7.944   8.913  12.260
   9823SM   C1513218   7.948   9.063  12.270
   9823SM  H15A13219   7.889   9.097  12.354
   9823SM  H15B13220   7.909   9.109  12.180
   9823SM  H15C13221   8.050   9.097  12.285
   9823SM   C1413222   7.802   8.871  12.239
   9823SM  H14A13223   7.762   8.913  12.148
   9823SM  H14B13224   7.739   8.903  12.322
   9823SM  H14C13225   7.796   8.763  12.231
   9823SM   C1313226   8.026   8.866  12.144
   9823SM  H13A13227   7.997   8.914  12.051
   9823SM  H13B13228   8.014   8.759  12.132
   9823SM  H13C13229   8.131   8.883  12.163
   9823SM   C1213230   7.997   8.851  12.388
   9823SM  H12A13231   7.985   8.744  12.381
   9823SM  H12B13232   7.936   8.885  12.470
   9823SM   C1113233   8.146   8.877  12.425
   9823SM  H11A13234   8.162   8.852  12.532
   9823SM  H11B13235   8.167   8.985  12.416
   9823SM     P13236   8.250   8.646  12.355
   9823SM   O1313237   8.129   8.582  12.298
   9823SM   O1413238   8.382   8.605  12.302
   9823SM   O1113239   8.248   8.627  12.514
   9823SM   O1213240   8.236   8.804  12.340
   9823SM   C1S13241   8.363   8.666  12.590
   9823SM   H1S13242   8.407   8.761  12.553
   9823SM   H1T13243   8.442   8.588  12.583
   9823SM    NF13244   8.448   8.737  12.813
   9823SM   HNF13245   8.490   8.678  12.881
   9823SM   C2S13246   8.331   8.686  12.742
   9823SM   H2S13247   8.250   8.763  12.749
   9823SM   C3S13248   8.277   8.554  12.806
   9823SM   H3S13249   8.358   8.478  12.800
   9823SM    O313250   8.164   8.499  12.739
   9823SM   HO313251   8.167   8.539  12.652
   9823SM   C4S13252   8.241   8.577  12.951
   9823SM   H4S13253   8.165   8.655  12.966
   9823SM   C5S13254   8.289   8.511  13.059
   9823SM   H5S13255   8.361   8.429  13.046
   9823SM   C6S13256   8.247   8.539  13.201
   9823SM   H6S13257   8.178   8.459  13.236
   9823SM   H6T13258   8.188   8.634  13.206
   9823SM   C7S13259   8.361   8.550  13.304
   9823SM   H7S13260   8.317   8.594  13.396
   9823SM   H7T13261   8.439   8.621  13.268
   9823SM   C8S13262   8.425   8.415  13.342
   9823SM   H8S13263   8.480   8.376  13.254
   9823SM   H8T13264   8.345   8.343  13.367
   9823SM   C9S13265   8.523   8.423  13.462
   9823SM   H9S13266   8.600   8.500  13.441
   9823SM   H9T13267   8.576   8.326  13.470
   9823SM  C10S13268   8.454   8.451  13.596
   9823SM  H10S13269   8.381   8.369  13.616
   9823SM  H10T13270   8.396   8.546  13.590
   9823SM  C11S13271   8.550   8.461  13.716
   9823SM  H11S13272   8.622   8.543  13.698
   9823SM  H11T13273   8.607   8.366  13.725
   9823SM  C12S13274   8.474   8.488  13.847
   9823SM  H12S13275   8.404   8.404  13.866
   9823SM  H12T13276   8.412   8.580  13.834
   9823SM  C13S13277   8.564   8.507  13.970
   9823SM  H13S13278   8.636   8.589  13.950
   9823SM  H13T13279   8.622   8.414  13.987
   9823SM  C14S13280   8.482   8.542  14.096
   9823SM  H14S13281   8.415   8.457  14.122
   9823SM  H14T13282   8.418   8.629  14.072
   9823SM  C15S13283   8.568   8.577  14.219
   9823SM  H15S13284   8.501   8.620  14.297
   9823SM  H15T13285   8.641   8.656  14.190
   9823SM  C16S13286   8.643   8.458  14.280
   9823SM  H16S13287   8.706   8.411  14.201
   9823SM  H16T13288   8.569   8.382  14.313
   9823SM  C17S13289   8.733   8.495  14.399
   9823SM  H17S13290   8.802   8.577  14.368
   9823SM  H17T13291   8.796   8.407  14.423
   9823SM  C18S13292   8.657   8.536  14.525
   9823SM  H18S13293   8.728   8.561  14.607
   9823SM  H18T13294   8.591   8.454  14.559
   9823SM  H18U13295   8.593   8.625  14.505
   9823SM   C1F13296   8.503   8.856  12.786
   9823SM    OF13297   8.439   8.943  12.728
   9823SM   C2F13298   8.646   8.872  12.829
   9823SM   H2F13299   8.708   8.815  12.757
   9823SM   H2G13300   8.659   8.827  12.930
   9823SM   C3F13301   8.698   9.018  12.832
   9823SM   H3F13302   8.654   9.078  12.750
   9823SM   H3G13303   8.807   9.014  12.812
   9823SM   C4F13304   8.681   9.090  12.967
   9823SM   H4F13305   8.724   9.192  12.956
   9823SM   H4G13306   8.739   9.037  13.045
   9823SM   C5F13307   8.537   9.104  13.018
   9823SM   H5F13308   8.500   9.004  13.052
   9823SM   H5G13309   8.471   9.137  12.934
   9823SM   C6F13310   8.526   9.205  13.133
   9823SM   H6F13311   8.554   0.088  13.092
   9823SM   H6G13312   8.598   9.180  13.213
   9823SM   C7F13313   8.384   9.216  13.192
   9823SM   H7F13314   8.311   9.203  13.110
   9823SM   H7G13315   8.370   0.101  13.234
   9823SM   C8F13316   8.355   9.114  13.304
   9823SM   H8F13317   8.392   9.013  13.273
   9823SM   H8G13318   8.245   9.108  13.316
   9823SM   C9F13319   8.417   9.154  13.439
   9823SM   H9F13320   8.379   0.038  13.466
   9823SM   H9G13321   8.527   9.162  13.428
   9823SM  C10F13322   8.385   9.057  13.555
   9823SM  H10F13323   8.436   9.095  13.646
   9823SM  H10G13324   8.427   8.957  13.532
   9823SM  C11F13325   8.235   9.043  13.584
   9823SM  H11F13326   8.187   8.989  13.500
   9823SM  H11G13327   8.189   9.144  13.591
   9823SM  C12F13328   8.206   8.968  13.715
   9823SM  H12F13329   8.243   9.028  13.801
   9823SM  H12G13330   8.262   8.871  13.715
   9823SM  C13F13331   8.057   8.939  13.733
   9823SM  H13F13332   8.024   8.873  13.650
   9823SM  H13G13333   7.999   9.033  13.724
   9823SM  C14F13334   8.022   8.871  13.866
   9823SM  H14F13335   8.091   8.786  13.885
   9823SM  H14G13336   7.919   8.829  13.857
   9823SM  C15F13337   8.022   8.967  13.986
   9823SM  H15F13338   7.960   9.056  13.959
   9823SM  H15G13339   8.125   9.004  14.006
   9823SM  C16F13340   7.961   8.906  14.114
   9823SM  H16F13341   7.867   8.854  14.085
   9823SM  H16G13342   7.934   8.987  14.184
   9823SM  C17F13343   8.054   8.805  14.185
   9823SM  H17F13344   8.102   8.741  14.109
   9823SM  H17G13345   7.991   8.739  14.249
   9823SM  C18F13346   8.162   8.869  14.274
   9823SM  H18F13347   8.219   8.944  14.215
   9823SM  H18G13348   8.233   8.790  14.305
   9823SM  C19F13349   8.105   8.935  14.401
   9823SM  H19F13350   8.042   8.861  14.454
   9823SM  H19G13351   8.040   9.020  14.372
   9823SM  C20F13352   8.213   8.985  14.497
   9823SM  H20F13353   8.277   9.060  14.444
   9823SM  H20G13354   8.278   8.900  14.526
   9823SM  C21F13355   8.153   9.049  14.623
   9823SM  H21F13356   8.094   8.973  14.677
   9823SM  H21G13357   8.084   9.130  14.591
   9823SM  C22F13358   8.258   9.109  14.718
   9823SM  H22F13359   8.204   9.160  14.801
   9823SM  H22G13360   8.315   9.187  14.664
   9823SM  C23F13361   8.355   9.007  14.778
   9823SM  H23F13362   8.299   8.928  14.833
   9823SM  H23G13363   8.424   9.057  14.850
   9823SM  H23H13364   8.416   8.959  14.699
   9923SM     N13365   0.641   8.573  12.197
   9923SM   C1513366   0.584   8.437  12.223
   9923SM  H15A13367   0.648   8.384  12.293
   9923SM  H15B13368   0.580   8.378  12.132
   9923SM  H15C13369   0.485   8.443  12.265
   9923SM   C1413370   0.781   8.558  12.148
   9923SM  H14A13371   0.824   8.654  12.124
   9923SM  H14B13372   0.788   8.493  12.062
   9923SM  H14C13373   0.842   8.515  12.227
   9923SM   C1313374   0.559   8.643  12.093
   9923SM  H13A13375   0.600   8.740  12.072
   9923SM  H13B13376   0.458   8.656  12.127
   9923SM  H13C13377   0.557   8.587  12.000
   9923SM   C1213378   0.639   8.656  12.325
   9923SM  H12A13379   0.536   8.676  12.352
   9923SM  H12B13380   0.684   8.751  12.305
   9923SM   C1113381   0.711   8.599  12.450
   9923SM  H11A13382   0.673   8.497  12.473
   9923SM  H11B13383   0.684   8.661  12.538
   9923SM     P13384   0.935   8.728  12.446
   9923SM   O1313385   1.078   8.698  12.421
   9923SM   O1413386   0.873   8.830  12.358
   9923SM   O1113387   0.916   8.766  12.599
   9923SM   O1213388   0.853   8.593  12.431
   9923SM   C1S13389   0.939   8.665  12.698
   9923SM   H1S13390   1.048   8.649  12.710
   9923SM   H1T13391   0.895   8.567  12.670
   9923SM    NF13392   0.734   8.707  12.831
   9923SM   HNF13393   0.692   8.796  12.817
   9923SM   C2S13394   0.879   8.704  12.838
   9923SM   H2S13395   0.909   8.624  12.909
   9923SM   C3S13396   0.939   8.839  12.888
   9923SM   H3S13397   0.897   8.921  12.826
   9923SM    O313398   1.081   8.849  12.877
   9923SM   HO313399   1.104   8.784  12.810
   9923SM   C4S13400   0.891   8.861  13.031
   9923SM   H4S13401   0.795   8.915  13.037
   9923SM   C5S13402   0.952   8.824  13.146
   9923SM   H5S13403   1.049   8.773  13.139
   9923SM   C6S13404   0.902   8.847  13.287
   9923SM   H6S13405   0.970   8.917  13.339
   9923SM   H6T13406   0.908   8.751  13.342
   9923SM   C7S13407   0.758   8.901  13.303
   9923SM   H7S13408   0.686   8.832  13.253
   9923SM   H7T13409   0.751   9.000  13.254
   9923SM   C8S13410   0.715   8.918  13.451
   9923SM   H8S13411   0.616   8.969  13.453
   9923SM   H8T13412   0.788   8.984  13.502
   9923SM   C9S13413   0.701   8.785  13.527
   9923SM   H9S13414   0.801   8.737  13.537
   9923SM   H9T13415   0.637   8.717  13.467
   9923SM  C10S13416   0.639   8.799  13.667
   9923SM  H10S13417   0.623   8.697  13.708
   9923SM  H10T13418   0.540   8.849  13.659
   9923SM  C11S13419   0.727   8.877  13.767
   9923SM  H11S13420   0.742   8.981  13.731
   9923SM  H11T13421   0.827   8.829  13.771
   9923SM  C12S13422   0.668   8.880  13.908
   9923SM  H12S13423   0.650   8.776  13.944
   9923SM  H12T13424   0.569   8.932  13.905
   9923SM  C13S13425   0.759   8.953  14.009
   9923SM  H13S13426   0.778   9.056  13.972
   9923SM  H13T13427   0.856   8.900  14.014
   9923SM  C14S13428   0.698   8.961  14.150
   9923SM  H14S13429   0.671   8.859  14.183
   9923SM  H14T13430   0.605   9.021  14.145
   9923SM  C15S13431   0.794   9.023  14.252
   9923SM  H15S13432   0.824   9.125  14.219
   9923SM  H15T13433   0.886   8.961  14.258
   9923SM  C16S13434   0.731   9.033  14.392
   9923SM  H16S13435   0.695   8.932  14.422
   9923SM  H16T13436   0.643   9.101  14.389
   9923SM  C17S13437   0.829   9.082  14.499
   9923SM  H17S13438   0.866   9.183  14.472
   9923SM  H17T13439   0.917   9.013  14.499
   9923SM  C18S13440   0.768   9.085  14.640
   9923SM  H18S13441   0.845   9.115  14.715
   9923SM  H18T13442   0.730   8.985  14.668
   9923SM  H18U13443   0.684   9.157  14.644
   9923SM   C1F13444   0.661   8.596  12.815
   9923SM    OF13445   0.713   8.486  12.813
   9923SM   C2F13446   0.513   8.614  12.796
   9923SM   H2F13447   0.466   8.514  12.790
   9923SM   H2G13448   0.496   8.667  12.700
   9923SM   C3F13449   0.448   8.694  12.911
   9923SM   H3F13450   0.340   8.708  12.886
   9923SM   H3G13451   0.492   8.796  12.919
   9923SM   C4F13452   0.457   8.624  13.048
   9923SM   H4F13453   0.563   8.613  13.078
   9923SM   H4G13454   0.414   8.522  13.038
   9923SM   C5F13455   0.381   8.699  13.158
   9923SM   H5F13456   0.277   8.719  13.122
   9923SM   H5G13457   0.430   8.796  13.177
   9923SM   C6F13458   0.372   8.619  13.289
   9923SM   H6F13459   0.475   8.596  13.325
   9923SM   H6G13460   0.322   8.522  13.267
   9923SM   C7F13461   0.294   8.692  13.398
   9923SM   H7F13462   0.197   8.726  13.355
   9923SM   H7G13463   0.351   8.781  13.431
   9923SM   C8F13464   0.263   8.603  13.519
   9923SM   H8F13465   0.358   8.564  13.561
   9923SM   H8G13466   0.204   8.515  13.485
   9923SM   C9F13467   0.184   8.676  13.629
   9923SM   H9F13468   0.098   8.728  13.582
   9923SM   H9G13469   0.249   8.754  13.674
   9923SM  C10F13470   0.130   8.583  13.738
   9923SM  H10F13471   0.055   8.515  13.692
   9923SM  H10G13472   0.076   8.645  13.814
   9923SM  C11F13473   0.235   8.497  13.810
   9923SM  H11F13474   0.281   8.426  13.738
   9923SM  H11G13475   0.183   8.437  13.888
   9923SM  C12F13476   0.346   8.580  13.877
   9923SM  H12F13477   0.301   8.656  13.943
   9923SM  H12G13478   0.403   8.633  13.798
   9923SM  C13F13479   0.445   8.495  13.958
   9923SM  H13F13480   0.531   8.560  13.985
   9923SM  H13G13481   0.485   8.412  13.896
   9923SM  C14F13482   0.384   8.438  14.087
   9923SM  H14F13483   0.303   8.366  14.060
   9923SM  H14G13484   0.337   8.520  14.144
   9923SM  C15F13485   0.485   8.366  14.178
   9923SM  H15F13486   0.524   8.277  14.124
   9923SM  H15G13487   0.431   8.329  14.268
   9923SM  C16F13488   0.605   8.451  14.223
   9923SM  H16F13489   0.671   8.468  14.135
   9923SM  H16G13490   0.664   8.392  14.297
   9923SM  C17F13491   0.570   8.587  14.284
   9923SM  H17F13492   0.510   8.647  14.212
   9923SM  H17G13493   0.664   8.643  14.301
   9923SM  C18F13494   0.494   8.578  14.418
   9923SM  H18F13495   0.559   8.525  14.491
   9923SM  H18G13496   0.401   8.520  14.406
   9923SM  C19F13497   0.460   8.718  14.472
   9923SM  H19F13498   0.381   8.764  14.408
   9923SM  H19G13499   0.551   8.781  14.464
   9923SM  C20F13500   0.415   8.718  14.619
   9923SM  H20F13501   0.496   8.673  14.680
   9923SM  H20G13502   0.324   8.656  14.631
   9923SM  C21F13503   0.387   8.861  14.669
   9923SM  H21F13504   0.296   8.899  14.618
   9923SM  H21G13505   0.471   8.927  14.640
   9923SM  C22F13506   0.367   8.871  14.821
   9923SM  H22F13507   0.290   8.798  14.853
   9923SM  H22G13508   0.328   8.973  14.844
   9923SM  C23F13509   0.496   8.850  14.902
   9923SM  H23F13510   0.478   8.868  15.010
   9923SM  H23G13511   0.575   8.919  14.868
   9923SM  H23H13512   0.533   8.746  14.890
  10023SM     N13513   0.277   0.578  12.263
  10023SM   C1513514   0.396   0.579  12.172
  10023SM  H15A13515   0.469   0.653  12.203
  10023SM  H15B13516   0.369   0.599  12.070
  10023SM  H15C13517   0.445   0.483  12.177
  10023SM   C1413518   0.204   0.709  12.254
  10023SM  H14A13519   0.269   0.791  12.279
  10023SM  H14B13520   0.121   0.712  12.324
  10023SM  H14C13521   0.164   0.725  12.155
  10023SM   C1313522   0.185   0.467  12.221
  10023SM  H13A13523   0.237   0.373  12.233
  10023SM  H13B13524   0.152   0.477  12.119
  10023SM  H13C13525   0.099   0.461  12.286
  10023SM   C1213526   0.320   0.553  12.407
  10023SM  H12A13527   0.232   0.532  12.465
  10023SM  H12B13528   0.363   0.644  12.447
  10023SM   C1113529   0.420   0.437  12.433
  10023SM  H11A13530   0.448   0.438  12.540
  10023SM  H11B13531   0.515   0.456  12.377
  10023SM     P13532   0.267   0.231  12.484
  10023SM   O1313533   0.139   0.305  12.489
  10023SM   O1413534   0.264   0.090  12.440
  10023SM   O1113535   0.338   0.239  12.626
  10023SM   O1213536   0.368   0.311  12.392
  10023SM   C1S13537   0.463   0.171  12.645
  10023SM   H1S13538   0.545   0.226  12.594
  10023SM   H1T13539   0.462   0.069  12.601
  10023SM    NF13540   0.393   0.079  12.863
  10023SM   HNF13541   0.328   0.131  12.918
  10023SM   C2S13542   0.496   0.157  12.796
  10023SM   H2S13543   0.593   0.103  12.806
  10023SM   C3S13544   0.514   0.299  12.858
  10023SM   H3S13545   0.418   0.355  12.849
  10023SM    O313546   0.613   0.379  12.793
  10023SM   HO313547   0.645   0.326  12.720
  10023SM   C4S13548   0.551   0.287  13.004
  10023SM   H4S13549   0.653   0.252  13.023
  10023SM   C5S13550   0.471   0.320  13.108
  10023SM   H5S13551   0.371   0.361  13.089
  10023SM   C6S13552   0.509   0.306  13.253
  10023SM   H6S13553   0.499   0.403  13.305
  10023SM   H6T13554   0.615   0.273  13.264
  10023SM   C7S13555   0.417   0.203  13.321
  10023SM   H7S13556   0.424   0.105  13.269
  10023SM   H7T13557   0.312   0.238  13.314
  10023SM   C8S13558   0.449   0.180  13.470
  10023SM   H8S13559   0.368   0.118  13.514
  10023SM   H8T13560   0.449   0.278  13.523
  10023SM   C9S13561   0.582   0.108  13.494
  10023SM   H9S13562   0.667   0.177  13.473
  10023SM   H9T13563   0.591   0.023  13.423
  10023SM  C10S13564   0.598   0.053  13.637
  10023SM  H10S13565   0.696   0.002  13.644
  10023SM  H10T13566   0.518   9.194  13.656
  10023SM  C11S13567   0.592   0.162  13.745
  10023SM  H11S13568   0.495   0.216  13.739
  10023SM  H11T13569   0.673   0.235  13.725
  10023SM  C12S13570   0.608   0.105  13.887
  10023SM  H12S13571   0.702   0.047  13.891
  10023SM  H12T13572   0.524   0.035  13.908
  10023SM  C13S13573   0.611   0.216  13.992
  10023SM  H13S13574   0.516   0.274  13.987
  10023SM  H13T13575   0.694   0.286  13.969
  10023SM  C14S13576   0.631   0.162  14.135
  10023SM  H14S13577   0.722   0.099  14.138
  10023SM  H14T13578   0.544   0.099  14.162
  10023SM  C15S13579   0.645   0.275  14.238
  10023SM  H15S13580   0.561   0.347  14.225
  10023SM  H15T13581   0.739   0.331  14.218
  10023SM  C16S13582   0.645   0.225  14.382
  10023SM  H16S13583   0.726   0.150  14.396
  10023SM  H16T13584   0.549   0.173  14.402
  10023SM  C17S13585   0.663   0.338  14.484
  10023SM  H17S13586   0.590   0.419  14.460
  10023SM  H17T13587   0.765   0.381  14.472
  10023SM  C18S13588   0.643   0.294  14.629
  10023SM  H18S13589   0.540   0.254  14.644
  10023SM  H18T13590   0.658   0.379  14.698
  10023SM  H18U13591   0.716   0.214  14.655
  10023SM   C1F13592   0.367   9.168  12.833
  10023SM    OF13593   0.440   9.103  12.759
  10023SM   C2F13594   0.243   9.107  12.893
  10023SM   H2F13595   0.230   9.146  12.996
  10023SM   H2G13596   0.260   8.997  12.899
  10023SM   C3F13597   0.116   9.132  12.808
  10023SM   H3F13598   0.033   9.071  12.849
  10023SM   H3G13599   0.135   9.096  12.704
  10023SM   C4F13600   0.070   0.063  12.800
  10023SM   H4F13601   9.206   0.071  12.724
  10023SM   H4G13602   0.153   0.126  12.763
  10023SM   C5F13603   0.017   0.119  12.932
  10023SM   H5F13604   0.086   0.092  13.015
  10023SM   H5G13605   9.135   0.073  12.953
  10023SM   C6F13606   0.002   0.272  12.930
  10023SM   H6F13607   9.169   0.302  12.835
  10023SM   H6G13608   0.104   0.317  12.928
  10023SM   C7F13609   9.139   0.329  13.048
  10023SM   H7F13610   9.032   0.302  13.035
  10023SM   H7G13611   9.144   0.440  13.045
  10023SM   C8F13612   9.185   0.280  13.186
  10023SM   H8F13613   0.076   0.302  13.200
  10023SM   H8G13614   9.171   0.170  13.190
  10023SM   C9F13615   9.103   0.342  13.301
  10023SM   H9F13616   9.100   0.271  13.386
  10023SM   H9G13617   8.999   0.357  13.267
  10023SM  C10F13618   9.159   0.476  13.354
  10023SM  H10F13619   9.081   0.521  13.419
  10023SM  H10G13620   9.177   0.546  13.269
  10023SM  C11F13621   0.070   0.459  13.438
  10023SM  H11F13622   0.156   0.433  13.373
  10023SM  H11G13623   0.055   0.374  13.508
  10023SM  C12F13624   0.104   0.583  13.522
  10023SM  H12F13625   0.013   0.614  13.577
  10023SM  H12G13626   0.134   0.667  13.456
  10023SM  C13F13627   0.215   0.556  13.625
  10023SM  H13F13628   0.312   0.542  13.572
  10023SM  H13G13629   0.191   0.460  13.676
  10023SM  C14F13630   0.227   0.668  13.729
  10023SM  H14F13631   0.127   0.687  13.772
  10023SM  H14G13632   0.260   0.761  13.679
  10023SM  C15F13633   0.324   0.636  13.845
  10023SM  H15F13634   0.319   0.720  13.918
  10023SM  H15G13635   0.428   0.631  13.807
  10023SM  C16F13636   0.291   0.505  13.918
  10023SM  H16F13637   0.329   0.420  13.857
  10023SM  H16G13638   0.180   0.493  13.924
  10023SM  C17F13639   0.347   0.494  14.060
  10023SM  H17F13640   0.456   0.516  14.060
  10023SM  H17G13641   0.335   0.388  14.093
  10023SM  C18F13642   0.275   0.583  14.162
  10023SM  H18F13643   0.166   0.580  14.139
  10023SM  H18G13644   0.308   0.689  14.150
  10023SM  C19F13645   0.294   0.538  14.307
  10023SM  H19F13646   0.401   0.544  14.334
  10023SM  H19G13647   0.263   0.431  14.315
  10023SM  C20F13648   0.209   0.620  14.406
  10023SM  H20F13649   0.107   0.631  14.364
  10023SM  H20G13650   0.252   0.722  14.415
  10023SM  C21F13651   0.197   0.556  14.545
  10023SM  H21F13652   0.150   0.456  14.535
  10023SM  H21G13653   0.128   0.619  14.606
  10023SM  C22F13654   0.330   0.542  14.619
  10023SM  H22F13655   0.378   0.642  14.625
  10023SM  H22G13656   0.397   0.476  14.560
  10023SM  C23F13657   0.315   0.484  14.760
  10023SM  H23F13658   0.414   0.476  14.810
  10023SM  H23G13659   0.269   0.383  14.756
  10023SM  H23H13660   0.250   0.550  14.823
  101CHL1    C313661   4.728   5.562  16.766
  101CHL1    H313662   4.836   5.550  16.746
  101CHL1    O313663   4.711   5.593  16.903
  101CHL1   H3'13664   4.616   5.605  16.915
  101CHL1    C413665   4.672   5.678  16.680
  101CHL1   H4A13666   4.566   5.695  16.708
  101CHL1   H4B13667   4.728   5.770  16.708
  101CHL1    C513668   4.682   5.648  16.532
  101CHL1    C613669   4.748   5.730  16.449
  101CHL1    H613670   4.794   5.822  16.488
  101CHL1    C713671   4.758   5.709  16.300
  101CHL1   H7A13672   4.740   5.804  16.246
  101CHL1   H7B13673   4.861   5.676  16.275
  101CHL1    C813674   4.658   5.603  16.248
  101CHL1    H813675   4.557   5.649  16.247
  101CHL1   C1413676   4.695   5.561  16.106
  101CHL1   H1413677   4.795   5.513  16.114
  101CHL1   C1513678   4.713   5.672  16.001
  101CHL1  H15A13679   4.628   5.743  16.008
  101CHL1  H15B13680   4.808   5.728  16.015
  101CHL1   C1613681   4.708   5.597  15.868
  101CHL1  H16A13682   4.635   5.646  15.801
  101CHL1  H16B13683   4.808   5.596  15.818
  101CHL1   C1713684   4.664   5.450  15.900
  101CHL1   H1713685   4.758   5.390  15.909
  101CHL1   C1313686   4.604   5.457  16.042
  101CHL1   C1813687   4.459   5.510  16.032
  101CHL1  H18A13688   4.392   5.433  15.988
  101CHL1  H18B13689   4.417   5.536  16.131
  101CHL1  H18C13690   4.453   5.601  15.967
  101CHL1   C1213691   4.613   5.330  16.131
  101CHL1  H12A13692   4.546   5.250  16.093
  101CHL1  H12B13693   4.717   5.292  16.127
  101CHL1   C1113694   4.576   5.361  16.277
  101CHL1  H11A13695   4.467   5.383  16.279
  101CHL1  H11B13696   4.591   5.269  16.338
  101CHL1    C913697   4.656   5.479  16.339
  101CHL1    H913698   4.761   5.444  16.342
  101CHL1   C1013699   4.618   5.515  16.487
  101CHL1   C1913700   4.464   5.528  16.497
  101CHL1  H19A13701   4.415   5.430  16.480
  101CHL1  H19B13702   4.432   5.563  16.597
  101CHL1  H19C13703   4.426   5.600  16.421
  101CHL1    C113704   4.667   5.401  16.581
  101CHL1   H1A13705   4.610   5.308  16.559
  101CHL1   H1B13706   4.774   5.380  16.559
  101CHL1    C213707   4.655   5.432  16.732
  101CHL1   H2A13708   4.699   5.348  16.791
  101CHL1   H2B13709   4.548   5.440  16.759
  101CHL1   C2013710   4.582   5.388  15.785
  101CHL1   H2013711   4.489   5.447  15.771
  101CHL1   C2113712   4.543   5.242  15.818
  101CHL1  H21A13713   4.469   5.239  15.901
  101CHL1  H21B13714   4.633   5.184  15.847
  101CHL1  H21C13715   4.496   5.193  15.730
  101CHL1   C2213716   4.658   5.391  15.649
  101CHL1  H22A13717   4.710   5.489  15.636
  101CHL1  H22B13718   4.736   5.312  15.649
  101CHL1   C2313719   4.566   5.374  15.526
  101CHL1  H23A13720   4.506   5.282  15.538
  101CHL1  H23B13721   4.495   5.460  15.521
  101CHL1   C2413722   4.643   5.362  15.392
  101CHL1  H24A13723   4.709   5.273  15.398
  101CHL1  H24B13724   4.569   5.344  15.311
  101CHL1   C2513725   4.729   5.484  15.352
  101CHL1   H2513726   4.802   5.504  15.434
  101CHL1   C2613727   4.809   5.453  15.225
  101CHL1  H26A13728   4.875   5.539  15.198
  101CHL1  H26B13729   4.873   5.364  15.240
  101CHL1  H26C13730   4.740   5.434  15.140
  101CHL1   C2713731   4.645   5.611  15.332
  101CHL1  H27A13732   4.593   5.640  15.426
  101CHL1  H27B13733   4.710   5.696  15.301
  101CHL1  H27C13734   4.568   5.595  15.253
  102CHL1    C313735   3.195   5.521  16.736
  102CHL1    H313736   3.211   5.631  16.730
  102CHL1    O313737   3.212   5.479  16.871
  102CHL1   H3'13738   3.132   5.508  16.916
  102CHL1    C413739   3.053   5.486  16.691
  102CHL1   H4A13740   3.035   5.378  16.710
  102CHL1   H4B13741   2.981   5.541  16.755
  102CHL1    C513742   3.030   5.516  16.544
  102CHL1    C613743   2.930   5.596  16.503
  102CHL1    H613744   2.862   5.639  16.577
  102CHL1    C713745   2.899   5.625  16.359
  102CHL1   H7A13746   2.790   5.618  16.341
  102CHL1   H7B13747   2.931   5.728  16.333
  102CHL1    C813748   2.971   5.525  16.263
  102CHL1    H813749   2.919   5.428  16.272
  102CHL1   C1413750   2.960   5.574  16.119
  102CHL1   H1413751   3.014   5.671  16.115
  102CHL1   C1513752   2.819   5.602  16.064
  102CHL1  H15A13753   2.751   5.520  16.094
  102CHL1  H15B13754   2.778   5.699  16.101
  102CHL1   C1613755   2.838   5.602  15.912
  102CHL1  H16A13756   2.765   5.532  15.867
  102CHL1  H16B13757   2.823   5.703  15.868
  102CHL1   C1713758   2.984   5.553  15.884
  102CHL1   H1713759   3.047   5.644  15.873
  102CHL1   C1313760   3.029   5.484  16.016
  102CHL1   C1813761   2.969   5.341  16.019
  102CHL1  H18A13762   2.979   5.294  16.119
  102CHL1  H18B13763   2.861   5.341  15.992
  102CHL1  H18C13764   3.022   5.276  15.946
  102CHL1   C1213765   3.179   5.485  16.050
  102CHL1  H12A13766   3.237   5.420  15.981
  102CHL1  H12B13767   3.218   5.588  16.041
  102CHL1   C1113768   3.203   5.434  16.194
  102CHL1  H11A13769   3.179   5.326  16.195
  102CHL1  H11B13770   3.311   5.445  16.218
  102CHL1    C913771   3.118   5.509  16.303
  102CHL1    H913772   3.159   5.612  16.304
  102CHL1   C1013773   3.133   5.453  16.447
  102CHL1   C1913774   3.110   5.300  16.446
  102CHL1  H19A13775   3.190   5.248  16.389
  102CHL1  H19B13776   3.111   5.256  16.548
  102CHL1  H19C13777   3.012   5.275  16.399
  102CHL1    C113778   3.277   5.484  16.500
  102CHL1   H1A13779   3.350   5.427  16.439
  102CHL1   H1B13780   3.297   5.592  16.485
  102CHL1    C213781   3.299   5.451  16.648
  102CHL1   H2A13782   3.402   5.482  16.679
  102CHL1   H2B13783   3.291   5.341  16.663
  102CHL1   C2013784   2.995   5.474  15.751
  102CHL1   H2013785   2.940   5.378  15.763
  102CHL1   C2113786   3.143   5.441  15.720
  102CHL1  H21A13787   3.183   5.366  15.791
  102CHL1  H21B13788   3.205   5.533  15.724
  102CHL1  H21C13789   3.152   5.397  15.618
  102CHL1   C2213790   2.930   5.546  15.630
  102CHL1  H22A13791   2.831   5.587  15.659
  102CHL1  H22B13792   2.994   5.631  15.598
  102CHL1   C2313793   2.904   5.451  15.511
  102CHL1  H23A13794   3.000   5.422  15.463
  102CHL1  H23B13795   2.857   5.359  15.551
  102CHL1   C2413796   2.811   5.513  15.405
  102CHL1  H24A13797   2.716   5.544  15.453
  102CHL1  H24B13798   2.859   5.605  15.365
  102CHL1   C2513799   2.778   5.419  15.287
  102CHL1   H2513800   2.873   5.387  15.241
  102CHL1   C2613801   2.702   5.293  15.333
  102CHL1  H26A13802   2.674   5.231  15.244
  102CHL1  H26B13803   2.765   5.231  15.400
  102CHL1  H26C13804   2.609   5.321  15.387
  102CHL1   C2713805   2.695   5.493  15.181
  102CHL1  H27A13806   2.677   5.427  15.093
  102CHL1  H27B13807   2.597   5.525  15.222
  102CHL1  H27C13808   2.750   5.584  15.145
  103CHL1    C313809   3.086   3.467  16.729
  103CHL1    H313810   3.179   3.526  16.710
  103CHL1    O313811   3.059   3.468  16.868
  103CHL1   H3'13812   3.028   3.557  16.886
  103CHL1    C413813   2.969   3.533  16.653
  103CHL1   H4A13814   2.875   3.479  16.679
  103CHL1   H4B13815   2.957   3.637  16.690
  103CHL1    C513816   2.989   3.528  16.503
  103CHL1    C613817   2.987   3.640  16.428
  103CHL1    H613818   2.966   3.737  16.476
  103CHL1    C713819   3.001   3.641  16.279
  103CHL1   H7A13820   2.925   3.708  16.232
  103CHL1   H7B13821   3.101   3.683  16.252
  103CHL1    C813822   2.989   3.500  16.215
  103CHL1    H813823   2.881   3.472  16.216
  103CHL1   C1413824   3.039   3.502  16.072
  103CHL1   H1413825   3.147   3.528  16.078
  103CHL1   C1513826   2.977   3.605  15.976
  103CHL1  H15A13827   2.866   3.604  15.988
  103CHL1  H15B13828   3.015   3.708  15.995
  103CHL1   C1613829   3.016   3.553  15.837
  103CHL1  H16A13830   2.924   3.545  15.775
  103CHL1  H16B13831   3.088   3.620  15.786
  103CHL1   C1713832   3.080   3.411  15.857
  103CHL1   H1713833   3.189   3.428  15.865
  103CHL1   C1313834   3.034   3.367  15.998
  103CHL1   C1813835   2.888   3.315  15.988
  103CHL1  H18A13836   2.887   3.216  15.938
  103CHL1  H18B13837   2.842   3.303  16.089
  103CHL1  H18C13838   2.824   3.384  15.929
  103CHL1   C1213839   3.125   3.270  16.077
  103CHL1  H12A13840   3.123   3.168  16.033
  103CHL1  H12B13841   3.229   3.308  16.074
  103CHL1   C1113842   3.080   3.259  16.224
  103CHL1  H11A13843   2.982   3.207  16.225
  103CHL1  H11B13844   3.152   3.194  16.279
  103CHL1    C913845   3.068   3.397  16.297
  103CHL1    H913846   3.172   3.437  16.300
  103CHL1   C1013847   3.020   3.389  16.445
  103CHL1   C1913848   2.890   3.305  16.451
  103CHL1  H19A13849   2.813   3.346  16.382
  103CHL1  H19B13850   2.909   3.200  16.422
  103CHL1  H19C13851   2.847   3.303  16.553
  103CHL1    C113852   3.131   3.319  16.530
  103CHL1   H1A13853   3.139   3.213  16.498
  103CHL1   H1B13854   3.228   3.369  16.508
  103CHL1    C213855   3.107   3.323  16.682
  103CHL1   H2A13856   3.193   3.278  16.735
  103CHL1   H2B13857   3.017   3.263  16.706
  103CHL1   C2013858   3.057   3.319  15.736
  103CHL1   H2013859   2.948   3.298  15.727
  103CHL1   C2113860   3.130   3.184  15.757
  103CHL1  H21A13861   3.124   3.121  15.666
  103CHL1  H21B13862   3.083   3.126  15.839
  103CHL1  H21C13863   3.238   3.201  15.780
  103CHL1   C2213864   3.102   3.386  15.604
  103CHL1  H22A13865   3.048   3.482  15.591
  103CHL1  H22B13866   3.210   3.409  15.609
  103CHL1   C2313867   3.075   3.304  15.476
  103CHL1  H23A13868   3.140   3.214  15.476
  103CHL1  H23B13869   2.969   3.270  15.476
  103CHL1   C2413870   3.101   3.385  15.348
  103CHL1  H24A13871   3.036   3.475  15.350
  103CHL1  H24B13872   3.206   3.420  15.348
  103CHL1   C2513873   3.074   3.308  15.217
  103CHL1   H2513874   2.971   3.268  15.222
  103CHL1   C2613875   3.082   3.404  15.097
  103CHL1  H26A13876   3.010   3.487  15.109
  103CHL1  H26B13877   3.184   3.446  15.088
  103CHL1  H26C13878   3.058   3.350  15.003
  103CHL1   C2713879   3.171   3.190  15.198
  103CHL1  H27A13880   3.150   3.139  15.102
  103CHL1  H27B13881   3.276   3.227  15.196
  103CHL1  H27C13882   3.161   3.116  15.280
  104CHL1    C313883   7.476   4.958  16.772
  104CHL1    H313884   7.585   4.965  16.789
  104CHL1    O313885   7.412   4.945  16.898
  104CHL1   H3'13886   7.462   4.874  16.939
  104CHL1    C413887   7.428   5.084  16.699
  104CHL1   H4A13888   7.318   5.076  16.682
  104CHL1   H4B13889   7.443   5.172  16.766
  104CHL1    C513890   7.501   5.100  16.567
  104CHL1    C613891   7.575   5.209  16.541
  104CHL1    H613892   7.578   5.291  16.615
  104CHL1    C713893   7.652   5.231  16.414
  104CHL1   H7A13894   7.634   5.333  16.374
  104CHL1   H7B13895   7.760   5.224  16.438
  104CHL1    C813896   7.620   5.128  16.303
  104CHL1    H813897   7.526   5.160  16.253
  104CHL1   C1413898   7.734   5.124  16.202
  104CHL1   H1413899   7.822   5.086  16.259
  104CHL1   C1513900   7.782   5.258  16.143
  104CHL1  H15A13901   7.694   5.317  16.109
  104CHL1  H15B13902   7.840   5.318  16.217
  104CHL1   C1613903   7.867   5.215  16.023
  104CHL1  H16A13904   7.831   5.268  15.933
  104CHL1  H16B13905   7.975   5.239  16.039
  104CHL1   C1713906   7.849   5.060  16.008
  104CHL1   H1713907   7.931   5.014  16.068
  104CHL1   C1313908   7.718   5.029  16.084
  104CHL1   C1813909   7.597   5.071  15.996
  104CHL1  H18A13910   7.612   5.172  15.952
  104CHL1  H18B13911   7.584   4.999  15.913
  104CHL1  H18C13912   7.503   5.073  16.055
  104CHL1   C1213913   7.698   4.887  16.140
  104CHL1  H12A13914   7.672   4.816  16.059
  104CHL1  H12B13915   7.792   4.853  16.188
  104CHL1   C1113916   7.584   4.882  16.245
  104CHL1  H11A13917   7.488   4.900  16.192
  104CHL1  H11B13918   7.581   4.779  16.288
  104CHL1    C913919   7.601   4.987  16.359
  104CHL1    H913920   7.698   4.962  16.407
  104CHL1   C1013921   7.495   4.978  16.472
  104CHL1   C1913922   7.353   4.976  16.410
  104CHL1  H19A13923   7.337   5.065  16.345
  104CHL1  H19B13924   7.339   4.884  16.348
  104CHL1  H19C13925   7.274   4.974  16.488
  104CHL1    C113926   7.520   4.845  16.552
  104CHL1   H1A13927   7.492   4.759  16.488
  104CHL1   H1B13928   7.628   4.837  16.573
  104CHL1    C213929   7.446   4.835  16.686
  104CHL1   H2A13930   7.479   4.743  16.739
  104CHL1   H2B13931   7.337   4.827  16.669
  104CHL1   C2013932   7.868   5.010  15.863
  104CHL1   H2013933   7.776   5.034  15.805
  104CHL1   C2113934   7.891   4.858  15.863
  104CHL1  H21A13935   7.983   4.832  15.920
  104CHL1  H21B13936   7.902   4.819  15.759
  104CHL1  H21C13937   7.805   4.803  15.909
  104CHL1   C2213938   7.987   5.081  15.791
  104CHL1  H22A13939   7.972   5.191  15.790
  104CHL1  H22B13940   8.080   5.060  15.850
  104CHL1   C2313941   8.012   5.040  15.645
  104CHL1  H23A13942   8.101   5.097  15.610
  104CHL1  H23B13943   8.038   4.932  15.638
  104CHL1   C2413944   7.895   5.071  15.551
  104CHL1  H24A13945   7.806   5.014  15.584
  104CHL1  H24B13946   7.870   5.179  15.558
  104CHL1   C2513947   7.920   5.037  15.402
  104CHL1   H2513948   7.953   4.930  15.397
  104CHL1   C2613949   7.791   5.051  15.321
  104CHL1  H26A13950   7.711   4.984  15.362
  104CHL1  H26B13951   7.754   5.155  15.325
  104CHL1  H26C13952   7.808   5.023  15.215
  104CHL1   C2713953   8.031   5.124  15.340
  104CHL1  H27A13954   8.004   5.232  15.348
  104CHL1  H27B13955   8.128   5.108  15.392
  104CHL1  H27C13956   8.044   5.099  15.233
  105CHL1    C313957   7.201   3.901  16.735
  105CHL1    H313958   7.271   3.987  16.730
  105CHL1    O313959   7.161   3.882  16.870
  105CHL1   H3'13960   7.240   3.854  16.916
  105CHL1    C413961   7.078   3.930  16.648
  105CHL1   H4A13962   7.004   3.849  16.664
  105CHL1   H4B13963   7.031   4.023  16.686
  105CHL1    C513964   7.113   3.940  16.500
  105CHL1    C613965   7.083   4.050  16.429
  105CHL1    H613966   7.030   4.133  16.477
  105CHL1    C713967   7.110   4.063  16.281
  105CHL1   H7A13968   7.022   4.107  16.230
  105CHL1   H7B13969   7.196   4.132  16.266
  105CHL1    C813970   7.144   3.927  16.215
  105CHL1    H813971   7.049   3.869  16.207
  105CHL1   C1413972   7.200   3.949  16.075
  105CHL1   H1413973   7.294   4.007  16.089
  105CHL1   C1513974   7.115   4.033  15.977
  105CHL1  H15A13975   7.009   4.002  15.983
  105CHL1  H15B13976   7.122   4.142  15.999
  105CHL1   C1613977   7.173   3.998  15.839
  105CHL1  H16A13978   7.091   3.964  15.774
  105CHL1  H16B13979   7.223   4.086  15.792
  105CHL1   C1713980   7.277   3.883  15.861
  105CHL1   H1713981   7.375   3.932  15.876
  105CHL1   C1313982   7.239   3.823  15.999
  105CHL1   C1813983   7.116   3.729  15.980
  105CHL1  H18A13984   7.037   3.778  15.919
  105CHL1  H18B13985   7.147   3.636  15.929
  105CHL1  H18C13986   7.071   3.700  16.077
  105CHL1   C1213987   7.350   3.755  16.081
  105CHL1  H12A13988   7.382   3.659  16.035
  105CHL1  H12B13989   7.438   3.822  16.086
  105CHL1   C1113990   7.303   3.724  16.225
  105CHL1  H11A13991   7.226   3.644  16.218
  105CHL1  H11B13992   7.388   3.684  16.283
  105CHL1    C913993   7.244   3.849  16.300
  105CHL1    H913994   7.330   3.917  16.312
  105CHL1   C1013995   7.190   3.820  16.443
  105CHL1   C1913996   7.093   3.699  16.437
  105CHL1  H19A13997   7.146   3.606  16.409
  105CHL1  H19B13998   7.045   3.679  16.535
  105CHL1  H19C13999   7.012   3.716  16.363
  105CHL1    C114000   7.310   3.787  16.537
  105CHL1   H1A14001   7.357   3.692  16.504
  105CHL1   H1B14002   7.386   3.867  16.526
  105CHL1    C214003   7.273   3.775  16.686
  105CHL1   H2A14004   7.365   3.757  16.746
  105CHL1   H2B14005   7.206   3.687  16.700
  105CHL1   C2014006   7.288   3.790  15.740
  105CHL1   H2014007   7.194   3.732  15.729
  105CHL1   C2114008   7.403   3.689  15.758
  105CHL1  H21A14009   7.422   3.634  15.663
  105CHL1  H21B14010   7.377   3.614  15.836
  105CHL1  H21C14011   7.497   3.741  15.788
  105CHL1   C2214012   7.306   3.865  15.604
  105CHL1  H22A14013   7.314   3.789  15.524
  105CHL1  H22B14014   7.215   3.924  15.584
  105CHL1   C2314015   7.429   3.957  15.595
  105CHL1  H23A14016   7.420   4.041  15.667
  105CHL1  H23B14017   7.520   3.900  15.624
  105CHL1   C2414018   7.453   4.013  15.453
  105CHL1  H24A14019   7.547   4.073  15.453
  105CHL1  H24B14020   7.468   3.928  15.384
  105CHL1   C2514021   7.340   4.102  15.397
  105CHL1   H2514022   7.245   4.045  15.400
  105CHL1   C2614023   7.321   4.231  15.479
  105CHL1  H26A14024   7.292   4.207  15.583
  105CHL1  H26B14025   7.415   4.290  15.481
  105CHL1  H26C14026   7.241   4.294  15.434
  105CHL1   C2714027   7.368   4.138  15.249
  105CHL1  H27A14028   7.285   4.199  15.208
  105CHL1  H27B14029   7.462   4.195  15.241
  105CHL1  H27C14030   7.377   4.045  15.189
  106CHL1    C314031   2.375   2.984  16.722
  106CHL1    H314032   2.423   3.083  16.731
  106CHL1    O314033   2.371   2.921  16.849
  106CHL1   H3'14034   2.461   2.899  16.872
  106CHL1    C414035   2.231   3.000  16.669
  106CHL1   H4A14036   2.182   2.901  16.672
  106CHL1   H4B14037   2.177   3.066  16.740
  106CHL1    C514038   2.227   3.055  16.527
  106CHL1    C614039   2.157   3.166  16.498
  106CHL1    H614040   2.100   3.216  16.577
  106CHL1    C714041   2.144   3.222  16.359
  106CHL1   H7A14042   2.038   3.246  16.338
  106CHL1   H7B14043   2.202   3.317  16.352
  106CHL1    C814044   2.196   3.127  16.249
  106CHL1    H814045   2.117   3.050  16.232
  106CHL1   C1414046   2.220   3.204  16.120
  106CHL1   H1414047   2.304   3.273  16.142
  106CHL1   C1514048   2.107   3.296  16.070
  106CHL1  H15A14049   2.010   3.243  16.075
  106CHL1  H15B14050   2.101   3.390  16.129
  106CHL1   C1614051   2.143   3.321  15.923
  106CHL1  H16A14052   2.055   3.294  15.861
  106CHL1  H16B14053   2.170   3.427  15.905
  106CHL1   C1714054   2.264   3.228  15.889
  106CHL1   H1714055   2.355   3.289  15.905
  106CHL1   C1314056   2.265   3.120  16.000
  106CHL1   C1814057   2.158   3.013  15.965
  106CHL1  H18A14058   2.193   2.952  15.879
  106CHL1  H18B14059   2.140   2.944  16.050
  106CHL1  H18C14060   2.061   3.060  15.938
  106CHL1   C1214061   2.400   3.057  16.040
  106CHL1  H12A14062   2.437   2.989  15.960
  106CHL1  H12B14063   2.474   3.138  16.053
  106CHL1   C1114064   2.389   2.977  16.172
  106CHL1  H11A14065   2.327   2.887  16.150
  106CHL1  H11B14066   2.490   2.942  16.200
  106CHL1    C914067   2.326   3.057  16.290
  106CHL1    H914068   2.397   3.140  16.310
  106CHL1   C1014069   2.313   2.979  16.424
  106CHL1   C1914070   2.243   2.843  16.397
  106CHL1  H19A14071   2.225   2.786  16.490
  106CHL1  H19B14072   2.145   2.858  16.346
  106CHL1  H19C14073   2.307   2.779  16.332
  106CHL1    C114074   2.455   2.956  16.483
  106CHL1   H1A14075   2.511   2.888  16.415
  106CHL1   H1B14076   2.509   3.053  16.485
  106CHL1    C214077   2.457   2.897  16.626
  106CHL1   H2A14078   2.562   2.890  16.662
  106CHL1   H2B14079   2.415   2.794  16.624
  106CHL1   C2014080   2.264   3.186  15.740
  106CHL1   H2014081   2.180   3.116  15.722
  106CHL1   C2114082   2.396   3.114  15.706
  106CHL1  H21A14083   2.400   3.090  15.597
  106CHL1  H21B14084   2.404   3.018  15.761
  106CHL1  H21C14085   2.483   3.178  15.731
  106CHL1   C2214086   2.241   3.308  15.645
  106CHL1  H22A14087   2.145   3.357  15.671
  106CHL1  H22B14088   2.322   3.382  15.660
  106CHL1   C2314089   2.232   3.273  15.495
  106CHL1  H23A14090   2.332   3.242  15.458
  106CHL1  H23B14091   2.162   3.188  15.482
  106CHL1   C2414092   2.183   3.393  15.412
  106CHL1  H24A14093   2.077   3.415  15.437
  106CHL1  H24B14094   2.243   3.482  15.441
  106CHL1   C2514095   2.196   3.374  15.260
  106CHL1   H2514096   2.302   3.350  15.237
  106CHL1   C2614097   2.109   3.259  15.208
  106CHL1  H26A14098   2.141   3.162  15.253
  106CHL1  H26B14099   2.002   3.277  15.234
  106CHL1  H26C14100   2.117   3.251  15.097
  106CHL1   C2714101   2.162   3.505  15.186
  106CHL1  H27A14102   2.173   3.492  15.076
  106CHL1  H27B14103   2.058   3.536  15.208
  106CHL1  H27C14104   2.230   3.587  15.218
  107CHL1    C314105   4.852   7.455  16.709
  107CHL1    H314106   4.862   7.347  16.688
  107CHL1    O314107   4.830   7.473  16.848
  107CHL1   H3'14108   4.815   7.567  16.859
  107CHL1    C414109   4.982   7.528  16.669
  107CHL1   H4A14110   4.976   7.634  16.703
  107CHL1   H4B14111   5.065   7.482  16.727
  107CHL1    C514112   5.007   7.523  16.520
  107CHL1    C614113   5.120   7.472  16.469
  107CHL1    H614114   5.199   7.435  16.536
  107CHL1    C714115   5.152   7.468  16.322
  107CHL1   H7A14116   5.257   7.499  16.304
  107CHL1   H7B14117   5.142   7.364  16.285
  107CHL1    C814118   5.057   7.559  16.239
  107CHL1    H814119   5.087   7.664  16.258
  107CHL1   C1414120   5.072   7.529  16.090
  107CHL1   H1414121   5.039   7.423  16.077
  107CHL1   C1514122   5.213   7.534  16.031
  107CHL1  H15A14123   5.266   7.624  16.068
  107CHL1  H15B14124   5.272   7.444  16.056
  107CHL1   C1614125   5.189   7.547  15.880
  107CHL1  H16A14126   5.244   7.635  15.842
  107CHL1  H16B14127   5.224   7.456  15.825
  107CHL1   C1714128   5.035   7.566  15.859
  107CHL1   H1714129   4.993   7.464  15.842
  107CHL1   C1314130   4.983   7.612  15.998
  107CHL1   C1814131   5.013   7.763  16.014
  107CHL1  H18A14132   4.996   7.797  16.118
  107CHL1  H18B14133   5.118   7.787  15.986
  107CHL1  H18C14134   4.945   7.822  15.948
  107CHL1   C1214135   4.837   7.577  16.035
  107CHL1  H12A14136   4.765   7.635  15.974
  107CHL1  H12B14137   4.820   7.469  16.015
  107CHL1   C1114138   4.809   7.606  16.184
  107CHL1  H11A14139   4.811   7.717  16.196
  107CHL1  H11B14140   4.706   7.572  16.209
  107CHL1    C914141   4.911   7.539  16.282
  107CHL1    H914142   4.893   7.430  16.271
  107CHL1   C1014143   4.889   7.572  16.432
  107CHL1   C1914144   4.878   7.726  16.450
  107CHL1  H19A14145   4.787   7.765  16.400
  107CHL1  H19B14146   4.870   7.755  16.557
  107CHL1  H19C14147   4.967   7.777  16.406
  107CHL1    C114148   4.758   7.504  16.480
  107CHL1   H1A14149   4.671   7.549  16.427
  107CHL1   H1B14150   4.761   7.396  16.451
  107CHL1    C214151   4.733   7.512  16.632
  107CHL1   H2A14152   4.641   7.454  16.658
  107CHL1   H2B14153   4.716   7.618  16.660
  107CHL1   C2014154   5.002   7.650  15.735
  107CHL1   H2014155   5.039   7.754  15.751
  107CHL1   C2114156   4.850   7.655  15.711
  107CHL1  H21A14157   4.808   7.552  15.710
  107CHL1  H21B14158   4.826   7.704  15.614
  107CHL1  H21C14159   4.800   7.715  15.790
  107CHL1   C2214160   5.075   7.599  15.607
  107CHL1  H22A14161   5.183   7.584  15.628
  107CHL1  H22B14162   5.032   7.501  15.577
  107CHL1   C2314163   5.067   7.697  15.488
  107CHL1  H23A14164   4.963   7.703  15.450
  107CHL1  H23B14165   5.096   7.799  15.524
  107CHL1   C2414166   5.162   7.657  15.374
  107CHL1  H24A14167   5.264   7.646  15.415
  107CHL1  H24B14168   5.131   7.559  15.333
  107CHL1   C2514169   5.168   7.760  15.258
  107CHL1   H2514170   5.192   7.859  15.303
  107CHL1   C2614171   5.281   7.723  15.160
  107CHL1  H26A14172   5.288   7.800  15.080
  107CHL1  H26B14173   5.378   7.719  15.213
  107CHL1  H26C14174   5.261   7.625  15.114
  107CHL1   C2714175   5.035   7.772  15.183
  107CHL1  H27A14176   5.043   7.845  15.100
  107CHL1  H27B14177   5.006   7.673  15.140
  107CHL1  H27C14178   4.954   7.806  15.251
  108CHL1    C314179   7.297   2.987  16.768
  108CHL1    H314180   7.208   2.927  16.738
  108CHL1    O314181   7.314   2.976  16.908
  108CHL1   H3'14182   7.238   3.020  16.946
  108CHL1    C414183   7.422   2.932  16.697
  108CHL1   H4A14184   7.511   2.986  16.736
  108CHL1   H4B14185   7.435   2.826  16.727
  108CHL1    C514186   7.415   2.948  16.546
  108CHL1    C614187   7.427   2.842  16.464
  108CHL1    H614188   7.448   2.743  16.506
  108CHL1    C714189   7.424   2.852  16.314
  108CHL1   H7A14190   7.507   2.793  16.270
  108CHL1   H7B14191   7.329   2.808  16.277
  108CHL1    C814192   7.434   2.998  16.263
  108CHL1    H814193   7.540   3.030  16.272
  108CHL1   C1414194   7.392   3.005  16.117
  108CHL1   H1414195   7.285   2.973  16.115
  108CHL1   C1514196   7.463   2.911  16.017
  108CHL1  H15A14197   7.573   2.913  16.036
  108CHL1  H15B14198   7.427   2.806  16.026
  108CHL1   C1614199   7.432   2.973  15.880
  108CHL1  H16A14200   7.527   2.991  15.826
  108CHL1  H16B14201   7.368   2.906  15.819
  108CHL1   C1714202   7.358   3.108  15.908
  108CHL1   H1714203   7.249   3.084  15.910
  108CHL1   C1314204   7.395   3.144  16.053
  108CHL1   C1814205   7.538   3.203  16.055
  108CHL1  H18A14206   7.538   3.305  16.012
  108CHL1  H18B14207   7.578   3.210  16.158
  108CHL1  H18C14208   7.609   3.140  15.995
  108CHL1   C1214209   7.297   3.232  16.133
  108CHL1  H12A14210   7.297   3.337  16.096
  108CHL1  H12B14211   7.194   3.192  16.121
  108CHL1   C1114212   7.332   3.234  16.283
  108CHL1  H11A14213   7.428   3.290  16.294
  108CHL1  H11B14214   7.254   3.292  16.337
  108CHL1    C914215   7.345   3.092  16.346
  108CHL1    H914216   7.244   3.048  16.338
  108CHL1   C1014217   7.382   3.090  16.497
  108CHL1   C1914218   7.508   3.178  16.520
  108CHL1  H19A14219   7.592   3.144  16.455
  108CHL1  H19B14220   7.487   3.284  16.497
  108CHL1  H19C14221   7.542   3.174  16.626
  108CHL1    C114222   7.262   3.148  16.578
  108CHL1   H1A14223   7.251   3.256  16.554
  108CHL1   H1B14224   7.169   3.097  16.545
  108CHL1    C214225   7.275   3.133  16.730
  108CHL1   H2A14226   7.182   3.172  16.779
  108CHL1   H2B14227   7.360   3.194  16.767
  108CHL1   C2014228   7.380   3.211  15.796
  108CHL1   H2014229   7.486   3.245  15.799
  108CHL1   C2114230   7.291   3.335  15.818
  108CHL1  H21A14231   7.330   3.397  15.902
  108CHL1  H21B14232   7.187   3.305  15.841
  108CHL1  H21C14233   7.290   3.399  15.727
  108CHL1   C2214234   7.357   3.155  15.654
  108CHL1  H22A14235   7.377   3.236  15.581
  108CHL1  H22B14236   7.432   3.075  15.634
  108CHL1   C2314237   7.216   3.099  15.626
  108CHL1  H23A14238   7.191   3.023  15.703
  108CHL1  H23B14239   7.142   3.181  15.633
  108CHL1   C2414240   7.207   3.034  15.487
  108CHL1  H24A14241   7.239   3.108  15.411
  108CHL1  H24B14242   7.278   2.948  15.482
  108CHL1   C2514243   7.066   2.983  15.449
  108CHL1   H2514244   6.997   3.070  15.451
  108CHL1   C2614245   7.068   2.928  15.305
  108CHL1  H26A14246   7.138   2.842  15.298
  108CHL1  H26B14247   6.966   2.892  15.276
  108CHL1  H26C14248   7.099   3.006  15.233
  108CHL1   C2714249   7.013   2.876  15.546
  108CHL1  H27A14250   7.002   2.918  15.648
  108CHL1  H27B14251   6.914   2.840  15.512
  108CHL1  H27C14252   7.083   2.790  15.549
  109CHL1    C314253   3.298   7.602  16.692
  109CHL1    H314254   3.395   7.629  16.646
  109CHL1    O314255   3.306   7.628  16.831
  109CHL1   H3'14256   3.246   7.566  16.874
  109CHL1    C414257   3.186   7.689  16.630
  109CHL1   H4A14258   3.091   7.666  16.682
  109CHL1   H4B14259   3.210   7.795  16.653
  109CHL1    C514260   3.173   7.665  16.481
  109CHL1    C614261   3.186   7.765  16.393
  109CHL1    H614262   3.202   7.868  16.430
  109CHL1    C714263   3.174   7.749  16.244
  109CHL1   H7A14264   3.111   7.829  16.201
  109CHL1   H7B14265   3.274   7.758  16.198
  109CHL1    C814266   3.114   7.612  16.203
  109CHL1    H814267   3.005   7.616  16.221
  109CHL1   C1414268   3.141   7.586  16.055
  109CHL1   H1414269   3.251   7.578  16.045
  109CHL1   C1514270   3.100   7.696  15.956
  109CHL1  H15A14271   2.997   7.731  15.980
  109CHL1  H15B14272   3.169   7.782  15.957
  109CHL1   C1614273   3.099   7.623  15.820
  109CHL1  H16A14274   3.001   7.641  15.772
  109CHL1  H16B14275   3.179   7.660  15.753
  109CHL1   C1714276   3.118   7.471  15.850
  109CHL1   H1714277   3.227   7.451  15.841
  109CHL1   C1314278   3.085   7.455  16.001
  109CHL1   C1814279   2.930   7.451  16.017
  109CHL1  H18A14280   2.891   7.354  15.979
  109CHL1  H18B14281   2.900   7.460  16.123
  109CHL1  H18C14282   2.881   7.533  15.960
  109CHL1   C1214283   3.153   7.341  16.079
  109CHL1  H12A14284   3.114   7.242  16.048
  109CHL1  H12B14285   3.262   7.343  16.056
  109CHL1   C1114286   3.134   7.357  16.231
  109CHL1  H11A14287   3.026   7.338  16.252
  109CHL1  H11B14288   3.192   7.278  16.283
  109CHL1    C914289   3.175   7.498  16.286
  109CHL1    H914290   3.284   7.504  16.268
  109CHL1   C1014291   3.155   7.517  16.439
  109CHL1   C1914292   3.011   7.475  16.478
  109CHL1  H19A14293   2.995   7.367  16.461
  109CHL1  H19B14294   2.991   7.493  16.586
  109CHL1  H19C14295   2.936   7.532  16.419
  109CHL1    C114296   3.259   7.427  16.515
  109CHL1   H1A14297   3.233   7.321  16.499
  109CHL1   H1B14298   3.359   7.445  16.470
  109CHL1    C214299   3.269   7.454  16.666
  109CHL1   H2A14300   3.351   7.392  16.710
  109CHL1   H2B14301   3.174   7.426  16.716
  109CHL1   C2014302   3.046   7.382  15.748
  109CHL1   H2014303   2.936   7.393  15.762
  109CHL1   C2114304   3.082   7.233  15.769
  109CHL1  H21A14305   3.035   7.194  15.862
  109CHL1  H21B14306   3.192   7.220  15.774
  109CHL1  H21C14307   3.043   7.173  15.684
  109CHL1   C2214308   3.072   7.423  15.600
  109CHL1  H22A14309   3.010   7.357  15.535
  109CHL1  H22B14310   3.036   7.526  15.582
  109CHL1   C2314311   3.218   7.413  15.553
  109CHL1  H23A14312   3.283   7.473  15.619
  109CHL1  H23B14313   3.251   7.307  15.560
  109CHL1   C2414314   3.236   7.462  15.408
  109CHL1  H24A14315   3.167   7.407  15.341
  109CHL1  H24B14316   3.207   7.570  15.404
  109CHL1   C2514317   3.380   7.448  15.354
  109CHL1   H2514318   3.449   7.493  15.428
  109CHL1   C2614319   3.419   7.301  15.334
  109CHL1  H26A14320   3.351   7.252  15.261
  109CHL1  H26B14321   3.523   7.294  15.296
  109CHL1  H26C14322   3.414   7.245  15.430
  109CHL1   C2714323   3.396   7.525  15.222
  109CHL1  H27A14324   3.501   7.516  15.185
  109CHL1  H27B14325   3.328   7.484  15.144
  109CHL1  H27C14326   3.373   7.633  15.236
  110CHL1    C314327   1.476   6.458  16.737
  110CHL1    H314328   1.520   6.559  16.745
  110CHL1    O314329   1.444   6.411  16.868
  110CHL1   H3'14330   1.441   6.316  16.861
  110CHL1    C414331   1.347   6.465  16.653
  110CHL1   H4A14332   1.293   6.368  16.663
  110CHL1   H4B14333   1.283   6.542  16.699
  110CHL1    C514334   1.374   6.494  16.506
  110CHL1    C614335   1.316   6.597  16.443
  110CHL1    H614336   1.246   6.663  16.497
  110CHL1    C714337   1.335   6.625  16.296
  110CHL1   H7A14338   1.238   6.653  16.249
  110CHL1   H7B14339   1.404   6.711  16.284
  110CHL1    C814340   1.394   6.503  16.219
  110CHL1    H814341   1.315   6.425  16.212
  110CHL1   C1414342   1.435   6.544  16.079
  110CHL1   H1414343   1.512   6.623  16.092
  110CHL1   C1514344   1.328   6.609  15.989
  110CHL1  H15A14345   1.237   6.547  15.988
  110CHL1  H15B14346   1.302   6.712  16.021
  110CHL1   C1614347   1.395   6.607  15.850
  110CHL1  H16A14348   1.324   6.567  15.775
  110CHL1  H16B14349   1.426   6.709  15.819
  110CHL1   C1714350   1.522   6.516  15.862
  110CHL1   H1714351   1.608   6.585  15.880
  110CHL1   C1314352   1.503   6.437  15.993
  110CHL1   C1814353   1.406   6.319  15.967
  110CHL1  H18A14354   1.457   6.239  15.910
  110CHL1  H18B14355   1.370   6.275  16.063
  110CHL1  H18C14356   1.317   6.351  15.909
  110CHL1   C1214357   1.630   6.394  16.069
  110CHL1  H12A14358   1.683   6.313  16.015
  110CHL1  H12B14359   1.699   6.481  16.076
  110CHL1   C1114360   1.596   6.345  16.211
  110CHL1  H11A14361   1.539   6.250  16.200
  110CHL1  H11B14362   1.691   6.321  16.264
  110CHL1    C914363   1.515   6.448  16.295
  110CHL1    H914364   1.583   6.535  16.308
  110CHL1   C1014365   1.477   6.402  16.439
  110CHL1   C1914366   1.414   6.260  16.430
  110CHL1  H19A14367   1.379   6.224  16.529
  110CHL1  H19B14368   1.327   6.260  16.360
  110CHL1  H19C14369   1.489   6.187  16.394
  110CHL1    C114370   1.604   6.399  16.528
  110CHL1   H1A14371   1.676   6.326  16.485
  110CHL1   H1B14372   1.652   6.499  16.524
  110CHL1    C214373   1.579   6.363  16.675
  110CHL1   H2A14374   1.673   6.369  16.733
  110CHL1   H2B14375   1.542   6.258  16.682
  110CHL1   C2014376   1.552   6.442  15.730
  110CHL1   H2014377   1.464   6.379  15.705
  110CHL1   C2114378   1.676   6.352  15.744
  110CHL1  H21A14379   1.655   6.266  15.812
  110CHL1  H21B14380   1.762   6.410  15.783
  110CHL1  H21C14381   1.704   6.309  15.645
  110CHL1   C2214382   1.573   6.541  15.612
  110CHL1  H22A14383   1.501   6.626  15.618
  110CHL1  H22B14384   1.675   6.585  15.620
  110CHL1   C2314385   1.554   6.478  15.473
  110CHL1  H23A14386   1.623   6.393  15.460
  110CHL1  H23B14387   1.450   6.439  15.466
  110CHL1   C2414388   1.576   6.580  15.360
  110CHL1  H24A14389   1.520   6.673  15.384
  110CHL1  H24B14390   1.684   6.607  15.355
  110CHL1   C2514391   1.530   6.532  15.221
  110CHL1   H2514392   1.421   6.509  15.227
  110CHL1   C2614393   1.548   6.644  15.116
  110CHL1  H26A14394   1.491   6.735  15.146
  110CHL1  H26B14395   1.655   6.671  15.107
  110CHL1  H26C14396   1.511   6.610  15.017
  110CHL1   C2714397   1.602   6.405  15.175
  110CHL1  H27A14398   1.712   6.424  15.168
  110CHL1  H27B14399   1.585   6.321  15.245
  110CHL1  H27C14400   1.566   6.374  15.074
  111CHL1    C314401   3.940   0.741  16.799
  111CHL1    H314402   3.886   0.645  16.816
  111CHL1    O314403   3.933   0.819  16.917
  111CHL1   H3'14404   3.991   0.774  16.979
  111CHL1    C414405   4.088   0.711  16.767
  111CHL1   H4A14406   4.141   0.808  16.756
  111CHL1   H4B14407   4.133   0.659  16.854
  111CHL1    C514408   4.103   0.630  16.639
  111CHL1    C614409   4.167   0.511  16.639
  111CHL1    H614410   4.213   0.475  16.732
  111CHL1    C714411   4.187   0.427  16.516
  111CHL1   H7A14412   4.293   0.392  16.511
  111CHL1   H7B14413   4.122   0.337  16.522
  111CHL1    C814414   4.155   0.503  16.385
  111CHL1    H814415   4.239   0.573  16.365
  111CHL1   C1414416   4.143   0.405  16.269
  111CHL1   H1414417   4.057   0.339  16.294
  111CHL1   C1514418   4.261   0.311  16.243
  111CHL1  H15A14419   4.356   0.368  16.248
  111CHL1  H15B14420   4.266   0.228  16.317
  111CHL1   C1614421   4.237   0.260  16.100
  111CHL1  H16A14422   4.329   0.275  16.041
  111CHL1  H16B14423   4.210   0.152  16.099
  111CHL1   C1714424   4.119   0.345  16.041
  111CHL1   H1714425   4.026   0.286  16.056
  111CHL1   C1314426   4.109   0.469  16.134
  111CHL1   C1814427   4.218   0.570  16.092
  111CHL1  H18A14428   4.190   0.620  15.997
  111CHL1  H18B14429   4.231   0.650  16.168
  111CHL1  H18C14430   4.316   0.520  16.078
  111CHL1   C1214431   3.971   0.536  16.150
  111CHL1  H12A14432   3.939   0.587  16.057
  111CHL1  H12B14433   3.895   0.458  16.174
  111CHL1   C1114434   3.972   0.640  16.264
  111CHL1  H11A14435   4.036   0.724  16.230
  111CHL1  H11B14436   3.869   0.679  16.277
  111CHL1    C914437   4.025   0.584  16.400
  111CHL1    H914438   3.949   0.509  16.430
  111CHL1   C1014439   4.031   0.688  16.515
  111CHL1   C1914440   4.113   0.811  16.469
  111CHL1  H19A14441   4.214   0.782  16.433
  111CHL1  H19B14442   4.060   0.864  16.386
  111CHL1  H19C14443   4.126   0.885  16.550
  111CHL1    C114444   3.886   0.732  16.553
  111CHL1   H1A14445   3.843   0.791  16.469
  111CHL1   H1B14446   3.824   0.641  16.565
  111CHL1    C214447   3.875   0.815  16.682
  111CHL1   H2A14448   3.768   0.835  16.705
  111CHL1   H2B14449   3.926   0.913  16.668
  111CHL1   C2014450   4.135   0.368  15.889
  111CHL1   H2014451   4.226   0.428  15.872
  111CHL1   C2114452   4.014   0.445  15.833
  111CHL1  H21A14453   3.918   0.397  15.864
  111CHL1  H21B14454   4.016   0.449  15.722
  111CHL1  H21C14455   4.014   0.551  15.869
  111CHL1   C2214456   4.154   0.236  15.809
  111CHL1  H22A14457   4.224   0.168  15.862
  111CHL1  H22B14458   4.057   0.184  15.800
  111CHL1   C2314459   4.215   0.261  15.669
  111CHL1  H23A14460   4.147   0.326  15.610
  111CHL1  H23B14461   4.311   0.314  15.682
  111CHL1   C2414462   4.241   0.132  15.591
  111CHL1  H24A14463   4.303   0.064  15.653
  111CHL1  H24B14464   4.145   0.080  15.570
  111CHL1   C2514465   4.315   0.155  15.457
  111CHL1   H2514466   4.409   0.210  15.479
  111CHL1   C2614467   4.352   0.022  15.391
  111CHL1  H26A14468   4.417   9.179  15.459
  111CHL1  H26B14469   4.261   9.179  15.368
  111CHL1  H26C14470   4.407   0.039  15.296
  111CHL1   C2714471   4.233   0.241  15.359
  111CHL1  H27A14472   4.287   0.252  15.263
  111CHL1  H27B14473   4.135   0.193  15.339
  111CHL1  H27C14474   4.214   0.342  15.400
  112CHL1    C314475   5.656   0.831  16.768
  112CHL1    H314476   5.658   0.721  16.750
  112CHL1    O314477   5.672   0.855  16.907
  112CHL1   H3'14478   5.627   0.939  16.919
  112CHL1    C414479   5.772   0.898  16.692
  112CHL1   H4A14480   5.782   1.003  16.728
  112CHL1   H4B14481   5.866   0.846  16.722
  112CHL1    C514482   5.753   0.897  16.542
  112CHL1    C614483   5.846   0.846  16.459
  112CHL1    H614484   5.939   0.805  16.500
  112CHL1    C714485   5.835   0.851  16.309
  112CHL1   H7A14486   5.933   0.881  16.264
  112CHL1   H7B14487   5.811   0.750  16.270
  112CHL1    C814488   5.726   0.950  16.260
  112CHL1    H814489   5.765   1.053  16.276
  112CHL1   C1414490   5.699   0.930  16.111
  112CHL1   H1414491   5.660   0.826  16.102
  112CHL1   C1514492   5.818   0.937  16.015
  112CHL1  H15A14493   5.881   1.026  16.039
  112CHL1  H15B14494   5.881   0.846  16.019
  112CHL1   C1614495   5.753   0.956  15.877
  112CHL1  H16A14496   5.798   1.044  15.827
  112CHL1  H16B14497   5.767   0.866  15.812
  112CHL1   C1714498   5.600   0.979  15.902
  112CHL1   H1714499   5.551   0.880  15.895
  112CHL1   C1314500   5.590   1.020  16.051
  112CHL1   C1814501   5.629   1.169  16.064
  112CHL1  H18A14502   5.645   1.199  16.170
  112CHL1  H18B14503   5.723   1.192  16.008
  112CHL1  H18C14504   5.548   1.233  16.023
  112CHL1   C1214505   5.460   0.987  16.127
  112CHL1  H12A14506   5.375   1.050  16.092
  112CHL1  H12B14507   5.433   0.881  16.108
  112CHL1   C1114508   5.476   1.008  16.279
  112CHL1  H11A14509   5.487   1.117  16.295
  112CHL1  H11B14510   5.382   0.976  16.329
  112CHL1    C914511   5.597   0.931  16.340
  112CHL1    H914512   5.572   0.824  16.328
  112CHL1   C1014513   5.619   0.953  16.493
  112CHL1   C1914514   5.617   1.106  16.521
  112CHL1  H19A14515   5.516   1.148  16.501
  112CHL1  H19B14516   5.641   1.129  16.627
  112CHL1  H19C14517   5.691   1.159  16.457
  112CHL1    C114518   5.504   0.883  16.571
  112CHL1   H1A14519   5.407   0.929  16.544
  112CHL1   H1B14520   5.500   0.776  16.540
  112CHL1    C214521   5.520   0.887  16.725
  112CHL1   H2A14522   5.439   0.829  16.772
  112CHL1   H2B14523   5.511   0.993  16.758
  112CHL1   C2014524   5.536   1.068  15.793
  112CHL1   H2014525   5.582   1.169  15.797
  112CHL1   C2114526   5.384   1.083  15.818
  112CHL1  H21A14527   5.336   0.983  15.827
  112CHL1  H21B14528   5.335   1.139  15.735
  112CHL1  H21C14529   5.365   1.141  15.911
  112CHL1   C2214530   5.563   1.012  15.651
  112CHL1  H22A14531   5.673   1.008  15.633
  112CHL1  H22B14532   5.525   0.908  15.645
  112CHL1   C2314533   5.503   1.094  15.535
  112CHL1  H23A14534   5.392   1.084  15.538
  112CHL1  H23B14535   5.528   1.201  15.549
  112CHL1   C2414536   5.553   1.047  15.397
  112CHL1  H24A14537   5.663   1.063  15.393
  112CHL1  H24B14538   5.534   0.939  15.386
  112CHL1   C2514539   5.488   1.122  15.278
  112CHL1   H2514540   5.494   1.231  15.298
  112CHL1   C2614541   5.564   1.093  15.148
  112CHL1  H26A14542   5.564   0.984  15.126
  112CHL1  H26B14543   5.516   1.146  15.063
  112CHL1  H26C14544   5.669   1.128  15.156
  112CHL1   C2714545   5.339   1.085  15.261
  112CHL1  H27A14546   5.297   1.139  15.174
  112CHL1  H27B14547   5.329   0.976  15.244
  112CHL1  H27C14548   5.281   1.112  15.351
  113CHL1    C314549   0.658   6.028  16.722
  113CHL1    H314550   0.647   5.917  16.718
  113CHL1    O314551   0.645   6.071  16.857
  113CHL1   H3'14552   0.551   6.083  16.868
  113CHL1    C414553   0.796   6.067  16.666
  113CHL1   H4A14554   0.811   6.176  16.686
  113CHL1   H4B14555   0.873   6.014  16.726
  113CHL1    C514556   0.810   6.040  16.517
  113CHL1    C614557   0.910   5.965  16.468
  113CHL1    H614558   0.986   5.924  16.536
  113CHL1    C714559   0.931   5.940  16.321
  113CHL1   H7A14560   1.038   5.950  16.295
  113CHL1   H7B14561   0.900   5.836  16.296
  113CHL1    C814562   0.850   6.038  16.232
  113CHL1    H814563   0.899   6.137  16.239
  113CHL1   C1414564   0.850   5.992  16.086
  113CHL1   H1414565   0.798   5.894  16.084
  113CHL1   C1514566   0.986   5.966  16.019
  113CHL1  H15A14567   1.057   6.048  16.044
  113CHL1  H15B14568   1.031   5.870  16.051
  113CHL1   C1614569   0.954   5.968  15.869
  113CHL1  H16A14570   1.024   6.038  15.818
  113CHL1  H16B14571   0.965   5.868  15.822
  113CHL1   C1714572   0.807   6.018  15.854
  113CHL1   H1714573   0.743   5.928  15.848
  113CHL1   C1314574   0.773   6.083  15.990
  113CHL1   C1814575   0.832   6.226  15.992
  113CHL1  H18A14576   0.774   6.292  15.925
  113CHL1  H18B14577   0.829   6.272  16.093
  113CHL1  H18C14578   0.938   6.227  15.958
  113CHL1   C1214579   0.626   6.080  16.036
  113CHL1  H12A14580   0.563   6.146  15.972
  113CHL1  H12B14581   0.587   5.977  16.027
  113CHL1   C1114582   0.612   6.126  16.183
  113CHL1  H11A14583   0.635   6.235  16.184
  113CHL1  H11B14584   0.506   6.114  16.214
  113CHL1    C914585   0.705   6.050  16.282
  113CHL1    H914586   0.667   5.945  16.283
  113CHL1   C1014587   0.698   6.099  16.430
  113CHL1   C1914588   0.714   6.253  16.430
  113CHL1  H19A14589   0.627   6.302  16.382
  113CHL1  H19B14590   0.721   6.295  16.533
  113CHL1  H19C14591   0.806   6.283  16.375
  113CHL1    C114592   0.560   6.060  16.490
  113CHL1   H1A14593   0.479   6.113  16.435
  113CHL1   H1B14594   0.544   5.951  16.476
  113CHL1    C214595   0.545   6.092  16.640
  113CHL1   H2A14596   0.446   6.056  16.676
  113CHL1   H2B14597   0.549   6.202  16.655
  113CHL1   C2014598   0.785   6.100  15.725
  113CHL1   H2014599   0.847   6.192  15.731
  113CHL1   C2114600   0.638   6.144  15.710
  113CHL1  H21A14601   0.622   6.187  15.609
  113CHL1  H21B14602   0.612   6.222  15.784
  113CHL1  H21C14603   0.569   6.057  15.722
  113CHL1   C2214604   0.831   6.027  15.596
  113CHL1  H22A14605   0.813   6.096  15.511
  113CHL1  H22B14606   0.941   6.008  15.600
  113CHL1   C2314607   0.759   5.894  15.566
  113CHL1  H23A14608   0.779   5.823  15.650
  113CHL1  H23B14609   0.650   5.910  15.562
  113CHL1   C2414610   0.803   5.824  15.435
  113CHL1  H24A14611   0.912   5.805  15.436
  113CHL1  H24B14612   0.752   5.725  15.433
  113CHL1   C2514613   0.764   5.899  15.306
  113CHL1   H2514614   0.680   5.968  15.329
  113CHL1   C2614615   0.881   5.982  15.250
  113CHL1  H26A14616   0.965   5.915  15.220
  113CHL1  H26B14617   0.849   6.039  15.160
  113CHL1  H26C14618   0.919   6.054  15.326
  113CHL1   C2714619   0.716   5.801  15.197
  113CHL1  H27A14620   0.686   5.857  15.106
  113CHL1  H27B14621   0.797   5.730  15.171
  113CHL1  H27C14622   0.628   5.744  15.233
  114CHL1    C314623   6.487   8.554  16.724
  114CHL1    H314624   6.580   8.611  16.703
  114CHL1    O314625   6.478   8.530  16.863
  114CHL1   H3'14626   6.405   8.469  16.873
  114CHL1    C414627   6.364   8.636  16.678
  114CHL1   H4A14628   6.272   8.581  16.707
  114CHL1   H4B14629   6.364   8.731  16.736
  114CHL1    C514630   6.365   8.660  16.529
  114CHL1    C614631   6.363   8.784  16.478
  114CHL1    H614632   6.356   8.870  16.546
  114CHL1    C714633   6.361   8.815  16.331
  114CHL1   H7A14634   6.285   8.892  16.309
  114CHL1   H7B14635   6.459   8.855  16.300
  114CHL1    C814636   6.330   8.690  16.244
  114CHL1    H814637   6.221   8.670  16.251
  114CHL1   C1414638   6.367   8.718  16.099
  114CHL1   H1414639   6.477   8.733  16.098
  114CHL1   C1514640   6.310   8.846  16.034
  114CHL1  H15A14641   6.201   8.853  16.055
  114CHL1  H15B14642   6.360   8.938  16.070
  114CHL1   C1614643   6.333   8.822  15.884
  114CHL1  H16A14644   6.238   8.839  15.829
  114CHL1  H16B14645   6.410   8.891  15.843
  114CHL1   C1714646   6.380   8.674  15.867
  114CHL1   H1714647   6.491   8.677  15.868
  114CHL1   C1314648   6.341   8.605  16.000
  114CHL1   C1814649   6.189   8.571  15.994
  114CHL1  H18A14650   6.129   8.658  15.960
  114CHL1  H18B14651   6.172   8.487  15.924
  114CHL1  H18C14652   6.151   8.540  16.094
  114CHL1   C1214653   6.425   8.484  16.047
  114CHL1  H12A14654   6.407   8.395  15.983
  114CHL1  H12B14655   6.533   8.511  16.038
  114CHL1   C1114656   6.395   8.447  16.194
  114CHL1  H11A14657   6.291   8.406  16.196
  114CHL1  H11B14658   6.464   8.365  16.224
  114CHL1    C914659   6.407   8.567  16.292
  114CHL1    H914660   6.514   8.597  16.288
  114CHL1   C1014661   6.378   8.532  16.442
  114CHL1   C1914662   6.243   8.456  16.450
  114CHL1  H19A14663   6.161   8.514  16.402
  114CHL1  H19B14664   6.250   8.358  16.399
  114CHL1  H19C14665   6.214   8.435  16.555
  114CHL1    C114666   6.493   8.443  16.496
  114CHL1   H1A14667   6.490   8.345  16.445
  114CHL1   H1B14668   6.590   8.491  16.470
  114CHL1    C214669   6.491   8.420  16.649
  114CHL1   H2A14670   6.581   8.363  16.679
  114CHL1   H2B14671   6.401   8.360  16.675
  114CHL1   C2014672   6.338   8.614  15.732
  114CHL1   H2014673   6.227   8.618  15.725
  114CHL1   C2114674   6.382   8.467  15.719
  114CHL1  H21A14675   6.358   8.428  15.617
  114CHL1  H21B14676   6.328   8.403  15.791
  114CHL1  H21C14677   6.491   8.457  15.735
  114CHL1   C2214678   6.395   8.698  15.614
  114CHL1  H22A14679   6.370   8.805  15.628
  114CHL1  H22B14680   6.506   8.689  15.615
  114CHL1   C2314681   6.344   8.661  15.473
  114CHL1  H23A14682   6.395   8.728  15.400
  114CHL1  H23B14683   6.374   8.557  15.447
  114CHL1   C2414684   6.192   8.678  15.456
  114CHL1  H24A14685   6.141   8.599  15.516
  114CHL1  H24B14686   6.162   8.776  15.497
  114CHL1   C2514687   6.140   8.668  15.311
  114CHL1   H2514688   6.029   8.669  15.316
  114CHL1   C2614689   6.182   8.789  15.226
  114CHL1  H26A14690   6.150   8.884  15.275
  114CHL1  H26B14691   6.292   8.791  15.212
  114CHL1  H26C14692   6.135   8.784  15.125
  114CHL1   C2714693   6.181   8.537  15.242
  114CHL1  H27A14694   6.134   8.530  15.141
  114CHL1  H27B14695   6.291   8.533  15.228
  114CHL1  H27C14696   6.149   8.449  15.302
  115CHL1    C314697   2.230   0.756  16.727
  115CHL1    H314698   2.128   0.752  16.683
  115CHL1    O314699   2.221   0.750  16.868
  115CHL1   H3'14700   2.311   0.741  16.898
  115CHL1    C414701   2.312   0.636  16.676
  115CHL1   H4A14702   2.410   0.635  16.729
  115CHL1   H4B14703   2.259   0.543  16.708
  115CHL1    C514704   2.336   0.640  16.527
  115CHL1    C614705   2.298   0.538  16.447
  115CHL1    H614706   2.252   0.449  16.492
  115CHL1    C714707   2.322   0.534  16.299
  115CHL1   H7A14708   2.362   0.435  16.268
  115CHL1   H7B14709   2.226   0.549  16.246
  115CHL1    C814710   2.422   0.644  16.251
  115CHL1    H814711   2.524   0.612  16.280
  115CHL1   C1414712   2.413   0.659  16.100
  115CHL1   H1414713   2.309   0.694  16.079
  115CHL1   C1514714   2.430   0.532  16.014
  115CHL1  H15A14715   2.517   0.474  16.051
  115CHL1  H15B14716   2.339   0.468  16.017
  115CHL1   C1614717   2.458   0.587  15.874
  115CHL1  H16A14718   2.551   0.542  15.835
  115CHL1  H16B14719   2.375   0.564  15.804
  115CHL1   C1714720   2.475   0.742  15.889
  115CHL1   H1714721   2.374   0.787  15.871
  115CHL1   C1314722   2.504   0.765  16.039
  115CHL1   C1814723   2.654   0.731  16.065
  115CHL1  H18A14724   2.683   0.635  16.019
  115CHL1  H18B14725   2.718   0.811  16.023
  115CHL1  H18C14726   2.675   0.725  16.174
  115CHL1   C1214727   2.464   0.900  16.101
  115CHL1  H12A14728   2.530   0.982  16.064
  115CHL1  H12B14729   2.360   0.924  16.070
  115CHL1   C1114730   2.471   0.896  16.255
  115CHL1  H11A14731   2.579   0.889  16.282
  115CHL1  H11B14732   2.433   0.993  16.294
  115CHL1    C914733   2.391   0.779  16.318
  115CHL1    H914734   2.285   0.800  16.292
  115CHL1   C1014735   2.396   0.772  16.473
  115CHL1   C1914736   2.545   0.778  16.519
  115CHL1  H19A14737   2.554   0.766  16.629
  115CHL1  H19B14738   2.605   0.699  16.470
  115CHL1  H19C14739   2.589   0.877  16.494
  115CHL1    C114740   2.318   0.892  16.533
  115CHL1   H1A14741   2.370   0.987  16.507
  115CHL1   H1B14742   2.217   0.896  16.485
  115CHL1    C214743   2.297   0.887  16.686
  115CHL1   H2A14744   2.234   0.973  16.718
  115CHL1   H2B14745   2.396   0.896  16.736
  115CHL1   C2014746   2.570   0.801  15.783
  115CHL1   H2014747   2.672   0.760  15.800
  115CHL1   C2114748   2.578   0.954  15.794
  115CHL1  H21A14749   2.476   0.999  15.797
  115CHL1  H21B14750   2.631   0.996  15.706
  115CHL1  H21C14751   2.634   0.985  15.884
  115CHL1   C2214752   2.532   0.760  15.637
  115CHL1  H22A14753   2.604   0.810  15.569
  115CHL1  H22B14754   2.546   0.651  15.625
  115CHL1   C2314755   2.390   0.797  15.593
  115CHL1  H23A14756   2.316   0.740  15.653
  115CHL1  H23B14757   2.373   0.905  15.611
  115CHL1   C2414758   2.366   0.766  15.444
  115CHL1  H24A14759   2.433   0.830  15.382
  115CHL1  H24B14760   2.393   0.660  15.424
  115CHL1   C2514761   2.220   0.788  15.396
  115CHL1   H2514762   2.154   0.722  15.457
  115CHL1   C2614763   2.173   0.933  15.414
  115CHL1  H26A14764   2.069   0.945  15.376
  115CHL1  H26B14765   2.174   0.962  15.521
  115CHL1  H26C14766   2.239   1.002  15.358
  115CHL1   C2714767   2.205   0.746  15.249
  115CHL1  H27A14768   2.270   0.809  15.184
  115CHL1  H27B14769   2.235   0.640  15.235
  115CHL1  H27C14770   2.100   0.758  15.216
  116CHL1    C314771   3.127   0.385  16.699
  116CHL1    H314772   3.063   0.303  16.659
  116CHL1    O314773   3.123   0.383  16.840
  116CHL1   H3'14774   3.187   0.315  16.866
  116CHL1    C414775   3.272   0.364  16.652
  116CHL1   H4A14776   3.335   0.442  16.699
  116CHL1   H4B14777   3.307   0.266  16.691
  116CHL1    C514778   3.284   0.372  16.501
  116CHL1    C614779   3.336   0.270  16.430
  116CHL1    H614780   3.373   0.181  16.482
  116CHL1    C714781   3.354   0.273  16.281
  116CHL1   H7A14782   3.455   0.235  16.254
  116CHL1   H7B14783   3.280   0.205  16.234
  116CHL1    C814784   3.336   0.415  16.221
  116CHL1    H814785   3.428   0.473  16.243
  116CHL1   C1414786   3.319   0.405  16.070
  116CHL1   H1414787   3.225   0.348  16.054
  116CHL1   C1514788   3.426   0.327  15.991
  116CHL1  H15A14789   3.527   0.360  16.025
  116CHL1  H15B14790   3.417   0.217  16.004
  116CHL1   C1614791   3.402   0.371  15.846
  116CHL1  H16A14792   3.498   0.405  15.803
  116CHL1  H16B14793   3.361   0.288  15.785
  116CHL1   C1714794   3.298   0.488  15.850
  116CHL1   H1714795   3.198   0.442  15.834
  116CHL1   C1314796   3.299   0.538  15.997
  116CHL1   C1814797   3.422   0.630  16.016
  116CHL1  H18A14798   3.440   0.651  16.124
  116CHL1  H18B14799   3.515   0.585  15.974
  116CHL1  H18C14800   3.405   0.727  15.966
  116CHL1   C1214801   3.170   0.601  16.053
  116CHL1  H12A14802   3.152   0.701  16.008
  116CHL1  H12B14803   3.084   0.535  16.028
  116CHL1   C1114804   3.178   0.617  16.206
  116CHL1  H11A14805   3.254   0.696  16.227
  116CHL1  H11B14806   3.080   0.656  16.243
  116CHL1    C914807   3.215   0.486  16.282
  116CHL1    H914808   3.129   0.417  16.262
  116CHL1   C1014809   3.225   0.499  16.436
  116CHL1   C1914810   3.320   0.617  16.471
  116CHL1  H19A14811   3.336   0.626  16.580
  116CHL1  H19B14812   3.419   0.605  16.421
  116CHL1  H19C14813   3.276   0.713  16.438
  116CHL1    C114814   3.083   0.527  16.494
  116CHL1   H1A14815   3.050   0.628  16.462
  116CHL1   H1B14816   3.012   0.453  16.451
  116CHL1    C214817   3.073   0.519  16.648
  116CHL1   H2A14818   2.968   0.532  16.680
  116CHL1   H2B14819   3.133   0.602  16.693
  116CHL1   C2014820   3.321   0.588  15.735
  116CHL1   H2014821   3.418   0.639  15.750
  116CHL1   C2114822   3.210   0.696  15.734
  116CHL1  H21A14823   3.219   0.761  15.644
  116CHL1  H21B14824   3.218   0.762  15.822
  116CHL1  H21C14825   3.109   0.648  15.733
  116CHL1   C2214826   3.328   0.518  15.596
  116CHL1  H22A14827   3.400   0.433  15.601
  116CHL1  H22B14828   3.229   0.476  15.570
  116CHL1   C2314829   3.378   0.608  15.482
  116CHL1  H23A14830   3.300   0.682  15.454
  116CHL1  H23B14831   3.467   0.664  15.518
  116CHL1   C2414832   3.417   0.526  15.357
  116CHL1  H24A14833   3.498   0.455  15.384
  116CHL1  H24B14834   3.329   0.467  15.325
  116CHL1   C2514835   3.465   0.611  15.237
  116CHL1   H2514836   3.383   0.680  15.209
  116CHL1   C2614837   3.590   0.695  15.270
  116CHL1  H26A14838   3.624   0.750  15.180
  116CHL1  H26B14839   3.567   0.769  15.350
  116CHL1  H26C14840   3.672   0.629  15.305
  116CHL1   C2714841   3.495   0.520  15.116
  116CHL1  H27A14842   3.405   0.463  15.087
  116CHL1  H27B14843   3.528   0.581  15.029
  116CHL1  H27C14844   3.576   0.448  15.141
  117CHL1    C314845   6.499   0.409  16.708
  117CHL1    H314846   6.604   0.387  16.680
  117CHL1    O314847   6.493   0.430  16.849
  117CHL1   H3'14848   6.538   0.514  16.863
  117CHL1    C414849   6.450   0.535  16.635
  117CHL1   H4A14850   6.348   0.560  16.672
  117CHL1   H4B14851   6.515   0.620  16.665
  117CHL1    C514852   6.448   0.516  16.485
  117CHL1    C614853   6.517   0.597  16.403
  117CHL1    H614854   6.574   0.681  16.445
  117CHL1    C714855   6.515   0.586  16.253
  117CHL1   H7A14856   6.503   0.686  16.207
  117CHL1   H7B14857   6.613   0.545  16.218
  117CHL1    C814858   6.402   0.493  16.202
  117CHL1    H814859   6.306   0.549  16.212
  117CHL1   C1414860   6.425   0.459  16.055
  117CHL1   H1414861   6.521   0.403  16.052
  117CHL1   C1514862   6.444   0.576  15.957
  117CHL1  H15A14863   6.367   0.654  15.977
  117CHL1  H15B14864   6.545   0.621  15.965
  117CHL1   C1614865   6.420   0.512  15.820
  117CHL1  H16A14866   6.343   0.571  15.765
  117CHL1  H16B14867   6.513   0.509  15.759
  117CHL1   C1714868   6.368   0.366  15.845
  117CHL1   H1714869   6.457   0.300  15.842
  117CHL1   C1314870   6.320   0.367  15.993
  117CHL1   C1814871   6.179   0.431  15.998
  117CHL1  H18A14872   6.176   0.526  15.941
  117CHL1  H18B14873   6.104   0.362  15.956
  117CHL1  H18C14874   6.149   0.454  16.103
  117CHL1   C1214875   6.326   0.234  16.071
  117CHL1  H12A14876   6.250   0.162  16.034
  117CHL1  H12B14877   6.427   0.188  16.057
  117CHL1   C1114878   6.301   0.257  16.222
  117CHL1  H11A14879   6.195   0.286  16.233
  117CHL1  H11B14880   6.314   0.160  16.275
  117CHL1    C914881   6.394   0.365  16.285
  117CHL1    H914882   6.497   0.321  16.279
  117CHL1   C1014883   6.368   0.393  16.436
  117CHL1   C1914884   6.218   0.423  16.456
  117CHL1  H19A14885   6.184   0.507  16.391
  117CHL1  H19B14886   6.156   0.334  16.434
  117CHL1  H19C14887   6.195   0.450  16.562
  117CHL1    C114888   6.409   0.268  16.519
  117CHL1   H1A14889   6.339   0.185  16.495
  117CHL1   H1B14890   6.511   0.236  16.487
  117CHL1    C214891   6.410   0.289  16.671
  117CHL1   H2A14892   6.448   0.198  16.722
  117CHL1   H2B14893   6.307   0.308  16.707
  117CHL1   C2014894   6.272   0.318  15.734
  117CHL1   H2014895   6.180   0.381  15.738
  117CHL1   C2114896   6.231   0.171  15.758
  117CHL1  H21A14897   6.321   0.107  15.769
  117CHL1  H21B14898   6.171   0.133  15.673
  117CHL1  H21C14899   6.167   0.162  15.848
  117CHL1   C2214900   6.332   0.337  15.592
  117CHL1  H22A14901   6.362   0.443  15.578
  117CHL1  H22B14902   6.425   0.275  15.585
  117CHL1   C2314903   6.240   0.301  15.474
  117CHL1  H23A14904   6.295   0.324  15.380
  117CHL1  H23B14905   6.219   0.192  15.473
  117CHL1   C2414906   6.106   0.377  15.474
  117CHL1  H24A14907   6.049   0.349  15.564
  117CHL1  H24B14908   6.126   0.487  15.480
  117CHL1   C2514909   6.017   0.350  15.351
  117CHL1   H2514910   6.008   0.239  15.339
  117CHL1   C2614911   5.875   0.405  15.375
  117CHL1  H26A14912   5.879   0.515  15.389
  117CHL1  H26B14913   5.810   0.383  15.287
  117CHL1  H26C14914   5.830   0.359  15.465
  117CHL1   C2714915   6.075   0.408  15.222
  117CHL1  H27A14916   6.174   0.363  15.199
  117CHL1  H27B14917   6.007   0.389  15.136
  117CHL1  H27C14918   6.089   0.518  15.232
  118CHL1    C314919   8.842   1.827  16.742
  118CHL1    H314920   8.881   1.929  16.722
  118CHL1    O314921   8.792   1.821  16.875
  118CHL1   H3'14922   8.743   1.739  16.876
  118CHL1    C414923   8.727   1.797  16.644
  118CHL1   H4A14924   8.681   1.699  16.671
  118CHL1   H4B14925   8.648   1.873  16.660
  118CHL1    C514926   8.774   1.793  16.500
  118CHL1    C614927   8.719   1.872  16.407
  118CHL1    H614928   8.636   1.939  16.436
  118CHL1    C714929   8.759   1.872  16.263
  118CHL1   H7A14930   8.669   1.872  16.197
  118CHL1   H7B14931   8.817   1.964  16.240
  118CHL1    C814932   8.848   1.751  16.224
  118CHL1    H814933   8.782   1.662  16.216
  118CHL1   C1414934   8.917   1.777  16.091
  118CHL1   H1414935   8.984   1.864  16.109
  118CHL1   C1514936   8.828   1.819  15.972
  118CHL1  H15A14937   8.740   1.752  15.967
  118CHL1  H15B14938   8.794   1.924  15.980
  118CHL1   C1614939   8.920   1.797  15.851
  118CHL1  H16A14940   8.866   1.734  15.777
  118CHL1  H16B14941   8.948   1.893  15.803
  118CHL1   C1714942   9.048   1.723  15.903
  118CHL1   H1714943   9.123   1.802  15.924
  118CHL1   C1314944   9.007   1.665  16.040
  118CHL1   C1814945   8.927   1.535  16.017
  118CHL1  H18A14946   8.847   1.549  15.941
  118CHL1  H18B14947   8.994   1.454  15.982
  118CHL1  H18C14948   8.878   1.500  16.111
  118CHL1   C1214949   9.119   1.646  16.146
  118CHL1  H12A14950   9.186   1.562  16.119
  118CHL1  H12B14951   9.180   1.739  16.150
  118CHL1   C1114952   9.059   1.618  16.286
  118CHL1  H11A14953   9.012   1.518  16.282
  118CHL1  H11B14954   9.143   1.613  16.359
  118CHL1    C914955   8.955   1.724  16.331
  118CHL1    H914956   9.011   1.819  16.339
  118CHL1   C1014957   8.894   1.699  16.472
  118CHL1   C1914958   8.842   1.553  16.480
  118CHL1  H19A14959   8.926   1.481  16.473
  118CHL1  H19B14960   8.791   1.533  16.577
  118CHL1  H19C14961   8.770   1.532  16.398
  118CHL1    C114962   9.004   1.722  16.580
  118CHL1   H1A14963   9.082   1.643  16.570
  118CHL1   H1B14964   9.054   1.820  16.559
  118CHL1    C214965   8.954   1.724  16.725
  118CHL1   H2A14966   9.038   1.748  16.794
  118CHL1   H2B14967   8.916   1.623  16.752
  118CHL1   C2014968   9.109   1.631  15.795
  118CHL1   H2014969   9.037   1.551  15.770
  118CHL1   C2114970   0.022   1.565  15.848
  118CHL1  H21A14971   0.072   1.507  15.767
  118CHL1  H21B14972   9.215   1.493  15.929
  118CHL1  H21C14973   0.092   1.642  15.886
  118CHL1   C2214974   9.137   1.710  15.665
  118CHL1  H22A14975   9.044   1.758  15.629
  118CHL1  H22B14976   9.211   1.791  15.686
  118CHL1   C2314977   9.190   1.626  15.547
  118CHL1  H23A14978   0.077   1.591  15.569
  118CHL1  H23B14979   9.125   1.537  15.534
  118CHL1   C2414980   9.194   1.708  15.417
  118CHL1  H24A14981   9.090   1.733  15.387
  118CHL1  H24B14982   0.031   1.803  15.436
  118CHL1   C2514983   0.048   1.637  15.300
  118CHL1   H2514984   0.152   1.615  15.332
  118CHL1   C2614985   9.197   1.504  15.262
  118CHL1  H26A14986   0.032   1.458  15.175
  118CHL1  H26B14987   9.200   1.432  15.347
  118CHL1  H26C14988   9.091   1.522  15.234
  118CHL1   C2714989   0.055   1.729  15.177
  118CHL1  H27A14990   0.109   1.680  15.094
  118CHL1  H27B14991   9.169   1.754  15.142
  118CHL1  H27C14992   0.107   1.824  15.202
  119CHL1    C314993   1.476   0.297  16.765
  119CHL1    H314994   1.392   0.234  16.730
  119CHL1    O314995   1.508   0.263  16.899
  119CHL1   H3'14996   1.431   0.284  16.953
  119CHL1    C414997   1.600   0.271  16.677
  119CHL1   H4A14998   1.687   0.319  16.726
  119CHL1   H4B14999   1.619   0.162  16.679
  119CHL1    C515000   1.586   0.324  16.535
  119CHL1    C615001   1.605   0.245  16.428
  119CHL1    H615002   1.635   0.140  16.442
  119CHL1    C715003   1.600   0.294  16.286
  119CHL1   H7A15004   1.685   0.254  16.227
  119CHL1   H7B15005   1.506   0.258  16.238
  119CHL1    C815006   1.602   0.449  16.277
  119CHL1    H815007   1.706   0.482  16.300
  119CHL1   C1415008   1.567   0.495  16.136
  119CHL1   H1415009   1.464   0.458  16.117
  119CHL1   C1515010   1.652   0.442  16.018
  119CHL1  H15A15011   1.759   0.440  16.047
  119CHL1  H15B15012   1.620   0.340  15.988
  119CHL1   C1615013   1.630   0.546  15.906
  119CHL1  H16A15014   1.729   0.590  15.880
  119CHL1  H16B15015   1.586   0.501  15.815
  119CHL1   C1715016   1.535   0.654  15.966
  119CHL1   H1715017   1.433   0.614  15.949
  119CHL1   C1315018   1.561   0.646  16.118
  119CHL1   C1815019   1.699   0.711  16.149
  119CHL1  H18A15020   1.733   0.686  16.252
  119CHL1  H18B15021   1.778   0.678  16.078
  119CHL1  H18C15022   1.691   0.822  16.144
  119CHL1   C1215023   1.452   0.702  16.211
  119CHL1  H12A15024   1.448   0.812  16.202
  119CHL1  H12B15025   1.353   0.660  16.180
  119CHL1   C1115026   1.480   0.663  16.357
  119CHL1  H11A15027   1.570   0.721  16.389
  119CHL1  H11B15028   1.395   0.697  16.420
  119CHL1    C915029   1.505   0.511  16.379
  119CHL1    H915030   1.407   0.463  16.356
  119CHL1   C1015031   1.541   0.471  16.525
  119CHL1   C1915032   1.658   0.560  16.574
  119CHL1  H19A15033   1.744   0.555  16.503
  119CHL1  H19B15034   1.626   0.666  16.583
  119CHL1  H19C15035   1.695   0.529  16.674
  119CHL1    C115036   1.416   0.492  16.616
  119CHL1   H1A15037   1.390   0.600  16.617
  119CHL1   H1B15038   1.330   0.438  16.571
  119CHL1    C215039   1.434   0.444  16.761
  119CHL1   H2A15040   1.339   0.458  16.817
  119CHL1   H2B15041   1.512   0.506  16.810
  119CHL1   C2015042   1.538   0.794  15.901
  119CHL1   H2015043   1.605   0.861  15.960
  119CHL1   C2115044   1.396   0.852  15.909
  119CHL1  H21A15045   1.396   0.959  15.878
  119CHL1  H21B15046   1.354   0.847  16.012
  119CHL1  H21C15047   1.328   0.796  15.841
  119CHL1   C2215048   1.591   0.798  15.755
  119CHL1  H22A15049   1.693   0.754  15.753
  119CHL1  H22B15050   1.527   0.737  15.689
  119CHL1   C2315051   1.607   0.941  15.697
  119CHL1  H23A15052   1.621   1.013  15.780
  119CHL1  H23B15053   1.699   0.942  15.635
  119CHL1   C2415054   1.490   0.986  15.608
  119CHL1  H24A15055   1.486   0.921  15.518
  119CHL1  H24B15056   1.393   0.973  15.662
  119CHL1   C2515057   1.498   1.132  15.559
  119CHL1   H2515058   1.505   1.197  15.649
  119CHL1   C2615059   1.623   1.156  15.472
  119CHL1  H26A15060   1.622   1.090  15.384
  119CHL1  H26B15061   1.624   1.262  15.437
  119CHL1  H26C15062   1.716   1.138  15.530
  119CHL1   C2715063   1.372   1.170  15.481
  119CHL1  H27A15064   1.362   1.106  15.390
  119CHL1  H27B15065   1.281   1.154  15.544
  119CHL1  H27C15066   1.376   1.276  15.449
  120CHL1    C315067   8.853   9.010  16.685
  120CHL1    H315068   8.750   8.970  16.673
  120CHL1    O315069   8.872   9.047  16.821
  120CHL1   H3'15070   8.836   9.136  16.828
  120CHL1    C415071   8.955   8.901  16.647
  120CHL1   H4A15072   9.056   8.942  16.669
  120CHL1   H4B15073   8.940   8.814  16.714
  120CHL1    C515074   8.946   8.863  16.501
  120CHL1    C615075   8.923   8.736  16.463
  120CHL1    H615076   8.914   8.657  16.539
  120CHL1    C715077   8.917   8.691  16.319
  120CHL1   H7A15078   8.976   8.598  16.305
  120CHL1   H7B15079   8.812   8.668  16.293
  120CHL1    C815080   8.969   8.798  16.219
  120CHL1    H815081   9.081   8.797  16.222
  120CHL1   C1415082   8.921   8.765  16.078
  120CHL1   H1415083   8.811   8.772  16.083
  120CHL1   C1515084   8.948   8.623  16.024
  120CHL1  H15A15085   9.054   8.595  16.042
  120CHL1  H15B15086   8.882   8.547  16.070
  120CHL1   C1615087   8.922   8.638  15.873
  120CHL1  H16A15088   9.012   8.602  15.817
  120CHL1  H16B15089   8.834   8.580  15.840
  120CHL1   C1715090   8.900   8.791  15.846
  120CHL1   H1715091   8.791   8.809  15.857
  120CHL1   C1315092   8.964   8.862  15.968
  120CHL1   C1815093   9.118   8.862  15.951
  120CHL1  H18A15094   9.169   8.893  16.045
  120CHL1  H18B15095   9.157   8.762  15.922
  120CHL1  H18C15096   9.148   8.934  15.872
  120CHL1   C1215097   8.909   9.001  16.006
  120CHL1  H12A15098   8.943   9.078  15.934
  120CHL1  H12B15099   8.798   8.998  16.004
  120CHL1   C1115100   8.954   9.043  16.147
  120CHL1  H11A15101   9.064   9.059  16.144
  120CHL1  H11B15102   8.907   9.141  16.172
  120CHL1    C915103   8.920   8.938  16.257
  120CHL1    H915104   8.809   8.930  16.256
  120CHL1   C1015105   8.957   8.980  16.402
  120CHL1   C1915106   9.104   9.029  16.403
  120CHL1  H19A15107   9.116   9.121  16.342
  120CHL1  H19B15108   9.138   9.056  16.506
  120CHL1  H19C15109   9.173   8.952  16.363
  120CHL1    C115110   8.861   9.095  16.447
  120CHL1   H1A15111   8.881   9.185  16.386
  120CHL1   H1B15112   8.757   9.063  16.427
  120CHL1    C215113   8.872   9.133  16.596
  120CHL1   H2A15114   8.795   9.210  16.620
  120CHL1   H2B15115   8.972   9.177  16.615
  120CHL1   C2015116   8.937   8.831  15.702
  120CHL1   H2015117   9.043   8.805  15.682
  120CHL1   C2115118   8.921   8.983  15.681
  120CHL1  H21A15119   8.935   9.008  15.574
  120CHL1  H21B15120   8.998   9.039  15.738
  120CHL1  H21C15121   8.820   9.017  15.713
  120CHL1   C2215122   8.848   8.757  15.599
  120CHL1  H22A15123   8.756   8.720  15.648
  120CHL1  H22B15124   8.814   8.830  15.522
  120CHL1   C2315125   8.915   8.640  15.525
  120CHL1  H23A15126   8.966   8.573  15.597
  120CHL1  H23B15127   8.834   8.581  15.476
  120CHL1   C2415128   9.011   8.684  15.414
  120CHL1  H24A15129   8.957   8.755  15.347
  120CHL1  H24B15130   9.097   8.740  15.458
  120CHL1   C2515131   9.064   8.567  15.328
  120CHL1   H2515132   8.977   8.504  15.301
  120CHL1   C2615133   9.126   8.618  15.197
  120CHL1  H26A15134   9.213   8.685  15.219
  120CHL1  H26B15135   9.161   8.533  15.135
  120CHL1  H26C15136   9.051   8.676  15.139
  120CHL1   C2715137   9.165   8.481  15.406
  120CHL1  H27A15138   0.036   8.542  15.437
  120CHL1  H27B15139   9.118   8.437  15.496
  120CHL1  H27C15140   9.201   8.397  15.342
  121CHL1    C315141   5.210   4.584  13.195
  121CHL1    H315142   5.174   4.686  13.221
  121CHL1    O315143   5.207   4.568  13.055
  121CHL1   H3'15144   5.269   4.632  13.019
  121CHL1    C415145   5.354   4.566  13.245
  121CHL1   H4A15146   5.392   4.469  13.207
  121CHL1   H4B15147   5.416   4.644  13.198
  121CHL1    C515148   5.363   4.568  13.397
  121CHL1    C615149   5.444   4.654  13.460
  121CHL1    H615150   5.507   4.723  13.401
  121CHL1    C715151   5.463   4.658  13.609
  121CHL1   H7A15152   5.570   4.668  13.634
  121CHL1   H7B15153   5.410   4.747  13.650
  121CHL1    C815154   5.407   4.531  13.679
  121CHL1    H815155   5.477   4.448  13.657
  121CHL1   C1415156   5.399   4.553  13.829
  121CHL1   H1415157   5.325   4.635  13.844
  121CHL1   C1515158   5.526   4.601  13.900
  121CHL1  H15A15159   5.613   4.540  13.867
  121CHL1  H15B15160   5.547   4.708  13.880
  121CHL1   C1615161   5.496   4.573  14.048
  121CHL1  H16A15162   5.581   4.516  14.092
  121CHL1  H16B15163   5.484   4.668  14.106
  121CHL1   C1715164   5.364   4.490  14.054
  121CHL1   H1715165   5.282   4.563  14.069
  121CHL1   C1315166   5.346   4.435  13.910
  121CHL1   C1815167   5.438   4.311  13.893
  121CHL1  H18A15168   5.397   4.225  13.950
  121CHL1  H18B15169   5.445   4.280  13.787
  121CHL1  H18C15170   5.541   4.331  13.930
  121CHL1   C1215171   5.202   4.408  13.861
  121CHL1  H12A15172   5.158   4.320  13.912
  121CHL1  H12B15173   5.139   4.497  13.884
  121CHL1   C1115174   5.199   4.383  13.708
  121CHL1  H11A15175   5.249   4.285  13.691
  121CHL1  H11B15176   5.093   4.372  13.676
  121CHL1    C915177   5.268   4.495  13.624
  121CHL1    H915178   5.206   4.586  13.641
  121CHL1   C1015179   5.269   4.471  13.471
  121CHL1   C1915180   5.320   4.328  13.443
  121CHL1  H19A15181   5.420   4.312  13.490
  121CHL1  H19B15182   5.249   4.252  13.484
  121CHL1  H19C15183   5.329   4.308  13.335
  121CHL1    C115184   5.125   4.487  13.414
  121CHL1   H1A15185   5.060   4.407  13.456
  121CHL1   H1B15186   5.084   4.585  13.447
  121CHL1    C215187   5.116   4.481  13.260
  121CHL1   H2A15188   5.012   4.500  13.227
  121CHL1   H2B15189   5.145   4.379  13.224
  121CHL1   C2015190   5.362   4.393  14.174
  121CHL1   H2015191   5.444   4.319  14.163
  121CHL1   C2115192   5.228   4.317  14.180
  121CHL1  H21A15193   5.219   4.247  14.094
  121CHL1  H21B15194   5.142   4.388  14.179
  121CHL1  H21C15195   5.221   4.255  14.272
  121CHL1   C2215196   5.387   4.469  14.308
  121CHL1  H22A15197   5.481   4.527  14.301
  121CHL1  H22B15198   5.304   4.541  14.325
  121CHL1   C2315199   5.402   4.378  14.432
  121CHL1  H23A15200   5.305   4.330  14.455
  121CHL1  H23B15201   5.476   4.299  14.409
  121CHL1   C2415202   5.450   4.458  14.555
  121CHL1  H24A15203   5.547   4.505  14.531
  121CHL1  H24B15204   5.377   4.540  14.574
  121CHL1   C2515205   5.467   4.377  14.686
  121CHL1   H2515206   5.502   4.449  14.763
  121CHL1   C2615207   5.333   4.319  14.736
  121CHL1  H26A15208   5.257   4.399  14.745
  121CHL1  H26B15209   5.295   4.242  14.665
  121CHL1  H26C15210   5.347   4.271  14.835
  121CHL1   C2715211   5.573   4.267  14.673
  121CHL1  H27A15212   5.541   4.190  14.599
  121CHL1  H27B15213   5.669   4.310  14.638
  121CHL1  H27C15214   5.589   4.217  14.771
  122CHL1    C315215   3.120   4.576  13.215
  122CHL1    H315216   3.203   4.504  13.238
  122CHL1    O315217   3.102   4.581  13.075
  122CHL1   H3'15218   3.018   4.626  13.062
  122CHL1    C415219   2.991   4.528  13.284
  122CHL1   H4A15220   2.908   4.594  13.252
  122CHL1   H4B15221   2.967   4.427  13.245
  122CHL1    C515222   3.002   4.530  13.435
  122CHL1    C615223   2.979   4.419  13.509
  122CHL1    H615224   2.948   4.327  13.459
  122CHL1    C715225   2.986   4.415  13.659
  122CHL1   H7A15226   2.898   4.361  13.701
  122CHL1   H7B15227   3.076   4.358  13.689
  122CHL1    C815228   2.993   4.556  13.724
  122CHL1    H815229   2.891   4.600  13.722
  122CHL1   C1415230   3.040   4.545  13.869
  122CHL1   H1415231   3.143   4.504  13.864
  122CHL1   C1515232   2.964   4.449  13.963
  122CHL1  H15A15233   2.855   4.464  13.952
  122CHL1  H15B15234   2.988   4.343  13.942
  122CHL1   C1615235   3.010   4.493  14.103
  122CHL1  H16A15236   2.921   4.511  14.166
  122CHL1  H16B15237   3.073   4.415  14.151
  122CHL1   C1715238   3.092   4.625  14.085
  122CHL1   H1715239   3.199   4.594  14.075
  122CHL1   C1315240   3.052   4.678  13.945
  122CHL1   C1815241   2.914   4.747  13.956
  122CHL1  H18A15242   2.841   4.685  14.013
  122CHL1  H18B15243   2.923   4.845  14.008
  122CHL1  H18C15244   2.870   4.767  13.856
  122CHL1   C1215245   3.155   4.763  13.868
  122CHL1  H12A15246   3.166   4.864  13.914
  122CHL1  H12B15247   3.253   4.713  13.872
  122CHL1   C1115248   3.114   4.782  13.721
  122CHL1  H11A15249   3.022   4.845  13.719
  122CHL1  H11B15250   3.194   4.839  13.669
  122CHL1    C915251   3.088   4.648  13.647
  122CHL1    H915252   3.186   4.594  13.648
  122CHL1   C1015253   3.050   4.663  13.496
  122CHL1   C1915254   2.934   4.765  13.483
  122CHL1  H19A15255   2.848   4.735  13.547
  122CHL1  H19B15256   2.967   4.867  13.514
  122CHL1  H19C15257   2.898   4.774  13.378
  122CHL1    C115258   3.175   4.715  13.418
  122CHL1   H1A15259   3.199   4.818  13.452
  122CHL1   H1B15260   3.261   4.650  13.444
  122CHL1    C215261   3.159   4.715  13.265
  122CHL1   H2A15262   3.254   4.747  13.218
  122CHL1   H2B15263   3.081   4.788  13.236
  122CHL1   C2015264   3.084   4.717  14.208
  122CHL1   H2015265   2.978   4.742  14.228
  122CHL1   C2115266   3.161   4.848  14.184
  122CHL1  H21A15267   3.112   4.909  14.105
  122CHL1  H21B15268   3.266   4.827  14.154
  122CHL1  H21C15269   3.162   4.912  14.275
  122CHL1   C2215270   3.139   4.644  14.334
  122CHL1  H22A15271   3.079   4.552  14.352
  122CHL1  H22B15272   3.244   4.612  14.314
  122CHL1   C2315273   3.138   4.726  14.465
  122CHL1  H23A15274   3.205   4.814  14.453
  122CHL1  H23B15275   3.035   4.763  14.484
  122CHL1   C2415276   3.187   4.644  14.586
  122CHL1  H24A15277   3.119   4.557  14.598
  122CHL1  H24B15278   3.289   4.605  14.565
  122CHL1   C2515279   3.191   4.723  14.719
  122CHL1   H2515280   3.090   4.768  14.734
  122CHL1   C2615281   3.219   4.628  14.836
  122CHL1  H26A15282   3.142   4.549  14.842
  122CHL1  H26B15283   3.318   4.580  14.824
  122CHL1  H26C15284   3.218   4.685  14.932
  122CHL1   C2715285   3.295   4.836  14.717
  122CHL1  H27A15286   3.297   4.888  14.815
  122CHL1  H27B15287   3.396   4.795  14.697
  122CHL1  H27C15288   3.271   4.911  14.638
  123CHL1    C315289   6.245   4.573  13.251
  123CHL1    H315290   6.236   4.472  13.296
  123CHL1    O315291   6.168   4.579  13.132
  123CHL1   H3'15292   6.224   4.543  13.063
  123CHL1    C415293   6.193   4.678  13.351
  123CHL1   H4A15294   6.193   4.777  13.300
  123CHL1   H4B15295   6.087   4.654  13.373
  123CHL1    C515296   6.276   4.686  13.478
  123CHL1    C615297   6.221   4.672  13.600
  123CHL1    H615298   6.113   4.656  13.608
  123CHL1    C715299   6.298   4.681  13.729
  123CHL1   H7A15300   6.244   4.745  13.802
  123CHL1   H7B15301   6.305   4.580  13.773
  123CHL1    C815302   6.442   4.737  13.711
  123CHL1    H815303   6.434   4.847  13.700
  123CHL1   C1415304   6.526   4.704  13.834
  123CHL1   H1415305   6.531   4.593  13.837
  123CHL1   C1515306   6.471   4.745  13.972
  123CHL1  H15A15307   6.435   4.850  13.968
  123CHL1  H15B15308   6.388   4.679  14.005
  123CHL1   C1615309   6.594   4.735  14.064
  123CHL1  H16A15310   6.607   4.831  14.119
  123CHL1  H16B15311   6.584   4.652  14.138
  123CHL1   C1715312   6.718   4.708  13.972
  123CHL1   H1715313   6.729   4.598  13.966
  123CHL1   C1315314   6.671   4.752  13.830
  123CHL1   C1815315   6.679   4.906  13.821
  123CHL1  H18A15316   6.626   4.944  13.731
  123CHL1  H18B15317   6.633   4.955  13.911
  123CHL1  H18C15318   6.785   4.939  13.815
  123CHL1   C1215319   6.737   4.684  13.708
  123CHL1  H12A15320   6.842   4.717  13.695
  123CHL1  H12B15321   6.738   4.574  13.725
  123CHL1   C1115322   6.660   4.713  13.578
  123CHL1  H11A15323   6.673   4.821  13.556
  123CHL1  H11B15324   6.708   4.656  13.496
  123CHL1    C915325   6.509   4.678  13.587
  123CHL1    H915326   6.506   4.568  13.603
  123CHL1   C1015327   6.428   4.704  13.456
  123CHL1   C1915328   6.452   4.850  13.409
  123CHL1  H19A15329   6.558   4.865  13.381
  123CHL1  H19B15330   6.391   4.874  13.319
  123CHL1  H19C15331   6.425   4.922  13.489
  123CHL1    C115332   6.477   4.604  13.347
  123CHL1   H1A15333   6.582   4.628  13.320
  123CHL1   H1B15334   6.477   4.501  13.390
  123CHL1    C215335   6.392   4.601  13.218
  123CHL1   H2A15336   6.431   4.523  13.149
  123CHL1   H2B15337   6.400   4.699  13.166
  123CHL1   C2015338   6.848   4.764  14.031
  123CHL1   H2015339   6.840   4.874  14.039
  123CHL1   C2115340   6.967   4.732  13.939
  123CHL1  H21A15341   7.064   4.762  13.984
  123CHL1  H21B15342   6.959   4.789  13.844
  123CHL1  H21C15343   6.971   4.623  13.916
  123CHL1   C2215344   6.872   4.709  14.176
  123CHL1  H22A15345   6.795   4.753  14.243
  123CHL1  H22B15346   6.856   4.599  14.175
  123CHL1   C2315347   7.010   4.736  14.236
  123CHL1  H23A15348   7.087   4.678  14.180
  123CHL1  H23B15349   7.035   4.844  14.226
  123CHL1   C2415350   7.020   4.695  14.384
  123CHL1  H24A15351   6.962   4.767  14.447
  123CHL1  H24B15352   6.973   4.595  14.396
  123CHL1   C2515353   7.165   4.686  14.437
  123CHL1   H2515354   7.220   4.615  14.372
  123CHL1   C2615355   7.238   4.821  14.432
  123CHL1  H26A15356   7.186   4.896  14.495
  123CHL1  H26B15357   7.342   4.810  14.470
  123CHL1  H26C15358   7.243   4.860  14.328
  123CHL1   C2715359   7.167   4.630  14.581
  123CHL1  H27A15360   7.111   4.697  14.649
  123CHL1  H27B15361   7.122   4.529  14.584
  123CHL1  H27C15362   7.272   4.623  14.617
  124CHL1    C315363   4.305   6.247  13.222
  124CHL1    H315364   4.224   6.318  13.253
  124CHL1    O315365   4.311   6.241  13.081
  124CHL1   H3'15366   4.229   6.199  13.054
  124CHL1    C415367   4.439   6.298  13.276
  124CHL1   H4A15368   4.520   6.234  13.233
  124CHL1   H4B15369   4.456   6.400  13.235
  124CHL1    C515370   4.445   6.295  13.427
  124CHL1    C615371   4.471   6.407  13.498
  124CHL1    H615372   4.491   6.501  13.445
  124CHL1    C715373   4.484   6.409  13.647
  124CHL1   H7A15374   4.572   6.471  13.677
  124CHL1   H7B15375   4.394   6.455  13.692
  124CHL1    C815376   4.503   6.267  13.706
  124CHL1    H815377   4.605   6.233  13.678
  124CHL1   C1415378   4.490   6.270  13.857
  124CHL1   H1415379   4.386   6.303  13.879
  124CHL1   C1515380   4.581   6.369  13.931
  124CHL1  H15A15381   4.681   6.369  13.883
  124CHL1  H15B15382   4.540   6.472  13.929
  124CHL1   C1615383   4.591   6.312  14.073
  124CHL1  H16A15384   4.698   6.289  14.093
  124CHL1  H16B15385   4.554   6.384  14.150
  124CHL1   C1715386   4.508   6.180  14.075
  124CHL1   H1715387   4.404   6.211  14.099
  124CHL1   C1315388   4.507   6.135  13.927
  124CHL1   C1815389   4.645   6.073  13.893
  124CHL1  H18A15390   4.659   6.059  13.784
  124CHL1  H18B15391   4.729   6.135  13.930
  124CHL1  H18C15392   4.654   5.972  13.939
  124CHL1   C1215393   4.392   6.045  13.878
  124CHL1  H12A15394   4.402   5.943  13.922
  124CHL1  H12B15395   4.295   6.089  13.911
  124CHL1   C1115396   4.393   6.033  13.723
  124CHL1  H11A15397   4.480   5.970  13.697
  124CHL1  H11B15398   4.301   5.978  13.692
  124CHL1    C915399   4.399   6.170  13.647
  124CHL1    H915400   4.301   6.218  13.667
  124CHL1   C1015401   4.412   6.159  13.492
  124CHL1   C1915402   4.527   6.060  13.458
  124CHL1  H19A15403   4.501   5.957  13.490
  124CHL1  H19B15404   4.547   6.055  13.349
  124CHL1  H19C15405   4.621   6.090  13.508
  124CHL1    C115406   4.278   6.107  13.432
  124CHL1   H1A15407   4.258   6.004  13.469
  124CHL1   H1B15408   4.196   6.172  13.470
  124CHL1    C215409   4.272   6.108  13.278
  124CHL1   H2A15410   4.171   6.076  13.245
  124CHL1   H2B15411   4.346   6.035  13.239
  124CHL1   C2015412   4.552   6.079  14.183
  124CHL1   H2015413   4.633   6.015  14.142
  124CHL1   C2115414   4.432   5.989  14.219
  124CHL1  H21A15415   4.392   5.936  14.130
  124CHL1  H21B15416   4.350   6.051  14.262
  124CHL1  H21C15417   4.462   5.914  14.295
  124CHL1   C2215418   4.610   6.140  14.314
  124CHL1  H22A15419   4.671   6.231  14.293
  124CHL1  H22B15420   4.526   6.171  14.380
  124CHL1   C2315421   4.705   6.044  14.388
  124CHL1  H23A15422   4.651   5.953  14.421
  124CHL1  H23B15423   4.784   6.012  14.316
  124CHL1   C2415424   4.774   6.112  14.507
  124CHL1  H24A15425   4.800   6.215  14.478
  124CHL1  H24B15426   4.703   6.118  14.593
  124CHL1   C2515427   4.905   6.043  14.552
  124CHL1   H2515428   4.971   6.037  14.463
  124CHL1   C2615429   4.977   6.128  14.658
  124CHL1  H26A15430   5.073   6.081  14.687
  124CHL1  H26B15431   4.998   6.230  14.619
  124CHL1  H26C15432   4.913   6.138  14.749
  124CHL1   C2715433   4.882   5.901  14.604
  124CHL1  H27A15434   4.814   5.903  14.692
  124CHL1  H27B15435   4.837   5.837  14.525
  124CHL1  H27C15436   4.978   5.855  14.635
  125CHL1    C315437   5.101   6.237  13.203
  125CHL1    H315438   4.990   6.246  13.195
  125CHL1    O315439   5.153   6.205  13.075
  125CHL1   H3'15440   5.127   6.114  13.057
  125CHL1    C415441   5.160   6.371  13.249
  125CHL1   H4A15442   5.271   6.363  13.245
  125CHL1   H4B15443   5.132   6.448  13.174
  125CHL1    C515444   5.116   6.409  13.389
  125CHL1    C615445   5.055   6.526  13.413
  125CHL1    H615446   5.039   6.597  13.331
  125CHL1    C715447   5.012   6.571  13.550
  125CHL1   H7A15448   5.042   6.677  13.567
  125CHL1   H7B15449   4.901   6.566  13.557
  125CHL1    C815450   5.072   6.485  13.664
  125CHL1    H815451   5.178   6.516  13.678
  125CHL1   C1415452   4.995   6.509  13.793
  125CHL1   H1415453   4.892   6.472  13.774
  125CHL1   C1515454   4.976   6.655  13.840
  125CHL1  H15A15455   5.074   6.708  13.836
  125CHL1  H15B15456   4.903   6.710  13.778
  125CHL1   C1615457   4.930   6.639  13.985
  125CHL1  H16A15458   4.992   6.704  14.051
  125CHL1  H16B15459   4.823   6.667  13.997
  125CHL1   C1715460   4.949   6.488  14.023
  125CHL1   H1715461   4.851   6.440  14.003
  125CHL1   C1315462   5.044   6.431  13.916
  125CHL1   C1815463   5.189   6.471  13.952
  125CHL1  H18A15464   5.259   6.451  13.868
  125CHL1  H18B15465   5.197   6.579  13.978
  125CHL1  H18C15466   5.225   6.413  14.040
  125CHL1   C1215467   5.031   6.282  13.881
  125CHL1  H12A15468   5.070   6.217  13.963
  125CHL1  H12B15469   4.923   6.258  13.866
  125CHL1   C1115470   5.107   6.247  13.751
  125CHL1  H11A15471   5.215   6.258  13.773
  125CHL1  H11B15472   5.089   6.140  13.727
  125CHL1    C915473   5.067   6.336  13.630
  125CHL1    H915474   4.960   6.314  13.612
  125CHL1   C1015475   5.140   6.301  13.497
  125CHL1   C1915476   5.293   6.294  13.523
  125CHL1  H19A15477   5.330   6.388  13.569
  125CHL1  H19B15478   5.317   6.210  13.591
  125CHL1  H19C15479   5.350   6.277  13.429
  125CHL1    C115480   5.088   6.164  13.444
  125CHL1   H1A15481   5.120   6.084  13.515
  125CHL1   H1B15482   4.977   6.166  13.444
  125CHL1    C215483   5.136   6.126  13.303
  125CHL1   H2A15484   5.089   6.030  13.271
  125CHL1   H2B15485   5.246   6.112  13.303
  125CHL1   C2015486   4.974   6.468  14.174
  125CHL1   H2015487   5.065   6.526  14.203
  125CHL1   C2115488   4.999   6.319  14.205
  125CHL1  H21A15489   5.093   6.284  14.157
  125CHL1  H21B15490   4.914   6.257  14.170
  125CHL1  H21C15491   5.012   6.302  14.314
  125CHL1   C2215492   4.853   6.522  14.255
  125CHL1  H22A15493   4.837   6.629  14.231
  125CHL1  H22B15494   4.763   6.466  14.221
  125CHL1   C2315495   4.860   6.511  14.408
  125CHL1  H23A15496   4.889   6.409  14.439
  125CHL1  H23B15497   4.936   6.581  14.448
  125CHL1   C2415498   4.722   6.541  14.471
  125CHL1  H24A15499   4.696   6.648  14.457
  125CHL1  H24B15500   4.646   6.481  14.416
  125CHL1   C2515501   4.710   6.504  14.620
  125CHL1   H2515502   4.746   6.399  14.632
  125CHL1   C2615503   4.797   6.594  14.710
  125CHL1  H26A15504   4.765   6.700  14.700
  125CHL1  H26B15505   4.786   6.564  14.816
  125CHL1  H26C15506   4.904   6.587  14.681
  125CHL1   C2715507   4.564   6.509  14.666
  125CHL1  H27A15508   4.555   6.479  14.772
  125CHL1  H27B15509   4.523   6.612  14.655
  125CHL1  H27C15510   4.502   6.440  14.604
  126CHL1    C315511   3.079   6.200  13.222
  126CHL1    H315512   3.115   6.095  13.224
  126CHL1    O315513   3.072   6.244  13.088
  126CHL1   H3'15514   3.041   6.169  13.037
  126CHL1    C415515   2.940   6.210  13.286
  126CHL1   H4A15516   2.903   6.314  13.273
  126CHL1   H4B15517   2.871   6.145  13.229
  126CHL1    C515518   2.943   6.174  13.433
  126CHL1    C615519   2.865   6.077  13.483
  126CHL1    H615520   2.795   6.024  13.416
  126CHL1    C715521   2.861   6.038  13.628
  126CHL1   H7A15522   2.756   6.025  13.662
  126CHL1   H7B15523   2.912   5.941  13.641
  126CHL1    C815524   2.931   6.141  13.720
  126CHL1    H815525   2.862   6.228  13.732
  126CHL1   C1415526   2.959   6.078  13.856
  126CHL1   H1415527   3.034   5.998  13.837
  126CHL1   C1515528   2.843   6.008  13.928
  126CHL1  H15A15529   2.753   6.073  13.925
  126CHL1  H15B15530   2.819   5.910  13.884
  126CHL1   C1615531   2.893   5.996  14.073
  126CHL1  H16A15532   2.817   6.040  14.140
  126CHL1  H16B15533   2.911   5.891  14.102
  126CHL1   C1715534   3.026   6.079  14.083
  126CHL1   H1715535   3.109   6.007  14.067
  126CHL1   C1315536   3.024   6.171  13.959
  126CHL1   C1815537   2.933   6.293  13.989
  126CHL1  H18A15538   2.912   6.352  13.897
  126CHL1  H18B15539   2.835   6.261  14.031
  126CHL1  H18C15540   2.982   6.361  14.061
  126CHL1   C1215541   3.160   6.215  13.900
  126CHL1  H12A15542   3.211   6.289  13.966
  126CHL1  H12B15543   3.225   6.125  13.892
  126CHL1   C1115544   3.144   6.278  13.760
  126CHL1  H11A15545   3.092   6.376  13.775
  126CHL1  H11B15546   3.245   6.300  13.719
  126CHL1    C915547   3.063   6.190  13.660
  126CHL1    H915548   3.124   6.098  13.646
  126CHL1   C1015549   3.046   6.252  13.518
  126CHL1   C1915550   2.995   6.398  13.532
  126CHL1  H19A15551   2.974   6.444  13.433
  126CHL1  H19B15552   2.902   6.402  13.592
  126CHL1  H19C15553   3.072   6.462  13.581
  126CHL1    C115554   3.184   6.250  13.446
  126CHL1   H1A15555   3.254   6.319  13.499
  126CHL1   H1B15556   3.227   6.147  13.454
  126CHL1    C215557   3.180   6.288  13.297
  126CHL1   H2A15558   3.280   6.277  13.252
  126CHL1   H2B15559   3.149   6.395  13.288
  126CHL1   C2015560   3.046   6.141  14.222
  126CHL1   H2015561   2.970   6.220  14.238
  126CHL1   C2115562   3.186   6.207  14.231
  126CHL1  H21A15563   3.265   6.135  14.199
  126CHL1  H21B15564   3.208   6.240  14.335
  126CHL1  H21C15565   3.191   6.297  14.167
  126CHL1   C2215566   3.028   6.040  14.339
  126CHL1  H22A15567   2.932   5.985  14.326
  126CHL1  H22B15568   3.109   5.964  14.336
  126CHL1   C2315569   3.022   6.106  14.478
  126CHL1  H23A15570   3.122   6.146  14.504
  126CHL1  H23B15571   2.952   6.192  14.472
  126CHL1   C2415572   2.975   6.010  14.588
  126CHL1  H24A15573   2.875   5.970  14.559
  126CHL1  H24B15574   3.045   5.924  14.593
  126CHL1   C2515575   2.963   6.072  14.729
  126CHL1   H2515576   2.923   5.993  14.796
  126CHL1   C2615577   3.099   6.116  14.786
  126CHL1  H26A15578   3.143   6.197  14.724
  126CHL1  H26B15579   3.087   6.153  14.890
  126CHL1  H26C15580   3.169   6.030  14.787
  126CHL1   C2715581   2.863   6.190  14.733
  126CHL1  H27A15582   2.903   6.276  14.674
  126CHL1  H27B15583   2.766   6.160  14.690
  126CHL1  H27C15584   2.847   6.224  14.837
  127CHL1    C315585   4.017   7.692  13.193
  127CHL1    H315586   4.123   7.658  13.198
  127CHL1    O315587   3.974   7.690  13.058
  127CHL1   H3'15588   3.890   7.644  13.058
  127CHL1    C415589   3.929   7.597  13.276
  127CHL1   H4A15590   3.823   7.628  13.264
  127CHL1   H4B15591   3.937   7.496  13.232
  127CHL1    C515592   3.967   7.599  13.422
  127CHL1    C615593   4.003   7.486  13.485
  127CHL1    H615594   4.003   7.391  13.431
  127CHL1    C715595   4.039   7.480  13.631
  127CHL1   H7A15596   3.990   7.392  13.679
  127CHL1   H7B15597   4.149   7.467  13.641
  127CHL1    C815598   3.997   7.608  13.708
  127CHL1    H815599   3.887   7.605  13.721
  127CHL1   C1415600   4.065   7.610  13.844
  127CHL1   H1415601   4.174   7.617  13.824
  127CHL1   C1515602   4.048   7.486  13.933
  127CHL1  H15A15603   3.943   7.450  13.928
  127CHL1  H15B15604   4.116   7.404  13.902
  127CHL1   C1615605   4.080   7.537  14.074
  127CHL1  H16A15606   3.991   7.519  14.138
  127CHL1  H16B15607   4.167   7.486  14.120
  127CHL1   C1715608   4.106   7.691  14.062
  127CHL1   H1715609   4.214   7.703  14.041
  127CHL1   C1315610   4.032   7.732  13.932
  127CHL1   C1815611   3.880   7.740  13.962
  127CHL1  H18A15612   3.858   7.829  14.025
  127CHL1  H18B15613   3.821   7.750  13.868
  127CHL1  H18C15614   3.844   7.649  14.015
  127CHL1   C1215615   4.083   7.856  13.855
  127CHL1  H12A15616   4.059   7.950  13.909
  127CHL1  H12B15617   4.193   7.849  13.844
  127CHL1   C1115618   4.020   7.865  13.714
  127CHL1  H11A15619   3.912   7.888  13.728
  127CHL1  H11B15620   4.066   7.950  13.660
  127CHL1    C915621   4.035   7.734  13.629
  127CHL1    H915622   4.145   7.725  13.612
  127CHL1   C1015623   3.969   7.739  13.488
  127CHL1   C1915624   3.823   7.787  13.503
  127CHL1  H19A15625   3.766   7.724  13.575
  127CHL1  H19B15626   3.819   7.893  13.538
  127CHL1  H19C15627   3.769   7.785  13.406
  127CHL1    C115628   4.049   7.838  13.398
  127CHL1   H1A15629   4.037   7.941  13.437
  127CHL1   H1B15630   4.157   7.812  13.404
  127CHL1    C215631   4.008   7.835  13.249
  127CHL1   H2A15632   4.075   7.902  13.190
  127CHL1   H2B15633   3.904   7.872  13.238
  127CHL1   C2015634   4.077   7.765  14.194
  127CHL1   H2015635   3.970   7.753  14.221
  127CHL1   C2115636   4.105   7.916  14.178
  127CHL1  H21A15637   4.098   7.967  14.277
  127CHL1  H21B15638   4.029   7.963  14.112
  127CHL1  H21C15639   4.206   7.934  14.137
  127CHL1   C2215640   4.162   7.711  14.313
  127CHL1  H22A15641   4.258   7.669  14.275
  127CHL1  H22B15642   4.188   7.796  14.379
  127CHL1   C2315643   4.091   7.607  14.402
  127CHL1  H23A15644   4.000   7.653  14.445
  127CHL1  H23B15645   4.059   7.521  14.340
  127CHL1   C2415646   4.181   7.555  14.515
  127CHL1  H24A15647   4.270   7.504  14.471
  127CHL1  H24B15648   4.218   7.642  14.574
  127CHL1   C2515649   4.111   7.457  14.612
  127CHL1   H2515650   4.022   7.509  14.654
  127CHL1   C2615651   4.064   7.329  14.542
  127CHL1  H26A15652   3.989   7.352  14.464
  127CHL1  H26B15653   4.150   7.277  14.495
  127CHL1  H26C15654   4.017   7.260  14.616
  127CHL1   C2715655   4.204   7.422  14.730
  127CHL1  H27A15656   4.152   7.355  14.802
  127CHL1  H27B15657   4.295   7.370  14.692
  127CHL1  H27C15658   4.236   7.514  14.783
  128CHL1    C315659   2.509   2.032  13.186
  128CHL1    H315660   2.400   2.041  13.199
  128CHL1    O315661   2.539   2.027  13.047
  128CHL1   H3'15662   2.494   1.948  13.016
  128CHL1    C415663   2.578   2.156  13.248
  128CHL1   H4A15664   2.686   2.152  13.222
  128CHL1   H4B15665   2.537   2.246  13.197
  128CHL1    C515666   2.561   2.163  13.398
  128CHL1    C615667   2.507   2.271  13.458
  128CHL1    H615668   2.477   2.357  13.396
  128CHL1    C715669   2.493   2.286  13.606
  128CHL1   H7A15670   2.524   2.388  13.638
  128CHL1   H7B15671   2.387   2.273  13.636
  128CHL1    C815672   2.579   2.183  13.684
  128CHL1    H815673   2.685   2.214  13.674
  128CHL1   C1415674   2.541   2.183  13.832
  128CHL1   H1415675   2.436   2.149  13.837
  128CHL1   C1515676   2.544   2.318  13.906
  128CHL1  H15A15677   2.637   2.373  13.879
  128CHL1  H15B15678   2.456   2.381  13.880
  128CHL1   C1615679   2.547   2.278  14.054
  128CHL1  H16A15680   2.630   2.332  14.103
  128CHL1  H16B15681   2.452   2.305  14.105
  128CHL1   C1715682   2.569   2.124  14.060
  128CHL1   H1715683   2.469   2.077  14.070
  128CHL1   C1315684   2.620   2.085  13.919
  128CHL1   C1815685   2.772   2.116  13.912
  128CHL1  H18A15686   2.811   2.110  13.808
  128CHL1  H18B15687   2.795   2.218  13.951
  128CHL1  H18C15688   2.829   2.042  13.972
  128CHL1   C1215689   2.587   1.944  13.866
  128CHL1  H12A15690   2.643   1.866  13.922
  128CHL1  H12B15691   2.479   1.925  13.879
  128CHL1   C1115692   2.623   1.931  13.716
  128CHL1  H11A15693   2.734   1.932  13.710
  128CHL1  H11B15694   2.589   1.831  13.680
  128CHL1    C915695   2.562   2.042  13.625
  128CHL1    H915696   2.452   2.024  13.628
  128CHL1   C1015697   2.604   2.036  13.475
  128CHL1   C1915698   2.758   2.025  13.467
  128CHL1  H19A15699   2.807   2.108  13.523
  128CHL1  H19B15700   2.793   1.928  13.508
  128CHL1  H19C15701   2.794   2.029  13.362
  128CHL1    C115702   2.538   1.912  13.408
  128CHL1   H1A15703   2.579   1.820  13.454
  128CHL1   H1B15704   2.429   1.914  13.428
  128CHL1    C215705   2.558   1.904  13.255
  128CHL1   H2A15706   2.503   1.816  13.214
  128CHL1   H2B15707   2.666   1.889  13.233
  128CHL1   C2015708   2.652   2.082  14.184
  128CHL1   H2015709   2.754   2.124  14.173
  128CHL1   C2115710   2.663   1.928  14.192
  128CHL1  H21A15711   2.711   1.897  14.288
  128CHL1  H21B15712   2.727   1.889  14.110
  128CHL1  H21C15713   2.563   1.881  14.186
  128CHL1   C2215714   2.596   2.138  14.317
  128CHL1  H22A15715   2.567   2.245  14.305
  128CHL1  H22B15716   2.504   2.082  14.345
  128CHL1   C2315717   2.698   2.134  14.432
  128CHL1  H23A15718   2.720   2.029  14.461
  128CHL1  H23B15719   2.793   2.180  14.397
  128CHL1   C2415720   2.651   2.212  14.556
  128CHL1  H24A15721   2.619   2.314  14.524
  128CHL1  H24B15722   2.562   2.162  14.601
  128CHL1   C2515723   2.760   2.230  14.664
  128CHL1   H2515724   2.849   2.274  14.615
  128CHL1   C2615725   2.713   2.329  14.773
  128CHL1  H26A15726   2.688   2.427  14.727
  128CHL1  H26B15727   2.623   2.290  14.825
  128CHL1  H26C15728   2.794   2.345  14.848
  128CHL1   C2715729   2.801   2.097  14.728
  128CHL1  H27A15730   2.842   2.027  14.652
  128CHL1  H27B15731   2.879   2.113  14.806
  128CHL1  H27C15732   2.713   2.048  14.777
  129CHL1    C315733   6.923   7.200  13.234
  129CHL1    H315734   7.006   7.129  13.210
  129CHL1    O315735   6.844   7.219  13.118
  129CHL1   H3'15736   6.906   7.247  13.050
  129CHL1    C415737   6.837   7.139  13.347
  129CHL1   H4A15738   6.749   7.206  13.363
  129CHL1   H4B15739   6.796   7.043  13.310
  129CHL1    C515740   6.915   7.123  13.476
  129CHL1    C615741   6.928   7.004  13.536
  129CHL1    H615742   6.878   6.916  13.493
  129CHL1    C715743   7.002   6.982  13.664
  129CHL1   H7A15744   6.943   6.918  13.733
  129CHL1   H7B15745   7.097   6.929  13.642
  129CHL1    C815746   7.037   7.114  13.738
  129CHL1    H815747   6.945   7.151  13.789
  129CHL1   C1415748   7.146   7.088  13.842
  129CHL1   H1415749   7.235   7.056  13.784
  129CHL1   C1515750   7.123   6.975  13.944
  129CHL1  H15A15751   7.022   6.984  13.987
  129CHL1  H15B15752   7.134   6.874  13.898
  129CHL1   C1615753   7.230   7.002  14.051
  129CHL1  H16A15754   7.182   7.003  14.151
  129CHL1  H16B15755   7.310   6.924  14.049
  129CHL1   C1715756   7.293   7.142  14.018
  129CHL1   H1715757   7.382   7.122  13.956
  129CHL1   C1315758   7.192   7.210  13.923
  129CHL1   C1815759   7.075   7.267  14.007
  129CHL1  H18A15760   7.037   7.193  14.080
  129CHL1  H18B15761   7.108   7.357  14.063
  129CHL1  H18C15762   6.990   7.298  13.942
  129CHL1   C1215763   7.247   7.313  13.822
  129CHL1  H12A15764   7.276   7.407  13.873
  129CHL1  H12B15765   7.337   7.270  13.773
  129CHL1   C1115766   7.143   7.347  13.713
  129CHL1  H11A15767   7.060   7.402  13.762
  129CHL1  H11B15768   7.190   7.415  13.639
  129CHL1    C915769   7.087   7.221  13.640
  129CHL1    H915770   7.175   7.174  13.590
  129CHL1   C1015771   6.986   7.251  13.526
  129CHL1   C1915772   6.877   7.348  13.579
  129CHL1  H19A15773   6.798   7.367  13.503
  129CHL1  H19B15774   6.827   7.305  13.670
  129CHL1  H19C15775   6.920   7.446  13.606
  129CHL1    C115776   7.063   7.318  13.408
  129CHL1   H1A15777   7.099   7.418  13.440
  129CHL1   H1B15778   7.152   7.256  13.384
  129CHL1    C215779   6.981   7.334  13.278
  129CHL1   H2A15780   7.046   7.375  13.198
  129CHL1   H2B15781   6.898   7.405  13.295
  129CHL1   C2015782   7.343   7.214  14.145
  129CHL1   H2015783   7.257   7.230  14.214
  129CHL1   C2115784   7.402   7.352  14.109
  129CHL1  H21A15785   7.480   7.341  14.030
  129CHL1  H21B15786   7.447   7.400  14.198
  129CHL1  H21C15787   7.323   7.421  14.073
  129CHL1   C2215788   7.448   7.127  14.219
  129CHL1  H22A15789   7.404   7.028  14.244
  129CHL1  H22B15790   7.533   7.110  14.150
  129CHL1   C2315791   7.506   7.184  14.351
  129CHL1  H23A15792   7.584   7.113  14.385
  129CHL1  H23B15793   7.558   7.281  14.332
  129CHL1   C2415794   7.402   7.202  14.462
  129CHL1  H24A15795   7.323   7.272  14.427
  129CHL1  H24B15796   7.353   7.105  14.483
  129CHL1   C2515797   7.460   7.258  14.594
  129CHL1   H2515798   7.511   7.354  14.571
  129CHL1   C2615799   7.347   7.288  14.695
  129CHL1  H26A15800   7.293   7.194  14.720
  129CHL1  H26B15801   7.389   7.331  14.788
  129CHL1  H26C15802   7.275   7.360  14.651
  129CHL1   C2715803   7.563   7.164  14.658
  129CHL1  H27A15804   7.517   7.065  14.680
  129CHL1  H27B15805   7.650   7.148  14.591
  129CHL1  H27C15806   7.601   7.207  14.753
  130CHL1    C315807   3.160   7.811  13.232
  130CHL1    H315808   3.062   7.861  13.242
  130CHL1    O315809   3.191   7.796  13.094
  130CHL1   H3'15810   3.268   7.739  13.092
  130CHL1    C415811   3.268   7.898  13.299
  130CHL1   H4A15812   3.368   7.855  13.276
  130CHL1   H4B15813   3.265   7.998  13.250
  130CHL1    C515814   3.250   7.908  13.449
  130CHL1    C615815   3.239   8.027  13.512
  130CHL1    H615816   3.246   8.120  13.453
  130CHL1    C715817   3.225   8.042  13.661
  130CHL1   H7A15818   3.292   8.123  13.697
  130CHL1   H7B15819   3.121   8.072  13.685
  130CHL1    C815820   3.259   7.912  13.738
  130CHL1    H815821   3.369   7.899  13.736
  130CHL1   C1415822   3.211   7.922  13.882
  130CHL1   H1415823   3.101   7.931  13.876
  130CHL1   C1515824   3.258   8.043  13.965
  130CHL1  H15A15825   3.367   8.058  13.951
  130CHL1  H15B15826   3.204   8.136  13.936
  130CHL1   C1615827   3.228   8.001  14.109
  130CHL1  H16A15828   3.319   8.016  14.171
  130CHL1  H16B15829   3.145   8.061  14.153
  130CHL1   C1715830   3.188   7.850  14.106
  130CHL1   H1715831   3.077   7.847  14.101
  130CHL1   C1315832   3.238   7.799  13.969
  130CHL1   C1815833   3.390   7.771  13.979
  130CHL1  H18A15834   3.408   7.679  14.039
  130CHL1  H18B15835   3.435   7.754  13.879
  130CHL1  H18C15836   3.444   7.855  14.027
  130CHL1   C1215837   3.161   7.681  13.904
  130CHL1  H12A15838   3.179   7.586  13.958
  130CHL1  H12B15839   3.052   7.703  13.907
  130CHL1   C1115840   3.204   7.661  13.757
  130CHL1  H11A15841   3.309   7.624  13.758
  130CHL1  H11B15842   3.141   7.581  13.713
  130CHL1    C915843   3.194   7.790  13.671
  130CHL1    H915844   3.085   7.814  13.668
  130CHL1   C1015845   3.237   7.773  13.522
  130CHL1   C1915846   3.376   7.704  13.518
  130CHL1  H19A15847   3.370   7.600  13.557
  130CHL1  H19B15848   3.415   7.696  13.414
  130CHL1  H19C15849   3.450   7.760  13.578
  130CHL1    C115850   3.131   7.685  13.449
  130CHL1   H1A15851   3.132   7.583  13.493
  130CHL1   H1B15852   3.031   7.729  13.467
  130CHL1    C215853   3.153   7.673  13.297
  130CHL1   H2A15854   3.070   7.615  13.252
  130CHL1   H2B15855   3.247   7.617  13.278
  130CHL1   C2015856   3.229   7.775  14.234
  130CHL1   H2015857   3.340   7.778  14.243
  130CHL1   C2115858   3.185   7.627  14.228
  130CHL1  H21A15859   3.201   7.576  14.326
  130CHL1  H21B15860   3.244   7.572  14.152
  130CHL1  H21C15861   3.077   7.620  14.203
  130CHL1   C2215862   3.171   7.841  14.363
  130CHL1  H22A15863   3.183   7.952  14.358
  130CHL1  H22B15864   3.063   7.819  14.369
  130CHL1   C2315865   3.241   7.796  14.492
  130CHL1  H23A15866   3.231   7.686  14.504
  130CHL1  H23B15867   3.349   7.819  14.485
  130CHL1   C2415868   3.184   7.865  14.617
  130CHL1  H24A15869   3.183   7.975  14.600
  130CHL1  H24B15870   3.078   7.832  14.632
  130CHL1   C2515871   3.264   7.838  14.747
  130CHL1   H2515872   3.368   7.872  14.730
  130CHL1   C2615873   3.206   7.919  14.863
  130CHL1  H26A15874   3.101   7.888  14.884
  130CHL1  H26B15875   3.266   7.904  14.955
  130CHL1  H26C15876   3.206   8.028  14.839
  130CHL1   C2715877   3.267   7.689  14.783
  130CHL1  H27A15878   3.322   7.674  14.879
  130CHL1  H27B15879   3.164   7.649  14.794
  130CHL1  H27C15880   3.319   7.630  14.704
  131CHL1    C315881   1.134   6.138  13.245
  131CHL1    H315882   1.185   6.040  13.255
  131CHL1    O315883   1.109   6.163  13.108
  131CHL1   H3'15884   1.196   6.178  13.068
  131CHL1    C415885   0.999   6.133  13.319
  131CHL1   H4A15886   0.944   6.226  13.298
  131CHL1   H4B15887   0.940   6.050  13.275
  131CHL1    C515888   1.018   6.117  13.469
  131CHL1    C615889   0.962   6.014  13.535
  131CHL1    H615890   0.900   5.941  13.481
  131CHL1    C715891   0.972   5.995  13.684
  131CHL1   H7A15892   0.873   5.968  13.726
  131CHL1   H7B15893   1.041   5.910  13.705
  131CHL1    C815894   1.025   6.122  13.757
  131CHL1    H815895   0.943   6.196  13.759
  131CHL1   C1415896   1.066   6.086  13.899
  131CHL1   H1415897   1.149   6.012  13.889
  131CHL1   C1515898   0.961   6.016  13.985
  131CHL1  H15A15899   0.863   6.069  13.976
  131CHL1  H15B15900   0.947   5.910  13.955
  131CHL1   C1615901   1.016   6.031  14.128
  131CHL1  H16A15902   0.937   6.076  14.191
  131CHL1  H16B15903   1.047   5.933  14.170
  131CHL1   C1715904   1.139   6.127  14.119
  131CHL1   H1715905   1.228   6.063  14.107
  131CHL1   C1315906   1.122   6.200  13.983
  131CHL1   C1815907   1.017   6.313  14.000
  131CHL1  H18A15908   0.926   6.276  14.053
  131CHL1  H18B15909   1.060   6.397  14.058
  131CHL1  H18C15910   0.985   6.353  13.902
  131CHL1   C1215911   1.249   6.249  13.910
  131CHL1  H12A15912   1.295   6.336  13.963
  131CHL1  H12B15913   1.324   6.167  13.909
  131CHL1   C1115914   1.218   6.291  13.765
  131CHL1  H11A15915   1.156   6.383  13.770
  131CHL1  H11B15916   1.313   6.319  13.715
  131CHL1    C915917   1.145   6.181  13.682
  131CHL1    H915918   1.218   6.098  13.675
  131CHL1   C1015919   1.111   6.220  13.536
  131CHL1   C1915920   1.037   6.357  13.536
  131CHL1  H19A15921   1.105   6.438  13.571
  131CHL1  H19B15922   1.004   6.386  13.434
  131CHL1  H19C15923   0.948   6.354  13.602
  131CHL1    C115924   1.243   6.231  13.453
  131CHL1   H1A15925   1.303   6.316  13.492
  131CHL1   H1B15926   1.301   6.138  13.470
  131CHL1    C215927   1.223   6.249  13.302
  131CHL1   H2A15928   1.321   6.249  13.251
  131CHL1   H2B15929   1.174   6.347  13.283
  131CHL1   C2015930   1.160   6.209  14.248
  131CHL1   H2015931   1.070   6.272  14.267
  131CHL1   C2115932   1.281   6.304  14.233
  131CHL1  H21A15933   1.259   6.385  14.160
  131CHL1  H21B15934   1.370   6.247  14.199
  131CHL1  H21C15935   1.305   6.353  14.330
  131CHL1   C2215936   1.183   6.121  14.375
  131CHL1  H22A15937   1.250   6.036  14.350
  131CHL1  H22B15938   1.237   6.185  14.449
  131CHL1   C2315939   1.057   6.071  14.448
  131CHL1  H23A15940   0.986   6.155  14.461
  131CHL1  H23B15941   1.007   5.993  14.386
  131CHL1   C2415942   1.089   6.009  14.585
  131CHL1  H24A15943   1.159   5.924  14.573
  131CHL1  H24B15944   1.140   6.086  14.647
  131CHL1   C2515945   0.964   5.960  14.663
  131CHL1   H2515946   0.892   6.044  14.668
  131CHL1   C2615947   0.896   5.841  14.594
  131CHL1  H26A15948   0.860   5.869  14.493
  131CHL1  H26B15949   0.967   5.756  14.584
  131CHL1  H26C15950   0.809   5.807  14.654
  131CHL1   C2715951   1.002   5.922  14.807
  131CHL1  H27A15952   1.076   5.839  14.807
  131CHL1  H27B15953   1.047   6.009  14.860
  131CHL1  H27C15954   0.912   5.889  14.863
  132CHL1    C315955   4.484   8.473  13.244
  132CHL1    H315956   4.459   8.578  13.270
  132CHL1    O315957   4.458   8.452  13.106
  132CHL1   H3'15958   4.364   8.468  13.097
  132CHL1    C415959   4.632   8.446  13.276
  132CHL1   H4A15960   4.657   8.344  13.241
  132CHL1   H4B15961   4.693   8.516  13.215
  132CHL1    C515962   4.662   8.458  13.425
  132CHL1    C615963   4.757   8.542  13.471
  132CHL1    H615964   4.816   8.601  13.400
  132CHL1    C715965   4.792   8.557  13.617
  132CHL1   H7A15966   4.903   8.555  13.630
  132CHL1   H7B15967   4.756   8.655  13.653
  132CHL1    C815968   4.731   8.446  13.707
  132CHL1    H815969   4.792   8.354  13.694
  132CHL1   C1415970   4.734   8.490  13.853
  132CHL1   H1415971   4.668   8.580  13.858
  132CHL1   C1515972   4.868   8.536  13.913
  132CHL1  H15A15973   4.947   8.463  13.886
  132CHL1  H15B15974   4.897   8.637  13.878
  132CHL1   C1615975   4.842   8.533  14.065
  132CHL1  H16A15976   4.922   8.473  14.114
  132CHL1  H16B15977   4.842   8.635  14.109
  132CHL1   C1715978   4.702   8.466  14.086
  132CHL1   H1715979   4.628   8.548  14.089
  132CHL1   C1315980   4.675   8.391  13.953
  132CHL1   C1815981   4.755   8.258  13.953
  132CHL1  H18A15982   4.755   8.211  13.852
  132CHL1  H18B15983   4.860   8.274  13.984
  132CHL1  H18C15984   4.709   8.185  14.023
  132CHL1   C1215985   4.527   8.369  13.914
  132CHL1  H12A15986   4.479   8.293  13.979
  132CHL1  H12B15987   4.473   8.465  13.926
  132CHL1   C1115988   4.514   8.323  13.768
  132CHL1  H11A15989   4.556   8.220  13.761
  132CHL1  H11B15990   4.406   8.316  13.743
  132CHL1    C915991   4.586   8.417  13.667
  132CHL1    H915992   4.533   8.514  13.676
  132CHL1   C1015993   4.571   8.375  13.517
  132CHL1   C1915994   4.612   8.226  13.502
  132CHL1  H19A15995   4.541   8.160  13.557
  132CHL1  H19B15996   4.609   8.194  13.395
  132CHL1  H19C15997   4.714   8.209  13.541
  132CHL1    C115998   4.422   8.394  13.476
  132CHL1   H1A15999   4.358   8.322  13.531
  132CHL1   H1B16000   4.389   8.496  13.506
  132CHL1    C216001   4.394   8.379  13.325
  132CHL1   H2A16002   4.287   8.401  13.305
  132CHL1   H2B16003   4.413   8.274  13.294
  132CHL1   C2016004   4.693   8.390  14.219
  132CHL1   H2016005   4.766   8.306  14.218
  132CHL1   C2116006   4.553   8.329  14.240
  132CHL1  H21A16007   4.542   8.292  14.344
  132CHL1  H21B16008   4.536   8.243  14.172
  132CHL1  H21C16009   4.474   8.406  14.222
  132CHL1   C2216010   4.731   8.477  14.343
  132CHL1  H22A16011   4.725   8.411  14.432
  132CHL1  H22B16012   4.836   8.510  14.334
  132CHL1   C2316013   4.641   8.600  14.366
  132CHL1  H23A16014   4.646   8.665  14.276
  132CHL1  H23B16015   4.536   8.569  14.379
  132CHL1   C2416016   4.684   8.687  14.487
  132CHL1  H24A16017   4.788   8.721  14.470
  132CHL1  H24B16018   4.619   8.777  14.490
  132CHL1   C2516019   4.676   8.617  14.625
  132CHL1   H2516020   4.741   8.527  14.622
  132CHL1   C2616021   4.731   8.710  14.734
  132CHL1  H26A16022   4.730   8.659  14.833
  132CHL1  H26B16023   4.836   8.740  14.711
  132CHL1  H26C16024   4.669   8.802  14.742
  132CHL1   C2716025   4.533   8.573  14.660
  132CHL1  H27A16026   4.495   8.499  14.587
  132CHL1  H27B16027   4.531   8.527  14.761
  132CHL1  H27C16028   4.465   8.661  14.661
  133CHL1    C316029   1.024   2.884  13.204
  133CHL1    H316030   1.082   2.789  13.205
  133CHL1    O316031   0.992   2.917  13.070
  133CHL1   H3'16032   1.059   2.877  13.015
  133CHL1    C416033   0.894   2.865  13.284
  133CHL1   H4A16034   0.832   2.957  13.271
  133CHL1   H4B16035   0.837   2.783  13.236
  133CHL1    C516036   0.920   2.839  13.431
  133CHL1    C616037   0.874   2.729  13.491
  133CHL1    H616038   0.814   2.657  13.434
  133CHL1    C716039   0.894   2.698  13.637
  133CHL1   H7A16040   0.799   2.662  13.682
  133CHL1   H7B16041   0.969   2.617  13.647
  133CHL1    C816042   0.943   2.821  13.718
  133CHL1    H816043   0.857   2.889  13.734
  133CHL1   C1416044   0.998   2.776  13.853
  133CHL1   H1416045   1.087   2.713  13.829
  133CHL1   C1516046   0.909   2.686  13.940
  133CHL1  H15A16047   0.806   2.729  13.944
  133CHL1  H15B16048   0.903   2.582  13.901
  133CHL1   C1616049   0.975   2.694  14.078
  133CHL1  H16A16050   0.899   2.722  14.154
  133CHL1  H16B16051   1.020   2.596  14.107
  133CHL1   C1716052   1.087   2.803  14.070
  133CHL1   H1716053   1.181   2.750  14.044
  133CHL1   C1316054   1.050   2.887  13.944
  133CHL1   C1816055   0.937   2.985  13.982
  133CHL1  H18A16056   0.855   2.934  14.038
  133CHL1  H18B16057   0.977   3.067  14.046
  133CHL1  H18C16058   0.892   3.032  13.892
  133CHL1   C1216059   1.165   2.957  13.869
  133CHL1  H12A16060   1.205   3.043  13.927
  133CHL1  H12B16061   1.248   2.884  13.855
  133CHL1   C1116062   1.118   3.008  13.731
  133CHL1  H11A16063   1.045   3.090  13.749
  133CHL1  H11B16064   1.205   3.052  13.677
  133CHL1    C916065   1.053   2.897  13.643
  133CHL1    H916066   1.134   2.822  13.626
  133CHL1   C1016067   1.009   2.944  13.501
  133CHL1   C1916068   0.927   3.075  13.514
  133CHL1  H19A16069   0.841   3.060  13.583
  133CHL1  H19B16070   0.990   3.157  13.553
  133CHL1  H19C16071   0.887   3.109  13.416
  133CHL1    C116072   1.136   2.969  13.414
  133CHL1   H1A16073   1.192   3.056  13.456
  133CHL1   H1B16074   1.202   2.880  13.421
  133CHL1    C216075   1.109   2.996  13.265
  133CHL1   H2A16076   1.205   3.005  13.210
  133CHL1   H2B16077   1.054   3.092  13.254
  133CHL1   C2016078   1.111   2.873  14.205
  133CHL1   H2016079   1.019   2.927  14.235
  133CHL1   C2116080   1.226   2.975  14.194
  133CHL1  H21A16081   1.252   3.017  14.294
  133CHL1  H21B16082   1.197   3.060  14.130
  133CHL1  H21C16083   1.317   2.927  14.152
  133CHL1   C2216084   1.140   2.769  14.317
  133CHL1  H22A16085   1.056   2.697  14.323
  133CHL1  H22B16086   1.232   2.712  14.291
  133CHL1   C2316087   1.156   2.828  14.459
  133CHL1  H23A16088   1.251   2.885  14.464
  133CHL1  H23B16089   1.072   2.898  14.478
  133CHL1   C2416090   1.157   2.717  14.566
  133CHL1  H24A16091   1.059   2.665  14.563
  133CHL1  H24B16092   1.235   2.643  14.540
  133CHL1   C2516093   1.182   2.765  14.711
  133CHL1   H2516094   1.170   2.676  14.777
  133CHL1   C2616095   1.325   2.817  14.731
  133CHL1  H26A16096   1.343   2.907  14.669
  133CHL1  H26B16097   1.342   2.844  14.837
  133CHL1  H26C16098   1.399   2.739  14.702
  133CHL1   C2716099   1.078   2.869  14.757
  133CHL1  H27A16100   1.089   2.963  14.699
  133CHL1  H27B16101   0.975   2.830  14.743
  133CHL1  H27C16102   1.092   2.893  14.865
  134CHL1    C316103   8.281   2.972  13.215
  134CHL1    H316104   8.364   2.899  13.212
  134CHL1    O316105   8.231   2.991  13.083
  134CHL1   H3'16106   8.194   2.907  13.057
  134CHL1    C416107   8.167   2.918  13.303
  134CHL1   H4A16108   8.081   2.988  13.298
  134CHL1   H4B16109   8.133   2.821  13.260
  134CHL1    C516110   8.212   2.902  13.447
  134CHL1    C616111   8.205   2.783  13.509
  134CHL1    H616112   8.163   2.696  13.456
  134CHL1    C716113   8.244   2.761  13.652
  134CHL1   H7A16114   8.166   2.700  13.704
  134CHL1   H7B16115   8.338   2.702  13.656
  134CHL1    C816116   8.263   2.893  13.731
  134CHL1    H816117   8.163   2.933  13.754
  134CHL1   C1416118   8.338   2.865  13.861
  134CHL1   H1416119   8.439   2.829  13.830
  134CHL1   C1516120   8.283   2.754  13.952
  134CHL1  H15A16121   8.173   2.766  13.962
  134CHL1  H15B16122   8.305   2.652  13.911
  134CHL1   C1616123   8.353   2.780  14.086
  134CHL1  H16A16124   8.276   2.784  14.166
  134CHL1  H16B16125   8.426   2.700  14.110
  134CHL1   C1716126   8.426   2.917  14.074
  134CHL1   H1716127   8.531   2.895  14.045
  134CHL1   C1316128   8.362   2.986  13.950
  134CHL1   C1816129   8.228   3.050  13.994
  134CHL1  H18A16130   8.166   2.978  14.052
  134CHL1  H18B16131   8.246   3.139  14.057
  134CHL1  H18C16132   8.168   3.082  13.906
  134CHL1   C1216133   8.449   3.084  13.868
  134CHL1  H12A16134   8.467   3.178  13.925
  134CHL1  H12B16135   8.547   3.036  13.848
  134CHL1   C1116136   8.383   3.120  13.734
  134CHL1  H11A16137   8.293   3.181  13.757
  134CHL1  H11B16138   8.452   3.183  13.675
  134CHL1    C916139   8.342   2.995  13.649
  134CHL1    H916140   8.437   2.945  13.624
  134CHL1   C1016141   8.273   3.028  13.512
  134CHL1   C1916142   8.158   3.129  13.536
  134CHL1  H19A16143   8.102   3.150  13.443
  134CHL1  H19B16144   8.087   3.090  13.612
  134CHL1  H19C16145   8.198   3.226  13.571
  134CHL1    C116146   8.379   3.089  13.416
  134CHL1   H1A16147   8.411   3.188  13.455
  134CHL1   H1B16148   8.469   3.023  13.416
  134CHL1    C216149   8.332   3.105  13.270
  134CHL1   H2A16150   8.416   3.142  13.207
  134CHL1   H2B16151   8.250   3.181  13.266
  134CHL1   C2016152   8.432   2.993  14.208
  134CHL1   H2016153   8.328   3.017  14.240
  134CHL1   C2116154   8.511   3.124  14.193
  134CHL1  H21A16155   8.525   3.173  14.292
  134CHL1  H21B16156   8.456   3.196  14.129
  134CHL1  H21C16157   8.611   3.105  14.149
  134CHL1   C2216158   8.494   2.906  14.322
  134CHL1  H22A16159   8.445   2.806  14.324
  134CHL1  H22B16160   8.602   2.890  14.301
  134CHL1   C2316161   8.476   2.965  14.463
  134CHL1  H23A16162   8.534   3.059  14.473
  134CHL1  H23B16163   8.368   2.989  14.477
  134CHL1   C2416164   8.522   2.868  14.573
  134CHL1  H24A16165   8.462   2.774  14.567
  134CHL1  H24B16166   8.628   2.841  14.554
  134CHL1   C2516167   8.511   2.925  14.717
  134CHL1   H2516168   8.567   3.020  14.719
  134CHL1   C2616169   8.366   2.953  14.758
  134CHL1  H26A16170   8.362   2.991  14.862
  134CHL1  H26B16171   8.320   3.029  14.691
  134CHL1  H26C16172   8.305   2.859  14.752
  134CHL1   C2716173   8.577   2.829  14.818
  134CHL1  H27A16174   8.572   2.872  14.920
  134CHL1  H27B16175   8.524   2.731  14.818
  134CHL1  H27C16176   8.683   2.811  14.791
  135CHL1    C316177   8.707   3.872  13.234
  135CHL1    H316178   8.762   3.776  13.244
  135CHL1    O316179   8.691   3.904  13.097
  135CHL1   H3'16180   8.648   3.828  13.058
  135CHL1    C416181   8.568   3.860  13.299
  135CHL1   H4A16182   8.512   3.954  13.279
  135CHL1   H4B16183   8.512   3.779  13.248
  135CHL1    C516184   8.575   3.837  13.449
  135CHL1    C616185   8.516   3.731  13.507
  135CHL1    H616186   8.457   3.662  13.445
  135CHL1    C716187   8.517   3.704  13.655
  135CHL1   H7A16188   8.415   3.678  13.690
  135CHL1   H7B16189   8.583   3.617  13.675
  135CHL1    C816190   8.568   3.825  13.738
  135CHL1    H816191   8.487   3.900  13.743
  135CHL1   C1416192   8.605   3.779  13.879
  135CHL1   H1416193   8.689   3.707  13.866
  135CHL1   C1516194   8.498   3.702  13.958
  135CHL1  H15A16195   8.400   3.752  13.948
  135CHL1  H15B16196   8.489   3.596  13.924
  135CHL1   C1616197   8.548   3.712  14.104
  135CHL1  H16A16198   8.467   3.757  14.164
  135CHL1  H16B16199   8.574   3.613  14.146
  135CHL1   C1716200   8.672   3.806  14.103
  135CHL1   H1716201   8.761   3.741  14.087
  135CHL1   C1316202   8.658   3.888  13.972
  135CHL1   C1816203   8.552   3.999  13.994
  135CHL1  H18A16204   8.593   4.078  14.060
  135CHL1  H18B16205   8.524   4.047  13.898
  135CHL1  H18C16206   8.460   3.958  14.041
  135CHL1   C1216207   8.787   3.943  13.907
  135CHL1  H12A16208   8.830   4.026  13.966
  135CHL1  H12B16209   8.863   3.861  13.902
  135CHL1   C1116210   8.761   3.994  13.764
  135CHL1  H11A16211   8.697   4.085  13.772
  135CHL1  H11B16212   8.857   4.025  13.719
  135CHL1    C916213   8.691   3.889  13.672
  135CHL1    H916214   8.765   3.806  13.663
  135CHL1   C1016215   8.663   3.937  13.527
  135CHL1   C1916216   8.587   4.073  13.532
  135CHL1  H19A16217   8.494   4.064  13.592
  135CHL1  H19B16218   8.651   4.152  13.576
  135CHL1  H19C16219   8.560   4.107  13.430
  135CHL1    C116220   8.800   3.956  13.453
  135CHL1   H1A16221   8.856   4.039  13.500
  135CHL1   H1B16222   8.859   3.863  13.466
  135CHL1    C216223   8.788   3.983  13.302
  135CHL1   H2A16224   8.890   3.986  13.257
  135CHL1   H2B16225   8.739   4.081  13.285
  135CHL1   C2016226   8.693   3.878  14.237
  135CHL1   H2016227   8.605   3.942  14.259
  135CHL1   C2116228   8.817   3.971  14.232
  135CHL1  H21A16229   8.840   4.011  14.333
  135CHL1  H21B16230   8.797   4.058  14.166
  135CHL1  H21C16231   8.906   3.915  14.195
  135CHL1   C2216232   8.711   3.779  14.356
  135CHL1  H22A16233   8.753   3.683  14.319
  135CHL1  H22B16234   8.785   3.821  14.426
  135CHL1   C2316235   8.583   3.753  14.438
  135CHL1  H23A16236   8.546   3.849  14.479
  135CHL1  H23B16237   8.504   3.712  14.372
  135CHL1   C2416238   8.607   3.654  14.553
  135CHL1  H24A16239   8.638   3.556  14.511
  135CHL1  H24B16240   8.692   3.692  14.615
  135CHL1   C2516241   8.486   3.633  14.646
  135CHL1   H2516242   8.456   3.732  14.686
  135CHL1   C2616243   8.365   3.573  14.571
  135CHL1  H26A16244   8.330   3.642  14.491
  135CHL1  H26B16245   8.393   3.476  14.525
  135CHL1  H26C16246   8.281   3.556  14.642
  135CHL1   C2716247   8.524   3.543  14.765
  135CHL1  H27A16248   8.437   3.531  14.834
  135CHL1  H27B16249   8.554   3.442  14.729
  135CHL1  H27C16250   8.609   3.587  14.821
  136CHL1    C316251   6.631   0.518  13.234
  136CHL1    H316252   6.523   0.532  13.254
  136CHL1    O316253   6.650   0.487  13.097
  136CHL1   H3'16254   6.617   0.563  13.049
  136CHL1    C416255   6.707   0.648  13.266
  136CHL1   H4A16256   6.814   0.635  13.238
  136CHL1   H4B16257   6.667   0.729  13.202
  136CHL1    C516258   6.697   0.683  13.414
  136CHL1    C616259   6.648   0.802  13.454
  136CHL1    H616260   6.617   0.876  13.379
  136CHL1    C716261   6.638   0.845  13.597
  136CHL1   H7A16262   6.677   0.948  13.609
  136CHL1   H7B16263   6.532   0.844  13.629
  136CHL1    C816264   6.719   0.752  13.693
  136CHL1    H816265   6.826   0.778  13.682
  136CHL1   C1416266   6.674   0.776  13.837
  136CHL1   H1416267   6.567   0.745  13.841
  136CHL1   C1516268   6.676   0.920  13.889
  136CHL1  H15A16269   6.772   0.968  13.862
  136CHL1  H15B16270   6.593   0.981  13.847
  136CHL1   C1616271   6.665   0.903  14.041
  136CHL1  H16A16272   6.745   0.963  14.090
  136CHL1  H16B16273   6.566   0.937  14.079
  136CHL1   C1716274   6.683   0.751  14.072
  136CHL1   H1716275   6.581   0.707  14.078
  136CHL1   C1316276   6.745   0.692  13.942
  136CHL1   C1816277   6.898   0.722  13.942
  136CHL1  H18A16278   6.950   0.658  14.017
  136CHL1  H18B16279   6.943   0.700  13.843
  136CHL1  H18C16280   6.918   0.828  13.967
  136CHL1   C1216281   6.715   0.544  13.909
  136CHL1  H12A16282   6.767   0.475  13.979
  136CHL1  H12B16283   6.606   0.527  13.920
  136CHL1   C1116284   6.758   0.509  13.765
  136CHL1  H11A16285   6.869   0.512  13.762
  136CHL1  H11B16286   6.727   0.404  13.744
  136CHL1    C916287   6.698   0.605  13.658
  136CHL1    H916288   6.588   0.589  13.663
  136CHL1   C1016289   6.739   0.571  13.511
  136CHL1   C1916290   6.893   0.558  13.503
  136CHL1  H19A16291   6.943   0.650  13.541
  136CHL1  H19B16292   6.929   0.471  13.563
  136CHL1  H19C16293   6.928   0.541  13.399
  136CHL1    C116294   6.671   0.437  13.469
  136CHL1   H1A16295   6.715   0.354  13.529
  136CHL1   H1B16296   6.563   0.443  13.494
  136CHL1    C216297   6.684   0.403  13.320
  136CHL1   H2A16298   6.627   0.310  13.297
  136CHL1   H2B16299   6.791   0.384  13.295
  136CHL1   C2016300   6.752   0.726  14.207
  136CHL1   H2016301   6.853   0.772  14.205
  136CHL1   C2116302   6.768   0.575  14.234
  136CHL1  H21A16303   6.805   0.556  14.337
  136CHL1  H21B16304   6.841   0.530  14.164
  136CHL1  H21C16305   6.670   0.523  14.222
  136CHL1   C2216306   6.674   0.792  14.325
  136CHL1  H22A16307   6.646   0.896  14.298
  136CHL1  H22B16308   6.580   0.735  14.341
  136CHL1   C2316309   6.755   0.801  14.456
  136CHL1  H23A16310   6.782   0.699  14.492
  136CHL1  H23B16311   6.849   0.854  14.433
  136CHL1   C2416312   6.682   0.877  14.568
  136CHL1  H24A16313   6.751   0.886  14.655
  136CHL1  H24B16314   6.661   0.980  14.533
  136CHL1   C2516315   6.550   0.814  14.618
  136CHL1   H2516316   6.482   0.805  14.531
  136CHL1   C2616317   6.572   0.673  14.676
  136CHL1  H26A16318   6.644   0.676  14.760
  136CHL1  H26B16319   6.475   0.632  14.714
  136CHL1  H26C16320   6.611   0.604  14.598
  136CHL1   C2716321   6.483   0.904  14.722
  136CHL1  H27A16322   6.386   0.860  14.755
  136CHL1  H27B16323   6.549   0.916  14.811
  136CHL1  H27C16324   6.463   1.005  14.679
  137CHL1    C316325   0.478   2.051  13.238
  137CHL1    H316326   0.428   1.953  13.251
  137CHL1    O316327   0.482   2.082  13.099
  137CHL1   H3'16328   0.516   2.171  13.095
  137CHL1    C416329   0.399   2.160  13.312
  137CHL1   H4A16330   0.444   2.259  13.291
  137CHL1   H4B16331   0.296   2.162  13.270
  137CHL1    C516332   0.397   2.135  13.462
  137CHL1    C616333   0.282   2.121  13.530
  137CHL1    H616334   0.186   2.131  13.476
  137CHL1    C716335   0.274   2.098  13.678
  137CHL1   H7A16336   0.196   2.163  13.723
  137CHL1   H7B16337   0.243   1.993  13.696
  137CHL1    C816338   0.408   2.124  13.751
  137CHL1    H816339   0.422   2.234  13.759
  137CHL1   C1416340   0.404   2.062  13.890
  137CHL1   H1416341   0.395   1.953  13.874
  137CHL1   C1516342   0.285   2.098  13.982
  137CHL1  H15A16343   0.269   2.208  13.980
  137CHL1  H15B16344   0.192   2.046  13.951
  137CHL1   C1616345   0.333   2.053  14.121
  137CHL1  H16A16346   0.320   2.137  14.193
  137CHL1  H16B16347   0.275   1.965  14.157
  137CHL1   C1716348   0.484   2.015  14.107
  137CHL1   H1716349   0.487   1.906  14.087
  137CHL1   C1316350   0.530   2.081  13.975
  137CHL1   C1816351   0.556   2.232  14.001
  137CHL1  H18A16352   0.472   2.279  14.057
  137CHL1  H18B16353   0.649   2.245  14.061
  137CHL1  H18C16354   0.570   2.288  13.906
  137CHL1   C1216355   0.646   2.014  13.898
  137CHL1  H12A16356   0.743   2.028  13.950
  137CHL1  H12B16357   0.626   1.905  13.892
  137CHL1   C1116358   0.659   2.070  13.755
  137CHL1  H11A16359   0.693   2.175  13.764
  137CHL1  H11B16360   0.738   2.013  13.701
  137CHL1    C916361   0.526   2.064  13.673
  137CHL1    H916362   0.502   1.956  13.665
  137CHL1   C1016363   0.536   2.117  13.527
  137CHL1   C1916364   0.608   2.255  13.529
  137CHL1  H19A16365   0.608   2.303  13.429
  137CHL1  H19B16366   0.559   2.324  13.601
  137CHL1  H19C16367   0.714   2.243  13.559
  137CHL1    C116368   0.620   2.015  13.443
  137CHL1   H1A16369   0.724   2.014  13.480
  137CHL1   H1B16370   0.577   1.914  13.459
  137CHL1    C216371   0.621   2.043  13.292
  137CHL1   H2A16372   0.676   1.962  13.239
  137CHL1   H2B16373   0.674   2.139  13.272
  137CHL1   C2016374   0.562   2.038  14.238
  137CHL1   H2016375   0.553   2.145  14.267
  137CHL1   C2116376   0.712   2.006  14.221
  137CHL1  H21A16377   0.727   1.902  14.184
  137CHL1  H21B16378   0.767   2.018  14.317
  137CHL1  H21C16379   0.760   2.077  14.149
  137CHL1   C2216380   0.501   1.953  14.354
  137CHL1  H22A16381   0.395   1.982  14.367
  137CHL1  H22B16382   0.503   1.846  14.324
  137CHL1   C2316383   0.571   1.967  14.490
  137CHL1  H23A16384   0.673   1.926  14.484
  137CHL1  H23B16385   0.578   2.075  14.517
  137CHL1   C2416386   0.494   1.893  14.602
  137CHL1  H24A16387   0.392   1.935  14.608
  137CHL1  H24B16388   0.485   1.786  14.574
  137CHL1   C2516389   0.560   1.902  14.741
  137CHL1   H2516390   0.580   2.009  14.763
  137CHL1   C2616391   0.465   1.848  14.849
  137CHL1  H26A16392   0.369   1.905  14.848
  137CHL1  H26B16393   0.443   1.741  14.831
  137CHL1  H26C16394   0.510   1.858  14.950
  137CHL1   C2716395   0.694   1.826  14.747
  137CHL1  H27A16396   0.767   1.868  14.675
  137CHL1  H27B16397   0.737   1.832  14.849
  137CHL1  H27C16398   0.678   1.718  14.722
  138CHL1    C316399   8.164   1.308  13.202
  138CHL1    H316400   8.216   1.211  13.188
  138CHL1    O316401   8.110   1.349  13.076
  138CHL1   H3'16402   8.050   1.278  13.052
  138CHL1    C416403   8.049   1.291  13.302
  138CHL1   H4A16404   7.991   1.386  13.306
  138CHL1   H4B16405   7.979   1.214  13.262
  138CHL1    C516406   8.099   1.255  13.440
  138CHL1    C616407   8.058   1.143  13.502
  138CHL1    H616408   7.984   1.077  13.454
  138CHL1    C716409   8.101   1.104  13.641
  138CHL1   H7A16410   8.014   1.067  13.699
  138CHL1   H7B16411   8.175   1.021  13.635
  138CHL1    C816412   8.165   1.223  13.717
  138CHL1    H816413   8.083   1.294  13.743
  138CHL1   C1416414   8.230   1.174  13.846
  138CHL1   H1416415   8.310   1.103  13.815
  138CHL1   C1516416   8.142   1.095  13.944
  138CHL1  H15A16417   8.044   1.147  13.953
  138CHL1  H15B16418   8.125   0.991  13.910
  138CHL1   C1616419   8.218   1.103  14.076
  138CHL1  H16A16420   8.149   1.143  14.154
  138CHL1  H16B16421   8.256   1.004  14.108
  138CHL1   C1716422   8.337   1.203  14.056
  138CHL1   H1716423   8.426   1.141  14.028
  138CHL1   C1316424   8.299   1.282  13.928
  138CHL1   C1816425   8.197   1.392  13.969
  138CHL1  H18A16426   8.115   1.351  14.031
  138CHL1  H18B16427   8.248   1.472  14.028
  138CHL1  H18C16428   8.152   1.441  13.880
  138CHL1   C1216429   8.413   1.337  13.840
  138CHL1  H12A16430   8.470   1.417  13.893
  138CHL1  H12B16431   8.484   1.254  13.818
  138CHL1   C1116432   8.359   1.394  13.708
  138CHL1  H11A16433   8.302   1.486  13.732
  138CHL1  H11B16434   8.445   1.425  13.644
  138CHL1    C916435   8.268   1.294  13.629
  138CHL1    H916436   8.338   1.213  13.596
  138CHL1   C1016437   8.204   1.351  13.499
  138CHL1   C1916438   8.134   1.486  13.532
  138CHL1  H19A16439   8.060   1.473  13.614
  138CHL1  H19B16440   8.208   1.563  13.561
  138CHL1  H19C16441   8.080   1.526  13.444
  138CHL1    C116442   8.316   1.375  13.393
  138CHL1   H1A16443   8.384   1.455  13.429
  138CHL1   H1B16444   8.376   1.282  13.384
  138CHL1    C216445   8.264   1.412  13.253
  138CHL1   H2A16446   8.350   1.420  13.182
  138CHL1   H2B16447   8.215   1.512  13.256
  138CHL1   C2016448   8.372   1.279  14.185
  138CHL1   H2016449   8.285   1.342  14.214
  138CHL1   C2116450   8.494   1.371  14.163
  138CHL1  H21A16451   8.579   1.314  14.120
  138CHL1  H21B16452   8.527   1.417  14.259
  138CHL1  H21C16453   8.468   1.455  14.095
  138CHL1   C2216454   8.399   1.184  14.305
  138CHL1  H22A16455   8.321   1.105  14.310
  138CHL1  H22B16456   8.497   1.134  14.291
  138CHL1   C2316457   8.395   1.255  14.442
  138CHL1  H23A16458   8.477   1.329  14.448
  138CHL1  H23B16459   8.299   1.309  14.450
  138CHL1   C2416460   8.408   1.156  14.559
  138CHL1  H24A16461   8.330   1.077  14.548
  138CHL1  H24B16462   8.507   1.105  14.553
  138CHL1   C2516463   8.394   1.218  14.700
  138CHL1   H2516464   8.409   1.135  14.773
  138CHL1   C2616465   8.502   1.324  14.729
  138CHL1  H26A16466   8.603   1.282  14.712
  138CHL1  H26B16467   8.488   1.412  14.663
  138CHL1  H26C16468   8.495   1.358  14.834
  138CHL1   C2716469   8.253   1.275  14.725
  138CHL1  H27A16470   8.176   1.199  14.702
  138CHL1  H27B16471   8.242   1.307  14.831
  138CHL1  H27C16472   8.235   1.364  14.660
  139CHL1    C316473   0.182   7.792  13.253
  139CHL1    H316474   0.081   7.768  13.293
  139CHL1    O316475   0.176   7.793  13.111
  139CHL1   H3'16476   0.200   7.704  13.086
  139CHL1    C416477   0.227   7.929  13.305
  139CHL1   H4A16478   0.321   7.957  13.253
  139CHL1   H4B16479   0.151   8.004  13.273
  139CHL1    C516480   0.249   7.931  13.455
  139CHL1    C616481   0.186   8.019  13.535
  139CHL1    H616482   0.119   8.094  13.490
  139CHL1    C716483   0.207   8.028  13.684
  139CHL1   H7A16484   0.219   8.134  13.715
  139CHL1   H7B16485   0.118   7.988  13.736
  139CHL1    C816486   0.332   7.949  13.731
  139CHL1    H816487   0.422   8.007  13.703
  139CHL1   C1416488   0.329   7.931  13.883
  139CHL1   H1416489   0.239   7.869  13.904
  139CHL1   C1516490   0.313   8.056  13.970
  139CHL1  H15A16491   0.383   8.135  13.935
  139CHL1  H15B16492   0.210   8.097  13.967
  139CHL1   C1616493   0.353   8.007  14.110
  139CHL1  H16A16494   0.428   8.077  14.153
  139CHL1  H16B16495   0.265   8.002  14.178
  139CHL1   C1716496   0.416   7.865  14.093
  139CHL1   H1716497   0.334   7.792  14.114
  139CHL1   C1316498   0.446   7.853  13.942
  139CHL1   C1816499   0.580   7.926  13.913
  139CHL1  H18A16500   0.597   7.939  13.804
  139CHL1  H18B16501   0.583   8.026  13.960
  139CHL1  H18C16502   0.666   7.867  13.952
  139CHL1   C1216503   0.442   7.712  13.880
  139CHL1  H12A16504   0.527   7.649  13.915
  139CHL1  H12B16505   0.348   7.662  13.911
  139CHL1   C1116506   0.447   7.718  13.726
  139CHL1  H11A16507   0.548   7.754  13.698
  139CHL1  H11B16508   0.436   7.615  13.686
  139CHL1    C916509   0.338   7.811  13.664
  139CHL1    H916510   0.241   7.762  13.690
  139CHL1   C1016511   0.341   7.820  13.509
  139CHL1   C1916512   0.486   7.854  13.464
  139CHL1  H19A16513   0.523   7.945  13.515
  139CHL1  H19B16514   0.555   7.770  13.487
  139CHL1  H19C16515   0.492   7.870  13.354
  139CHL1    C116516   0.298   7.683  13.449
  139CHL1   H1A16517   0.373   7.605  13.476
  139CHL1   H1B16518   0.201   7.653  13.496
  139CHL1    C216519   0.280   7.682  13.297
  139CHL1   H2A16520   0.244   7.583  13.264
  139CHL1   H2B16521   0.379   7.700  13.248
  139CHL1   C2016522   0.528   7.837  14.196
  139CHL1   H2016523   0.610   7.910  14.178
  139CHL1   C2116524   0.584   7.694  14.178
  139CHL1  H21A16525   0.655   7.669  14.260
  139CHL1  H21B16526   0.640   7.685  14.083
  139CHL1  H21C16527   0.501   7.620  14.180
  139CHL1   C2216528   0.480   7.858  14.342
  139CHL1  H22A16529   0.425   7.954  14.351
  139CHL1  H22B16530   0.410   7.776  14.369
  139CHL1   C2316531   0.595   7.864  14.445
  139CHL1  H23A16532   0.649   7.767  14.446
  139CHL1  H23B16533   0.666   7.943  14.413
  139CHL1   C2416534   0.544   7.895  14.587
  139CHL1  H24A16535   0.486   7.990  14.584
  139CHL1  H24B16536   0.475   7.814  14.618
  139CHL1   C2516537   0.654   7.909  14.695
  139CHL1   H2516538   0.603   7.929  14.791
  139CHL1   C2616539   0.736   7.780  14.712
  139CHL1  H26A16540   0.794   7.758  14.620
  139CHL1  H26B16541   0.806   7.790  14.797
  139CHL1  H26C16542   0.668   7.694  14.732
  139CHL1   C2716543   0.748   8.029  14.667
  139CHL1  H27A16544   0.819   8.042  14.752
  139CHL1  H27B16545   0.806   8.012  14.575
  139CHL1  H27C16546   0.688   8.122  14.655
  140CHL1    C316547   8.674   0.494  13.232
  140CHL1    H316548   8.779   0.477  13.264
  140CHL1    O316549   8.670   0.508  13.091
  140CHL1   H3'16550   8.689   0.421  13.056
  140CHL1    C416551   8.586   0.374  13.276
  140CHL1   H4A16552   8.484   0.390  13.235
  140CHL1   H4B16553   8.626   0.283  13.226
  140CHL1    C516554   8.581   0.359  13.427
  140CHL1    C616555   8.616   0.245  13.487
  140CHL1    H616556   8.646   0.159  13.426
  140CHL1    C716557   8.610   0.222  13.636
  140CHL1   H7A16558   8.562   0.125  13.659
  140CHL1   H7B16559   8.713   0.219  13.677
  140CHL1    C816560   8.532   0.333  13.712
  140CHL1    H816561   8.424   0.315  13.697
  140CHL1   C1416562   8.565   0.328  13.861
  140CHL1   H1416563   8.674   0.349  13.867
  140CHL1   C1516564   8.545   0.195  13.937
  140CHL1  H15A16565   8.447   0.152  13.910
  140CHL1  H15B16566   8.626   0.122  13.913
  140CHL1   C1616567   8.546   0.236  14.085
  140CHL1  H16A16568   8.453   0.199  14.133
  140CHL1  H16B16569   8.633   0.193  14.140
  140CHL1   C1716570   8.553   0.392  14.086
  140CHL1   H1716571   8.662   0.414  14.079
  140CHL1   C1316572   8.499   0.436  13.948
  140CHL1   C1816573   8.345   0.420  13.943
  140CHL1  H18A16574   8.307   0.421  13.838
  140CHL1  H18B16575   8.311   0.326  13.991
  140CHL1  H18C16576   8.296   0.505  13.995
  140CHL1   C1216577   8.542   0.573  13.895
  140CHL1  H12A16578   8.490   0.654  13.951
  140CHL1  H12B16579   8.652   0.585  13.909
  140CHL1   C1116580   8.509   0.588  13.745
  140CHL1  H11A16581   8.399   0.591  13.734
  140CHL1  H11B16582   8.549   0.686  13.710
  140CHL1    C916583   8.567   0.472  13.657
  140CHL1    H916584   8.678   0.480  13.669
  140CHL1   C1016585   8.540   0.486  13.504
  140CHL1   C1916586   8.388   0.508  13.482
  140CHL1  H19A16587   8.329   0.426  13.528
  140CHL1  H19B16588   8.355   0.604  13.526
  140CHL1  H19C16589   8.362   0.512  13.374
  140CHL1    C116590   8.619   0.609  13.450
  140CHL1   H1A16591   8.576   0.702  13.493
  140CHL1   H1B16592   8.724   0.601  13.486
  140CHL1    C216593   8.622   0.623  13.297
  140CHL1   H2A16594   8.686   0.708  13.267
  140CHL1   H2B16595   8.519   0.643  13.260
  140CHL1   C2016596   8.513   0.460  14.219
  140CHL1   H2016597   8.575   0.409  14.296
  140CHL1   C2116598   8.366   0.438  14.262
  140CHL1  H21A16599   8.336   0.332  14.251
  140CHL1  H21B16600   8.298   0.502  14.202
  140CHL1  H21C16601   8.353   0.467  14.368
  140CHL1   C2216602   8.553   0.610  14.227
  140CHL1  H22A16603   8.656   0.622  14.186
  140CHL1  H22B16604   8.484   0.668  14.163
  140CHL1   C2316605   8.551   0.673  14.368
  140CHL1  H23A16606   8.581   0.780  14.357
  140CHL1  H23B16607   8.446   0.673  14.407
  140CHL1   C2416608   8.643   0.604  14.470
  140CHL1  H24A16609   8.599   0.506  14.497
  140CHL1  H24B16610   8.742   0.585  14.422
  140CHL1   C2516611   8.668   0.683  14.601
  140CHL1   H2516612   8.725   0.615  14.668
  140CHL1   C2616613   8.538   0.722  14.672
  140CHL1  H26A16614   8.473   0.633  14.686
  140CHL1  H26B16615   8.560   0.766  14.772
  140CHL1  H26C16616   8.483   0.798  14.613
  140CHL1   C2716617   8.756   0.807  14.578
  140CHL1  H27A16618   8.704   0.881  14.513
  140CHL1  H27B16619   8.780   0.856  14.675
  140CHL1  H27C16620   8.852   0.779  14.529
  141DOPC     N16621   4.716   3.286  17.089
  141DOPC   C1216622   4.789   3.153  17.068
  141DOPC  H12A16623   4.721   3.073  17.091
  141DOPC  H12B16624   4.869   3.145  17.140
  141DOPC   C1316625   4.621   3.310  16.976
  141DOPC  H13A16626   4.569   3.404  16.987
  141DOPC  H13B16627   4.674   3.314  16.882
  141DOPC  H13C16628   4.548   3.231  16.968
  141DOPC   C1416629   4.814   3.400  17.094
  141DOPC  H14A16630   4.875   3.400  17.005
  141DOPC  H14B16631   4.763   3.495  17.099
  141DOPC  H14C16632   4.879   3.392  17.179
  141DOPC   C1516633   4.640   3.283  17.218
  141DOPC  H15A16634   4.586   3.375  17.234
  141DOPC  H15B16635   4.704   3.270  17.304
  141DOPC  H15C16636   4.569   3.202  17.221
  141DOPC   C1116637   4.850   3.123  16.928
  141DOPC  H11A16638   4.898   3.023  16.933
  141DOPC  H11B16639   4.768   3.113  16.854
  141DOPC     P16640   4.933   3.311  16.763
  141DOPC   O1316641   5.015   3.430  16.793
  141DOPC   O1416642   4.791   3.328  16.728
  141DOPC   O1216643   4.949   3.219  16.890
  141DOPC   O1116644   5.010   3.222  16.657
  141DOPC    C116645   5.019   3.272  16.522
  141DOPC    HA16646   5.098   3.350  16.516
  141DOPC    HB16647   4.923   3.315  16.488
  141DOPC    C216648   5.052   3.157  16.422
  141DOPC    HS16649   5.157   3.123  16.438
  141DOPC   O2116650   5.032   3.202  16.287
  141DOPC   C2116651   5.122   3.289  16.244
  141DOPC   O2216652   5.226   3.317  16.302
  141DOPC   C2216653   5.075   3.350  16.112
  141DOPC   H2R16654   4.980   3.301  16.082
  141DOPC   H2S16655   5.152   3.328  16.035
  141DOPC    C316656   4.960   3.033  16.446
  141DOPC    HX16657   4.992   2.987  16.542
  141DOPC    HY16658   4.978   2.960  16.365
  141DOPC   O3116659   4.821   3.073  16.445
  141DOPC   C3116660   4.749   3.042  16.552
  141DOPC   O3216661   4.783   2.968  16.642
  141DOPC   C3216662   4.616   3.116  16.546
  141DOPC   H2X16663   4.578   3.120  16.651
  141DOPC   H2Y16664   4.635   3.221  16.514
  141DOPC   C2316665   5.054   3.502  16.124
  141DOPC   H3R16666   5.152   3.554  16.135
  141DOPC   H3S16667   4.994   3.524  16.215
  141DOPC   C2416668   4.978   3.560  16.004
  141DOPC   H4R16669   4.882   3.506  15.993
  141DOPC   H4S16670   5.037   3.543  15.911
  141DOPC   C2516671   4.948   3.710  16.019
  141DOPC   H5R16672   5.042   3.768  16.008
  141DOPC   H5S16673   4.910   3.728  16.122
  141DOPC   C2616674   4.843   3.761  15.920
  141DOPC   H6R16675   4.816   3.866  15.946
  141DOPC   H6S16676   4.751   3.699  15.931
  141DOPC   C2716677   4.889   3.758  15.773
  141DOPC   H7R16678   4.927   3.657  15.748
  141DOPC   H7S16679   4.975   3.828  15.762
  141DOPC   C2816680   4.780   3.798  15.672
  141DOPC   H8R16681   4.828   3.812  15.573
  141DOPC   H8S16682   4.738   3.896  15.701
  141DOPC   C2916683   4.669   3.694  15.665
  141DOPC   H9R16684   4.604   3.690  15.754
  141DOPC  C21016685   4.645   3.609  15.563
  141DOPC  H10R16686   4.563   3.537  15.573
  141DOPC  C21116687   4.724   3.599  15.435
  141DOPC  H11R16688   4.738   3.700  15.391
  141DOPC  H11S16689   4.667   3.540  15.360
  141DOPC  C21216690   4.863   3.535  15.451
  141DOPC  H12R16691   4.923   3.593  15.524
  141DOPC  H12S16692   4.916   3.541  15.353
  141DOPC  C21316693   4.859   3.387  15.495
  141DOPC  H13R16694   4.815   3.326  15.414
  141DOPC  H13S16695   4.793   3.378  15.584
  141DOPC  C21416696   4.997   3.332  15.534
  141DOPC  H14R16697   4.986   3.225  15.565
  141DOPC  H14S16698   5.034   3.388  15.622
  141DOPC  C21516699   5.104   3.341  15.424
  141DOPC  H15R16700   5.202   3.308  15.466
  141DOPC  H15S16701   5.116   3.447  15.393
  141DOPC  C21616702   5.073   3.253  15.301
  141DOPC  H16R16703   4.974   3.281  15.260
  141DOPC  H16S16704   5.068   3.147  15.334
  141DOPC  C21716705   5.178   3.266  15.189
  141DOPC  H17R16706   5.158   3.186  15.114
  141DOPC  H17S16707   5.279   3.248  15.231
  141DOPC  C21816708   5.176   3.401  15.116
  141DOPC  H18R16709   5.076   3.420  15.071
  141DOPC  H18S16710   5.252   3.403  15.036
  141DOPC  H18T16711   5.198   3.484  15.187
  141DOPC   C3316712   4.510   3.047  16.456
  141DOPC   H3X16713   4.413   3.097  16.474
  141DOPC   H3Y16714   4.499   2.941  16.487
  141DOPC   C3416715   4.539   3.054  16.305
  141DOPC   H4X16716   4.454   3.007  16.252
  141DOPC   H4Y16717   4.630   2.995  16.282
  141DOPC   C3516718   4.557   3.197  16.252
  141DOPC   H5X16719   4.654   3.237  16.288
  141DOPC   H5Y16720   4.476   3.262  16.291
  141DOPC   C3616721   4.555   3.203  16.098
  141DOPC   H6X16722   4.632   3.135  16.057
  141DOPC   H6Y16723   4.456   3.168  16.062
  141DOPC   C3716724   4.579   3.346  16.045
  141DOPC   H7X16725   4.510   3.415  16.098
  141DOPC   H7Y16726   4.682   3.377  16.069
  141DOPC   C3816727   4.552   3.361  15.893
  141DOPC   H8X16728   4.563   3.468  15.868
  141DOPC   H8Y16729   4.445   3.336  15.875
  141DOPC   C3916730   4.646   3.280  15.808
  141DOPC   H9X16731   4.752   3.307  15.818
  141DOPC  C31016732   4.614   3.180  15.723
  141DOPC  H10X16733   4.695   3.132  15.666
  141DOPC  C31116734   4.476   3.126  15.692
  141DOPC  H11X16735   4.401   3.161  15.767
  141DOPC  H11Y16736   4.477   3.015  15.700
  141DOPC  C31216737   4.425   3.165  15.552
  141DOPC  H12X16738   4.425   3.276  15.540
  141DOPC  H12Y16739   4.319   3.132  15.544
  141DOPC  C31316740   4.504   3.101  15.437
  141DOPC  H13X16741   4.606   3.145  15.433
  141DOPC  H13Y16742   4.514   2.992  15.457
  141DOPC  C31416743   4.434   3.119  15.301
  141DOPC  H14X16744   4.330   3.080  15.310
  141DOPC  H14Y16745   4.427   3.227  15.277
  141DOPC  C31516746   4.503   3.044  15.186
  141DOPC  H15X16747   4.434   3.042  15.098
  141DOPC  H15Y16748   4.518   2.938  15.217
  141DOPC  C31616749   4.637   3.103  15.141
  141DOPC  H16X16750   4.705   3.114  15.228
  141DOPC  H16Y16751   4.684   3.031  15.070
  141DOPC  C31716752   4.624   3.238  15.069
  141DOPC  H17X16753   4.549   3.228  14.988
  141DOPC  H17Y16754   4.585   3.314  15.141
  141DOPC  C31816755   4.756   3.288  15.009
  141DOPC  H18X16756   4.795   3.214  14.936
  141DOPC  H18Y16757   4.741   3.385  14.957
  141DOPC  H18Z16758   4.832   3.302  15.089
  142DOPC     N16759   5.329   3.998  17.025
  142DOPC   C1216760   5.343   4.068  16.891
  142DOPC  H12A16761   5.337   4.175  16.910
  142DOPC  H12B16762   5.260   4.042  16.828
  142DOPC   C1316763   5.189   4.019  17.075
  142DOPC  H13A16764   5.116   3.993  17.000
  142DOPC  H13B16765   5.171   3.964  17.166
  142DOPC  H13C16766   5.175   4.124  17.098
  142DOPC   C1416767   5.426   4.058  17.122
  142DOPC  H14A16768   5.525   4.052  17.081
  142DOPC  H14B16769   5.404   4.162  17.138
  142DOPC  H14C16770   5.425   4.007  17.218
  142DOPC   C1516771   5.361   3.852  17.009
  142DOPC  H15A16772   5.296   3.806  16.936
  142DOPC  H15B16773   5.354   3.800  17.103
  142DOPC  H15C16774   5.463   3.843  16.973
  142DOPC   C1116775   5.474   4.047  16.812
  142DOPC  H11A16776   5.486   3.939  16.786
  142DOPC  H11B16777   5.464   4.102  16.716
  142DOPC     P16778   5.720   4.025  16.896
  142DOPC   O1316779   5.689   3.882  16.915
  142DOPC   O1416780   5.793   4.093  17.006
  142DOPC   O1216781   5.583   4.102  16.884
  142DOPC   O1116782   5.787   4.055  16.755
  142DOPC    C116783   5.805   4.192  16.714
  142DOPC    HA16784   5.900   4.231  16.756
  142DOPC    HB16785   5.723   4.258  16.749
  142DOPC    C216786   5.810   4.209  16.558
  142DOPC    HS16787   5.813   4.318  16.537
  142DOPC   O2116788   5.697   4.147  16.496
  142DOPC   C2116789   5.584   4.211  16.504
  142DOPC   O2216790   5.566   4.323  16.549
  142DOPC   C2216791   5.474   4.121  16.448
  142DOPC   H2R16792   5.375   4.166  16.471
  142DOPC   H2S16793   5.482   4.024  16.503
  142DOPC    C316794   5.937   4.147  16.493
  142DOPC    HX16795   5.924   4.037  16.484
  142DOPC    HY16796   6.022   4.164  16.562
  142DOPC   O3116797   5.965   4.214  16.368
  142DOPC   C3116798   5.914   4.158  16.258
  142DOPC   O3216799   5.857   4.050  16.252
  142DOPC   C3216800   5.937   4.252  16.139
  142DOPC   H2X16801   5.898   4.352  16.166
  142DOPC   H2Y16802   6.047   4.260  16.126
  142DOPC   C2316803   5.490   4.094  16.297
  142DOPC   H3R16804   5.597   4.097  16.268
  142DOPC   H3S16805   5.437   4.173  16.240
  142DOPC   C2416806   5.437   3.955  16.258
  142DOPC   H4R16807   5.395   3.960  16.155
  142DOPC   H4S16808   5.354   3.927  16.327
  142DOPC   C2516809   5.546   3.847  16.259
  142DOPC   H5R16810   5.500   3.747  16.279
  142DOPC   H5S16811   5.619   3.867  16.341
  142DOPC   C2616812   5.619   3.841  16.124
  142DOPC   H6R16813   5.659   3.941  16.100
  142DOPC   H6S16814   5.546   3.814  16.045
  142DOPC   C2716815   5.737   3.741  16.120
  142DOPC   H7R16816   5.702   3.641  16.153
  142DOPC   H7S16817   5.815   3.776  16.191
  142DOPC   C2816818   5.794   3.733  15.978
  142DOPC   H8R16819   5.817   3.837  15.946
  142DOPC   H8S16820   5.712   3.698  15.912
  142DOPC   C2916821   5.914   3.643  15.961
  142DOPC   H9R16822   5.893   3.536  15.970
  142DOPC  C21016823   6.041   3.683  15.939
  142DOPC  H10R16824   6.119   3.607  15.928
  142DOPC  C21116825   6.089   3.826  15.928
  142DOPC  H11R16826   6.198   3.830  15.948
  142DOPC  H11S16827   6.040   3.888  16.005
  142DOPC  C21216828   6.063   3.892  15.791
  142DOPC  H12R16829   5.953   3.897  15.773
  142DOPC  H12S16830   6.107   3.831  15.709
  142DOPC  C21316831   6.120   4.035  15.786
  142DOPC  H13R16832   6.231   4.031  15.780
  142DOPC  H13S16833   6.095   4.085  15.882
  142DOPC  C21416834   6.064   4.121  15.672
  142DOPC  H14R16835   6.095   4.227  15.690
  142DOPC  H14S16836   5.953   4.118  15.674
  142DOPC  C21516837   6.115   4.081  15.533
  142DOPC  H15R16838   6.079   3.978  15.509
  142DOPC  H15S16839   6.226   4.078  15.534
  142DOPC  C21616840   6.069   4.179  15.424
  142DOPC  H16R16841   6.095   4.282  15.456
  142DOPC  H16S16842   5.958   4.174  15.415
  142DOPC  C21716843   6.133   4.154  15.286
  142DOPC  H17R16844   6.243   4.161  15.296
  142DOPC  H17S16845   6.101   4.236  15.218
  142DOPC  C21816846   6.096   4.020  15.223
  142DOPC  H18R16847   6.140   4.011  15.121
  142DOPC  H18S16848   5.986   4.010  15.214
  142DOPC  H18T16849   6.134   3.935  15.284
  142DOPC   C3316850   5.873   4.204  16.006
  142DOPC   H3X16851   5.897   4.096  15.989
  142DOPC   H3Y16852   5.920   4.261  15.923
  142DOPC   C3416853   5.721   4.224  15.998
  142DOPC   H4X16854   5.695   4.330  16.019
  142DOPC   H4Y16855   5.674   4.161  16.077
  142DOPC   C3516856   5.661   4.183  15.862
  142DOPC   H5X16857   5.553   4.165  15.875
  142DOPC   H5Y16858   5.708   4.087  15.829
  142DOPC   C3616859   5.680   4.290  15.753
  142DOPC   H6X16860   5.632   4.384  15.788
  142DOPC   H6Y16861   5.789   4.311  15.742
  142DOPC   C3716862   5.624   4.254  15.614
  142DOPC   H7X16863   5.653   4.338  15.547
  142DOPC   H7Y16864   5.674   4.162  15.576
  142DOPC   C3816865   5.471   4.234  15.609
  142DOPC   H8X16866   5.425   4.307  15.680
  142DOPC   H8Y16867   5.447   4.133  15.648
  142DOPC   C3916868   5.415   4.259  15.471
  142DOPC   H9X16869   5.446   4.355  15.427
  142DOPC  C31016870   5.338   4.179  15.394
  142DOPC  H10X16871   5.309   4.215  15.295
  142DOPC  C31116872   5.287   4.041  15.427
  142DOPC  H11X16873   5.177   4.034  15.410
  142DOPC  H11Y16874   5.305   4.015  15.534
  142DOPC  C31216875   5.359   3.938  15.338
  142DOPC  H12X16876   5.468   3.953  15.349
  142DOPC  H12Y16877   5.334   3.955  15.231
  142DOPC  C31316878   5.329   3.792  15.374
  142DOPC  H13X16879   5.340   3.781  15.484
  142DOPC  H13Y16880   5.225   3.764  15.348
  142DOPC  C31416881   5.429   3.697  15.306
  142DOPC  H14X16882   5.403   3.685  15.199
  142DOPC  H14Y16883   5.529   3.746  15.311
  142DOPC  C31516884   5.443   3.561  15.375
  142DOPC  H15X16885   5.361   3.493  15.344
  142DOPC  H15Y16886   5.433   3.576  15.484
  142DOPC  C31616887   5.580   3.494  15.352
  142DOPC  H16X16888   5.661   3.567  15.371
  142DOPC  H16Y16889   5.590   3.414  15.428
  142DOPC  C31716890   5.599   3.431  15.213
  142DOPC  H17X16891   5.675   3.351  15.223
  142DOPC  H17Y16892   5.504   3.382  15.181
  142DOPC  C31816893   5.647   3.528  15.104
  142DOPC  H18X16894   5.668   3.473  15.010
  142DOPC  H18Y16895   5.570   3.605  15.082
  142DOPC  H18Z16896   5.740   3.579  15.136
  143DOPC     N16897   3.092   4.467  17.100
  143DOPC   C1216898   3.177   4.343  17.077
  143DOPC  H12A16899   3.120   4.257  17.107
  143DOPC  H12B16900   3.262   4.347  17.143
  143DOPC   C1316901   2.961   4.451  17.029
  143DOPC  H13A16902   2.898   4.539  17.040
  143DOPC  H13B16903   2.981   4.440  16.923
  143DOPC  H13C16904   2.908   4.363  17.062
  143DOPC   C1416905   3.159   4.588  17.042
  143DOPC  H14A16906   3.259   4.601  17.080
  143DOPC  H14B16907   3.164   4.577  16.934
  143DOPC  H14C16908   3.102   4.677  17.061
  143DOPC   C1516909   3.068   4.486  17.246
  143DOPC  H15A16910   3.004   4.571  17.265
  143DOPC  H15B16911   3.160   4.503  17.299
  143DOPC  H15C16912   3.021   4.399  17.289
  143DOPC   C1116913   3.231   4.315  16.933
  143DOPC  H11A16914   3.308   4.392  16.909
  143DOPC  H11B16915   3.284   4.218  16.935
  143DOPC     P16916   3.132   4.399  16.706
  143DOPC   O1316917   3.267   4.390  16.648
  143DOPC   O1416918   3.084   4.532  16.750
  143DOPC   O1216919   3.126   4.307  16.836
  143DOPC   O1116920   3.025   4.332  16.611
  143DOPC    C116921   2.921   4.250  16.665
  143DOPC    HA16922   2.884   4.287  16.762
  143DOPC    HB16923   2.960   4.147  16.681
  143DOPC    C216924   2.796   4.242  16.570
  143DOPC    HS16925   2.727   4.165  16.611
  143DOPC   O2116926   2.834   4.209  16.436
  143DOPC   C2116927   2.879   4.087  16.418
  143DOPC   O2216928   2.878   3.996  16.499
  143DOPC   C2216929   2.928   4.072  16.274
  143DOPC   H2R16930   2.907   4.165  16.217
  143DOPC   H2S16931   2.869   3.989  16.228
  143DOPC    C316932   2.717   4.376  16.568
  143DOPC    HX16933   2.683   4.396  16.672
  143DOPC    HY16934   2.625   4.363  16.506
  143DOPC   O3116935   2.797   4.488  16.525
  143DOPC   C3116936   2.804   4.505  16.393
  143DOPC   O3216937   2.725   4.459  16.312
  143DOPC   C3216938   2.927   4.591  16.359
  143DOPC   H2X16939   2.978   4.617  16.454
  143DOPC   H2Y16940   2.997   4.527  16.301
  143DOPC   C2316941   3.078   4.037  16.269
  143DOPC   H3R16942   3.106   4.010  16.165
  143DOPC   H3S16943   3.098   3.948  16.332
  143DOPC   C2416944   3.169   4.152  16.314
  143DOPC   H4R16945   3.273   4.113  16.324
  143DOPC   H4S16946   3.138   4.189  16.415
  143DOPC   C2516947   3.175   4.270  16.216
  143DOPC   H5R16948   3.074   4.316  16.206
  143DOPC   H5S16949   3.204   4.231  16.116
  143DOPC   C2616950   3.274   4.378  16.261
  143DOPC   H6R16951   3.372   4.332  16.287
  143DOPC   H6S16952   3.234   4.424  16.354
  143DOPC   C2716953   3.297   4.488  16.156
  143DOPC   H7R16954   3.344   4.575  16.204
  143DOPC   H7S16955   3.197   4.520  16.118
  143DOPC   C2816956   3.385   4.441  16.038
  143DOPC   H8R16957   3.350   4.341  16.005
  143DOPC   H8S16958   3.489   4.426  16.076
  143DOPC   C2916959   3.385   4.540  15.924
  143DOPC   H9R16960   3.436   4.635  15.944
  143DOPC  C21016961   3.325   4.521  15.805
  143DOPC  H10R16962   3.330   4.600  15.729
  143DOPC  C21116963   3.249   4.397  15.766
  143DOPC  H11R16964   3.163   4.381  15.835
  143DOPC  H11S16965   3.314   4.308  15.775
  143DOPC  C21216966   3.195   4.402  15.622
  143DOPC  H12R16967   3.279   4.420  15.551
  143DOPC  H12S16968   3.123   4.486  15.611
  143DOPC  C21316969   3.125   4.271  15.582
  143DOPC  H13R16970   3.035   4.257  15.646
  143DOPC  H13S16971   3.194   4.186  15.602
  143DOPC  C21416972   3.084   4.266  15.434
  143DOPC  H14R16973   3.175   4.279  15.371
  143DOPC  H14S16974   3.015   4.351  15.413
  143DOPC  C21516975   3.015   4.134  15.397
  143DOPC  H15R16976   2.926   4.122  15.462
  143DOPC  H15S16977   3.084   4.049  15.419
  143DOPC  C21616978   2.970   4.126  15.250
  143DOPC  H16R16979   2.907   4.214  15.226
  143DOPC  H16S16980   2.907   4.035  15.238
  143DOPC  C21716981   3.086   4.117  15.150
  143DOPC  H17R16982   3.152   4.033  15.179
  143DOPC  H17S16983   3.147   4.210  15.157
  143DOPC  C21816984   3.040   4.097  15.005
  143DOPC  H18R16985   3.128   4.091  14.937
  143DOPC  H18S16986   2.977   4.182  14.973
  143DOPC  H18T16987   2.982   4.004  14.996
  143DOPC   C3316988   2.894   4.721  16.281
  143DOPC   H3X16989   2.986   4.783  16.277
  143DOPC   H3Y16990   2.818   4.779  16.337
  143DOPC   C3416991   2.844   4.700  16.136
  143DOPC   H4X16992   2.817   4.800  16.094
  143DOPC   H4Y16993   2.752   4.639  16.138
  143DOPC   C3516994   2.948   4.635  16.043
  143DOPC   H5X16995   2.976   4.536  16.083
  143DOPC   H5Y16996   3.039   4.698  16.042
  143DOPC   C3616997   2.899   4.618  15.898
  143DOPC   H6X16998   2.870   4.718  15.858
  143DOPC   H6Y16999   2.984   4.581  15.836
  143DOPC   C3717000   2.781   4.521  15.881
  143DOPC   H7X17001   2.698   4.553  15.948
  143DOPC   H7Y17002   2.743   4.529  15.777
  143DOPC   C3817003   2.817   4.374  15.909
  143DOPC   H8X17004   2.871   4.367  16.005
  143DOPC   H8Y17005   2.888   4.340  15.830
  143DOPC   C3917006   2.695   4.286  15.917
  143DOPC   H9X17007   2.643   4.290  16.014
  143DOPC  C31017008   2.644   4.207  15.820
  143DOPC  H10X17009   2.554   4.149  15.842
  143DOPC  C31117010   2.697   4.189  15.680
  143DOPC  H11X17011   2.733   4.084  15.666
  143DOPC  H11Y17012   2.783   4.256  15.658
  143DOPC  C31217013   2.588   4.216  15.575
  143DOPC  H12X17014   2.555   4.322  15.584
  143DOPC  H12Y17015   2.499   4.152  15.596
  143DOPC  C31317016   2.634   4.189  15.431
  143DOPC  H13X17017   2.719   4.257  15.406
  143DOPC  H13Y17018   2.673   4.085  15.426
  143DOPC  C31417019   2.523   4.204  15.326
  143DOPC  H14X17020   2.561   4.167  15.229
  143DOPC  H14Y17021   2.437   4.140  15.355
  143DOPC  C31517022   2.474   4.349  15.308
  143DOPC  H15X17023   2.560   4.412  15.277
  143DOPC  H15Y17024   2.437   4.388  15.405
  143DOPC  C31617025   2.362   4.361  15.204
  143DOPC  H16X17026   2.398   4.321  15.107
  143DOPC  H16Y17027   2.276   4.299  15.236
  143DOPC  C31717028   2.315   4.506  15.184
  143DOPC  H17X17029   2.284   4.547  15.282
  143DOPC  H17Y17030   2.401   4.567  15.148
  143DOPC  C31817031   2.199   4.518  15.085
  143DOPC  H18X17032   2.229   4.478  14.985
  143DOPC  H18Y17033   2.112   4.460  15.121
  143DOPC  H18Z17034   2.169   4.624  15.073
  144DOPC     N17035   3.789   3.131  16.837
  144DOPC   C1217036   3.898   3.042  16.779
  144DOPC  H12A17037   3.966   3.101  16.720
  144DOPC  H12B17038   3.851   2.969  16.714
  144DOPC   C1317039   3.845   3.211  16.951
  144DOPC  H13A17040   3.886   3.142  17.025
  144DOPC  H13B17041   3.924   3.278  16.921
  144DOPC  H13C17042   3.768   3.267  17.002
  144DOPC   C1417043   3.679   3.046  16.894
  144DOPC  H14A17044   3.628   2.989  16.818
  144DOPC  H14B17045   3.723   2.975  16.963
  144DOPC  H14C17046   3.608   3.105  16.949
  144DOPC   C1517047   3.731   3.224  16.735
  144DOPC  H15A17048   3.653   3.283  16.780
  144DOPC  H15B17049   3.687   3.168  16.653
  144DOPC  H15C17050   3.806   3.291  16.696
  144DOPC   C1117051   3.984   2.960  16.880
  144DOPC  H11A17052   4.049   2.892  16.823
  144DOPC  H11B17053   4.049   3.029  16.938
  144DOPC     P17054   3.955   2.770  17.058
  144DOPC   O1317055   3.869   2.764  17.178
  144DOPC   O1417056   4.099   2.793  17.079
  144DOPC   O1217057   3.899   2.888  16.969
  144DOPC   O1117058   3.932   2.644  16.964
  144DOPC    C117059   3.831   2.649  16.862
  144DOPC    HA17060   3.854   2.729  16.788
  144DOPC    HB17061   3.731   2.668  16.907
  144DOPC    C217062   3.822   2.516  16.781
  144DOPC    HS17063   3.804   2.435  16.855
  144DOPC   O2117064   3.946   2.495  16.711
  144DOPC   C2117065   3.965   2.371  16.670
  144DOPC   O2217066   3.896   2.275  16.699
  144DOPC   C2217067   4.086   2.366  16.578
  144DOPC   H2R17068   4.121   2.261  16.571
  144DOPC   H2S17069   4.166   2.427  16.624
  144DOPC    C317070   3.704   2.521  16.680
  144DOPC    HX17071   3.610   2.535  16.738
  144DOPC    HY17072   3.698   2.422  16.630
  144DOPC   O3117073   3.720   2.632  16.588
  144DOPC   C3117074   3.698   2.607  16.459
  144DOPC   O3217075   3.653   2.504  16.414
  144DOPC   C3217076   3.744   2.729  16.378
  144DOPC   H2X17077   3.704   2.820  16.427
  144DOPC   H2Y17078   3.855   2.731  16.383
  144DOPC   C2317079   4.053   2.420  16.437
  144DOPC   H3R17080   4.148   2.437  16.383
  144DOPC   H3S17081   4.001   2.519  16.444
  144DOPC   C2417082   3.967   2.323  16.353
  144DOPC   H4R17083   3.875   2.298  16.408
  144DOPC   H4S17084   4.024   2.229  16.339
  144DOPC   C2517085   3.927   2.379  16.215
  144DOPC   H5R17086   3.860   2.466  16.229
  144DOPC   H5S17087   3.870   2.300  16.161
  144DOPC   C2617088   4.046   2.421  16.128
  144DOPC   H6R17089   4.118   2.337  16.124
  144DOPC   H6S17090   4.098   2.508  16.174
  144DOPC   C2717091   4.007   2.457  15.984
  144DOPC   H7R17092   3.935   2.541  15.984
  144DOPC   H7S17093   3.955   2.369  15.940
  144DOPC   C2817094   4.130   2.494  15.898
  144DOPC   H8R17095   4.213   2.426  15.924
  144DOPC   H8S17096   4.163   2.596  15.927
  144DOPC   C2917097   4.105   2.484  15.749
  144DOPC   H9R17098   4.117   2.383  15.708
  144DOPC  C21017099   4.069   2.583  15.666
  144DOPC  H10R17100   4.057   2.560  15.559
  144DOPC  C21117101   4.045   2.728  15.702
  144DOPC  H11R17102   4.025   2.739  15.811
  144DOPC  H11S17103   3.954   2.765  15.650
  144DOPC  C21217104   4.164   2.820  15.666
  144DOPC  H12R17105   4.254   2.786  15.720
  144DOPC  H12S17106   4.140   2.922  15.703
  144DOPC  C21317107   4.197   2.830  15.516
  144DOPC  H13R17108   4.226   2.730  15.476
  144DOPC  H13S17109   4.286   2.895  15.506
  144DOPC  C21417110   4.085   2.890  15.429
  144DOPC  H14R17111   4.131   2.963  15.359
  144DOPC  H14S17112   4.013   2.946  15.493
  144DOPC  C21517113   4.010   2.785  15.345
  144DOPC  H15R17114   3.968   2.708  15.413
  144DOPC  H15S17115   4.082   2.734  15.278
  144DOPC  C21617116   3.895   2.843  15.261
  144DOPC  H16R17117   3.820   2.886  15.330
  144DOPC  H16S17118   3.846   2.759  15.206
  144DOPC  C21717119   3.935   2.951  15.158
  144DOPC  H17R17120   3.970   3.041  15.213
  144DOPC  H17S17121   3.844   2.980  15.102
  144DOPC  C21817122   4.043   2.909  15.058
  144DOPC  H18R17123   4.139   2.886  15.110
  144DOPC  H18S17124   4.062   2.990  14.985
  144DOPC  H18T17125   4.012   2.818  15.002
  144DOPC   C3317126   3.699   2.729  16.229
  144DOPC   H3X17127   3.589   2.741  16.223
  144DOPC   H3Y17128   3.725   2.632  16.181
  144DOPC   C3417129   3.768   2.842  16.151
  144DOPC   H4X17130   3.878   2.827  16.156
  144DOPC   H4Y17131   3.745   2.939  16.201
  144DOPC   C3517132   3.726   2.853  16.003
  144DOPC   H5X17133   3.618   2.876  15.996
  144DOPC   H5Y17134   3.744   2.755  15.953
  144DOPC   C3617135   3.807   2.962  15.931
  144DOPC   H6X17136   3.793   3.059  15.983
  144DOPC   H6Y17137   3.915   2.936  15.939
  144DOPC   C3717138   3.774   2.981  15.782
  144DOPC   H7X17139   3.855   3.043  15.738
  144DOPC   H7Y17140   3.776   2.882  15.730
  144DOPC   C3817141   3.638   3.050  15.755
  144DOPC   H8X17142   3.630   3.138  15.823
  144DOPC   H8Y17143   3.557   2.979  15.785
  144DOPC   C3917144   3.626   3.096  15.612
  144DOPC   H9X17145   3.695   3.176  15.583
  144DOPC  C31017146   3.541   3.048  15.518
  144DOPC  H10X17147   3.545   3.089  15.417
  144DOPC  C31117148   3.441   2.937  15.539
  144DOPC  H11X17149   3.361   2.942  15.463
  144DOPC  H11Y17150   3.391   2.949  15.638
  144DOPC  C31217151   3.506   2.798  15.536
  144DOPC  H12X17152   3.435   2.724  15.579
  144DOPC  H12Y17153   3.596   2.797  15.602
  144DOPC  C31317154   3.547   2.748  15.396
  144DOPC  H13X17155   3.604   2.826  15.342
  144DOPC  H13Y17156   3.614   2.660  15.410
  144DOPC  C31417157   3.427   2.702  15.311
  144DOPC  H14X17158   3.359   2.641  15.374
  144DOPC  H14Y17159   3.370   2.791  15.276
  144DOPC  C31517160   3.470   2.618  15.190
  144DOPC  H15X17161   3.531   2.532  15.226
  144DOPC  H15Y17162   3.535   2.679  15.124
  144DOPC  C31617163   3.351   2.563  15.110
  144DOPC  H16X17164   3.287   2.502  15.177
  144DOPC  H16Y17165   3.291   2.648  15.072
  144DOPC  C31717166   3.395   2.475  14.991
  144DOPC  H17X17167   3.461   2.535  14.925
  144DOPC  H17Y17168   3.455   2.390  15.030
  144DOPC  C31817169   3.277   2.422  14.909
  144DOPC  H18X17170   3.209   2.361  14.973
  144DOPC  H18Y17171   3.218   2.506  14.866
  144DOPC  H18Z17172   3.313   2.358  14.826
  145DOPC     N17173   4.720   6.672  17.110
  145DOPC   C1217174   4.814   6.683  16.990
  145DOPC  H12A17175   4.877   6.594  16.989
  145DOPC  H12B17176   4.879   6.768  17.005
  145DOPC   C1317177   4.656   6.537  17.112
  145DOPC  H13A17178   4.731   6.459  17.111
  145DOPC  H13B17179   4.590   6.526  17.197
  145DOPC  H13C17180   4.600   6.525  17.020
  145DOPC   C1417181   4.613   6.777  17.103
  145DOPC  H14A17182   4.556   6.763  17.012
  145DOPC  H14B17183   4.545   6.769  17.186
  145DOPC  H14C17184   4.656   6.876  17.102
  145DOPC   C1517185   4.799   6.692  17.236
  145DOPC  H15A17186   4.849   6.788  17.235
  145DOPC  H15B17187   4.874   6.616  17.247
  145DOPC  H15C17188   4.735   6.689  17.323
  145DOPC   C1117189   4.752   6.692  16.848
  145DOPC  H11A17190   4.686   6.781  16.842
  145DOPC  H11B17191   4.833   6.709  16.774
  145DOPC     P17192   4.750   6.441  16.778
  145DOPC   O1317193   4.646   6.341  16.743
  145DOPC   O1417194   4.838   6.406  16.892
  145DOPC   O1217195   4.675   6.575  16.815
  145DOPC   O1117196   4.837   6.478  16.652
  145DOPC    C117197   4.774   6.535  16.536
  145DOPC    HA17198   4.723   6.630  16.562
  145DOPC    HB17199   4.698   6.466  16.493
  145DOPC    C217200   4.879   6.570  16.425
  145DOPC    HS17201   4.831   6.641  16.355
  145DOPC   O2117202   4.923   6.451  16.356
  145DOPC   C2117203   4.839   6.408  16.263
  145DOPC   O2217204   4.731   6.457  16.236
  145DOPC   C2217205   4.898   6.284  16.194
  145DOPC   H2R17206   4.826   6.201  16.214
  145DOPC   H2S17207   4.995   6.258  16.241
  145DOPC    C317208   5.003   6.641  16.486
  145DOPC    HX17209   5.052   6.568  16.554
  145DOPC    HY17210   4.970   6.727  16.548
  145DOPC   O3117211   5.099   6.680  16.385
  145DOPC   C3117212   5.067   6.791  16.318
  145DOPC   O3217213   4.971   6.862  16.343
  145DOPC   C3217214   5.168   6.812  16.205
  145DOPC   H2X17215   5.263   6.846  16.253
  145DOPC   H2Y17216   5.187   6.714  16.157
  145DOPC   C2317217   4.913   6.303  16.041
  145DOPC   H3R17218   4.822   6.349  15.998
  145DOPC   H3S17219   4.925   6.203  15.995
  145DOPC   C2417220   5.037   6.386  16.003
  145DOPC   H4R17221   5.127   6.338  16.049
  145DOPC   H4S17222   5.029   6.488  16.045
  145DOPC   C2517223   5.060   6.394  15.851
  145DOPC   H5R17224   5.048   6.293  15.807
  145DOPC   H5S17225   5.165   6.426  15.833
  145DOPC   C2617226   4.967   6.494  15.781
  145DOPC   H6R17227   4.986   6.595  15.824
  145DOPC   H6S17228   4.861   6.469  15.802
  145DOPC   C2717229   4.990   6.502  15.629
  145DOPC   H7R17230   5.100   6.502  15.610
  145DOPC   H7S17231   4.952   6.599  15.591
  145DOPC   C2817232   4.926   6.386  15.548
  145DOPC   H8R17233   4.976   6.293  15.583
  145DOPC   H8S17234   4.957   6.399  15.442
  145DOPC   C2917235   4.776   6.366  15.553
  145DOPC   H9R17236   4.747   6.260  15.552
  145DOPC  C21017237   4.677   6.457  15.559
  145DOPC  H10R17238   4.573   6.422  15.563
  145DOPC  C21117239   4.691   6.608  15.561
  145DOPC  H11R17240   4.760   6.642  15.481
  145DOPC  H11S17241   4.736   6.639  15.658
  145DOPC  C21217242   4.557   6.682  15.547
  145DOPC  H12R17243   4.576   6.791  15.560
  145DOPC  H12S17244   4.489   6.651  15.629
  145DOPC  C21317245   4.485   6.662  15.412
  145DOPC  H13R17246   4.388   6.716  15.415
  145DOPC  H13S17247   4.462   6.554  15.397
  145DOPC  C21417248   4.565   6.714  15.291
  145DOPC  H14R17249   4.656   6.651  15.277
  145DOPC  H14S17250   4.600   6.817  15.313
  145DOPC  C21517251   4.484   6.717  15.160
  145DOPC  H15R17252   4.549   6.757  15.079
  145DOPC  H15S17253   4.400   6.788  15.173
  145DOPC  C21617254   4.427   6.581  15.115
  145DOPC  H16R17255   4.367   6.597  15.023
  145DOPC  H16S17256   4.358   6.542  15.193
  145DOPC  C21717257   4.534   6.476  15.085
  145DOPC  H17R17258   4.594   6.458  15.177
  145DOPC  H17S17259   4.603   6.517  15.009
  145DOPC  C21817260   4.477   6.343  15.036
  145DOPC  H18R17261   4.418   6.358  14.943
  145DOPC  H18S17262   4.411   6.298  15.113
  145DOPC  H18T17263   4.559   6.271  15.014
  145DOPC   C3317264   5.123   6.915  16.100
  145DOPC   H3X17265   5.208   6.933  16.030
  145DOPC   H3Y17266   5.099   7.012  16.148
  145DOPC   C3417267   5.003   6.868  16.017
  145DOPC   H4X17268   4.914   6.860  16.083
  145DOPC   H4Y17269   5.023   6.767  15.975
  145DOPC   C3517270   4.969   6.964  15.901
  145DOPC   H5X17271   5.051   6.961  15.826
  145DOPC   H5Y17272   4.964   7.067  15.941
  145DOPC   C3617273   4.835   6.929  15.834
  145DOPC   H6X17274   4.837   6.822  15.804
  145DOPC   H6Y17275   4.754   6.941  15.909
  145DOPC   C3717276   4.803   7.014  15.710
  145DOPC   H7X17277   4.875   6.989  15.630
  145DOPC   H7Y17278   4.702   6.984  15.674
  145DOPC   C3817279   4.805   7.166  15.735
  145DOPC   H8X17280   4.911   7.199  15.745
  145DOPC   H8Y17281   4.758   7.184  15.834
  145DOPC   C3917282   4.734   7.249  15.631
  145DOPC   H9X17283   4.647   7.305  15.669
  145DOPC  C31017284   4.766   7.261  15.500
  145DOPC  H10X17285   4.703   7.324  15.436
  145DOPC  C31117286   4.880   7.193  15.430
  145DOPC  H11X17287   4.958   7.161  15.502
  145DOPC  H11Y17288   4.929   7.263  15.359
  145DOPC  C31217289   4.833   7.068  15.352
  145DOPC  H12X17290   4.764   7.097  15.270
  145DOPC  H12Y17291   4.777   7.001  15.421
  145DOPC  C31317292   4.950   6.988  15.294
  145DOPC  H13X17293   4.994   7.042  15.207
  145DOPC  H13Y17294   5.030   6.980  15.372
  145DOPC  C31417295   4.911   6.845  15.254
  145DOPC  H14X17296   4.866   6.795  15.342
  145DOPC  H14Y17297   4.834   6.848  15.173
  145DOPC  C31517298   5.032   6.763  15.207
  145DOPC  H15X17299   5.114   6.779  15.280
  145DOPC  H15Y17300   5.067   6.802  15.109
  145DOPC  C31617301   5.005   6.612  15.197
  145DOPC  H16X17302   5.102   6.560  15.181
  145DOPC  H16Y17303   4.963   6.577  15.293
  145DOPC  C31717304   4.910   6.574  15.083
  145DOPC  H17X17305   4.812   6.623  15.098
  145DOPC  H17Y17306   4.952   6.613  14.987
  145DOPC  C31817307   4.890   6.423  15.071
  145DOPC  H18X17308   4.845   6.382  15.164
  145DOPC  H18Y17309   4.821   6.399  14.986
  145DOPC  H18Z17310   4.986   6.371  15.053
  146DOPC     N17311   6.440   3.296  17.086
  146DOPC   C1217312   6.566   3.271  17.004
  146DOPC  H12A17313   6.555   3.175  16.954
  146DOPC  H12B17314   6.650   3.265  17.072
  146DOPC   C1317315   6.435   3.206  17.206
  146DOPC  H13A17316   6.521   3.223  17.270
  146DOPC  H13B17317   6.346   3.226  17.264
  146DOPC  H13C17318   6.433   3.102  17.177
  146DOPC   C1417319   6.317   3.272  17.003
  146DOPC  H14A17320   6.320   3.332  16.914
  146DOPC  H14B17321   6.309   3.169  16.971
  146DOPC  H14C17322   6.227   3.300  17.056
  146DOPC   C1517323   6.438   3.439  17.131
  146DOPC  H15A17324   6.527   3.464  17.189
  146DOPC  H15B17325   6.351   3.462  17.190
  146DOPC  H15C17326   6.437   3.505  17.046
  146DOPC   C1117327   6.607   3.372  16.893
  146DOPC  H11A17328   6.636   3.469  16.940
  146DOPC  H11B17329   6.699   3.335  16.844
  146DOPC     P17330   6.420   3.517  16.776
  146DOPC   O1317331   6.459   3.615  16.880
  146DOPC   O1417332   6.279   3.472  16.775
  146DOPC   O1217333   6.506   3.385  16.793
  146DOPC   O1117334   6.462   3.566  16.631
  146DOPC    C117335   6.428   3.488  16.517
  146DOPC    HA17336   6.340   3.534  16.465
  146DOPC    HB17337   6.399   3.384  16.543
  146DOPC    C217338   6.546   3.480  16.417
  146DOPC    HS17339   6.639   3.472  16.477
  146DOPC   O2117340   6.544   3.598  16.334
  146DOPC   C2117341   6.659   3.634  16.280
  146DOPC   O2217342   6.768   3.583  16.300
  146DOPC   C2217343   6.632   3.748  16.182
  146DOPC   H2R17344   6.621   3.842  16.241
  146DOPC   H2S17345   6.535   3.727  16.133
  146DOPC    C317346   6.534   3.352  16.328
  146DOPC    HX17347   6.450   3.370  16.258
  146DOPC    HY17348   6.505   3.267  16.394
  146DOPC   O3117349   6.659   3.319  16.264
  146DOPC   C3117350   6.653   3.285  16.136
  146DOPC   O3217351   6.551   3.269  16.071
  146DOPC   C3217352   6.796   3.265  16.085
  146DOPC   H2X17353   6.862   3.340  16.134
  146DOPC   H2Y17354   6.828   3.164  16.117
  146DOPC   C2317355   6.743   3.764  16.076
  146DOPC   H3R17356   6.769   3.664  16.034
  146DOPC   H3S17357   6.835   3.803  16.126
  146DOPC   C2417358   6.705   3.856  15.960
  146DOPC   H4R17359   6.796   3.873  15.897
  146DOPC   H4S17360   6.674   3.955  16.000
  146DOPC   C2517361   6.594   3.799  15.869
  146DOPC   H5R17362   6.502   3.785  15.929
  146DOPC   H5S17363   6.625   3.700  15.831
  146DOPC   C2617364   6.560   3.892  15.752
  146DOPC   H6R17365   6.648   3.901  15.684
  146DOPC   H6S17366   6.539   3.993  15.793
  146DOPC   C2717367   6.437   3.846  15.672
  146DOPC   H7R17368   6.405   3.930  15.606
  146DOPC   H7S17369   6.354   3.825  15.743
  146DOPC   C2817370   6.462   3.722  15.584
  146DOPC   H8R17371   6.498   3.639  15.649
  146DOPC   H8S17372   6.545   3.745  15.513
  146DOPC   C2917373   6.338   3.684  15.506
  146DOPC   H9R17374   6.291   3.767  15.452
  146DOPC  C21017375   6.283   3.562  15.498
  146DOPC  H10R17376   6.193   3.548  15.436
  146DOPC  C21117377   6.333   3.436  15.565
  146DOPC  H11R17378   6.250   3.364  15.579
  146DOPC  H11S17379   6.374   3.458  15.666
  146DOPC  C21217380   6.444   3.369  15.481
  146DOPC  H12R17381   6.529   3.440  15.471
  146DOPC  H12S17382   6.406   3.347  15.379
  146DOPC  C21317383   6.497   3.239  15.545
  146DOPC  H13R17384   6.418   3.162  15.543
  146DOPC  H13S17385   6.521   3.260  15.651
  146DOPC  C21417386   6.624   3.187  15.476
  146DOPC  H14R17387   6.666   3.103  15.536
  146DOPC  H14S17388   6.700   3.268  15.475
  146DOPC  C21517389   6.603   3.139  15.332
  146DOPC  H15R17390   6.555   3.221  15.273
  146DOPC  H15S17391   6.533   3.052  15.331
  146DOPC  C21617392   6.735   3.100  15.264
  146DOPC  H16R17393   6.783   3.021  15.326
  146DOPC  H16S17394   6.802   3.188  15.264
  146DOPC  C21717395   6.720   3.047  15.121
  146DOPC  H17R17396   6.657   2.956  15.123
  146DOPC  H17S17397   6.820   3.017  15.084
  146DOPC  C21817398   6.659   3.147  15.022
  146DOPC  H18R17399   6.657   3.105  14.919
  146DOPC  H18S17400   6.719   3.241  15.020
  146DOPC  H18T17401   6.555   3.173  15.051
  146DOPC   C3317402   6.806   3.278  15.931
  146DOPC   H3X17403   6.732   3.212  15.882
  146DOPC   H3Y17404   6.907   3.243  15.901
  146DOPC   C3417405   6.787   3.422  15.883
  146DOPC   H4X17406   6.860   3.489  15.934
  146DOPC   H4Y17407   6.685   3.456  15.910
  146DOPC   C3517408   6.804   3.439  15.731
  146DOPC   H5X17409   6.763   3.537  15.701
  146DOPC   H5Y17410   6.744   3.360  15.680
  146DOPC   C3617411   6.950   3.431  15.685
  146DOPC   H6X17412   7.006   3.518  15.726
  146DOPC   H6Y17413   6.996   3.339  15.728
  146DOPC   C3717414   6.969   3.425  15.532
  146DOPC   H7X17415   7.077   3.417  15.512
  146DOPC   H7Y17416   6.920   3.332  15.495
  146DOPC   C3817417   6.910   3.546  15.458
  146DOPC   H8X17418   6.954   3.639  15.502
  146DOPC   H8Y17419   6.801   3.550  15.477
  146DOPC   C3917420   6.942   3.539  15.311
  146DOPC   H9X17421   7.049   3.547  15.287
  146DOPC  C31017422   6.856   3.523  15.209
  146DOPC  H10X17423   6.896   3.519  15.106
  146DOPC  C31117424   6.706   3.509  15.217
  146DOPC  H11X17425   6.667   3.530  15.319
  146DOPC  H11Y17426   6.678   3.404  15.193
  146DOPC  C31217427   6.634   3.603  15.118
  146DOPC  H12X17428   6.665   3.580  15.014
  146DOPC  H12Y17429   6.663   3.708  15.140
  146DOPC  C31317430   6.480   3.594  15.126
  146DOPC  H13X17431   6.448   3.615  15.230
  146DOPC  H13Y17432   6.437   3.672  15.060
  146DOPC  C31417433   6.424   3.457  15.083
  146DOPC  H14X17434   6.460   3.434  14.980
  146DOPC  H14Y17435   6.463   3.379  15.151
  146DOPC  C31517436   6.271   3.452  15.084
  146DOPC  H15X17437   6.233   3.533  15.017
  146DOPC  H15Y17438   6.234   3.474  15.187
  146DOPC  C31617439   6.213   3.318  15.037
  146DOPC  H16X17440   6.103   3.329  15.024
  146DOPC  H16Y17441   6.256   3.292  14.938
  146DOPC  C31717442   6.238   3.202  15.135
  146DOPC  H17X17443   6.347   3.188  15.149
  146DOPC  H17Y17444   6.195   3.229  15.234
  146DOPC  C31817445   6.177   3.069  15.088
  146DOPC  H18X17446   6.197   2.989  15.162
  146DOPC  H18Y17447   6.067   3.079  15.075
  146DOPC  H18Z17448   6.221   3.038  14.991
  147DOPC     N17449   2.029   3.869  16.986
  147DOPC   C1217450   2.114   3.995  16.982
  147DOPC  H12A17451   2.084   4.061  17.062
  147DOPC  H12B17452   2.094   4.046  16.888
  147DOPC   C1317453   2.043   3.795  16.856
  147DOPC  H13A17454   1.985   3.704  16.854
  147DOPC  H13B17455   2.008   3.853  16.773
  147DOPC  H13C17456   2.147   3.771  16.840
  147DOPC   C1417457   1.883   3.899  17.007
  147DOPC  H14A17458   1.845   3.962  16.928
  147DOPC  H14B17459   1.825   3.808  17.000
  147DOPC  H14C17460   1.865   3.944  17.103
  147DOPC   C1517461   2.078   3.779  17.096
  147DOPC  H15A17462   2.079   3.829  17.191
  147DOPC  H15B17463   2.179   3.750  17.074
  147DOPC  H15C17464   2.018   3.689  17.102
  147DOPC   C1117465   2.268   3.979  16.992
  147DOPC  H11A17466   2.315   4.077  16.972
  147DOPC  H11B17467   2.292   3.953  17.097
  147DOPC     P17468   2.431   3.782  16.946
  147DOPC   O1317469   2.365   3.686  17.038
  147DOPC   O1417470   2.545   3.857  17.001
  147DOPC   O1217471   2.319   3.883  16.898
  147DOPC   O1117472   2.471   3.706  16.813
  147DOPC    C117473   2.367   3.652  16.732
  147DOPC    HA17474   2.312   3.732  16.678
  147DOPC    HB17475   2.295   3.594  16.794
  147DOPC    C217476   2.425   3.553  16.627
  147DOPC    HS17477   2.502   3.493  16.680
  147DOPC   O2117478   2.484   3.629  16.520
  147DOPC   C2117479   2.565   3.557  16.443
  147DOPC   O2217480   2.594   3.441  16.462
  147DOPC   C2217481   2.613   3.642  16.326
  147DOPC   H2R17482   2.711   3.600  16.294
  147DOPC   H2S17483   2.628   3.746  16.361
  147DOPC    C317484   2.316   3.455  16.574
  147DOPC    HX17485   2.284   3.391  16.659
  147DOPC    HY17486   2.363   3.386  16.501
  147DOPC   O3117487   2.206   3.524  16.509
  147DOPC   C3117488   2.094   3.536  16.580
  147DOPC   O3217489   2.079   3.496  16.695
  147DOPC   C3217490   1.988   3.607  16.497
  147DOPC   H2X17491   1.890   3.581  16.542
  147DOPC   H2Y17492   2.003   3.717  16.509
  147DOPC   C2317493   2.513   3.638  16.208
  147DOPC   H3R17494   2.415   3.679  16.241
  147DOPC   H3S17495   2.497   3.533  16.176
  147DOPC   C2417496   2.562   3.720  16.088
  147DOPC   H4R17497   2.657   3.676  16.049
  147DOPC   H4S17498   2.586   3.823  16.123
  147DOPC   C2517499   2.459   3.730  15.974
  147DOPC   H5R17500   2.499   3.800  15.897
  147DOPC   H5S17501   2.367   3.776  16.015
  147DOPC   C2617502   2.423   3.596  15.908
  147DOPC   H6R17503   2.343   3.615  15.833
  147DOPC   H6S17504   2.379   3.529  15.984
  147DOPC   C2717505   2.540   3.523  15.838
  147DOPC   H7R17506   2.500   3.430  15.792
  147DOPC   H7S17507   2.613   3.493  15.916
  147DOPC   C2817508   2.613   3.604  15.729
  147DOPC   H8R17509   2.691   3.539  15.685
  147DOPC   H8S17510   2.667   3.688  15.778
  147DOPC   C2917511   2.520   3.659  15.624
  147DOPC   H9R17512   2.464   3.748  15.654
  147DOPC  C21017513   2.499   3.609  15.500
  147DOPC  H10R17514   2.427   3.662  15.435
  147DOPC  C21117515   2.562   3.487  15.437
  147DOPC  H11R17516   2.481   3.421  15.398
  147DOPC  H11S17517   2.620   3.427  15.510
  147DOPC  C21217518   2.654   3.527  15.321
  147DOPC  H12R17519   2.743   3.580  15.362
  147DOPC  H12S17520   2.602   3.597  15.253
  147DOPC  C21317521   2.703   3.408  15.236
  147DOPC  H13R17522   2.749   3.331  15.302
  147DOPC  H13S17523   2.781   3.445  15.167
  147DOPC  C21417524   2.592   3.344  15.152
  147DOPC  H14R17525   2.535   3.425  15.101
  147DOPC  H14S17526   2.521   3.290  15.218
  147DOPC  C21517527   2.646   3.248  15.044
  147DOPC  H15R17528   2.687   3.157  15.093
  147DOPC  H15S17529   2.729   3.298  14.990
  147DOPC  C21617530   2.540   3.207  14.940
  147DOPC  H16R17531   2.589   3.145  14.862
  147DOPC  H16S17532   2.500   3.298  14.891
  147DOPC  C21717533   2.422   3.127  14.999
  147DOPC  H17R17534   2.370   3.189  15.075
  147DOPC  H17S17535   2.463   3.038  15.052
  147DOPC  C21817536   2.321   3.081  14.894
  147DOPC  H18R17537   2.277   3.169  14.842
  147DOPC  H18S17538   2.239   3.023  14.940
  147DOPC  H18T17539   2.371   3.017  14.818
  147DOPC   C3317540   1.988   3.569  16.347
  147DOPC   H3X17541   1.984   3.458  16.339
  147DOPC   H3Y17542   2.082   3.603  16.298
  147DOPC   C3417543   1.867   3.625  16.272
  147DOPC   H4X17544   1.871   3.736  16.267
  147DOPC   H4Y17545   1.776   3.597  16.330
  147DOPC   C3517546   1.851   3.567  16.130
  147DOPC   H5X17547   1.746   3.580  16.098
  147DOPC   H5Y17548   1.870   3.457  16.133
  147DOPC   C3617549   1.942   3.632  16.024
  147DOPC   H6X17550   1.933   3.742  16.032
  147DOPC   H6Y17551   2.047   3.604  16.043
  147DOPC   C3717552   1.902   3.589  15.881
  147DOPC   H7X17553   1.901   3.478  15.877
  147DOPC   H7Y17554   1.798   3.622  15.860
  147DOPC   C3817555   1.994   3.641  15.769
  147DOPC   H8X17556   1.960   3.595  15.673
  147DOPC   H8Y17557   2.097   3.602  15.786
  147DOPC   C3917558   1.999   3.791  15.758
  147DOPC   H9X17559   2.063   3.840  15.833
  147DOPC  C31017560   1.933   3.868  15.670
  147DOPC  H10X17561   1.948   3.977  15.674
  147DOPC  C31117562   1.838   3.823  15.561
  147DOPC  H11X17563   1.745   3.884  15.566
  147DOPC  H11Y17564   1.807   3.718  15.576
  147DOPC  C31217565   1.896   3.836  15.418
  147DOPC  H12X17566   1.817   3.804  15.347
  147DOPC  H12Y17567   1.982   3.767  15.406
  147DOPC  C31317568   1.940   3.979  15.381
  147DOPC  H13X17569   1.865   4.050  15.420
  147DOPC  H13Y17570   2.037   4.001  15.432
  147DOPC  C31417571   1.956   4.003  15.230
  147DOPC  H14X17572   1.857   3.989  15.181
  147DOPC  H14Y17573   1.986   4.109  15.215
  147DOPC  C31517574   2.058   3.911  15.161
  147DOPC  H15X17575   2.025   3.806  15.174
  147DOPC  H15Y17576   2.157   3.922  15.211
  147DOPC  C31617577   2.074   3.939  15.011
  147DOPC  H16X17578   2.135   3.858  14.966
  147DOPC  H16Y17579   1.974   3.936  14.962
  147DOPC  C31717580   2.141   4.073  14.979
  147DOPC  H17X17581   2.078   4.156  15.019
  147DOPC  H17Y17582   2.239   4.078  15.031
  147DOPC  C31817583   2.162   4.096  14.829
  147DOPC  H18X17584   2.227   4.016  14.786
  147DOPC  H18Y17585   2.065   4.095  14.775
  147DOPC  H18Z17586   2.211   4.194  14.810
  148DOPC     N17587   3.232   6.476  16.809
  148DOPC   C1217588   3.236   6.623  16.852
  148DOPC  H12A17589   3.134   6.657  16.858
  148DOPC  H12B17590   3.282   6.682  16.774
  148DOPC   C1317591   3.368   6.415  16.818
  148DOPC  H13A17592   3.402   6.417  16.921
  148DOPC  H13B17593   3.367   6.311  16.787
  148DOPC  H13C17594   3.441   6.469  16.759
  148DOPC   C1417595   3.181   6.470  16.668
  148DOPC  H14A17596   3.175   6.368  16.634
  148DOPC  H14B17597   3.082   6.514  16.663
  148DOPC  H14C17598   3.244   6.526  16.602
  148DOPC   C1517599   3.139   6.401  16.899
  148DOPC  H15A17600   3.042   6.449  16.904
  148DOPC  H15B17601   3.177   6.402  17.000
  148DOPC  H15C17602   3.127   6.298  16.869
  148DOPC   C1117603   3.301   6.659  16.988
  148DOPC  H11A17604   3.406   6.622  16.991
  148DOPC  H11B17605   3.308   6.770  16.997
  148DOPC     P17606   3.093   6.670  17.147
  148DOPC   O1317607   3.118   6.811  17.185
  148DOPC   O1417608   3.033   6.578  17.246
  148DOPC   O1217609   3.229   6.604  17.098
  148DOPC   O1117610   3.007   6.669  17.014
  148DOPC    C117611   2.894   6.755  16.998
  148DOPC    HA17612   2.889   6.836  17.074
  148DOPC    HB17613   2.801   6.696  17.007
  148DOPC    C217614   2.894   6.824  16.858
  148DOPC    HS17615   2.806   6.893  16.857
  148DOPC   O2117616   2.881   6.721  16.758
  148DOPC   C2117617   2.807   6.754  16.653
  148DOPC   O2217618   2.766   6.866  16.627
  148DOPC   C2217619   2.774   6.629  16.572
  148DOPC   H2R17620   2.666   6.636  16.547
  148DOPC   H2S17621   2.789   6.539  16.636
  148DOPC    C317622   3.021   6.913  16.840
  148DOPC    HX17623   3.112   6.853  16.865
  148DOPC    HY17624   3.016   6.993  16.916
  148DOPC   O3117625   3.030   6.975  16.710
  148DOPC   C3117626   3.097   6.908  16.617
  148DOPC   O3217627   3.159   6.804  16.635
  148DOPC   C3217628   3.084   6.981  16.483
  148DOPC   H2X17629   2.978   7.010  16.470
  148DOPC   H2Y17630   3.146   7.073  16.487
  148DOPC   C2317631   2.855   6.616  16.441
  148DOPC   H3R17632   2.963   6.604  16.464
  148DOPC   H3S17633   2.843   6.708  16.379
  148DOPC   C2417634   2.807   6.496  16.359
  148DOPC   H4R17635   2.702   6.513  16.327
  148DOPC   H4S17636   2.808   6.405  16.423
  148DOPC   C2517637   2.892   6.467  16.234
  148DOPC   H5R17638   2.997   6.449  16.265
  148DOPC   H5S17639   2.892   6.555  16.167
  148DOPC   C2617640   2.840   6.344  16.158
  148DOPC   H6R17641   2.741   6.367  16.113
  148DOPC   H6S17642   2.825   6.263  16.232
  148DOPC   C2717643   2.935   6.289  16.049
  148DOPC   H7R17644   2.900   6.187  16.025
  148DOPC   H7S17645   3.038   6.279  16.089
  148DOPC   C2817646   2.934   6.368  15.916
  148DOPC   H8R17647   2.829   6.387  15.887
  148DOPC   H8S17648   2.976   6.300  15.838
  148DOPC   C2917649   3.018   6.493  15.917
  148DOPC   H9R17650   3.119   6.480  15.958
  148DOPC  C21017651   2.982   6.615  15.872
  148DOPC  H10R17652   3.056   6.696  15.876
  148DOPC  C21117653   2.851   6.655  15.810
  148DOPC  H11R17654   2.822   6.757  15.845
  148DOPC  H11S17655   2.768   6.587  15.842
  148DOPC  C21217656   2.855   6.655  15.656
  148DOPC  H12R17657   2.754   6.684  15.619
  148DOPC  H12S17658   2.875   6.552  15.619
  148DOPC  C21317659   2.960   6.751  15.596
  148DOPC  H13R17660   3.061   6.717  15.629
  148DOPC  H13S17661   2.944   6.853  15.636
  148DOPC  C21417662   2.958   6.754  15.443
  148DOPC  H14R17663   2.956   6.651  15.403
  148DOPC  H14S17664   3.053   6.801  15.409
  148DOPC  C21517665   2.842   6.835  15.384
  148DOPC  H15R17666   2.845   6.938  15.425
  148DOPC  H15S17667   2.746   6.790  15.416
  148DOPC  C21617668   2.843   6.843  15.230
  148DOPC  H16R17669   2.756   6.903  15.197
  148DOPC  H16S17670   2.830   6.740  15.189
  148DOPC  C21717671   2.971   6.904  15.168
  148DOPC  H17R17672   2.957   6.906  15.058
  148DOPC  H17S17673   3.057   6.837  15.188
  148DOPC  C21817674   3.004   7.046  15.216
  148DOPC  H18R17675   3.026   7.046  15.325
  148DOPC  H18S17676   2.919   7.114  15.197
  148DOPC  H18T17677   3.093   7.085  15.163
  148DOPC   C3317678   3.128   6.891  16.364
  148DOPC   H3X17679   3.067   6.798  16.365
  148DOPC   H3Y17680   3.234   6.863  16.375
  148DOPC   C3417681   3.108   6.959  16.228
  148DOPC   H4X17682   3.184   7.039  16.215
  148DOPC   H4Y17683   3.008   7.007  16.225
  148DOPC   C3517684   3.116   6.860  16.110
  148DOPC   H5X17685   3.102   6.916  16.014
  148DOPC   H5Y17686   3.030   6.790  16.118
  148DOPC   C3617687   3.245   6.777  16.102
  148DOPC   H6X17688   3.258   6.723  16.198
  148DOPC   H6Y17689   3.234   6.700  16.023
  148DOPC   C3717690   3.373   6.859  16.074
  148DOPC   H7X17691   3.379   6.942  16.147
  148DOPC   H7Y17692   3.461   6.794  16.091
  148DOPC   C3817693   3.383   6.918  15.931
  148DOPC   H8X17694   3.475   6.978  15.926
  148DOPC   H8Y17695   3.297   6.987  15.914
  148DOPC   C3917696   3.388   6.811  15.825
  148DOPC   H9X17697   3.420   6.711  15.860
  148DOPC  C31017698   3.361   6.828  15.694
  148DOPC  H10X17699   3.368   6.742  15.626
  148DOPC  C31117700   3.320   6.958  15.630
  148DOPC  H11X17701   3.386   7.041  15.662
  148DOPC  H11Y17702   3.216   6.984  15.660
  148DOPC  C31217703   3.322   6.950  15.475
  148DOPC  H12X17704   3.281   7.044  15.434
  148DOPC  H12Y17705   3.256   6.868  15.442
  148DOPC  C31317706   3.462   6.927  15.415
  148DOPC  H13X17707   3.528   7.013  15.441
  148DOPC  H13Y17708   3.508   6.836  15.459
  148DOPC  C31417709   3.459   6.910  15.263
  148DOPC  H14X17710   3.391   6.826  15.237
  148DOPC  H14Y17711   3.417   7.002  15.216
  148DOPC  C31517712   3.598   6.883  15.205
  148DOPC  H15X17713   3.641   6.792  15.254
  148DOPC  H15Y17714   3.664   6.969  15.230
  148DOPC  C31617715   3.600   6.862  15.052
  148DOPC  H16X17716   3.548   6.946  15.002
  148DOPC  H16Y17717   3.706   6.863  15.018
  148DOPC  C31717718   3.537   6.729  15.008
  148DOPC  H17X17719   3.586   6.647  15.065
  148DOPC  H17Y17720   3.430   6.729  15.035
  148DOPC  C31817721   3.552   6.702  14.858
  148DOPC  H18X17722   3.508   6.603  14.832
  148DOPC  H18Y17723   3.500   6.780  14.799
  148DOPC  H18Z17724   3.659   6.701  14.829
  149DOPC     N17725   2.994   2.283  16.790
  149DOPC   C1217726   2.943   2.287  16.934
  149DOPC  H12A17727   3.025   2.261  16.998
  149DOPC  H12B17728   2.866   2.212  16.947
  149DOPC   C1317729   2.901   2.360  16.702
  149DOPC  H13A17730   2.802   2.316  16.702
  149DOPC  H13B17731   2.893   2.461  16.742
  149DOPC  H13C17732   2.938   2.366  16.601
  149DOPC   C1417733   3.008   2.142  16.743
  149DOPC  H14A17734   2.914   2.089  16.741
  149DOPC  H14B17735   3.049   2.138  16.642
  149DOPC  H14C17736   3.075   2.086  16.807
  149DOPC   C1517737   3.127   2.351  16.790
  149DOPC  H15A17738   3.115   2.450  16.831
  149DOPC  H15B17739   3.170   2.358  16.691
  149DOPC  H15C17740   3.196   2.300  16.856
  149DOPC   C1117741   2.885   2.422  16.986
  149DOPC  H11A17742   2.784   2.438  16.943
  149DOPC  H11B17743   2.874   2.413  17.096
  149DOPC     P17744   2.952   2.672  17.020
  149DOPC   O1317745   3.051   2.682  17.129
  149DOPC   O1417746   2.809   2.691  17.055
  149DOPC   O1217747   2.970   2.531  16.951
  149DOPC   O1117748   2.990   2.771  16.904
  149DOPC    C117749   3.103   2.744  16.820
  149DOPC    HA17750   3.108   2.638  16.788
  149DOPC    HB17751   3.197   2.770  16.873
  149DOPC    C217752   3.093   2.828  16.690
  149DOPC    HS17753   3.085   2.934  16.722
  149DOPC   O2117754   2.975   2.787  16.618
  149DOPC   C2117755   2.937   2.874  16.526
  149DOPC   O2217756   2.990   2.982  16.505
  149DOPC   C2217757   2.819   2.817  16.447
  149DOPC   H2R17758   2.727   2.866  16.486
  149DOPC   H2S17759   2.813   2.708  16.466
  149DOPC    C317760   3.221   2.813  16.602
  149DOPC    HX17761   3.308   2.841  16.664
  149DOPC    HY17762   3.214   2.886  16.518
  149DOPC   O3117763   3.235   2.678  16.552
  149DOPC   C3117764   3.335   2.667  16.463
  149DOPC   O3217765   3.412   2.755  16.434
  149DOPC   C3217766   3.338   2.525  16.407
  149DOPC   H2X17767   3.413   2.523  16.325
  149DOPC   H2Y17768   3.374   2.458  16.488
  149DOPC   C2317769   2.833   2.844  16.296
  149DOPC   H3R17770   2.837   2.954  16.277
  149DOPC   H3S17771   2.744   2.805  16.243
  149DOPC   C2417772   2.959   2.779  16.237
  149DOPC   H4R17773   2.958   2.670  16.257
  149DOPC   H4S17774   3.049   2.822  16.287
  149DOPC   C2517775   2.975   2.803  16.086
  149DOPC   H5R17776   2.962   2.911  16.064
  149DOPC   H5S17777   2.896   2.747  16.031
  149DOPC   C2617778   3.114   2.758  16.038
  149DOPC   H6R17779   3.129   2.652  16.068
  149DOPC   H6S17780   3.191   2.820  16.089
  149DOPC   C2717781   3.133   2.770  15.886
  149DOPC   H7R17782   3.105   2.873  15.855
  149DOPC   H7S17783   3.063   2.700  15.835
  149DOPC   C2817784   3.277   2.743  15.840
  149DOPC   H8R17785   3.342   2.825  15.877
  149DOPC   H8S17786   3.278   2.751  15.729
  149DOPC   C2917787   3.332   2.611  15.888
  149DOPC   H9R17788   3.356   2.608  15.995
  149DOPC  C21017789   3.355   2.499  15.816
  149DOPC  H10R17790   3.395   2.411  15.867
  149DOPC  C21117791   3.330   2.479  15.668
  149DOPC  H11R17792   3.286   2.570  15.621
  149DOPC  H11S17793   3.256   2.398  15.652
  149DOPC  C21217794   3.461   2.445  15.593
  149DOPC  H12R17795   3.542   2.513  15.628
  149DOPC  H12S17796   3.447   2.466  15.485
  149DOPC  C21317797   3.507   2.299  15.609
  149DOPC  H13R17798   3.509   2.272  15.717
  149DOPC  H13S17799   3.610   2.290  15.571
  149DOPC  C21417800   3.419   2.197  15.533
  149DOPC  H14R17801   3.314   2.203  15.568
  149DOPC  H14S17802   3.456   2.095  15.557
  149DOPC  C21517803   3.424   2.215  15.380
  149DOPC  H15R17804   3.530   2.221  15.348
  149DOPC  H15S17805   3.375   2.311  15.352
  149DOPC  C21617806   3.356   2.100  15.305
  149DOPC  H16R17807   3.249   2.094  15.336
  149DOPC  H16S17808   3.405   2.004  15.332
  149DOPC  C21717809   3.363   2.119  15.153
  149DOPC  H17R17810   3.470   2.127  15.123
  149DOPC  H17S17811   3.313   2.214  15.127
  149DOPC  C21817812   3.298   2.005  15.074
  149DOPC  H18R17813   3.305   2.023  14.965
  149DOPC  H18S17814   3.190   1.996  15.101
  149DOPC  H18T17815   3.347   1.908  15.097
  149DOPC   C3317816   3.202   2.474  16.353
  149DOPC   H3X17817   3.170   2.536  16.266
  149DOPC   H3Y17818   3.124   2.484  16.432
  149DOPC   C3417819   3.210   2.327  16.310
  149DOPC   H4X17820   3.246   2.268  16.398
  149DOPC   H4Y17821   3.286   2.315  16.230
  149DOPC   C3517822   3.076   2.267  16.264
  149DOPC   H5X17823   2.998   2.294  16.337
  149DOPC   H5Y17824   3.085   2.156  16.263
  149DOPC   C3617825   3.032   2.312  16.123
  149DOPC   H6X17826   2.928   2.276  16.107
  149DOPC   H6Y17827   3.030   2.423  16.117
  149DOPC   C3717828   3.118   2.254  16.010
  149DOPC   H7X17829   3.216   2.307  16.007
  149DOPC   H7Y17830   3.139   2.147  16.032
  149DOPC   C3817831   3.050   2.260  15.871
  149DOPC   H8X17832   2.960   2.195  15.874
  149DOPC   H8Y17833   3.120   2.218  15.797
  149DOPC   C3917834   3.013   2.401  15.832
  149DOPC   H9X17835   3.067   2.480  15.886
  149DOPC  C31017836   2.924   2.437  15.737
  149DOPC  H10X17837   2.907   2.544  15.719
  149DOPC  C31117838   2.844   2.344  15.650
  149DOPC  H11X17839   2.735   2.354  15.673
  149DOPC  H11Y17840   2.871   2.238  15.667
  149DOPC  C31217841   2.864   2.373  15.500
  149DOPC  H12X17842   2.817   2.291  15.441
  149DOPC  H12Y17843   2.973   2.373  15.476
  149DOPC  C31317844   2.800   2.506  15.453
  149DOPC  H13X17845   2.692   2.503  15.478
  149DOPC  H13Y17846   2.845   2.591  15.510
  149DOPC  C31417847   2.815   2.533  15.302
  149DOPC  H14X17848   2.767   2.449  15.247
  149DOPC  H14Y17849   2.759   2.625  15.277
  149DOPC  C31517850   2.960   2.548  15.253
  149DOPC  H15X17851   2.958   2.567  15.143
  149DOPC  H15Y17852   3.013   2.452  15.267
  149DOPC  C31617853   3.041   2.660  15.322
  149DOPC  H16X17854   3.050   2.636  15.430
  149DOPC  H16Y17855   3.143   2.660  15.279
  149DOPC  C31717856   2.983   2.802  15.306
  149DOPC  H17X17857   2.882   2.805  15.352
  149DOPC  H17Y17858   3.048   2.871  15.364
  149DOPC  C31817859   2.975   2.851  15.161
  149DOPC  H18X17860   3.075   2.847  15.113
  149DOPC  H18Y17861   2.905   2.788  15.102
  149DOPC  H18Z17862   2.938   2.956  15.158
  150DOPC     N17863   7.398   5.889  17.058
  150DOPC   C1217864   7.296   5.897  16.945
  150DOPC  H12A17865   7.262   5.798  16.921
  150DOPC  H12B17866   7.346   5.936  16.858
  150DOPC   C1317867   7.455   6.026  17.080
  150DOPC  H13A17868   7.531   6.028  17.157
  150DOPC  H13B17869   7.496   6.064  16.988
  150DOPC  H13C17870   7.374   6.094  17.104
  150DOPC   C1417871   7.511   5.798  17.018
  150DOPC  H14A17872   7.476   5.697  17.000
  150DOPC  H14B17873   7.562   5.833  16.930
  150DOPC  H14C17874   7.584   5.791  17.097
  150DOPC   C1517875   7.337   5.838  17.185
  150DOPC  H15A17876   7.299   5.738  17.172
  150DOPC  H15B17877   7.256   5.903  17.215
  150DOPC  H15C17878   7.410   5.835  17.264
  150DOPC   C1117879   7.172   5.989  16.966
  150DOPC  H11A17880   7.096   5.966  16.889
  150DOPC  H11B17881   7.124   5.965  17.064
  150DOPC     P17882   7.256   6.197  16.830
  150DOPC   O1317883   7.399   6.162  16.815
  150DOPC   O1417884   7.221   6.341  16.838
  150DOPC   O1217885   7.206   6.127  16.964
  150DOPC   O1117886   7.170   6.124  16.718
  150DOPC    C117887   7.232   6.028  16.631
  150DOPC    HA17888   7.240   5.929  16.682
  150DOPC    HB17889   7.334   6.059  16.601
  150DOPC    C217890   7.152   6.006  16.500
  150DOPC    HS17891   7.051   5.969  16.527
  150DOPC   O2117892   7.226   5.907  16.425
  150DOPC   C2117893   7.160   5.854  16.323
  150DOPC   O2217894   7.042   5.870  16.299
  150DOPC   C2217895   7.256   5.761  16.248
  150DOPC   H2R17896   7.279   5.677  16.317
  150DOPC   H2S17897   7.349   5.817  16.228
  150DOPC    C317898   7.135   6.139  16.421
  150DOPC    HX17899   7.065   6.202  16.480
  150DOPC    HY17900   7.086   6.121  16.323
  150DOPC   O3117901   7.259   6.212  16.409
  150DOPC   C3117902   7.338   6.179  16.308
  150DOPC   O3217903   7.313   6.099  16.219
  150DOPC   C3217904   7.470   6.254  16.323
  150DOPC   H2X17905   7.462   6.328  16.406
  150DOPC   H2Y17906   7.547   6.178  16.351
  150DOPC   C2317907   7.198   5.705  16.116
  150DOPC   H3R17908   7.093   5.670  16.129
  150DOPC   H3S17909   7.259   5.617  16.088
  150DOPC   C2417910   7.206   5.806  16.000
  150DOPC   H4R17911   7.309   5.848  15.997
  150DOPC   H4S17912   7.136   5.890  16.019
  150DOPC   C2517913   7.174   5.741  15.864
  150DOPC   H5R17914   7.064   5.727  15.855
  150DOPC   H5S17915   7.221   5.641  15.860
  150DOPC   C2617916   7.227   5.823  15.745
  150DOPC   H6R17917   7.336   5.838  15.757
  150DOPC   H6S17918   7.179   5.923  15.745
  150DOPC   C2717919   7.201   5.752  15.611
  150DOPC   H7R17920   7.093   5.732  15.602
  150DOPC   H7S17921   7.254   5.654  15.612
  150DOPC   C2817922   7.249   5.835  15.490
  150DOPC   H8R17923   7.358   5.856  15.503
  150DOPC   H8S17924   7.197   5.933  15.492
  150DOPC   C2917925   7.225   5.764  15.360
  150DOPC   H9R17926   7.314   5.715  15.316
  150DOPC  C21017927   7.107   5.755  15.295
  150DOPC  H10R17928   7.103   5.700  15.200
  150DOPC  C21117929   6.976   5.813  15.341
  150DOPC  H11R17930   6.987   5.876  15.432
  150DOPC  H11S17931   6.906   5.731  15.367
  150DOPC  C21217932   6.910   5.898  15.231
  150DOPC  H12R17933   6.897   5.837  15.139
  150DOPC  H12S17934   6.976   5.984  15.206
  150DOPC  C21317935   6.772   5.952  15.273
  150DOPC  H13R17936   6.783   6.020  15.360
  150DOPC  H13S17937   6.707   5.867  15.303
  150DOPC  C21417938   6.705   6.027  15.157
  150DOPC  H14R17939   6.694   5.956  15.072
  150DOPC  H14S17940   6.771   6.110  15.123
  150DOPC  C21517941   6.566   6.083  15.189
  150DOPC  H15R17942   6.576   6.175  15.251
  150DOPC  H15S17943   6.510   6.008  15.249
  150DOPC  C21617944   6.483   6.115  15.063
  150DOPC  H16R17945   6.385   6.158  15.093
  150DOPC  H16S17946   6.463   6.019  15.010
  150DOPC  C21717947   6.553   6.210  14.965
  150DOPC  H17R17948   6.654   6.170  14.940
  150DOPC  H17S17949   6.569   6.308  15.016
  150DOPC  C21817950   6.476   6.231  14.835
  150DOPC  H18R17951   6.377   6.277  14.855
  150DOPC  H18S17952   6.460   6.134  14.783
  150DOPC  H18T17953   6.532   6.298  14.767
  150DOPC   C3317954   7.513   6.325  16.193
  150DOPC   H3X17955   7.515   6.251  16.109
  150DOPC   H3Y17956   7.616   6.363  16.205
  150DOPC   C3417957   7.421   6.442  16.157
  150DOPC   H4X17958   7.418   6.513  16.242
  150DOPC   H4Y17959   7.317   6.405  16.142
  150DOPC   C3517960   7.465   6.519  16.031
  150DOPC   H5X17961   7.563   6.569  16.051
  150DOPC   H5Y17962   7.390   6.599  16.012
  150DOPC   C3617963   7.478   6.433  15.904
  150DOPC   H6X17964   7.500   6.500  15.818
  150DOPC   H6Y17965   7.565   6.365  15.915
  150DOPC   C3717966   7.352   6.351  15.872
  150DOPC   H7X17967   7.335   6.275  15.951
  150DOPC   H7Y17968   7.265   6.420  15.873
  150DOPC   C3817969   7.356   6.282  15.734
  150DOPC   H8X17970   7.357   6.362  15.657
  150DOPC   H8Y17971   7.260   6.227  15.721
  150DOPC   C3917972   7.471   6.185  15.720
  150DOPC   H9X17973   7.474   6.107  15.797
  150DOPC  C31017974   7.567   6.187  15.625
  150DOPC  H10X17975   7.644   6.109  15.627
  150DOPC  C31117976   7.581   6.285  15.511
  150DOPC  H11X17977   7.672   6.347  15.526
  150DOPC  H11Y17978   7.495   6.356  15.505
  150DOPC  C31217979   7.593   6.216  15.373
  150DOPC  H12X17980   7.681   6.148  15.373
  150DOPC  H12Y17981   7.611   6.294  15.297
  150DOPC  C31317982   7.468   6.136  15.333
  150DOPC  H13X17983   7.451   6.056  15.409
  150DOPC  H13Y17984   7.379   6.202  15.334
  150DOPC  C31417985   7.481   6.068  15.196
  150DOPC  H14X17986   7.577   6.012  15.193
  150DOPC  H14Y17987   7.399   5.993  15.184
  150DOPC  C31517988   7.476   6.164  15.076
  150DOPC  H15X17989   7.515   6.111  14.987
  150DOPC  H15Y17990   7.542   6.251  15.094
  150DOPC  C31617991   7.334   6.214  15.044
  150DOPC  H16X17992   7.273   6.127  15.010
  150DOPC  H16Y17993   7.286   6.253  15.136
  150DOPC  C31717994   7.329   6.324  14.936
  150DOPC  H17X17995   7.222   6.346  14.914
  150DOPC  H17Y17996   7.374   6.416  14.978
  150DOPC  C31817997   7.401   6.288  14.805
  150DOPC  H18X17998   7.381   6.365  14.728
  150DOPC  H18Y17999   7.511   6.282  14.821
  150DOPC  H18Z18000   7.366   6.190  14.767
  151DOPC     N18001   1.743   4.497  17.032
  151DOPC   C1218002   1.614   4.536  17.104
  151DOPC  H12A18003   1.568   4.618  17.050
  151DOPC  H12B18004   1.638   4.571  17.203
  151DOPC   C1318005   1.713   4.479  16.886
  151DOPC  H13A18006   1.669   4.568  16.843
  151DOPC  H13B18007   1.799   4.449  16.828
  151DOPC  H13C18008   1.636   4.404  16.875
  151DOPC   C1418009   1.794   4.368  17.088
  151DOPC  H14A18010   1.809   4.377  17.195
  151DOPC  H14B18011   1.722   4.290  17.071
  151DOPC  H14C18012   1.889   4.341  17.045
  151DOPC   C1518013   1.847   4.603  17.051
  151DOPC  H15A18014   1.869   4.616  17.156
  151DOPC  H15B18015   1.812   4.697  17.010
  151DOPC  H15C18016   1.939   4.575  17.002
  151DOPC   C1118017   1.504   4.428  17.116
  151DOPC  H11A18018   1.542   4.340  17.171
  151DOPC  H11B18019   1.422   4.469  17.179
  151DOPC     P18020   1.357   4.485  16.911
  151DOPC   O1318021   1.420   4.619  16.908
  151DOPC   O1418022   1.225   4.470  16.977
  151DOPC   O1218023   1.456   4.386  16.988
  151DOPC   O1118024   1.354   4.423  16.766
  151DOPC    C118025   1.415   4.297  16.740
  151DOPC    HA18026   1.377   4.219  16.809
  151DOPC    HB18027   1.525   4.303  16.754
  151DOPC    C218028   1.387   4.247  16.595
  151DOPC    HS18029   1.452   4.159  16.574
  151DOPC   O2118030   1.407   4.347  16.494
  151DOPC   C2118031   1.515   4.420  16.492
  151DOPC   O2218032   1.616   4.407  16.560
  151DOPC   C2218033   1.496   4.525  16.382
  151DOPC   H2R18034   1.392   4.564  16.392
  151DOPC   H2S18035   1.503   4.473  16.284
  151DOPC    C318036   1.239   4.200  16.583
  151DOPC    HX18037   1.173   4.290  16.588
  151DOPC    HY18038   1.216   4.139  16.673
  151DOPC   O3118039   1.218   4.119  16.466
  151DOPC   C3118040   1.165   4.180  16.360
  151DOPC   O3218041   1.135   4.297  16.352
  151DOPC   C3218042   1.146   4.074  16.251
  151DOPC   H2X18043   1.246   4.042  16.216
  151DOPC   H2Y18044   1.098   3.986  16.300
  151DOPC   C2318045   1.596   4.643  16.388
  151DOPC   H3R18046   1.699   4.609  16.366
  151DOPC   H3S18047   1.595   4.682  16.492
  151DOPC   C2418048   1.556   4.759  16.295
  151DOPC   H4R18049   1.585   4.854  16.346
  151DOPC   H4S18050   1.446   4.760  16.282
  151DOPC   C2518051   1.624   4.760  16.157
  151DOPC   H5R18052   1.733   4.778  16.169
  151DOPC   H5S18053   1.583   4.846  16.099
  151DOPC   C2618054   1.604   4.632  16.074
  151DOPC   H6R18055   1.497   4.605  16.072
  151DOPC   H6S18056   1.660   4.549  16.123
  151DOPC   C2718057   1.656   4.648  15.930
  151DOPC   H7R18058   1.754   4.699  15.933
  151DOPC   H7S18059   1.587   4.713  15.872
  151DOPC   C2818060   1.676   4.514  15.855
  151DOPC   H8R18061   1.747   4.452  15.915
  151DOPC   H8S18062   1.726   4.537  15.759
  151DOPC   C2918063   1.549   4.438  15.831
  151DOPC   H9R18064   1.460   4.475  15.883
  151DOPC  C21018065   1.538   4.330  15.750
  151DOPC  H10R18066   1.439   4.282  15.738
  151DOPC  C21118067   1.649   4.266  15.670
  151DOPC  H11R18068   1.671   4.167  15.715
  151DOPC  H11S18069   1.743   4.324  15.674
  151DOPC  C21218070   1.612   4.241  15.522
  151DOPC  H12R18071   1.509   4.201  15.514
  151DOPC  H12S18072   1.680   4.162  15.484
  151DOPC  C21318073   1.627   4.363  15.428
  151DOPC  H13R18074   1.604   4.328  15.325
  151DOPC  H13S18075   1.733   4.397  15.429
  151DOPC  C21418076   1.536   4.482  15.460
  151DOPC  H14R18077   1.571   4.532  15.553
  151DOPC  H14S18078   1.433   4.445  15.479
  151DOPC  C21518079   1.532   4.584  15.346
  151DOPC  H15R18080   1.492   4.533  15.255
  151DOPC  H15S18081   1.635   4.619  15.323
  151DOPC  C21618082   1.444   4.706  15.378
  151DOPC  H16R18083   1.483   4.755  15.470
  151DOPC  H16S18084   1.341   4.671  15.400
  151DOPC  C21718085   1.439   4.810  15.265
  151DOPC  H17R18086   1.541   4.847  15.245
  151DOPC  H17S18087   1.378   4.897  15.300
  151DOPC  C21818088   1.378   4.759  15.134
  151DOPC  H18R18089   1.370   4.841  15.059
  151DOPC  H18S18090   1.276   4.718  15.151
  151DOPC  H18T18091   1.441   4.678  15.090
  151DOPC   C3318092   1.059   4.120  16.131
  151DOPC   H3X18093   0.995   4.207  16.157
  151DOPC   H3Y18094   0.990   4.036  16.106
  151DOPC   C3418095   1.141   4.149  16.005
  151DOPC   H4X18096   1.073   4.158  15.917
  151DOPC   H4Y18097   1.206   4.061  15.986
  151DOPC   C3518098   1.230   4.275  16.014
  151DOPC   H5X18099   1.303   4.272  15.931
  151DOPC   H5Y18100   1.288   4.272  16.108
  151DOPC   C3618101   1.153   4.409  16.007
  151DOPC   H6X18102   1.087   4.415  16.096
  151DOPC   H6Y18103   1.227   4.492  16.016
  151DOPC   C3718104   1.069   4.430  15.880
  151DOPC   H7X18105   0.991   4.351  15.876
  151DOPC   H7Y18106   1.016   4.527  15.890
  151DOPC   C3818107   1.151   4.431  15.749
  151DOPC   H8X18108   1.215   4.340  15.748
  151DOPC   H8Y18109   1.220   4.518  15.751
  151DOPC   C3918110   1.063   4.436  15.626
  151DOPC   H9X18111   1.013   4.533  15.609
  151DOPC  C31018112   1.040   4.335  15.540
  151DOPC  H10X18113   0.976   4.353  15.452
  151DOPC  C31118114   1.099   4.196  15.549
  151DOPC  H11X18115   1.024   4.120  15.518
  151DOPC  H11Y18116   1.123   4.171  15.655
  151DOPC  C31218117   1.227   4.178  15.466
  151DOPC  H12X18118   1.296   4.114  15.525
  151DOPC  H12Y18119   1.280   4.275  15.452
  151DOPC  C31318120   1.206   4.110  15.330
  151DOPC  H13X18121   1.306   4.091  15.285
  151DOPC  H13Y18122   1.159   4.011  15.346
  151DOPC  C31418123   1.123   4.191  15.229
  151DOPC  H14X18124   1.018   4.197  15.265
  151DOPC  H14Y18125   1.163   4.294  15.226
  151DOPC  C31518126   1.125   4.133  15.087
  151DOPC  H15X18127   1.230   4.131  15.050
  151DOPC  H15Y18128   1.068   4.201  15.020
  151DOPC  C31618129   1.066   3.991  15.076
  151DOPC  H16X18130   1.125   3.923  15.142
  151DOPC  H16Y18131   0.962   3.993  15.114
  151DOPC  C31718132   1.067   3.932  14.934
  151DOPC  H17X18133   1.171   3.933  14.896
  151DOPC  H17Y18134   1.034   3.826  14.941
  151DOPC  C31818135   0.975   4.004  14.835
  151DOPC  H18X18136   0.978   3.955  14.735
  151DOPC  H18Y18137   0.870   4.003  14.871
  151DOPC  H18Z18138   1.006   4.110  14.822
  152DOPC     N18139   4.714   1.639  16.935
  152DOPC   C1218140   4.716   1.547  16.815
  152DOPC  H12A18141   4.777   1.591  16.737
  152DOPC  H12B18142   4.615   1.538  16.776
  152DOPC   C1318143   4.850   1.650  16.997
  152DOPC  H13A18144   4.924   1.685  16.926
  152DOPC  H13B18145   4.848   1.720  17.080
  152DOPC  H13C18146   4.883   1.555  17.036
  152DOPC   C1418147   4.622   1.584  17.040
  152DOPC  H14A18148   4.632   1.637  17.134
  152DOPC  H14B18149   4.518   1.588  17.009
  152DOPC  H14C18150   4.646   1.480  17.056
  152DOPC   C1518151   4.669   1.778  16.900
  152DOPC  H15A18152   4.677   1.842  16.986
  152DOPC  H15B18153   4.566   1.779  16.866
  152DOPC  H15C18154   4.732   1.821  16.824
  152DOPC   C1118155   4.764   1.401  16.837
  152DOPC  H11A18156   4.772   1.351  16.738
  152DOPC  H11B18157   4.866   1.403  16.881
  152DOPC     P18158   4.706   1.186  16.974
  152DOPC   O1318159   4.588   1.137  17.048
  152DOPC   O1418160   4.835   1.193  17.047
  152DOPC   O1218161   4.672   1.331  16.920
  152DOPC   O1118162   4.722   1.101  16.841
  152DOPC    C118163   4.614   1.105  16.747
  152DOPC    HA18164   4.602   1.208  16.707
  152DOPC    HB18165   4.518   1.075  16.795
  152DOPC    C218166   4.634   1.010  16.626
  152DOPC    HS18167   4.649   0.909  16.668
  152DOPC   O2118168   4.752   1.051  16.552
  152DOPC   C2118169   4.788   0.966  16.458
  152DOPC   O2218170   4.743   0.854  16.442
  152DOPC   C2218171   4.894   1.030  16.368
  152DOPC   H2R18172   4.990   0.978  16.389
  152DOPC   H2S18173   4.904   1.137  16.394
  152DOPC    C318174   4.507   1.006  16.535
  152DOPC    HX18175   4.416   0.999  16.598
  152DOPC    HY18176   4.510   0.912  16.475
  152DOPC   O3118177   4.502   1.118  16.443
  152DOPC   C3118178   4.446   1.229  16.485
  152DOPC   O3218179   4.383   1.243  16.589
  152DOPC   C3218180   4.476   1.341  16.385
  152DOPC   H2X18181   4.542   1.301  16.305
  152DOPC   H2Y18182   4.380   1.372  16.338
  152DOPC   C2318183   4.857   1.014  16.219
  152DOPC   H3R18184   4.844   0.907  16.194
  152DOPC   H3S18185   4.940   1.053  16.156
  152DOPC   C2418186   4.729   1.091  16.182
  152DOPC   H4R18187   4.744   1.199  16.203
  152DOPC   H4S18188   4.645   1.056  16.246
  152DOPC   C2518189   4.687   1.072  16.036
  152DOPC   H5R18190   4.675   0.963  16.018
  152DOPC   H5S18191   4.768   1.107  15.969
  152DOPC   C2618192   4.554   1.141  16.000
  152DOPC   H6R18193   4.479   1.115  16.078
  152DOPC   H6S18194   4.517   1.101  15.903
  152DOPC   C2718195   4.566   1.293  15.988
  152DOPC   H7R18196   4.632   1.317  15.902
  152DOPC   H7S18197   4.613   1.334  16.080
  152DOPC   C2818198   4.429   1.362  15.968
  152DOPC   H8R18199   4.364   1.339  16.055
  152DOPC   H8S18200   4.381   1.315  15.879
  152DOPC   C2918201   4.445   1.511  15.952
  152DOPC   H9R18202   4.489   1.562  16.038
  152DOPC  C21018203   4.411   1.584  15.843
  152DOPC  H10R18204   4.430   1.692  15.844
  152DOPC  C21118205   4.350   1.530  15.716
  152DOPC  H11R18206   4.289   1.608  15.666
  152DOPC  H11S18207   4.282   1.445  15.738
  152DOPC  C21218208   4.457   1.480  15.616
  152DOPC  H12R18209   4.405   1.425  15.534
  152DOPC  H12S18210   4.524   1.407  15.666
  152DOPC  C21318211   4.540   1.592  15.553
  152DOPC  H13R18212   4.592   1.650  15.632
  152DOPC  H13S18213   4.471   1.661  15.500
  152DOPC  C21418214   4.645   1.538  15.454
  152DOPC  H14R18215   4.594   1.475  15.378
  152DOPC  H14S18216   4.715   1.473  15.511
  152DOPC  C21518217   4.726   1.648  15.383
  152DOPC  H15R18218   4.808   1.599  15.326
  152DOPC  H15S18219   4.773   1.714  15.459
  152DOPC  C21618220   4.643   1.732  15.285
  152DOPC  H16R18221   4.565   1.788  15.341
  152DOPC  H16S18222   4.591   1.664  15.214
  152DOPC  C21718223   4.728   1.832  15.205
  152DOPC  H17R18224   4.807   1.776  15.150
  152DOPC  H17S18225   4.779   1.900  15.277
  152DOPC  C21818226   4.647   1.915  15.106
  152DOPC  H18R18227   4.595   1.848  15.033
  152DOPC  H18S18228   4.713   1.984  15.050
  152DOPC  H18T18229   4.569   1.974  15.159
  152DOPC   C3318230   4.543   1.463  16.452
  152DOPC   H3X18231   4.627   1.429  16.517
  152DOPC   H3Y18232   4.468   1.513  16.517
  152DOPC   C3418233   4.598   1.565  16.351
  152DOPC   H4X18234   4.614   1.662  16.402
  152DOPC   H4Y18235   4.523   1.581  16.271
  152DOPC   C3518236   4.732   1.522  16.288
  152DOPC   H5X18237   4.721   1.420  16.245
  152DOPC   H5Y18238   4.810   1.516  16.368
  152DOPC   C3618239   4.779   1.618  16.178
  152DOPC   H6X18240   4.702   1.623  16.098
  152DOPC   H6Y18241   4.789   1.720  16.221
  152DOPC   C3718242   4.914   1.580  16.114
  152DOPC   H7X18243   4.941   1.660  16.042
  152DOPC   H7Y18244   4.993   1.576  16.192
  152DOPC   C3818245   4.910   1.445  16.038
  152DOPC   H8X18246   4.820   1.446  15.972
  152DOPC   H8Y18247   4.894   1.363  16.111
  152DOPC   C3918248   5.036   1.419  15.960
  152DOPC   H9X18249   5.128   1.414  16.020
  152DOPC  C31018250   5.046   1.401  15.826
  152DOPC  H10X18251   5.144   1.380  15.782
  152DOPC  C31118252   4.931   1.404  15.728
  152DOPC  H11X18253   4.966   1.436  15.628
  152DOPC  H11Y18254   4.855   1.479  15.759
  152DOPC  C31218255   4.860   1.268  15.716
  152DOPC  H12X18256   4.764   1.282  15.661
  152DOPC  H12Y18257   4.833   1.234  15.819
  152DOPC  C31318258   4.942   1.157  15.648
  152DOPC  H13X18259   5.040   1.146  15.701
  152DOPC  H13Y18260   4.888   1.060  15.662
  152DOPC  C31418261   4.968   1.178  15.498
  152DOPC  H14X18262   5.027   1.272  15.485
  152DOPC  H14Y18263   5.032   1.094  15.460
  152DOPC  C31518264   4.842   1.186  15.411
  152DOPC  H15X18265   4.872   1.219  15.309
  152DOPC  H15Y18266   4.774   1.264  15.451
  152DOPC  C31618267   4.765   1.053  15.399
  152DOPC  H16X18268   4.827   0.981  15.342
  152DOPC  H16Y18269   4.748   1.011  15.500
  152DOPC  C31718270   4.628   1.068  15.331
  152DOPC  H17X18271   4.582   0.967  15.321
  152DOPC  H17Y18272   4.562   1.128  15.397
  152DOPC  C31818273   4.632   1.134  15.192
  152DOPC  H18X18274   4.531   1.135  15.146
  152DOPC  H18Y18275   4.668   1.239  15.200
  152DOPC  H18Z18276   4.701   1.079  15.125
  153DOPC     N18277   6.449   7.604  17.066
  153DOPC   C1218278   6.595   7.618  17.023
  153DOPC  H12A18279   6.656   7.635  17.110
  153DOPC  H12B18280   6.603   7.705  16.959
  153DOPC   C1318281   6.428   7.470  17.129
  153DOPC  H13A18282   6.327   7.458  17.165
  153DOPC  H13B18283   6.446   7.392  17.056
  153DOPC  H13C18284   6.496   7.452  17.211
  153DOPC   C1418285   6.361   7.612  16.946
  153DOPC  H14A18286   6.366   7.709  16.898
  153DOPC  H14B18287   6.395   7.540  16.873
  153DOPC  H14C18288   6.258   7.589  16.969
  153DOPC   C1518289   6.413   7.711  17.165
  153DOPC  H15A18290   6.476   7.705  17.253
  153DOPC  H15B18291   6.311   7.699  17.199
  153DOPC  H15C18292   6.423   7.810  17.123
  153DOPC   C1118293   6.657   7.500  16.943
  153DOPC  H11A18294   6.759   7.529  16.910
  153DOPC  H11B18295   6.670   7.414  17.013
  153DOPC     P18296   6.542   7.319  16.795
  153DOPC   O1318297   6.471   7.263  16.913
  153DOPC   O1418298   6.665   7.248  16.754
  153DOPC   O1218299   6.579   7.469  16.828
  153DOPC   O1118300   6.441   7.334  16.676
  153DOPC    C118301   6.445   7.244  16.564
  153DOPC    HA18302   6.344   7.240  16.518
  153DOPC    HB18303   6.470   7.140  16.595
  153DOPC    C218304   6.545   7.291  16.455
  153DOPC    HS18305   6.645   7.298  16.503
  153DOPC   O2118306   6.503   7.420  16.407
  153DOPC   C2118307   6.597   7.488  16.342
  153DOPC   O2218308   6.712   7.452  16.327
  153DOPC   C2218309   6.539   7.621  16.296
  153DOPC   H2R18310   6.569   7.698  16.370
  153DOPC   H2S18311   6.428   7.613  16.295
  153DOPC    C318312   6.556   7.187  16.339
  153DOPC    HX18313   6.596   7.094  16.384
  153DOPC    HY18314   6.632   7.220  16.265
  153DOPC   O3118315   6.428   7.156  16.279
  153DOPC   C3118316   6.395   7.231  16.174
  153DOPC   O3218317   6.463   7.319  16.125
  153DOPC   C3218318   6.259   7.186  16.120
  153DOPC   H2X18319   6.268   7.079  16.091
  153DOPC   H2Y18320   6.184   7.194  16.202
  153DOPC   C2318321   6.587   7.661  16.155
  153DOPC   H3R18322   6.560   7.581  16.083
  153DOPC   H3S18323   6.698   7.670  16.154
  153DOPC   C2418324   6.525   7.794  16.108
  153DOPC   H4R18325   6.554   7.874  16.180
  153DOPC   H4S18326   6.415   7.784  16.112
  153DOPC   C2518327   6.568   7.837  15.967
  153DOPC   H5R18328   6.677   7.855  15.966
  153DOPC   H5S18329   6.518   7.933  15.943
  153DOPC   C2618330   6.535   7.736  15.855
  153DOPC   H6R18331   6.597   7.645  15.869
  153DOPC   H6S18332   6.563   7.780  15.757
  153DOPC   C2718333   6.387   7.695  15.850
  153DOPC   H7R18334   6.325   7.787  15.848
  153DOPC   H7S18335   6.360   7.639  15.942
  153DOPC   C2818336   6.350   7.610  15.727
  153DOPC   H8R18337   6.368   7.671  15.636
  153DOPC   H8S18338   6.241   7.590  15.730
  153DOPC   C2918339   6.425   7.479  15.723
  153DOPC   H9R18340   6.427   7.426  15.820
  153DOPC  C21018341   6.489   7.424  15.618
  153DOPC  H10R18342   6.539   7.327  15.632
  153DOPC  C21118343   6.502   7.482  15.479
  153DOPC  H11R18344   6.605   7.467  15.442
  153DOPC  H11S18345   6.486   7.592  15.479
  153DOPC  C21218346   6.403   7.421  15.378
  153DOPC  H12R18347   6.418   7.470  15.280
  153DOPC  H12S18348   6.299   7.444  15.411
  153DOPC  C21318349   6.416   7.269  15.358
  153DOPC  H13R18350   6.341   7.236  15.283
  153DOPC  H13S18351   6.392   7.216  15.453
  153DOPC  C21418352   6.555   7.225  15.310
  153DOPC  H14R18353   6.631   7.250  15.388
  153DOPC  H14S18354   6.581   7.282  15.218
  153DOPC  C21518355   6.563   7.075  15.280
  153DOPC  H15R18356   6.489   7.050  15.201
  153DOPC  H15S18357   6.536   7.018  15.372
  153DOPC  C21618358   6.703   7.033  15.232
  153DOPC  H16R18359   6.778   7.060  15.310
  153DOPC  H16S18360   6.727   7.091  15.140
  153DOPC  C21718361   6.718   6.883  15.199
  153DOPC  H17R18362   6.819   6.867  15.156
  153DOPC  H17S18363   6.645   6.857  15.120
  153DOPC  C21818364   6.700   6.789  15.319
  153DOPC  H18R18365   6.717   6.684  15.289
  153DOPC  H18S18366   6.597   6.797  15.360
  153DOPC  H18T18367   6.772   6.815  15.400
  153DOPC   C3318368   6.217   7.271  15.998
  153DOPC   H3X18369   6.303   7.277  15.928
  153DOPC   H3Y18370   6.193   7.375  16.031
  153DOPC   C3418371   6.099   7.214  15.918
  153DOPC   H4X18372   6.007   7.209  15.980
  153DOPC   H4Y18373   6.125   7.111  15.887
  153DOPC   C3518374   6.074   7.299  15.792
  153DOPC   H5X18375   6.171   7.342  15.762
  153DOPC   H5Y18376   6.006   7.385  15.815
  153DOPC   C3618377   6.021   7.221  15.671
  153DOPC   H6X18378   6.076   7.124  15.665
  153DOPC   H6Y18379   5.913   7.198  15.682
  153DOPC   C3718380   6.049   7.297  15.540
  153DOPC   H7X18381   5.983   7.387  15.534
  153DOPC   H7Y18382   6.153   7.334  15.545
  153DOPC   C3818383   6.038   7.212  15.413
  153DOPC   H8X18384   6.087   7.114  15.432
  153DOPC   H8Y18385   6.098   7.263  15.334
  153DOPC   C3918386   5.897   7.191  15.363
  153DOPC   H9X18387   5.819   7.198  15.440
  153DOPC  C31018388   5.863   7.166  15.235
  153DOPC  H10X18389   5.757   7.154  15.210
  153DOPC  C31118390   5.959   7.154  15.119
  153DOPC  H11X18391   5.927   7.071  15.053
  153DOPC  H11Y18392   6.061   7.128  15.154
  153DOPC  C31218393   5.969   7.282  15.034
  153DOPC  H12X18394   5.998   7.367  15.100
  153DOPC  H12Y18395   5.870   7.305  14.990
  153DOPC  C31318396   6.073   7.269  14.922
  153DOPC  H13X18397   6.173   7.248  14.968
  153DOPC  H13Y18398   6.047   7.181  14.860
  153DOPC  C31418399   6.083   7.392  14.831
  153DOPC  H14X18400   6.151   7.367  14.746
  153DOPC  H14Y18401   5.983   7.413  14.788
  153DOPC  C31518402   6.135   7.521  14.898
  153DOPC  H15X18403   6.066   7.552  14.979
  153DOPC  H15Y18404   6.135   7.601  14.822
  153DOPC  C31618405   6.278   7.508  14.954
  153DOPC  H16X18406   6.276   7.447  15.046
  153DOPC  H16Y18407   6.340   7.454  14.879
  153DOPC  C31718408   6.345   7.643  14.982
  153DOPC  H17X18409   6.449   7.625  15.014
  153DOPC  H17Y18410   6.349   7.701  14.888
  153DOPC  C31818411   6.275   7.728  15.089
  153DOPC  H18X18412   6.270   7.673  15.185
  153DOPC  H18Y18413   6.329   7.823  15.105
  153DOPC  H18Z18414   6.171   7.753  15.058
  154DOPC     N18415   8.411   4.487  16.975
  154DOPC   C1218416   8.332   4.601  16.913
  154DOPC  H12A18417   8.398   4.653  16.844
  154DOPC  H12B18418   8.303   4.669  16.991
  154DOPC   C1318419   8.527   4.539  17.055
  154DOPC  H13A18420   8.586   4.457  17.094
  154DOPC  H13B18421   8.594   4.600  16.996
  154DOPC  H13C18422   8.493   4.599  17.138
  154DOPC   C1418423   8.464   4.399  16.866
  154DOPC  H14A18424   8.523   4.456  16.796
  154DOPC  H14B18425   8.525   4.318  16.904
  154DOPC  H14C18426   8.383   4.355  16.809
  154DOPC   C1518427   8.322   4.407  17.064
  154DOPC  H15A18428   8.292   4.462  17.152
  154DOPC  H15B18429   8.367   4.314  17.095
  154DOPC  H15C18430   8.230   4.386  17.011
  154DOPC   C1118431   8.202   4.567  16.835
  154DOPC  H11A18432   8.166   4.659  16.785
  154DOPC  H11B18433   8.225   4.492  16.756
  154DOPC     P18434   7.955   4.490  16.874
  154DOPC   O1318435   7.893   4.620  16.839
  154DOPC   O1418436   7.887   4.410  16.979
  154DOPC   O1218437   8.103   4.517  16.924
  154DOPC   O1118438   7.978   4.400  16.744
  154DOPC    C118439   8.017   4.263  16.766
  154DOPC    HA18440   7.938   4.208  16.822
  154DOPC    HB18441   8.110   4.260  16.827
  154DOPC    C218442   8.048   4.180  16.636
  154DOPC    HS18443   8.119   4.100  16.665
  154DOPC   O2118444   8.105   4.262  16.532
  154DOPC   C2118445   8.227   4.305  16.556
  154DOPC   O2218446   8.299   4.270  16.648
  154DOPC   C2218447   8.269   4.400  16.443
  154DOPC   H2R18448   8.333   4.479  16.488
  154DOPC   H2S18449   8.177   4.447  16.403
  154DOPC    C318450   7.923   4.108  16.577
  154DOPC    HX18451   7.871   4.054  16.658
  154DOPC    HY18452   7.966   4.033  16.507
  154DOPC   O3118453   7.831   4.196  16.508
  154DOPC   C3118454   7.751   4.132  16.423
  154DOPC   O3218455   7.745   4.011  16.412
  154DOPC   C3218456   7.672   4.233  16.340
  154DOPC   H2X18457   7.605   4.289  16.409
  154DOPC   H2Y18458   7.744   4.304  16.295
  154DOPC   C2318459   8.347   4.325  16.332
  154DOPC   H3R18460   8.295   4.231  16.306
  154DOPC   H3S18461   8.448   4.299  16.369
  154DOPC   C2418462   8.361   4.406  16.202
  154DOPC   H4R18463   8.427   4.350  16.132
  154DOPC   H4S18464   8.409   4.504  16.222
  154DOPC   C2518465   8.226   4.429  16.131
  154DOPC   H5R18466   8.163   4.498  16.191
  154DOPC   H5S18467   8.172   4.332  16.125
  154DOPC   C2618468   8.240   4.485  15.989
  154DOPC   H6R18469   8.300   4.414  15.928
  154DOPC   H6S18470   8.294   4.582  15.992
  154DOPC   C2718471   8.102   4.506  15.923
  154DOPC   H7R18472   8.045   4.579  15.984
  154DOPC   H7S18473   8.046   4.410  15.925
  154DOPC   C2818474   8.108   4.559  15.778
  154DOPC   H8R18475   8.165   4.655  15.777
  154DOPC   H8S18476   8.005   4.584  15.747
  154DOPC   C2918477   8.170   4.461  15.681
  154DOPC   H9R18478   8.277   4.474  15.663
  154DOPC  C21018479   8.104   4.362  15.618
  154DOPC  H10R18480   8.158   4.297  15.548
  154DOPC  C21118481   7.957   4.332  15.635
  154DOPC  H11R18482   7.896   4.421  15.608
  154DOPC  H11S18483   7.934   4.308  15.741
  154DOPC  C21218484   7.909   4.214  15.548
  154DOPC  H12R18485   7.930   4.236  15.442
  154DOPC  H12S18486   7.799   4.205  15.559
  154DOPC  C21318487   7.971   4.078  15.585
  154DOPC  H13R18488   7.958   4.061  15.694
  154DOPC  H13S18489   8.080   4.081  15.565
  154DOPC  C21418490   7.910   3.959  15.509
  154DOPC  H14R18491   7.802   3.950  15.535
  154DOPC  H14S18492   7.960   3.867  15.546
  154DOPC  C21518493   7.926   3.965  15.356
  154DOPC  H15R18494   7.944   3.862  15.319
  154DOPC  H15S18495   8.016   4.025  15.331
  154DOPC  C21618496   7.802   4.020  15.283
  154DOPC  H16R18497   7.780   4.122  15.319
  154DOPC  H16S18498   7.715   3.956  15.308
  154DOPC  C21718499   7.819   4.023  15.131
  154DOPC  H17R18500   7.840   3.920  15.095
  154DOPC  H17S18501   7.908   4.085  15.106
  154DOPC  C21818502   7.697   4.079  15.057
  154DOPC  H18R18503   7.607   4.017  15.079
  154DOPC  H18S18504   7.714   4.079  14.948
  154DOPC  H18T18505   7.676   4.183  15.090
  154DOPC   C3318506   7.588   4.164  16.229
  154DOPC   H3X18507   7.520   4.090  16.276
  154DOPC   H3Y18508   7.655   4.109  16.160
  154DOPC   C3418509   7.502   4.262  16.147
  154DOPC   H4X18510   7.437   4.320  16.215
  154DOPC   H4Y18511   7.436   4.202  16.080
  154DOPC   C3518512   7.584   4.358  16.059
  154DOPC   H5X18513   7.651   4.299  15.993
  154DOPC   H5Y18514   7.647   4.423  16.123
  154DOPC   C3618515   7.494   4.447  15.971
  154DOPC   H6X18516   7.431   4.383  15.906
  154DOPC   H6Y18517   7.426   4.505  16.037
  154DOPC   C3718518   7.574   4.545  15.884
  154DOPC   H7X18519   7.638   4.607  15.950
  154DOPC   H7Y18520   7.640   4.487  15.816
  154DOPC   C3818521   7.482   4.637  15.800
  154DOPC   H8X18522   7.413   4.689  15.869
  154DOPC   H8Y18523   7.420   4.572  15.735
  154DOPC   C3918524   7.562   4.737  15.720
  154DOPC   H9X18525   7.623   4.805  15.782
  154DOPC  C31018526   7.564   4.752  15.587
  154DOPC  H10X18527   7.630   4.829  15.544
  154DOPC  C31118528   7.487   4.671  15.485
  154DOPC  H11X18529   7.460   4.736  15.399
  154DOPC  H11Y18530   7.391   4.635  15.528
  154DOPC  C31218531   7.565   4.550  15.432
  154DOPC  H12X18532   7.502   4.498  15.356
  154DOPC  H12Y18533   7.583   4.478  15.514
  154DOPC  C31318534   7.699   4.586  15.366
  154DOPC  H13X18535   7.685   4.668  15.294
  154DOPC  H13Y18536   7.769   4.621  15.445
  154DOPC  C31418537   7.763   4.466  15.294
  154DOPC  H14X18538   7.761   4.378  15.361
  154DOPC  H14Y18539   7.703   4.441  15.204
  154DOPC  C31518540   7.909   4.494  15.253
  154DOPC  H15X18541   7.968   4.513  15.345
  154DOPC  H15Y18542   7.913   4.585  15.190
  154DOPC  C31618543   7.972   4.377  15.176
  154DOPC  H16X18544   7.958   4.283  15.234
  154DOPC  H16Y18545   7.920   4.364  15.079
  154DOPC  C31718546   8.122   4.397  15.152
  154DOPC  H17X18547   8.137   4.489  15.092
  154DOPC  H17Y18548   8.172   4.413  15.250
  154DOPC  C31818549   8.189   4.278  15.082
  154DOPC  H18X18550   8.142   4.261  14.983
  154DOPC  H18Y18551   8.297   4.297  15.067
  154DOPC  H18Z18552   8.177   4.186  15.143
  155DOPC     N18553   2.210   2.073  16.890
  155DOPC   C1218554   2.342   2.026  16.950
  155DOPC  H12A18555   2.408   2.111  16.961
  155DOPC  H12B18556   2.391   1.960  16.879
  155DOPC   C1318557   2.119   2.123  16.999
  155DOPC  H13A18558   2.104   2.046  17.073
  155DOPC  H13B18559   2.163   2.209  17.048
  155DOPC  H13C18560   2.023   2.153  16.960
  155DOPC   C1418561   2.142   1.963  16.816
  155DOPC  H14A18562   2.123   1.879  16.882
  155DOPC  H14B18563   2.047   1.993  16.776
  155DOPC  H14C18564   2.204   1.924  16.736
  155DOPC   C1518565   2.235   2.188  16.796
  155DOPC  H15A18566   2.305   2.161  16.719
  155DOPC  H15B18567   2.273   2.273  16.851
  155DOPC  H15C18568   2.143   2.220  16.749
  155DOPC   C1118569   2.342   1.952  17.087
  155DOPC  H11A18570   2.447   1.929  17.114
  155DOPC  H11B18571   2.305   2.022  17.165
  155DOPC     P18572   2.301   1.708  17.001
  155DOPC   O1318573   2.186   1.682  16.912
  155DOPC   O1418574   2.341   1.597  17.091
  155DOPC   O1218575   2.262   1.833  17.090
  155DOPC   O1118576   2.425   1.760  16.918
  155DOPC    C118577   2.476   1.685  16.807
  155DOPC    HA18578   2.399   1.671  16.729
  155DOPC    HB18579   2.512   1.585  16.841
  155DOPC    C218580   2.597   1.760  16.743
  155DOPC    HS18581   2.667   1.783  16.826
  155DOPC   O2118582   2.549   1.882  16.682
  155DOPC   C2118583   2.642   1.972  16.656
  155DOPC   O2218584   2.759   1.965  16.690
  155DOPC   C2218585   2.577   2.096  16.593
  155DOPC   H2R18586   2.566   2.169  16.675
  155DOPC   H2S18587   2.477   2.069  16.555
  155DOPC    C318588   2.672   1.668  16.641
  155DOPC    HX18589   2.709   1.580  16.698
  155DOPC    HY18590   2.763   1.719  16.603
  155DOPC   O3118591   2.583   1.620  16.537
  155DOPC   C3118592   2.587   1.690  16.424
  155DOPC   O3218593   2.658   1.787  16.403
  155DOPC   C3218594   2.488   1.632  16.323
  155DOPC   H2X18595   2.537   1.638  16.224
  155DOPC   H2Y18596   2.470   1.525  16.347
  155DOPC   C2318597   2.661   2.160  16.479
  155DOPC   H3R18598   2.769   2.134  16.488
  155DOPC   H3S18599   2.653   2.270  16.488
  155DOPC   C2418600   2.611   2.123  16.339
  155DOPC   H4R18601   2.504   2.151  16.330
  155DOPC   H4S18602   2.618   2.013  16.324
  155DOPC   C2518603   2.690   2.192  16.226
  155DOPC   H5R18604   2.793   2.151  16.224
  155DOPC   H5S18605   2.697   2.300  16.250
  155DOPC   C2618606   2.625   2.178  16.087
  155DOPC   H6R18607   2.668   2.255  16.021
  155DOPC   H6S18608   2.516   2.198  16.096
  155DOPC   C2718609   2.647   2.040  16.021
  155DOPC   H7R18610   2.625   1.961  16.096
  155DOPC   H7S18611   2.753   2.029  15.991
  155DOPC   C2818612   2.555   2.015  15.899
  155DOPC   H8R18613   2.450   2.027  15.933
  155DOPC   H8S18614   2.568   1.909  15.869
  155DOPC   C2918615   2.579   2.109  15.783
  155DOPC   H9R18616   2.608   2.211  15.812
  155DOPC  C21018617   2.569   2.080  15.652
  155DOPC  H10R18618   2.590   2.160  15.579
  155DOPC  C21118619   2.530   1.948  15.589
  155DOPC  H11R18620   2.433   1.959  15.535
  155DOPC  H11S18621   2.513   1.870  15.667
  155DOPC  C21218622   2.637   1.895  15.492
  155DOPC  H12R18623   2.615   1.788  15.470
  155DOPC  H12S18624   2.735   1.898  15.543
  155DOPC  C21318625   2.647   1.971  15.358
  155DOPC  H13R18626   2.741   1.943  15.306
  155DOPC  H13S18627   2.654   2.079  15.380
  155DOPC  C21418628   2.530   1.947  15.261
  155DOPC  H14R18629   2.513   2.041  15.204
  155DOPC  H14S18630   2.437   1.925  15.317
  155DOPC  C21518631   2.554   1.836  15.156
  155DOPC  H15R18632   2.644   1.861  15.096
  155DOPC  H15S18633   2.467   1.835  15.087
  155DOPC  C21618634   2.570   1.695  15.215
  155DOPC  H16R18635   2.492   1.681  15.293
  155DOPC  H16S18636   2.669   1.687  15.266
  155DOPC  C21718637   2.557   1.582  15.112
  155DOPC  H17R18638   2.456   1.589  15.066
  155DOPC  H17S18639   2.563   1.485  15.165
  155DOPC  C21818640   2.662   1.584  15.000
  155DOPC  H18R18641   2.654   1.677  14.940
  155DOPC  H18S18642   2.648   1.498  14.932
  155DOPC  H18T18643   2.764   1.579  15.044
  155DOPC   C3318644   2.354   1.709  16.318
  155DOPC   H3X18645   2.298   1.696  16.413
  155DOPC   H3Y18646   2.292   1.664  16.237
  155DOPC   C3418647   2.372   1.859  16.289
  155DOPC   H4X18648   2.447   1.872  16.208
  155DOPC   H4Y18649   2.413   1.907  16.380
  155DOPC   C3518650   2.244   1.933  16.247
  155DOPC   H5X18651   2.263   2.042  16.255
  155DOPC   H5Y18652   2.161   1.908  16.317
  155DOPC   C3618653   2.203   1.903  16.102
  155DOPC   H6X18654   2.292   1.913  16.037
  155DOPC   H6Y18655   2.167   1.798  16.094
  155DOPC   C3718656   2.095   2.000  16.049
  155DOPC   H7X18657   2.000   1.982  16.103
  155DOPC   H7Y18658   2.128   2.104  16.072
  155DOPC   C3818659   2.073   1.989  15.897
  155DOPC   H8X18660   2.170   2.013  15.847
  155DOPC   H8Y18661   2.001   2.067  15.866
  155DOPC   C3918662   2.021   1.853  15.857
  155DOPC   H9X18663   1.927   1.824  15.906
  155DOPC  C31018664   2.078   1.767  15.772
  155DOPC  H10X18665   2.027   1.671  15.753
  155DOPC  C31118666   2.207   1.785  15.695
  155DOPC  H11X18667   2.294   1.752  15.756
  155DOPC  H11Y18668   2.223   1.892  15.670
  155DOPC  C31218669   2.208   1.706  15.562
  155DOPC  H12X18670   2.292   1.741  15.499
  155DOPC  H12Y18671   2.114   1.727  15.506
  155DOPC  C31318672   2.222   1.554  15.581
  155DOPC  H13X18673   2.327   1.530  15.608
  155DOPC  H13Y18674   2.159   1.521  15.666
  155DOPC  C31418675   2.180   1.472  15.458
  155DOPC  H14X18676   2.177   1.365  15.485
  155DOPC  H14Y18677   2.077   1.502  15.429
  155DOPC  C31518678   2.275   1.489  15.338
  155DOPC  H15X18679   2.377   1.458  15.370
  155DOPC  H15Y18680   2.280   1.596  15.309
  155DOPC  C31618681   2.234   1.404  15.216
  155DOPC  H16X18682   2.315   1.411  15.140
  155DOPC  H16Y18683   2.227   1.297  15.247
  155DOPC  C31718684   2.102   1.446  15.149
  155DOPC  H17X18685   2.084   1.378  15.063
  155DOPC  H17Y18686   2.019   1.431  15.220
  155DOPC  C31818687   2.100   1.590  15.097
  155DOPC  H18X18688   2.005   1.611  15.043
  155DOPC  H18Y18689   2.108   1.662  15.182
  155DOPC  H18Z18690   2.185   1.608  15.028
  156DOPC     N18691   7.283   6.703  16.862
  156DOPC   C1218692   7.386   6.814  16.876
  156DOPC  H12A18693   7.377   6.881  16.792
  156DOPC  H12B18694   7.485   6.771  16.872
  156DOPC   C1318695   7.305   6.619  16.740
  156DOPC  H13A18696   7.233   6.539  16.738
  156DOPC  H13B18697   7.295   6.675  16.648
  156DOPC  H13C18698   7.401   6.570  16.742
  156DOPC   C1418699   7.145   6.761  16.854
  156DOPC  H14A18700   7.124   6.819  16.943
  156DOPC  H14B18701   7.136   6.830  16.771
  156DOPC  H14C18702   7.071   6.684  16.840
  156DOPC   C1518703   7.287   6.608  16.978
  156DOPC  H15A18704   7.221   6.524  16.958
  156DOPC  H15B18705   7.256   6.657  17.069
  156DOPC  H15C18706   7.385   6.566  16.991
  156DOPC   C1118707   7.377   6.907  17.001
  156DOPC  H11A18708   7.381   6.845  17.093
  156DOPC  H11B18709   7.467   6.973  17.003
  156DOPC     P18710   7.244   7.116  16.914
  156DOPC   O1318711   7.329   7.219  16.977
  156DOPC   O1418712   7.100   7.145  16.900
  156DOPC   O1218713   7.257   6.984  17.002
  156DOPC   O1118714   7.305   7.071  16.775
  156DOPC    C118715   7.226   7.071  16.655
  156DOPC    HA18716   7.227   7.172  16.607
  156DOPC    HB18717   7.119   7.046  16.675
  156DOPC    C218718   7.280   6.966  16.554
  156DOPC    HS18719   7.338   6.893  16.614
  156DOPC   O2118720   7.364   7.032  16.456
  156DOPC   C2118721   7.447   6.947  16.395
  156DOPC   O2218722   7.467   6.832  16.430
  156DOPC   C2218723   7.515   7.015  16.276
  156DOPC   H2R18724   7.624   7.007  16.292
  156DOPC   H2S18725   7.487   7.123  16.273
  156DOPC    C318726   7.166   6.886  16.483
  156DOPC    HX18727   7.106   6.834  16.562
  156DOPC    HY18728   7.215   6.807  16.423
  156DOPC   O3118729   7.077   6.971  16.406
  156DOPC   C3118730   7.031   6.916  16.294
  156DOPC   O3218731   7.060   6.806  16.253
  156DOPC   C3218732   6.934   7.012  16.225
  156DOPC   H2X18733   6.859   7.046  16.299
  156DOPC   H2Y18734   6.993   7.100  16.191
  156DOPC   C2318735   7.478   6.946  16.143
  156DOPC   H3R18736   7.483   6.835  16.155
  156DOPC   H3S18737   7.552   6.973  16.065
  156DOPC   C2418738   7.339   6.986  16.092
  156DOPC   H4R18739   7.343   7.087  16.046
  156DOPC   H4S18740   7.269   6.992  16.178
  156DOPC   C2518741   7.278   6.886  15.991
  156DOPC   H5R18742   7.176   6.920  15.965
  156DOPC   H5S18743   7.266   6.787  16.041
  156DOPC   C2618744   7.359   6.869  15.862
  156DOPC   H6R18745   7.459   6.827  15.886
  156DOPC   H6S18746   7.373   6.968  15.815
  156DOPC   C2718747   7.288   6.775  15.763
  156DOPC   H7R18748   7.188   6.817  15.738
  156DOPC   H7S18749   7.271   6.677  15.813
  156DOPC   C2818750   7.367   6.748  15.633
  156DOPC   H8R18751   7.313   6.670  15.575
  156DOPC   H8S18752   7.465   6.704  15.660
  156DOPC   C2918753   7.388   6.871  15.547
  156DOPC   H9R18754   7.485   6.920  15.559
  156DOPC  C21018755   7.298   6.924  15.461
  156DOPC  H10R18756   7.326   7.014  15.404
  156DOPC  C21118757   7.159   6.873  15.434
  156DOPC  H11R18758   7.086   6.957  15.442
  156DOPC  H11S18759   7.128   6.799  15.510
  156DOPC  C21218760   7.143   6.806  15.295
  156DOPC  H12R18761   7.040   6.765  15.290
  156DOPC  H12S18762   7.212   6.719  15.288
  156DOPC  C21318763   7.164   6.898  15.173
  156DOPC  H13R18764   7.135   6.841  15.083
  156DOPC  H13S18765   7.272   6.924  15.163
  156DOPC  C21418766   7.082   7.027  15.179
  156DOPC  H14R18767   7.135   7.102  15.241
  156DOPC  H14S18768   6.985   7.006  15.228
  156DOPC  C21518769   7.052   7.087  15.040
  156DOPC  H15R18770   6.989   7.015  14.984
  156DOPC  H15S18771   7.147   7.099  14.983
  156DOPC  C21618772   6.979   7.222  15.048
  156DOPC  H16R18773   7.053   7.302  15.072
  156DOPC  H16S18774   6.907   7.218  15.133
  156DOPC  C21718775   6.902   7.259  14.921
  156DOPC  H17R18776   6.848   7.354  14.939
  156DOPC  H17S18777   6.826   7.181  14.901
  156DOPC  C21818778   6.990   7.274  14.796
  156DOPC  H18R18779   7.041   7.179  14.772
  156DOPC  H18S18780   7.068   7.352  14.813
  156DOPC  H18T18781   6.929   7.305  14.709
  156DOPC   C3318782   6.865   6.944  16.104
  156DOPC   H3X18783   6.808   6.855  16.140
  156DOPC   H3Y18784   6.941   6.907  16.033
  156DOPC   C3418785   6.767   7.036  16.028
  156DOPC   H4X18786   6.682   7.061  16.095
  156DOPC   H4Y18787   6.725   6.979  15.943
  156DOPC   C3518788   6.829   7.166  15.975
  156DOPC   H5X18789   6.863   7.228  16.060
  156DOPC   H5Y18790   6.750   7.224  15.922
  156DOPC   C3618791   6.947   7.144  15.878
  156DOPC   H6X18792   7.026   7.085  15.929
  156DOPC   H6Y18793   6.912   7.086  15.790
  156DOPC   C3718794   7.009   7.277  15.831
  156DOPC   H7X18795   6.932   7.337  15.780
  156DOPC   H7Y18796   7.042   7.333  15.921
  156DOPC   C3818797   7.129   7.255  15.736
  156DOPC   H8X18798   7.093   7.204  15.645
  156DOPC   H8Y18799   7.200   7.185  15.785
  156DOPC   C3918800   7.199   7.386  15.706
  156DOPC   H9X18801   7.263   7.423  15.787
  156DOPC  C31018802   7.189   7.459  15.593
  156DOPC  H10X18803   7.247   7.552  15.586
  156DOPC  C31118804   7.106   7.428  15.471
  156DOPC  H11X18805   7.024   7.502  15.462
  156DOPC  H11Y18806   7.058   7.328  15.477
  156DOPC  C31218807   7.188   7.432  15.340
  156DOPC  H12X18808   7.232   7.533  15.325
  156DOPC  H12Y18809   7.118   7.413  15.256
  156DOPC  C31318810   7.301   7.327  15.334
  156DOPC  H13X18811   7.382   7.355  15.404
  156DOPC  H13Y18812   7.259   7.230  15.369
  156DOPC  C31418813   7.358   7.308  15.193
  156DOPC  H14X18814   7.275   7.283  15.124
  156DOPC  H14Y18815   7.403   7.404  15.158
  156DOPC  C31518816   7.462   7.196  15.186
  156DOPC  H15X18817   7.418   7.104  15.229
  156DOPC  H15Y18818   7.550   7.224  15.248
  156DOPC  C31618819   7.508   7.167  15.042
  156DOPC  H16X18820   7.420   7.135  14.982
  156DOPC  H16Y18821   7.547   7.260  14.997
  156DOPC  C31718822   7.616   7.058  15.033
  156DOPC  H17X18823   7.647   7.049  14.926
  156DOPC  H17Y18824   7.706   7.091  15.090
  156DOPC  C31818825   7.573   6.920  15.083
  156DOPC  H18X18826   7.549   6.923  15.191
  156DOPC  H18Y18827   7.483   6.885  15.028
  156DOPC  H18Z18828   7.654   6.845  15.067
  157DOPC     N18829   7.154   2.053  16.999
  157DOPC   C1218830   7.244   2.021  16.881
  157DOPC  H12A18831   7.303   2.109  16.856
  157DOPC  H12B18832   7.180   1.999  16.796
  157DOPC   C1318833   7.231   2.043  17.127
  157DOPC  H13A18834   7.309   2.117  17.133
  157DOPC  H13B18835   7.165   2.054  17.212
  157DOPC  H13C18836   7.274   1.944  17.134
  157DOPC   C1418837   7.046   1.949  17.005
  157DOPC  H14A18838   7.092   1.851  17.009
  157DOPC  H14B18839   6.984   1.962  17.093
  157DOPC  H14C18840   6.984   1.951  16.917
  157DOPC   C1518841   7.091   2.188  16.988
  157DOPC  H15A18842   7.025   2.193  16.903
  157DOPC  H15B18843   7.164   2.267  16.981
  157DOPC  H15C18844   7.031   2.209  17.075
  157DOPC   C1118845   7.342   1.902  16.895
  157DOPC  H11A18846   7.391   1.886  16.797
  157DOPC  H11B18847   7.422   1.927  16.968
  157DOPC     P18848   7.321   1.640  16.899
  157DOPC   O1318849   7.258   1.546  16.994
  157DOPC   O1418850   7.468   1.639  16.892
  157DOPC   O1218851   7.273   1.785  16.939
  157DOPC   O1118852   7.259   1.621  16.754
  157DOPC    C118853   7.149   1.701  16.709
  157DOPC    HA18854   7.184   1.804  16.685
  157DOPC    HB18855   7.071   1.707  16.787
  157DOPC    C218856   7.083   1.643  16.581
  157DOPC    HS18857   7.064   1.536  16.602
  157DOPC   O2118858   7.174   1.657  16.470
  157DOPC   C2118859   7.144   1.584  16.363
  157DOPC   O2218860   7.047   1.511  16.352
  157DOPC   C2218861   7.254   1.601  16.258
  157DOPC   H2R18862   7.329   1.521  16.279
  157DOPC   H2S18863   7.304   1.699  16.273
  157DOPC    C318864   6.944   1.711  16.551
  157DOPC    HX18865   6.881   1.703  16.642
  157DOPC    HY18866   6.893   1.651  16.473
  157DOPC   O3118867   6.954   1.847  16.503
  157DOPC   C3118868   6.950   1.944  16.593
  157DOPC   O3218869   6.942   1.929  16.714
  157DOPC   C3218870   6.954   2.080  16.525
  157DOPC   H2X18871   6.963   2.068  16.414
  157DOPC   H2Y18872   6.857   2.130  16.547
  157DOPC   C2318873   7.205   1.587  16.112
  157DOPC   H3R18874   7.142   1.497  16.099
  157DOPC   H3S18875   7.295   1.574  16.048
  157DOPC   C2418876   7.130   1.712  16.061
  157DOPC   H4R18877   7.186   1.802  16.093
  157DOPC   H4S18878   7.029   1.716  16.107
  157DOPC   C2518879   7.118   1.715  15.907
  157DOPC   H5R18880   7.058   1.630  15.871
  157DOPC   H5S18881   7.221   1.704  15.866
  157DOPC   C2618882   7.060   1.848  15.854
  157DOPC   H6R18883   7.108   1.872  15.757
  157DOPC   H6S18884   7.088   1.929  15.924
  157DOPC   C2718885   6.908   1.846  15.833
  157DOPC   H7R18886   6.873   1.952  15.838
  157DOPC   H7S18887   6.859   1.790  15.915
  157DOPC   C2818888   6.867   1.789  15.695
  157DOPC   H8R18889   6.895   1.682  15.692
  157DOPC   H8S18890   6.925   1.841  15.617
  157DOPC   C2918891   6.719   1.808  15.668
  157DOPC   H9R18892   6.669   1.880  15.734
  157DOPC  C21018893   6.647   1.746  15.574
  157DOPC  H10R18894   6.540   1.770  15.565
  157DOPC  C21118895   6.696   1.644  15.474
  157DOPC  H11R18896   6.649   1.546  15.497
  157DOPC  H11S18897   6.806   1.629  15.480
  157DOPC  C21218898   6.659   1.680  15.328
  157DOPC  H12R18899   6.716   1.769  15.295
  157DOPC  H12S18900   6.551   1.706  15.324
  157DOPC  C21318901   6.681   1.565  15.229
  157DOPC  H13R18902   6.633   1.590  15.132
  157DOPC  H13S18903   6.631   1.474  15.268
  157DOPC  C21418904   6.829   1.532  15.201
  157DOPC  H14R18905   6.884   1.524  15.297
  157DOPC  H14S18906   6.875   1.616  15.143
  157DOPC  C21518907   6.846   1.400  15.124
  157DOPC  H15R18908   6.795   1.408  15.026
  157DOPC  H15S18909   6.797   1.320  15.182
  157DOPC  C21618910   6.993   1.361  15.102
  157DOPC  H16R18911   7.048   1.367  15.198
  157DOPC  H16S18912   7.040   1.434  15.032
  157DOPC  C21718913   7.008   1.219  15.045
  157DOPC  H17R18914   6.953   1.213  14.949
  157DOPC  H17S18915   6.959   1.148  15.116
  157DOPC  C21818916   7.153   1.176  15.024
  157DOPC  H18R18917   7.158   1.072  14.986
  157DOPC  H18S18918   7.210   1.181  15.119
  157DOPC  H18T18919   7.203   1.242  14.950
  157DOPC   C3318920   7.070   2.168  16.579
  157DOPC   H3X18921   7.165   2.135  16.533
  157DOPC   H3Y18922   7.078   2.154  16.689
  157DOPC   C3418923   7.050   2.318  16.556
  157DOPC   H4X18924   7.136   2.372  16.600
  157DOPC   H4Y18925   6.959   2.351  16.610
  157DOPC   C3518926   7.036   2.361  16.409
  157DOPC   H5X18927   7.029   2.472  16.406
  157DOPC   H5Y18928   6.942   2.321  16.365
  157DOPC   C3618929   7.155   2.319  16.320
  157DOPC   H6X18930   7.249   2.331  16.377
  157DOPC   H6Y18931   7.145   2.211  16.295
  157DOPC   C3718932   7.168   2.402  16.191
  157DOPC   H7X18933   7.199   2.504  16.220
  157DOPC   H7Y18934   7.249   2.360  16.128
  157DOPC   C3818935   7.039   2.414  16.107
  157DOPC   H8X18936   7.060   2.488  16.026
  157DOPC   H8Y18937   6.959   2.459  16.169
  157DOPC   C3918938   6.991   2.283  16.049
  157DOPC   H9X18939   6.994   2.198  16.119
  157DOPC  C31018940   6.945   2.261  15.925
  157DOPC  H10X18941   6.913   2.159  15.898
  157DOPC  C31118942   6.930   2.362  15.813
  157DOPC  H11X18943   6.968   2.462  15.842
  157DOPC  H11Y18944   6.822   2.376  15.788
  157DOPC  C31218945   7.004   2.320  15.684
  157DOPC  H12X18946   7.111   2.300  15.706
  157DOPC  H12Y18947   7.000   2.406  15.614
  157DOPC  C31318948   6.940   2.199  15.614
  157DOPC  H13X18949   6.954   2.107  15.675
  157DOPC  H13Y18950   6.831   2.217  15.605
  157DOPC  C31418951   6.996   2.175  15.472
  157DOPC  H14X18952   6.933   2.098  15.422
  157DOPC  H14Y18953   6.987   2.269  15.413
  157DOPC  C31518954   7.142   2.127  15.470
  157DOPC  H15X18955   7.149   2.030  15.523
  157DOPC  H15Y18956   7.205   2.200  15.525
  157DOPC  C31618957   7.196   2.112  15.327
  157DOPC  H16X18958   7.131   2.042  15.270
  157DOPC  H16Y18959   7.192   2.211  15.277
  157DOPC  C31718960   7.341   2.060  15.324
  157DOPC  H17X18961   7.404   2.126  15.387
  157DOPC  H17Y18962   7.343   1.959  15.369
  157DOPC  C31818963   7.400   2.056  15.183
  157DOPC  H18X18964   7.338   1.991  15.117
  157DOPC  H18Y18965   7.402   2.157  15.139
  157DOPC  H18Z18966   7.503   2.016  15.185
  158DOPC     N18967   4.993   8.531  16.922
  158DOPC   C1218968   4.879   8.527  16.821
  158DOPC  H12A18969   4.796   8.473  16.863
  158DOPC  H12B18970   4.911   8.472  16.733
  158DOPC   C1318971   5.052   8.396  16.947
  158DOPC  H13A18972   4.978   8.328  16.988
  158DOPC  H13B18973   5.092   8.353  16.856
  158DOPC  H13C18974   5.134   8.403  17.017
  158DOPC   C1418975   4.940   8.584  17.052
  158DOPC  H14A18976   5.018   8.595  17.126
  158DOPC  H14B18977   4.894   8.680  17.036
  158DOPC  H14C18978   4.862   8.521  17.091
  158DOPC   C1518979   5.102   8.624  16.876
  158DOPC  H15A18980   5.062   8.724  16.866
  158DOPC  H15B18981   5.142   8.594  16.781
  158DOPC  H15C18982   5.182   8.627  16.948
  158DOPC   C1118983   4.820   8.662  16.774
  158DOPC  H11A18984   4.900   8.727  16.733
  158DOPC  H11B18985   4.750   8.644  16.689
  158DOPC     P18986   4.607   8.691  16.921
  158DOPC   O1318987   4.574   8.761  17.047
  158DOPC   O1418988   4.597   8.543  16.924
  158DOPC   O1218989   4.755   8.730  16.881
  158DOPC   O1118990   4.518   8.748  16.803
  158DOPC    C118991   4.555   8.864  16.728
  158DOPC    HA18992   4.664   8.881  16.724
  158DOPC    HB18993   4.509   8.954  16.775
  158DOPC    C218994   4.506   8.855  16.581
  158DOPC    HS18995   4.396   8.844  16.586
  158DOPC   O2118996   4.567   8.741  16.516
  158DOPC   C2118997   4.502   8.703  16.406
  158DOPC   O2218998   4.391   8.742  16.373
  158DOPC   C2218999   4.590   8.608  16.324
  158DOPC   H2R19000   4.695   8.619  16.358
  158DOPC   H2S19001   4.585   8.642  16.219
  158DOPC    C319002   4.539   8.986  16.502
  158DOPC    HX19003   4.486   9.069  16.553
  158DOPC    HY19004   4.499   8.981  16.399
  158DOPC   O3119005   4.681   9.014  16.506
  158DOPC   C3119006   4.753   8.964  16.406
  158DOPC   O3219007   4.707   8.910  16.306
  158DOPC   C3219008   4.902   8.982  16.433
  158DOPC   H2X19009   4.939   9.060  16.363
  158DOPC   H2Y19010   4.916   9.019  16.537
  158DOPC   C2319011   4.546   8.461  16.335
  158DOPC   H3R19012   4.442   8.448  16.298
  158DOPC   H3S19013   4.547   8.432  16.442
  158DOPC   C2419014   4.639   8.364  16.259
  158DOPC   H4R19015   4.647   8.271  16.319
  158DOPC   H4S19016   4.741   8.408  16.251
  158DOPC   C2519017   4.589   8.322  16.120
  158DOPC   H5R19018   4.486   8.281  16.129
  158DOPC   H5S19019   4.654   8.239  16.083
  158DOPC   C2619020   4.589   8.433  16.014
  158DOPC   H6R19021   4.691   8.476  16.006
  158DOPC   H6S19022   4.520   8.514  16.046
  158DOPC   C2719023   4.543   8.381  15.876
  158DOPC   H7R19024   4.443   8.336  15.889
  158DOPC   H7S19025   4.611   8.300  15.842
  158DOPC   C2819026   4.532   8.490  15.768
  158DOPC   H8R19027   4.472   8.575  15.809
  158DOPC   H8S19028   4.473   8.448  15.684
  158DOPC   C2919029   4.665   8.540  15.717
  158DOPC   H9R19030   4.752   8.515  15.781
  158DOPC  C21019031   4.684   8.610  15.604
  158DOPC  H10R19032   4.786   8.643  15.578
  158DOPC  C21119033   4.577   8.653  15.506
  158DOPC  H11R19034   4.485   8.593  15.519
  158DOPC  H11S19035   4.612   8.636  15.402
  158DOPC  C21219036   4.540   8.801  15.524
  158DOPC  H12R19037   4.626   8.866  15.498
  158DOPC  H12S19038   4.516   8.819  15.631
  158DOPC  C21319039   4.416   8.843  15.442
  158DOPC  H13R19040   4.387   8.946  15.473
  158DOPC  H13S19041   4.332   8.775  15.469
  158DOPC  C21419042   4.435   8.842  15.290
  158DOPC  H14R19043   4.338   8.871  15.244
  158DOPC  H14S19044   4.459   8.740  15.254
  158DOPC  C21519045   4.543   8.940  15.240
  158DOPC  H15R19046   4.643   8.901  15.266
  158DOPC  H15S19047   4.530   9.037  15.293
  158DOPC  C21619048   4.534   8.967  15.089
  158DOPC  H16R19049   4.433   9.006  15.065
  158DOPC  H16S19050   4.546   8.871  15.034
  158DOPC  C21719051   4.639   9.067  15.041
  158DOPC  H17R19052   4.740   9.026  15.060
  158DOPC  H17S19053   4.630   9.160  15.101
  158DOPC  C21819054   4.626   9.103  14.893
  158DOPC  H18R19055   4.703   9.176  14.863
  158DOPC  H18S19056   4.526   9.147  14.872
  158DOPC  H18T19057   4.637   9.012  14.830
  158DOPC   C3319058   4.980   8.850  16.413
  158DOPC   H3X19059   4.963   8.813  16.309
  158DOPC   H3Y19060   4.941   8.773  16.483
  158DOPC   C3419061   5.131   8.867  16.435
  158DOPC   H4X19062   5.147   8.916  16.534
  158DOPC   H4Y19063   5.172   8.935  16.358
  158DOPC   C3519064   5.209   8.734  16.434
  158DOPC   H5X19065   5.172   8.671  16.518
  158DOPC   H5Y19066   5.316   8.756  16.452
  158DOPC   C3619067   5.196   8.653  16.304
  158DOPC   H6X19068   5.248   8.555  16.318
  158DOPC   H6Y19069   5.089   8.631  16.284
  158DOPC   C3719070   5.260   8.721  16.181
  158DOPC   H7X19071   5.214   8.822  16.166
  158DOPC   H7Y19072   5.367   8.737  16.203
  158DOPC   C3819073   5.248   8.639  16.052
  158DOPC   H8X19074   5.282   8.535  16.072
  158DOPC   H8Y19075   5.317   8.682  15.977
  158DOPC   C3919076   5.107   8.637  15.997
  158DOPC   H9X19077   5.028   8.666  16.069
  158DOPC  C31019078   5.072   8.607  15.871
  158DOPC  H10X19079   4.965   8.612  15.843
  158DOPC  C31119080   5.165   8.567  15.759
  158DOPC  H11X19081   5.123   8.480  15.704
  158DOPC  H11Y19082   5.263   8.534  15.798
  158DOPC  C31219083   5.190   8.680  15.657
  158DOPC  H12X19084   5.259   8.642  15.580
  158DOPC  H12Y19085   5.241   8.765  15.708
  158DOPC  C31319086   5.062   8.732  15.589
  158DOPC  H13X19087   5.005   8.646  15.547
  158DOPC  H13Y19088   4.999   8.781  15.666
  158DOPC  C31419089   5.090   8.836  15.478
  158DOPC  H14X19090   4.996   8.892  15.457
  158DOPC  H14Y19091   5.164   8.909  15.516
  158DOPC  C31519092   5.142   8.776  15.346
  158DOPC  H15X19093   5.235   8.718  15.366
  158DOPC  H15Y19094   5.169   8.859  15.278
  158DOPC  C31619095   5.042   8.685  15.271
  158DOPC  H16X19096   5.092   8.646  15.180
  158DOPC  H16Y19097   5.017   8.597  15.335
  158DOPC  C31719098   4.913   8.755  15.229
  158DOPC  H17X19099   4.858   8.789  15.319
  158DOPC  H17Y19100   4.939   8.846  15.170
  158DOPC  C31819101   4.820   8.667  15.145
  158DOPC  H18X19102   4.871   8.632  15.053
  158DOPC  H18Y19103   4.789   8.577  15.203
  158DOPC  H18Z19104   4.729   8.723  15.115
  159DOPC     N19105   8.003   2.389  17.115
  159DOPC   C1219106   8.130   2.357  17.036
  159DOPC  H12A19107   8.106   2.285  16.959
  159DOPC  H12B19108   8.202   2.309  17.101
  159DOPC   C1319109   7.938   2.262  17.159
  159DOPC  H13A19110   7.847   2.281  17.213
  159DOPC  H13B19111   7.914   2.199  17.074
  159DOPC  H13C19112   8.003   2.205  17.225
  159DOPC   C1419113   7.907   2.465  17.028
  159DOPC  H14A19114   7.881   2.408  16.940
  159DOPC  H14B19115   7.817   2.495  17.080
  159DOPC  H14C19116   7.957   2.552  16.987
  159DOPC   C1519117   8.036   2.471  17.236
  159DOPC  H15A19118   8.100   2.416  17.303
  159DOPC  H15B19119   7.947   2.498  17.291
  159DOPC  H15C19120   8.087   2.562  17.206
  159DOPC   C1119121   8.201   2.473  16.960
  159DOPC  H11A19122   8.220   2.557  17.030
  159DOPC  H11B19123   8.299   2.437  16.924
  159DOPC     P19124   8.081   2.419  16.734
  159DOPC   O1319125   7.933   2.420  16.731
  159DOPC   O1419126   8.146   2.289  16.761
  159DOPC   O1219127   8.124   2.520  16.850
  159DOPC   O1119128   8.141   2.485  16.603
  159DOPC    C119129   8.221   2.603  16.612
  159DOPC    HA19130   8.298   2.593  16.692
  159DOPC    HB19131   8.157   2.691  16.637
  159DOPC    C219132   8.299   2.637  16.481
  159DOPC    HS19133   8.358   2.728  16.505
  159DOPC   O2119134   8.203   2.667  16.376
  159DOPC   C2119135   8.258   2.734  16.275
  159DOPC   O2219136   8.369   2.784  16.277
  159DOPC   C2219137   8.159   2.742  16.159
  159DOPC   H2R19138   8.068   2.796  16.193
  159DOPC   H2S19139   8.131   2.638  16.132
  159DOPC    C319140   8.399   2.525  16.439
  159DOPC    HX19141   8.476   2.519  16.519
  159DOPC    HY19142   8.453   2.555  16.346
  159DOPC   O3119143   8.339   2.395  16.425
  159DOPC   C3119144   8.280   2.368  16.309
  159DOPC   O3219145   8.287   2.437  16.209
  159DOPC   C3219146   8.207   2.234  16.321
  159DOPC   H2X19147   8.269   2.166  16.383
  159DOPC   H2Y19148   8.112   2.255  16.375
  159DOPC   C2319149   8.222   2.813  16.037
  159DOPC   H3R19150   8.313   2.758  16.004
  159DOPC   H3S19151   8.254   2.916  16.066
  159DOPC   C2419152   8.128   2.825  15.916
  159DOPC   H4R19153   8.182   2.881  15.836
  159DOPC   H4S19154   8.038   2.886  15.943
  159DOPC   C2519155   8.082   2.690  15.859
  159DOPC   H5R19156   8.006   2.647  15.928
  159DOPC   H5S19157   8.168   2.619  15.857
  159DOPC   C2619158   8.022   2.700  15.718
  159DOPC   H6R19159   7.951   2.786  15.716
  159DOPC   H6S19160   7.963   2.608  15.696
  159DOPC   C2719161   8.126   2.718  15.606
  159DOPC   H7R19162   8.197   2.799  15.633
  159DOPC   H7S19163   8.073   2.751  15.514
  159DOPC   C2819164   8.203   2.588  15.574
  159DOPC   H8R19165   8.129   2.512  15.542
  159DOPC   H8S19166   8.249   2.551  15.668
  159DOPC   C2919167   8.307   2.607  15.467
  159DOPC   H9R19168   8.286   2.688  15.396
  159DOPC  C21019169   8.419   2.534  15.451
  159DOPC  H10R19170   8.486   2.559  15.367
  159DOPC  C21119171   8.466   2.419  15.536
  159DOPC  H11R19172   8.409   2.413  15.631
  159DOPC  H11S19173   8.572   2.433  15.564
  159DOPC  C21219174   8.452   2.283  15.464
  159DOPC  H12R19175   8.346   2.267  15.434
  159DOPC  H12S19176   8.477   2.203  15.537
  159DOPC  C21319177   8.543   2.268  15.341
  159DOPC  H13R19178   8.648   2.287  15.371
  159DOPC  H13S19179   8.514   2.345  15.266
  159DOPC  C21419180   8.533   2.128  15.277
  159DOPC  H14R19181   8.429   2.109  15.245
  159DOPC  H14S19182   8.558   2.053  15.355
  159DOPC  C21519183   8.630   2.109  15.159
  159DOPC  H15R19184   8.631   2.001  15.130
  159DOPC  H15S19185   8.732   2.135  15.193
  159DOPC  C21619186   8.596   2.193  15.034
  159DOPC  H16R19187   8.682   2.189  14.964
  159DOPC  H16S19188   8.583   2.299  15.064
  159DOPC  C21719189   8.471   2.148  14.957
  159DOPC  H17R19190   8.446   2.228  14.884
  159DOPC  H17S19191   8.385   2.140  15.027
  159DOPC  C21819192   8.489   2.016  14.881
  159DOPC  H18R19193   8.507   1.932  14.951
  159DOPC  H18S19194   8.575   2.023  14.811
  159DOPC  H18T19195   8.398   1.993  14.822
  159DOPC   C3319196   8.177   2.168  16.184
  159DOPC   H3X19197   8.117   2.236  16.120
  159DOPC   H3Y19198   8.115   2.078  16.203
  159DOPC   C3419199   8.303   2.124  16.109
  159DOPC   H4X19200   8.373   2.077  16.182
  159DOPC   H4Y19201   8.354   2.213  16.067
  159DOPC   C3519202   8.278   2.022  15.996
  159DOPC   H5X19203   8.236   1.929  16.041
  159DOPC   H5Y19204   8.376   1.996  15.950
  159DOPC   C3619205   8.183   2.069  15.885
  159DOPC   H6X19206   8.177   1.988  15.809
  159DOPC   H6Y19207   8.081   2.083  15.925
  159DOPC   C3719208   8.229   2.198  15.814
  159DOPC   H7X19209   8.208   2.285  15.879
  159DOPC   H7Y19210   8.339   2.193  15.800
  159DOPC   C3819211   8.164   2.218  15.675
  159DOPC   H8X19212   8.200   2.136  15.609
  159DOPC   H8Y19213   8.204   2.312  15.633
  159DOPC   C3919214   8.013   2.225  15.678
  159DOPC   H9X19215   7.972   2.295  15.753
  159DOPC  C31019216   7.928   2.156  15.599
  159DOPC  H10X19217   7.820   2.173  15.610
  159DOPC  C31119218   7.966   2.057  15.492
  159DOPC  H11X19219   7.888   1.980  15.481
  159DOPC  H11Y19220   8.059   2.003  15.519
  159DOPC  C31219221   7.989   2.125  15.354
  159DOPC  H12X19222   8.033   2.049  15.285
  159DOPC  H12Y19223   8.063   2.206  15.366
  159DOPC  C31319224   7.860   2.179  15.290
  159DOPC  H13X19225   7.788   2.095  15.280
  159DOPC  H13Y19226   7.814   2.254  15.357
  159DOPC  C31419227   7.882   2.241  15.151
  159DOPC  H14X19228   7.927   2.164  15.084
  159DOPC  H14Y19229   7.784   2.269  15.108
  159DOPC  C31519230   7.973   2.366  15.149
  159DOPC  H15X19231   7.989   2.396  15.043
  159DOPC  H15Y19232   8.072   2.341  15.192
  159DOPC  C31619233   7.915   2.486  15.225
  159DOPC  H16X19234   7.818   2.516  15.179
  159DOPC  H16Y19235   7.894   2.456  15.330
  159DOPC  C31719236   8.009   2.608  15.230
  159DOPC  H17X19237   7.962   2.686  15.293
  159DOPC  H17Y19238   8.103   2.576  15.280
  159DOPC  C31819239   8.044   2.668  15.094
  159DOPC  H18X19240   7.952   2.700  15.040
  159DOPC  H18Y19241   8.109   2.758  15.106
  159DOPC  H18Z19242   8.098   2.595  15.030
  160DOPC     N19243   2.214   8.278  16.929
  160DOPC   C1219244   2.132   8.167  16.993
  160DOPC  H12A19245   2.083   8.112  16.914
  160DOPC  H12B19246   2.056   8.211  17.056
  160DOPC   C1319247   2.317   8.217  16.839
  160DOPC  H13A19248   2.378   8.147  16.896
  160DOPC  H13B19249   2.270   8.158  16.763
  160DOPC  H13C19250   2.379   8.293  16.793
  160DOPC   C1419251   2.283   8.361  17.032
  160DOPC  H14A19252   2.348   8.300  17.094
  160DOPC  H14B19253   2.343   8.438  16.986
  160DOPC  H14C19254   2.214   8.409  17.099
  160DOPC   C1519255   2.127   8.367  16.846
  160DOPC  H15A19256   2.190   8.440  16.797
  160DOPC  H15B19257   2.054   8.419  16.905
  160DOPC  H15C19258   2.077   8.310  16.768
  160DOPC   C1119259   2.209   8.060  17.076
  160DOPC  H11A19260   2.275   8.111  17.149
  160DOPC  H11B19261   2.136   8.001  17.136
  160DOPC     P19262   2.217   7.870  16.898
  160DOPC   O1319263   2.099   7.816  16.969
  160DOPC   O1419264   2.319   7.775  16.849
  160DOPC   O1219265   2.288   7.975  16.993
  160DOPC   O1119266   2.166   7.964  16.781
  160DOPC    C119267   2.183   7.922  16.645
  160DOPC    HA19268   2.121   7.831  16.626
  160DOPC    HB19269   2.289   7.894  16.624
  160DOPC    C219270   2.139   8.032  16.545
  160DOPC    HS19271   2.137   7.988  16.443
  160DOPC   O2119272   2.227   8.146  16.550
  160DOPC   C2119273   2.340   8.129  16.482
  160DOPC   O2219274   2.378   8.024  16.432
  160DOPC   C2219275   2.414   8.262  16.474
  160DOPC   H2R19276   2.478   8.269  16.564
  160DOPC   H2S19277   2.340   8.345  16.476
  160DOPC    C319278   1.993   8.080  16.576
  160DOPC    HX19279   1.988   8.097  16.685
  160DOPC    HY19280   1.922   7.997  16.553
  160DOPC   O3119281   1.957   8.203  16.509
  160DOPC   C3119282   1.931   8.190  16.379
  160DOPC   O3219283   1.932   8.086  16.317
  160DOPC   C3219284   1.897   8.328  16.322
  160DOPC   H2X19285   1.794   8.353  16.355
  160DOPC   H2Y19286   1.967   8.402  16.365
  160DOPC   C2319287   2.503   8.275  16.347
  160DOPC   H3R19288   2.560   8.181  16.329
  160DOPC   H3S19289   2.579   8.354  16.366
  160DOPC   C2419290   2.427   8.313  16.219
  160DOPC   H4R19291   2.501   8.332  16.139
  160DOPC   H4S19292   2.371   8.408  16.235
  160DOPC   C2519293   2.330   8.205  16.169
  160DOPC   H5R19294   2.244   8.195  16.238
  160DOPC   H5S19295   2.383   8.107  16.168
  160DOPC   C2619296   2.277   8.231  16.028
  160DOPC   H6R19297   2.362   8.239  15.957
  160DOPC   H6S19298   2.223   8.329  16.026
  160DOPC   C2719299   2.181   8.120  15.981
  160DOPC   H7R19300   2.100   8.110  16.055
  160DOPC   H7S19301   2.235   8.023  15.978
  160DOPC   C2819302   2.117   8.148  15.843
  160DOPC   H8R19303   2.070   8.248  15.846
  160DOPC   H8S19304   2.035   8.075  15.829
  160DOPC   C2919305   2.217   8.142  15.730
  160DOPC   H9R19306   2.292   8.223  15.731
  160DOPC  C21019307   2.224   8.051  15.631
  160DOPC  H10R19308   2.303   8.062  15.555
  160DOPC  C21119309   2.133   7.933  15.607
  160DOPC  H11R19310   2.052   7.925  15.683
  160DOPC  H11S19311   2.193   7.839  15.615
  160DOPC  C21219312   2.069   7.937  15.467
  160DOPC  H12R19313   2.017   7.841  15.447
  160DOPC  H12S19314   2.148   7.948  15.391
  160DOPC  C21319315   1.966   8.051  15.451
  160DOPC  H13R19316   2.012   8.146  15.484
  160DOPC  H13S19317   1.878   8.032  15.516
  160DOPC  C21419318   1.921   8.068  15.305
  160DOPC  H14R19319   1.869   7.976  15.271
  160DOPC  H14S19320   2.010   8.083  15.241
  160DOPC  C21519321   1.828   8.189  15.288
  160DOPC  H15R19322   1.878   8.278  15.332
  160DOPC  H15S19323   1.734   8.172  15.344
  160DOPC  C21619324   1.796   8.219  15.141
  160DOPC  H16R19325   1.755   8.127  15.093
  160DOPC  H16S19326   1.890   8.245  15.088
  160DOPC  C21719327   1.694   8.333  15.122
  160DOPC  H17R19328   1.597   8.302  15.167
  160DOPC  H17S19329   1.677   8.346  15.013
  160DOPC  C21819330   1.737   8.467  15.181
  160DOPC  H18R19331   1.663   8.546  15.156
  160DOPC  H18S19332   1.835   8.498  15.141
  160DOPC  H18T19333   1.745   8.461  15.292
  160DOPC   C3319334   1.904   8.333  16.167
  160DOPC   H3X19335   1.836   8.257  16.123
  160DOPC   H3Y19336   2.007   8.309  16.134
  160DOPC   C3419337   1.866   8.472  16.112
  160DOPC   H4X19338   1.929   8.549  16.163
  160DOPC   H4Y19339   1.760   8.494  16.137
  160DOPC   C3519340   1.887   8.486  15.960
  160DOPC   H5X19341   1.994   8.468  15.936
  160DOPC   H5Y19342   1.863   8.591  15.932
  160DOPC   C3619343   1.799   8.392  15.877
  160DOPC   H6X19344   1.837   8.288  15.883
  160DOPC   H6Y19345   1.697   8.393  15.922
  160DOPC   C3719346   1.783   8.432  15.728
  160DOPC   H7X19347   1.699   8.371  15.689
  160DOPC   H7Y19348   1.751   8.538  15.720
  160DOPC   C3819349   1.904   8.404  15.637
  160DOPC   H8X19350   1.865   8.394  15.534
  160DOPC   H8Y19351   1.946   8.305  15.664
  160DOPC   C3919352   2.011   8.511  15.642
  160DOPC   H9X19353   2.039   8.543  15.744
  160DOPC  C31019354   2.075   8.568  15.539
  160DOPC  H10X19355   2.151   8.645  15.560
  160DOPC  C31119356   2.056   8.541  15.391
  160DOPC  H11X19357   2.027   8.635  15.339
  160DOPC  H11Y19358   1.974   8.468  15.372
  160DOPC  C31219359   2.184   8.487  15.325
  160DOPC  H12X19360   2.269   8.556  15.343
  160DOPC  H12Y19361   2.168   8.482  15.215
  160DOPC  C31319362   2.222   8.346  15.374
  160DOPC  H13X19363   2.233   8.348  15.485
  160DOPC  H13Y19364   2.137   8.277  15.351
  160DOPC  C31419365   2.350   8.288  15.313
  160DOPC  H14X19366   2.436   8.355  15.336
  160DOPC  H14Y19367   2.370   8.191  15.362
  160DOPC  C31519368   2.342   8.267  15.161
  160DOPC  H15X19369   2.339   8.366  15.111
  160DOPC  H15Y19370   2.246   8.216  15.137
  160DOPC  C31619371   2.458   8.186  15.102
  160DOPC  H16X19372   2.445   8.180  14.992
  160DOPC  H16Y19373   2.553   8.240  15.121
  160DOPC  C31719374   2.472   8.042  15.157
  160DOPC  H17X19375   2.554   7.991  15.102
  160DOPC  H17Y19376   2.502   8.046  15.264
  160DOPC  C31819377   2.345   7.957  15.144
  160DOPC  H18X19378   2.364   7.853  15.176
  160DOPC  H18Y19379   2.263   7.999  15.206
  160DOPC  H18Z19380   2.311   7.956  15.038
  161DOPC     N19381   4.648   0.429  17.087
  161DOPC   C1219382   4.595   0.468  16.949
  161DOPC  H12A19383   4.657   0.548  16.912
  161DOPC  H12B19384   4.496   0.510  16.959
  161DOPC   C1319385   4.787   0.376  17.074
  161DOPC  H13A19386   4.853   0.450  17.031
  161DOPC  H13B19387   4.829   0.341  17.167
  161DOPC  H13C19388   4.789   0.296  17.001
  161DOPC   C1419389   4.561   0.324  17.150
  161DOPC  H14A19390   4.560   0.236  17.088
  161DOPC  H14B19391   4.599   0.296  17.247
  161DOPC  H14C19392   4.459   0.359  17.162
  161DOPC   C1519393   4.653   0.552  17.172
  161DOPC  H15A19394   4.554   0.592  17.193
  161DOPC  H15B19395   4.707   0.630  17.120
  161DOPC  H15C19396   4.702   0.535  17.266
  161DOPC   C1119397   4.594   0.361  16.837
  161DOPC  H11A19398   4.536   0.272  16.870
  161DOPC  H11B19399   4.543   0.403  16.748
  161DOPC     P19400   4.830   0.420  16.735
  161DOPC   O1319401   4.958   0.403  16.807
  161DOPC   O1419402   4.770   0.556  16.740
  161DOPC   O1219403   4.726   0.319  16.802
  161DOPC   O1119404   4.840   0.368  16.586
  161DOPC    C119405   4.737   0.283  16.533
  161DOPC    HA19406   4.641   0.337  16.525
  161DOPC    HB19407   4.723   0.195  16.600
  161DOPC    C219408   4.773   0.226  16.393
  161DOPC    HS19409   4.876   0.185  16.399
  161DOPC   O2119410   4.759   0.330  16.295
  161DOPC   C2119411   4.840   0.319  16.190
  161DOPC   O2219412   4.932   0.240  16.177
  161DOPC   C2219413   4.794   0.415  16.081
  161DOPC   H2R19414   4.696   0.378  16.044
  161DOPC   H2S19415   4.868   0.409  15.998
  161DOPC    C319416   4.674   0.111  16.358
  161DOPC    HX19417   4.573   0.158  16.354
  161DOPC    HY19418   4.675   0.038  16.442
  161DOPC   O3119419   4.708   0.044  16.235
  161DOPC   C3119420   4.606   9.198  16.176
  161DOPC   O3219421   4.493   9.193  16.220
  161DOPC   C3219422   4.654   9.132  16.048
  161DOPC   H2X19423   4.733   9.059  16.076
  161DOPC   H2Y19424   4.568   9.075  16.005
  161DOPC   C2319425   4.781   0.562  16.129
  161DOPC   H3R19426   4.881   0.599  16.160
  161DOPC   H3S19427   4.715   0.567  16.218
  161DOPC   C2419428   4.723   0.655  16.021
  161DOPC   H4R19429   4.787   0.653  15.931
  161DOPC   H4S19430   4.725   0.758  16.062
  161DOPC   C2519431   4.578   0.622  15.984
  161DOPC   H5R19432   4.521   0.609  16.078
  161DOPC   H5S19433   4.574   0.525  15.929
  161DOPC   C2619434   4.508   0.731  15.901
  161DOPC   H6R19435   4.511   0.826  15.958
  161DOPC   H6S19436   4.400   0.705  15.891
  161DOPC   C2719437   4.566   0.756  15.761
  161DOPC   H7R19438   4.672   0.788  15.771
  161DOPC   H7S19439   4.511   0.840  15.713
  161DOPC   C2819440   4.562   0.634  15.665
  161DOPC   H8R19441   4.624   0.553  15.709
  161DOPC   H8S19442   4.612   0.663  15.570
  161DOPC   C2919443   4.422   0.583  15.641
  161DOPC   H9R19444   4.369   0.551  15.732
  161DOPC  C21019445   4.358   0.571  15.523
  161DOPC  H10R19446   4.256   0.531  15.523
  161DOPC  C21119447   4.411   0.606  15.386
  161DOPC  H11R19448   4.459   0.516  15.341
  161DOPC  H11S19449   4.488   0.686  15.390
  161DOPC  C21219450   4.297   0.652  15.294
  161DOPC  H12R19451   4.249   0.743  15.337
  161DOPC  H12S19452   4.219   0.573  15.289
  161DOPC  C21319453   4.340   0.684  15.149
  161DOPC  H13R19454   4.415   0.766  15.150
  161DOPC  H13S19455   4.250   0.720  15.095
  161DOPC  C21419456   4.398   0.563  15.074
  161DOPC  H14R19457   4.332   0.475  15.089
  161DOPC  H14S19458   4.497   0.538  15.119
  161DOPC  C21519459   4.418   0.587  14.923
  161DOPC  H15R19460   4.479   0.505  14.881
  161DOPC  H15S19461   4.476   0.681  14.910
  161DOPC  C21619462   4.288   0.598  14.841
  161DOPC  H16R19463   4.315   0.621  14.736
  161DOPC  H16S19464   4.227   0.683  14.879
  161DOPC  C21719465   4.200   0.471  14.841
  161DOPC  H17R19466   4.109   0.492  14.780
  161DOPC  H17S19467   4.165   0.451  14.945
  161DOPC  C21819468   4.268   0.346  14.786
  161DOPC  H18R19469   4.197   0.260  14.783
  161DOPC  H18S19470   4.354   0.316  14.849
  161DOPC  H18T19471   4.305   0.364  14.683
  161DOPC   C3319472   4.710   0.014  15.943
  161DOPC   H3X19473   4.755   9.171  15.861
  161DOPC   H3Y19474   4.792   0.076  15.987
  161DOPC   C3419475   4.602   0.105  15.881
  161DOPC   H4X19476   4.576   0.187  15.951
  161DOPC   H4Y19477   4.510   0.044  15.865
  161DOPC   C3519478   4.643   0.164  15.745
  161DOPC   H5X19479   4.557   0.217  15.700
  161DOPC   H5Y19480   4.668   0.079  15.676
  161DOPC   C3619481   4.763   0.259  15.749
  161DOPC   H6X19482   4.734   0.353  15.802
  161DOPC   H6Y19483   4.846   0.213  15.807
  161DOPC   C3719484   4.816   0.293  15.609
  161DOPC   H7X19485   4.843   0.197  15.559
  161DOPC   H7Y19486   4.735   0.339  15.549
  161DOPC   C3819487   4.941   0.384  15.608
  161DOPC   H8X19488   4.987   0.375  15.508
  161DOPC   H8Y19489   5.015   0.342  15.680
  161DOPC   C3919490   4.909   0.527  15.643
  161DOPC   H9X19491   4.881   0.544  15.748
  161DOPC  C31019492   4.909   0.632  15.559
  161DOPC  H10X19493   4.881   0.731  15.598
  161DOPC  C31119494   4.941   0.630  15.411
  161DOPC  H11X19495   5.009   0.545  15.386
  161DOPC  H11Y19496   4.996   0.722  15.383
  161DOPC  C31219497   4.815   0.618  15.324
  161DOPC  H12X19498   4.754   0.711  15.332
  161DOPC  H12Y19499   4.753   0.534  15.361
  161DOPC  C31319500   4.845   0.590  15.175
  161DOPC  H13X19501   4.904   0.496  15.168
  161DOPC  H13Y19502   4.749   0.573  15.122
  161DOPC  C31419503   4.922   0.703  15.105
  161DOPC  H14X19504   4.863   0.796  15.111
  161DOPC  H14Y19505   5.018   0.719  15.158
  161DOPC  C31519506   4.954   0.671  14.958
  161DOPC  H15X19507   4.999   0.570  14.953
  161DOPC  H15Y19508   5.032   0.742  14.921
  161DOPC  C31619509   4.832   0.681  14.865
  161DOPC  H16X19510   4.739   0.679  14.925
  161DOPC  H16Y19511   4.835   0.779  14.812
  161DOPC  C31719512   4.823   0.568  14.761
  161DOPC  H17X19513   4.743   0.593  14.689
  161DOPC  H17Y19514   4.919   0.564  14.704
  161DOPC  C31819515   4.793   0.430  14.821
  161DOPC  H18X19516   4.876   0.397  14.887
  161DOPC  H18Y19517   4.700   0.434  14.882
  161DOPC  H18Z19518   4.779   0.354  14.741
  162DOPC     N19519   1.722   7.736  16.988
  162DOPC   C1219520   1.783   7.632  16.895
  162DOPC  H12A19521   1.884   7.611  16.926
  162DOPC  H12B19522   1.796   7.677  16.797
  162DOPC   C1319523   1.582   7.771  16.947
  162DOPC  H13A19524   1.579   7.811  16.847
  162DOPC  H13B19525   1.521   7.682  16.950
  162DOPC  H13C19526   1.540   7.843  17.016
  162DOPC   C1419527   1.807   7.858  16.989
  162DOPC  H14A19528   1.810   7.907  16.893
  162DOPC  H14B19529   1.774   7.928  17.064
  162DOPC  H14C19530   1.910   7.832  17.012
  162DOPC   C1519531   1.718   7.680  17.127
  162DOPC  H15A19532   1.669   7.745  17.198
  162DOPC  H15B19533   1.818   7.660  17.163
  162DOPC  H15C19534   1.669   7.584  17.128
  162DOPC   C1119535   1.710   7.496  16.879
  162DOPC  H11A19536   1.602   7.512  16.860
  162DOPC  H11B19537   1.748   7.443  16.789
  162DOPC     P19538   1.868   7.362  17.038
  162DOPC   O1319539   1.861   7.218  17.071
  162DOPC   O1419540   1.914   7.452  17.146
  162DOPC   O1219541   1.725   7.413  16.994
  162DOPC   O1119542   1.959   7.389  16.911
  162DOPC    C119543   1.998   7.283  16.823
  162DOPC    HA19544   1.910   7.227  16.786
  162DOPC    HB19545   2.063   7.211  16.877
  162DOPC    C219546   2.078   7.336  16.700
  162DOPC    HS19547   2.157   7.405  16.737
  162DOPC   O2119548   1.990   7.403  16.608
  162DOPC   C2119549   1.961   7.529  16.631
  162DOPC   O2219550   2.014   7.603  16.712
  162DOPC   C2219551   1.841   7.570  16.545
  162DOPC   H2R19552   1.772   7.629  16.610
  162DOPC   H2S19553   1.788   7.478  16.513
  162DOPC    C319554   2.151   7.220  16.624
  162DOPC    HX19555   2.224   7.175  16.695
  162DOPC    HY19556   2.208   7.265  16.540
  162DOPC   O3119557   2.061   7.119  16.575
  162DOPC   C3119558   2.120   7.009  16.526
  162DOPC   O3219559   2.241   6.991  16.524
  162DOPC   C3219560   2.015   6.909  16.476
  162DOPC   H2X19561   2.028   6.815  16.533
  162DOPC   H2Y19562   1.914   6.949  16.502
  162DOPC   C2319563   1.879   7.655  16.422
  162DOPC   H3R19564   1.954   7.602  16.360
  162DOPC   H3S19565   1.924   7.752  16.453
  162DOPC   C2419566   1.755   7.682  16.334
  162DOPC   H4R19567   1.682   7.742  16.392
  162DOPC   H4S19568   1.707   7.585  16.310
  162DOPC   C2519569   1.787   7.754  16.203
  162DOPC   H5R19570   1.852   7.690  16.139
  162DOPC   H5S19571   1.845   7.846  16.226
  162DOPC   C2619572   1.661   7.795  16.124
  162DOPC   H6R19573   1.693   7.852  16.034
  162DOPC   H6S19574   1.602   7.864  16.187
  162DOPC   C2719575   1.570   7.678  16.080
  162DOPC   H7R19576   1.476   7.721  16.039
  162DOPC   H7S19577   1.542   7.619  16.170
  162DOPC   C2819578   1.632   7.583  15.975
  162DOPC   H8R19579   1.562   7.498  15.962
  162DOPC   H8S19580   1.726   7.542  16.016
  162DOPC   C2919581   1.652   7.652  15.842
  162DOPC   H9R19582   1.571   7.719  15.813
  162DOPC  C21019583   1.757   7.638  15.759
  162DOPC  H10R19584   1.758   7.696  15.665
  162DOPC  C21119585   1.878   7.550  15.779
  162DOPC  H11R19586   1.859   7.472  15.857
  162DOPC  H11S19587   1.964   7.611  15.815
  162DOPC  C21219588   1.922   7.476  15.650
  162DOPC  H12R19589   1.838   7.416  15.611
  162DOPC  H12S19590   2.004   7.406  15.677
  162DOPC  C21319591   1.974   7.571  15.541
  162DOPC  H13R19592   2.046   7.641  15.588
  162DOPC  H13S19593   1.890   7.631  15.500
  162DOPC  C21419594   2.046   7.500  15.425
  162DOPC  H14R19595   2.131   7.440  15.465
  162DOPC  H14S19596   2.089   7.577  15.358
  162DOPC  C21519597   1.955   7.409  15.341
  162DOPC  H15R19598   1.867   7.468  15.307
  162DOPC  H15S19599   1.918   7.325  15.404
  162DOPC  C21619600   2.028   7.352  15.218
  162DOPC  H16R19601   2.115   7.291  15.252
  162DOPC  H16S19602   2.067   7.436  15.157
  162DOPC  C21719603   1.937   7.265  15.129
  162DOPC  H17R19604   1.851   7.326  15.095
  162DOPC  H17S19605   1.897   7.182  15.190
  162DOPC  C21819606   2.010   7.208  15.007
  162DOPC  H18R19607   2.051   7.290  14.944
  162DOPC  H18S19608   1.941   7.148  14.945
  162DOPC  H18T19609   2.095   7.143  15.039
  162DOPC   C3319610   2.018   6.873  16.326
  162DOPC   H3X19611   2.107   6.808  16.308
  162DOPC   H3Y19612   2.031   6.963  16.261
  162DOPC   C3419613   1.890   6.799  16.284
  162DOPC   H4X19614   1.828   6.784  16.375
  162DOPC   H4Y19615   1.914   6.698  16.246
  162DOPC   C3519616   1.803   6.872  16.179
  162DOPC   H5X19617   1.832   6.838  16.077
  162DOPC   H5Y19618   1.820   6.982  16.183
  162DOPC   C3619619   1.653   6.844  16.202
  162DOPC   H6X19620   1.642   6.734  16.211
  162DOPC   H6Y19621   1.623   6.888  16.300
  162DOPC   C3719622   1.557   6.895  16.093
  162DOPC   H7X19623   1.582   6.850  15.995
  162DOPC   H7Y19624   1.456   6.858  16.121
  162DOPC   C3819625   1.551   7.049  16.080
  162DOPC   H8X19626   1.635   7.082  16.015
  162DOPC   H8Y19627   1.570   7.091  16.181
  162DOPC   C3919628   1.418   7.103  16.033
  162DOPC   H9X19629   1.349   7.130  16.114
  162DOPC  C31019630   1.378   7.120  15.906
  162DOPC  H10X19631   1.277   7.161  15.888
  162DOPC  C31119632   1.455   7.088  15.781
  162DOPC  H11X19633   1.553   7.041  15.804
  162DOPC  H11Y19634   1.477   7.181  15.724
  162DOPC  C31219635   1.375   6.992  15.691
  162DOPC  H12X19636   1.279   7.039  15.660
  162DOPC  H12Y19637   1.349   6.901  15.750
  162DOPC  C31319638   1.452   6.947  15.566
  162DOPC  H13X19639   1.553   6.913  15.595
  162DOPC  H13Y19640   1.399   6.859  15.522
  162DOPC  C31419641   1.462   7.056  15.458
  162DOPC  H14X19642   1.359   7.085  15.427
  162DOPC  H14Y19643   1.511   7.146  15.501
  162DOPC  C31519644   1.542   7.009  15.335
  162DOPC  H15X19645   1.495   6.917  15.294
  162DOPC  H15Y19646   1.644   6.982  15.369
  162DOPC  C31619647   1.553   7.116  15.225
  162DOPC  H16X19648   1.595   7.208  15.269
  162DOPC  H16Y19649   1.626   7.079  15.148
  162DOPC  C31719650   1.421   7.150  15.153
  162DOPC  H17X19651   1.348   7.189  15.227
  162DOPC  H17Y19652   1.442   7.232  15.081
  162DOPC  C31819653   1.359   7.033  15.076
  162DOPC  H18X19654   1.268   7.066  15.021
  162DOPC  H18Y19655   1.431   6.991  15.002
  162DOPC  H18Z19656   1.329   6.951  15.145
  163DOPC     N19657   0.359   3.353  16.748
  163DOPC   C1219658   0.491   3.286  16.713
  163DOPC  H12A19659   0.488   3.251  16.610
  163DOPC  H12B19660   0.500   3.195  16.771
  163DOPC   C1319661   0.248   3.255  16.727
  163DOPC  H13A19662   0.152   3.303  16.744
  163DOPC  H13B19663   0.251   3.216  16.626
  163DOPC  H13C19664   0.259   3.172  16.795
  163DOPC   C1419665   0.336   3.475  16.663
  163DOPC  H14A19666   0.414   3.547  16.680
  163DOPC  H14B19667   0.336   3.450  16.558
  163DOPC  H14C19668   0.241   3.522  16.685
  163DOPC   C1519669   0.360   3.396  16.892
  163DOPC  H15A19670   0.266   3.440  16.923
  163DOPC  H15B19671   0.438   3.469  16.907
  163DOPC  H15C19672   0.387   3.315  16.957
  163DOPC   C1119673   0.624   3.362  16.737
  163DOPC  H11A19674   0.706   3.308  16.685
  163DOPC  H11B19675   0.618   3.462  16.690
  163DOPC     P19676   0.673   3.249  16.970
  163DOPC   O1319677   0.553   3.244  17.057
  163DOPC   O1419678   0.805   3.252  17.034
  163DOPC   O1219679   0.656   3.376  16.875
  163DOPC   O1119680   0.663   3.128  16.868
  163DOPC    C119681   0.778   3.051  16.831
  163DOPC    HA19682   0.794   2.972  16.907
  163DOPC    HB19683   0.870   3.113  16.826
  163DOPC    C219684   0.755   2.982  16.693
  163DOPC    HS19685   0.827   2.898  16.684
  163DOPC   O2119686   0.774   3.076  16.585
  163DOPC   C2119687   0.902   3.097  16.555
  163DOPC   O2219688   0.997   3.049  16.613
  163DOPC   C2219689   0.912   3.186  16.431
  163DOPC   H2R19690   1.019   3.191  16.403
  163DOPC   H2S19691   0.878   3.289  16.458
  163DOPC    C319692   0.613   2.919  16.685
  163DOPC    HX19693   0.538   2.992  16.724
  163DOPC    HY19694   0.611   2.833  16.755
  163DOPC   O3119695   0.581   2.873  16.552
  163DOPC   C3119696   0.508   2.956  16.477
  163DOPC   O3219697   0.454   3.058  16.516
  163DOPC   C3219698   0.503   2.901  16.334
  163DOPC   H2X19699   0.607   2.883  16.301
  163DOPC   H2Y19700   0.448   2.804  16.336
  163DOPC   C2319701   0.829   3.131  16.312
  163DOPC   H3R19702   0.721   3.142  16.334
  163DOPC   H3S19703   0.850   3.023  16.299
  163DOPC   C2419704   0.861   3.201  16.179
  163DOPC   H4R19705   0.969   3.187  16.156
  163DOPC   H4S19706   0.843   3.310  16.188
  163DOPC   C2519707   0.777   3.144  16.064
  163DOPC   H5R19708   0.670   3.165  16.085
  163DOPC   H5S19709   0.790   3.034  16.061
  163DOPC   C2619710   0.813   3.201  15.926
  163DOPC   H6R19711   0.920   3.180  15.904
  163DOPC   H6S19712   0.800   3.311  15.927
  163DOPC   C2719713   0.726   3.140  15.815
  163DOPC   H7R19714   0.619   3.166  15.834
  163DOPC   H7S19715   0.734   3.030  15.820
  163DOPC   C2819716   0.765   3.184  15.672
  163DOPC   H8R19717   0.711   3.119  15.600
  163DOPC   H8S19718   0.874   3.163  15.657
  163DOPC   C2919719   0.736   3.329  15.643
  163DOPC   H9R19720   0.823   3.396  15.647
  163DOPC  C21019721   0.615   3.380  15.614
  163DOPC  H10R19722   0.607   3.488  15.593
  163DOPC  C21119723   0.485   3.304  15.605
  163DOPC  H11R19724   0.420   3.330  15.692
  163DOPC  H11S19725   0.501   3.194  15.610
  163DOPC  C21219726   0.407   3.334  15.476
  163DOPC  H12R19727   0.471   3.313  15.388
  163DOPC  H12S19728   0.380   3.442  15.473
  163DOPC  C21319729   0.279   3.251  15.466
  163DOPC  H13R19730   0.219   3.266  15.559
  163DOPC  H13S19731   0.306   3.143  15.462
  163DOPC  C21419732   0.190   3.285  15.346
  163DOPC  H14R19733   0.151   3.389  15.358
  163DOPC  H14S19734   0.102   3.217  15.346
  163DOPC  C21519735   0.259   3.275  15.208
  163DOPC  H15R19736   0.335   3.355  15.199
  163DOPC  H15S19737   0.182   3.292  15.129
  163DOPC  C21619738   0.326   3.139  15.183
  163DOPC  H16R19739   0.255   3.057  15.203
  163DOPC  H16S19740   0.412   3.127  15.252
  163DOPC  C21719741   0.376   3.127  15.038
  163DOPC  H17R19742   0.439   3.216  15.014
  163DOPC  H17S19743   0.289   3.128  14.970
  163DOPC  C21819744   0.458   3.000  15.013
  163DOPC  H18R19745   0.398   2.909  15.034
  163DOPC  H18S19746   0.548   2.999  15.078
  163DOPC  H18T19747   0.492   2.996  14.907
  163DOPC   C3319748   0.434   2.999  16.236
  163DOPC   H3X19749   0.477   3.101  16.252
  163DOPC   H3Y19750   0.325   3.006  16.257
  163DOPC   C3419751   0.456   2.966  16.087
  163DOPC   H4X19752   0.564   2.947  16.066
  163DOPC   H4Y19753   0.428   3.057  16.029
  163DOPC   C3519754   0.372   2.850  16.031
  163DOPC   H5X19755   0.353   2.872  15.923
  163DOPC   H5Y19756   0.273   2.847  16.081
  163DOPC   C3619757   0.440   2.713  16.038
  163DOPC   H6X19758   0.541   2.720  15.992
  163DOPC   H6Y19759   0.455   2.685  16.145
  163DOPC   C3719760   0.361   2.600  15.969
  163DOPC   H7X19761   0.410   2.503  15.992
  163DOPC   H7Y19762   0.260   2.596  16.014
  163DOPC   C3819763   0.346   2.613  15.816
  163DOPC   H8X19764   0.290   2.706  15.792
  163DOPC   H8Y19765   0.283   2.529  15.780
  163DOPC   C3919766   0.478   2.610  15.744
  163DOPC   H9X19767   0.560   2.564  15.801
  163DOPC  C31019768   0.504   2.657  15.620
  163DOPC  H10X19769   0.606   2.648  15.581
  163DOPC  C31119770   0.407   2.721  15.524
  163DOPC  H11X19771   0.303   2.717  15.563
  163DOPC  H11Y19772   0.406   2.664  15.429
  163DOPC  C31219773   0.440   2.868  15.492
  163DOPC  H12X19774   0.426   2.930  15.584
  163DOPC  H12Y19775   0.366   2.904  15.417
  163DOPC  C31319776   0.581   2.895  15.435
  163DOPC  H13X19777   0.587   3.002  15.405
  163DOPC  H13Y19778   0.656   2.879  15.515
  163DOPC  C31419779   0.618   2.808  15.314
  163DOPC  H14X19780   0.626   2.702  15.346
  163DOPC  H14Y19781   0.538   2.814  15.238
  163DOPC  C31519782   0.752   2.850  15.251
  163DOPC  H15X19783   0.826   2.865  15.333
  163DOPC  H15Y19784   0.739   2.948  15.201
  163DOPC  C31619785   0.809   2.748  15.152
  163DOPC  H16X19786   0.909   2.784  15.118
  163DOPC  H16Y19787   0.825   2.651  15.204
  163DOPC  C31719788   0.721   2.724  15.029
  163DOPC  H17X19789   0.623   2.684  15.061
  163DOPC  H17Y19790   0.703   2.821  14.978
  163DOPC  C31819791   0.783   2.626  14.929
  163DOPC  H18X19792   0.801   2.527  14.977
  163DOPC  H18Y19793   0.716   2.611  14.841
  163DOPC  H18Z19794   0.881   2.664  14.892
  164DOPC     N19795   1.466   1.520  17.134
  164DOPC   C1219796   1.530   1.547  16.999
  164DOPC  H12A19797   1.630   1.586  17.014
  164DOPC  H12B19798   1.473   1.623  16.948
  164DOPC   C1319799   1.537   1.408  17.204
  164DOPC  H13A19800   1.642   1.429  17.219
  164DOPC  H13B19801   1.493   1.389  17.302
  164DOPC  H13C19802   1.527   1.317  17.147
  164DOPC   C1419803   1.323   1.477  17.115
  164DOPC  H14A19804   1.263   1.557  17.073
  164DOPC  H14B19805   1.321   1.396  17.045
  164DOPC  H14C19806   1.279   1.444  17.208
  164DOPC   C1519807   1.468   1.641  17.223
  164DOPC  H15A19808   1.406   1.720  17.184
  164DOPC  H15B19809   1.568   1.678  17.236
  164DOPC  H15C19810   1.430   1.615  17.320
  164DOPC   C1119811   1.541   1.428  16.899
  164DOPC  H11A19812   1.598   1.462  16.810
  164DOPC  H11B19813   1.600   1.347  16.946
  164DOPC     P19814   1.371   1.235  16.843
  164DOPC   O1319815   1.224   1.230  16.826
  164DOPC   O1419816   1.426   1.165  16.962
  164DOPC   O1219817   1.411   1.387  16.857
  164DOPC   O1119818   1.447   1.188  16.711
  164DOPC    C119819   1.574   1.124  16.725
  164DOPC    HA19820   1.562   1.025  16.773
  164DOPC    HB19821   1.642   1.185  16.790
  164DOPC    C219822   1.654   1.102  16.592
  164DOPC    HS19823   1.751   1.059  16.625
  164DOPC   O2119824   1.674   1.230  16.528
  164DOPC   C2119825   1.778   1.230  16.444
  164DOPC   O2219826   1.860   1.141  16.433
  164DOPC   C2219827   1.784   1.364  16.369
  164DOPC   H2R19828   1.850   1.431  16.427
  164DOPC   H2S19829   1.682   1.408  16.366
  164DOPC    C319830   1.589   0.998  16.496
  164DOPC    HX19831   1.569   0.907  16.557
  164DOPC    HY19832   1.664   0.968  16.420
  164DOPC   O3119833   1.463   1.038  16.436
  164DOPC   C3119834   1.473   1.094  16.315
  164DOPC   O3219835   1.577   1.119  16.257
  164DOPC   C3219836   1.334   1.114  16.256
  164DOPC   H2X19837   1.284   1.015  16.255
  164DOPC   H2Y19838   1.276   1.182  16.323
  164DOPC   C2319839   1.838   1.349  16.225
  164DOPC   H3R19840   1.763   1.295  16.163
  164DOPC   H3S19841   1.930   1.287  16.226
  164DOPC   C2419842   1.872   1.483  16.159
  164DOPC   H4R19843   1.950   1.532  16.221
  164DOPC   H4S19844   1.783   1.550  16.159
  164DOPC   C2519845   1.926   1.468  16.016
  164DOPC   H5R19846   1.989   1.377  16.010
  164DOPC   H5S19847   1.990   1.555  15.991
  164DOPC   C2619848   1.815   1.460  15.909
  164DOPC   H6R19849   1.767   1.560  15.901
  164DOPC   H6S19850   1.737   1.388  15.941
  164DOPC   C2719851   1.869   1.417  15.772
  164DOPC   H7R19852   1.895   1.309  15.778
  164DOPC   H7S19853   1.964   1.471  15.750
  164DOPC   C2819854   1.771   1.437  15.655
  164DOPC   H8R19855   1.676   1.386  15.681
  164DOPC   H8S19856   1.813   1.384  15.567
  164DOPC   C2919857   1.748   1.582  15.619
  164DOPC   H9R19858   1.831   1.650  15.645
  164DOPC  C21019859   1.639   1.633  15.558
  164DOPC  H10R19860   1.636   1.740  15.535
  164DOPC  C21119861   1.518   1.555  15.513
  164DOPC  H11R19862   1.427   1.595  15.562
  164DOPC  H11S19863   1.524   1.448  15.542
  164DOPC  C21219864   1.496   1.560  15.360
  164DOPC  H12R19865   1.469   1.662  15.327
  164DOPC  H12S19866   1.410   1.494  15.337
  164DOPC  C21319867   1.618   1.511  15.278
  164DOPC  H13R19868   1.679   1.444  15.341
  164DOPC  H13S19869   1.681   1.598  15.251
  164DOPC  C21419870   1.579   1.434  15.151
  164DOPC  H14R19871   1.519   1.345  15.181
  164DOPC  H14S19872   1.671   1.397  15.102
  164DOPC  C21519873   1.499   1.517  15.049
  164DOPC  H15R19874   1.560   1.606  15.022
  164DOPC  H15S19875   1.406   1.554  15.096
  164DOPC  C21619876   1.464   1.440  14.921
  164DOPC  H16R19877   1.557   1.403  14.873
  164DOPC  H16S19878   1.415   1.510  14.850
  164DOPC  C21719879   1.370   1.321  14.945
  164DOPC  H17R19880   1.281   1.356  15.002
  164DOPC  H17S19881   1.421   1.245  15.007
  164DOPC  C21819882   1.322   1.254  14.815
  164DOPC  H18R19883   1.409   1.214  14.758
  164DOPC  H18S19884   1.269   1.328  14.751
  164DOPC  H18T19885   1.252   1.171  14.837
  164DOPC   C3319886   1.340   1.171  16.112
  164DOPC   H3X19887   1.419   1.118  16.055
  164DOPC   H3Y19888   1.368   1.278  16.115
  164DOPC   C3419889   1.209   1.154  16.033
  164DOPC   H4X19890   1.127   1.209  16.085
  164DOPC   H4Y19891   1.182   1.046  16.032
  164DOPC   C3519892   1.222   1.205  15.889
  164DOPC   H5X19893   1.312   1.160  15.843
  164DOPC   H5Y19894   1.237   1.315  15.891
  164DOPC   C3619895   1.101   1.173  15.799
  164DOPC   H6X19896   1.010   1.222  15.839
  164DOPC   H6Y19897   1.121   1.217  15.699
  164DOPC   C3719898   1.075   1.023  15.781
  164DOPC   H7X19899   1.172   0.970  15.772
  164DOPC   H7Y19900   1.024   0.985  15.872
  164DOPC   C3819901   0.992   0.991  15.655
  164DOPC   H8X19902   1.054   1.013  15.566
  164DOPC   H8Y19903   0.906   1.061  15.651
  164DOPC   C3919904   0.940   0.849  15.652
  164DOPC   H9X19905   0.842   0.836  15.700
  164DOPC  C31019906   1.001   0.741  15.600
  164DOPC  H10X19907   0.949   0.644  15.605
  164DOPC  C31119908   1.136   0.735  15.532
  164DOPC  H11X19909   1.198   0.657  15.581
  164DOPC  H11Y19910   1.192   0.830  15.542
  164DOPC  C31219911   1.125   0.701  15.382
  164DOPC  H12X19912   1.091   0.791  15.327
  164DOPC  H12Y19913   1.049   0.621  15.366
  164DOPC  C31319914   1.257   0.650  15.319
  164DOPC  H13X19915   1.280   0.549  15.359
  164DOPC  H13Y19916   1.244   0.640  15.210
  164DOPC  C31419917   1.378   0.741  15.347
  164DOPC  H14X19918   1.400   0.739  15.456
  164DOPC  H14Y19919   1.351   0.846  15.320
  164DOPC  C31519920   1.504   0.701  15.270
  164DOPC  H15X19921   1.482   0.702  15.162
  164DOPC  H15Y19922   1.532   0.597  15.298
  164DOPC  C31619923   1.623   0.795  15.296
  164DOPC  H16X19924   1.589   0.899  15.273
  164DOPC  H16Y19925   1.650   0.792  15.404
  164DOPC  C31719926   1.747   0.764  15.211
  164DOPC  H17X19927   1.719   0.769  15.104
  164DOPC  H17Y19928   1.822   0.845  15.229
  164DOPC  C31819929   1.813   0.629  15.241
  164DOPC  H18X19930   1.844   0.624  15.347
  164DOPC  H18Y19931   1.742   0.546  15.221
  164DOPC  H18Z19932   1.903   0.615  15.177
  165DOPC     N19933   7.372   0.958  17.102
  165DOPC   C1219934   7.367   0.823  17.029
  165DOPC  H12A19935   7.264   0.798  17.009
  165DOPC  H12B19936   7.407   0.745  17.093
  165DOPC   C1319937   7.501   1.027  17.071
  165DOPC  H13A19938   7.586   0.971  17.106
  165DOPC  H13B19939   7.509   1.036  16.964
  165DOPC  H13C19940   7.502   1.127  17.114
  165DOPC   C1419941   7.356   0.940  17.249
  165DOPC  H14A19942   7.436   0.878  17.289
  165DOPC  H14B19943   7.359   1.035  17.300
  165DOPC  H14C19944   7.261   0.894  17.271
  165DOPC   C1519945   7.263   1.048  17.052
  165DOPC  H15A19946   7.271   1.063  16.946
  165DOPC  H15B19947   7.266   1.146  17.099
  165DOPC  H15C19948   7.165   1.005  17.067
  165DOPC   C1119949   7.438   0.812  16.891
  165DOPC  H11A19950   7.548   0.824  16.904
  165DOPC  H11B19951   7.423   0.709  16.851
  165DOPC     P19952   7.241   0.898  16.745
  165DOPC   O1319953   7.184   1.034  16.753
  165DOPC   O1419954   7.172   0.792  16.822
  165DOPC   O1219955   7.391   0.910  16.799
  165DOPC   O1119956   7.259   0.854  16.595
  165DOPC    C119957   7.385   0.860  16.527
  165DOPC    HA19958   7.379   0.791  16.440
  165DOPC    HB19959   7.469   0.825  16.590
  165DOPC    C219960   7.417   1.002  16.470
  165DOPC    HS19961   7.426   1.071  16.557
  165DOPC   O2119962   7.310   1.039  16.382
  165DOPC   C2119963   7.288   1.168  16.368
  165DOPC   O2219964   7.354   1.259  16.416
  165DOPC   C2219965   7.164   1.191  16.281
  165DOPC   H2R19966   7.175   1.290  16.232
  165DOPC   H2S19967   7.076   1.195  16.349
  165DOPC    C319968   7.554   0.997  16.395
  165DOPC    HX19969   7.543   0.920  16.315
  165DOPC    HY19970   7.632   0.959  16.464
  165DOPC   O3119971   7.593   1.121  16.332
  165DOPC   C3119972   7.653   1.209  16.411
  165DOPC   O3219973   7.679   1.193  16.529
  165DOPC   C3219974   7.691   1.335  16.333
  165DOPC   H2X19975   7.622   1.416  16.364
  165DOPC   H2Y19976   7.793   1.362  16.368
  165DOPC   C2319977   7.140   1.081  16.173
  165DOPC   H3R19978   7.041   1.099  16.126
  165DOPC   H3S19979   7.136   0.981  16.222
  165DOPC   C2419980   7.247   1.081  16.064
  165DOPC   H4R19981   7.347   1.079  16.113
  165DOPC   H4S19982   7.241   1.175  16.006
  165DOPC   C2519983   7.240   0.960  15.969
  165DOPC   H5R19984   7.251   0.868  16.030
  165DOPC   H5S19985   7.328   0.963  15.901
  165DOPC   C2619986   7.112   0.949  15.885
  165DOPC   H6R19987   7.025   0.932  15.953
  165DOPC   H6S19988   7.121   0.858  15.821
  165DOPC   C2719989   7.081   1.069  15.794
  165DOPC   H7R19990   7.053   1.156  15.857
  165DOPC   H7S19991   6.992   1.042  15.733
  165DOPC   C2819992   7.197   1.108  15.700
  165DOPC   H8R19993   7.235   1.015  15.654
  165DOPC   H8S19994   7.278   1.151  15.763
  165DOPC   C2919995   7.156   1.209  15.595
  165DOPC   H9R19996   7.088   1.287  15.632
  165DOPC  C21019997   7.196   1.214  15.467
  165DOPC  H10R19998   7.157   1.295  15.403
  165DOPC  C21119999   7.292   1.121  15.397
  165DOPC  H11R20000   7.243   1.070  15.311
  165DOPC  H11S20001   7.328   1.040  15.465
  165DOPC  C21220002   7.415   1.199  15.347
  165DOPC  H12R20003   7.455   1.261  15.431
  165DOPC  H12S20004   7.385   1.269  15.266
  165DOPC  C21320005   7.529   1.109  15.298
  165DOPC  H13R20006   7.499   1.056  15.205
  165DOPC  H13S20007   7.550   1.032  15.375
  165DOPC  C21420008   7.658   1.190  15.274
  165DOPC  H14R20009   7.673   1.260  15.358
  165DOPC  H14S20010   7.645   1.251  15.181
  165DOPC  C21520011   7.784   1.103  15.262
  165DOPC  H15R20012   7.768   1.023  15.186
  165DOPC  H15S20013   7.802   1.053  15.360
  165DOPC  C21620014   7.907   1.186  15.223
  165DOPC  H16R20015   7.917   1.270  15.295
  165DOPC  H16S20016   7.891   1.230  15.122
  165DOPC  C21720017   8.038   1.106  15.223
  165DOPC  H17R20018   8.028   1.021  15.152
  165DOPC  H17S20019   8.054   1.063  15.324
  165DOPC  C21820020   8.159   1.191  15.184
  165DOPC  H18R20021   8.252   1.131  15.187
  165DOPC  H18S20022   8.170   1.277  15.253
  165DOPC  H18T20023   8.146   1.231  15.081
  165DOPC   C3320024   7.693   1.322  16.179
  165DOPC   H3X20025   7.731   1.222  16.148
  165DOPC   H3Y20026   7.765   1.397  16.139
  165DOPC   C3420027   7.557   1.351  16.115
  165DOPC   H4X20028   7.523   1.451  16.148
  165DOPC   H4Y20029   7.481   1.277  16.151
  165DOPC   C3520030   7.560   1.350  15.961
  165DOPC   H5X20031   7.649   1.408  15.926
  165DOPC   H5Y20032   7.470   1.402  15.923
  165DOPC   C3620033   7.562   1.209  15.900
  165DOPC   H6X20034   7.647   1.150  15.941
  165DOPC   H6Y20035   7.469   1.157  15.930
  165DOPC   C3720036   7.568   1.212  15.747
  165DOPC   H7X20037   7.664   1.258  15.713
  165DOPC   H7Y20038   7.487   1.278  15.711
  165DOPC   C3820039   7.548   1.074  15.681
  165DOPC   H8X20040   7.519   1.094  15.575
  165DOPC   H8Y20041   7.460   1.026  15.729
  165DOPC   C3920042   7.667   0.983  15.682
  165DOPC   H9X20043   7.765   1.034  15.681
  165DOPC  C31020044   7.665   0.849  15.679
  165DOPC  H10X20045   7.760   0.795  15.680
  165DOPC  C31120046   7.542   0.760  15.673
  165DOPC  H11X20047   7.448   0.819  15.670
  165DOPC  H11Y20048   7.537   0.698  15.765
  165DOPC  C31220049   7.544   0.666  15.551
  165DOPC  H12X20050   7.639   0.609  15.552
  165DOPC  H12Y20051   7.543   0.726  15.457
  165DOPC  C31320052   7.429   0.565  15.550
  165DOPC  H13X20053   7.451   0.485  15.476
  165DOPC  H13Y20054   7.423   0.517  15.650
  165DOPC  C31420055   7.291   0.625  15.515
  165DOPC  H14X20056   7.213   0.552  15.545
  165DOPC  H14Y20057   7.274   0.718  15.573
  165DOPC  C31520058   7.273   0.653  15.365
  165DOPC  H15X20059   7.292   0.560  15.309
  165DOPC  H15Y20060   7.348   0.728  15.331
  165DOPC  C31620061   7.132   0.703  15.331
  165DOPC  H16X20062   7.058   0.641  15.385
  165DOPC  H16Y20063   7.120   0.808  15.367
  165DOPC  C31720064   7.098   0.697  15.181
  165DOPC  H17X20065   7.099   0.590  15.149
  165DOPC  H17Y20066   6.995   0.735  15.166
  165DOPC  C31820067   7.194   0.776  15.091
  165DOPC  H18X20068   7.198   0.882  15.123
  165DOPC  H18Y20069   7.296   0.734  15.096
  165DOPC  H18Z20070   7.160   0.772  14.985
  166DOPC     N20071   8.816   3.035  16.925
  166DOPC   C1220072   8.858   2.949  17.044
  166DOPC  H12A20073   8.777   2.882  17.066
  166DOPC  H12B20074   8.872   3.010  17.132
  166DOPC   C1320075   8.690   3.109  16.958
  166DOPC  H13A20076   8.612   3.038  16.982
  166DOPC  H13B20077   8.703   3.174  17.042
  166DOPC  H13C20078   8.656   3.167  16.873
  166DOPC   C1420079   8.790   2.945  16.808
  166DOPC  H14A20080   8.760   2.998  16.719
  166DOPC  H14B20081   8.879   2.887  16.787
  166DOPC  H14C20082   8.717   2.871  16.835
  166DOPC   C1520083   8.925   3.132  16.889
  166DOPC  H15A20084   9.014   3.077  16.864
  166DOPC  H15B20085   8.947   3.198  16.972
  166DOPC  H15C20086   8.897   3.191  16.803
  166DOPC   C1120087   8.983   2.859  17.027
  166DOPC  H11A20088   9.068   2.919  16.989
  166DOPC  H11B20089   9.015   2.820  17.126
  166DOPC     P20090   8.852   2.639  16.973
  166DOPC   O1320091   8.721   2.705  16.989
  166DOPC   O1420092   8.902   2.561  17.089
  166DOPC   O1220093   8.959   2.751  16.937
  166DOPC   O1120094   8.849   2.550  16.842
  166DOPC    C120095   8.945   2.567  16.737
  166DOPC    HA20096   9.034   2.503  16.758
  166DOPC    HB20097   8.982   2.671  16.727
  166DOPC    C220098   8.890   2.524  16.597
  166DOPC    HS20099   8.975   2.522  16.526
  166DOPC   O2120100   8.787   2.614  16.550
  166DOPC   C2120101   8.829   2.728  16.499
  166DOPC   O2220102   8.940   2.776  16.513
  166DOPC   C2220103   8.717   2.793  16.418
  166DOPC   H2R20104   8.724   2.903  16.430
  166DOPC   H2S20105   8.619   2.759  16.459
  166DOPC    C320106   8.830   2.381  16.601
  166DOPC    HX20107   8.743   2.384  16.669
  166DOPC    HY20108   8.906   2.311  16.642
  166DOPC   O3120109   8.795   2.343  16.467
  166DOPC   C3120110   8.702   2.248  16.457
  166DOPC   O3220111   8.662   2.180  16.550
  166DOPC   C3220112   8.652   2.240  16.312
  166DOPC   H2X20113   8.701   2.152  16.264
  166DOPC   H2Y20114   8.543   2.222  16.317
  166DOPC   C2320115   8.724   2.756  16.268
  166DOPC   H3R20116   8.628   2.785  16.219
  166DOPC   H3S20117   8.736   2.647  16.256
  166DOPC   C2420118   8.838   2.827  16.193
  166DOPC   H4R20119   8.933   2.812  16.248
  166DOPC   H4S20120   8.819   2.936  16.189
  166DOPC   C2520121   8.859   2.775  16.049
  166DOPC   H5R20122   8.876   2.665  16.053
  166DOPC   H5S20123   8.952   2.820  16.008
  166DOPC   C2620124   8.744   2.805  15.952
  166DOPC   H6R20125   8.727   2.914  15.948
  166DOPC   H6S20126   8.651   2.757  15.989
  166DOPC   C2720127   8.774   2.753  15.811
  166DOPC   H7R20128   8.789   2.643  15.818
  166DOPC   H7S20129   8.868   2.798  15.775
  166DOPC   C2820130   8.661   2.782  15.709
  166DOPC   H8R20131   8.647   2.892  15.702
  166DOPC   H8S20132   8.567   2.739  15.749
  166DOPC   C2920133   8.693   2.720  15.575
  166DOPC   H9R20134   8.722   2.614  15.580
  166DOPC  C21020135   8.687   2.780  15.455
  166DOPC  H10R20136   8.713   2.721  15.365
  166DOPC  C21120137   8.648   2.923  15.428
  166DOPC  H11R20138   8.701   2.992  15.496
  166DOPC  H11S20139   8.539   2.935  15.446
  166DOPC  C21220140   8.677   2.965  15.282
  166DOPC  H12R20141   8.634   3.066  15.266
  166DOPC  H12S20142   8.626   2.896  15.212
  166DOPC  C21320143   8.827   2.971  15.248
  166DOPC  H13R20144   8.872   2.872  15.268
  166DOPC  H13S20145   8.876   3.045  15.315
  166DOPC  C21420146   8.853   3.009  15.101
  166DOPC  H14R20147   8.801   3.105  15.079
  166DOPC  H14S20148   8.809   2.931  15.036
  166DOPC  C21520149   9.002   3.025  15.067
  166DOPC  H15R20150   9.044   3.111  15.124
  166DOPC  H15S20151   9.011   3.049  14.959
  166DOPC  C21620152   9.086   2.900  15.097
  166DOPC  H16R20153   9.037   2.811  15.052
  166DOPC  H16S20154   9.090   2.884  15.207
  166DOPC  C21720155   0.013   2.909  15.044
  166DOPC  H17R20156   0.061   3.002  15.083
  166DOPC  H17S20157   0.009   2.918  14.933
  166DOPC  C21820158   0.099   2.788  15.082
  166DOPC  H18R20159   0.110   2.781  15.192
  166DOPC  H18S20160   0.200   2.796  15.037
  166DOPC  H18T20161   0.052   2.694  15.045
  166DOPC   C3320162   8.681   2.368  16.231
  166DOPC   H3X20163   8.791   2.385  16.224
  166DOPC   H3Y20164   8.638   2.455  16.285
  166DOPC   C3420165   8.624   2.369  16.089
  166DOPC   H4X20166   8.641   2.470  16.046
  166DOPC   H4Y20167   8.514   2.353  16.091
  166DOPC   C3520168   8.690   2.266  15.995
  166DOPC   H5X20169   8.655   2.163  16.020
  166DOPC   H5Y20170   8.800   2.270  16.013
  166DOPC   C3620171   8.662   2.297  15.848
  166DOPC   H6X20172   8.554   2.279  15.827
  166DOPC   H6Y20173   8.680   2.405  15.830
  166DOPC   C3720174   8.747   2.217  15.747
  166DOPC   H7X20175   8.718   2.110  15.752
  166DOPC   H7Y20176   8.720   2.253  15.645
  166DOPC   C3820177   8.900   2.228  15.764
  166DOPC   H8X20178   8.948   2.182  15.675
  166DOPC   H8Y20179   8.930   2.166  15.851
  166DOPC   C3920180   8.949   2.370  15.785
  166DOPC   H9X20181   8.953   2.400  15.891
  166DOPC  C31020182   8.983   2.459  15.691
  166DOPC  H10X20183   9.015   2.559  15.724
  166DOPC  C31120184   8.981   2.441  15.542
  166DOPC  H11X20185   8.900   2.502  15.498
  166DOPC  H11Y20186   8.961   2.335  15.513
  166DOPC  C31220187   9.114   2.486  15.478
  166DOPC  H12X20188   9.194   2.415  15.508
  166DOPC  H12Y20189   9.142   2.586  15.517
  166DOPC  C31320190   9.108   2.497  15.325
  166DOPC  H13X20191   9.037   2.578  15.299
  166DOPC  H13Y20192   9.208   2.528  15.287
  166DOPC  C31420193   9.066   2.367  15.254
  166DOPC  H14X20194   9.135   2.285  15.283
  166DOPC  H14Y20195   8.964   2.338  15.287
  166DOPC  C31520196   9.066   2.380  15.100
  166DOPC  H15X20197   9.033   2.283  15.057
  166DOPC  H15Y20198   9.171   2.397  15.065
  166DOPC  C31620199   8.977   2.492  15.044
  166DOPC  H16X20200   9.020   2.590  15.073
  166DOPC  H16Y20201   8.978   2.486  14.934
  166DOPC  C31720202   8.832   2.485  15.093
  166DOPC  H17X20203   8.792   2.384  15.069
  166DOPC  H17Y20204   8.829   2.496  15.204
  166DOPC  C31820205   8.741   2.592  15.031
  166DOPC  H18X20206   8.779   2.693  15.055
  166DOPC  H18Y20207   8.738   2.581  14.921
  166DOPC  H18Z20208   8.637   2.583  15.070
  167DOPC     N20209   7.794   1.436  16.843
  167DOPC   C1220210   7.922   1.406  16.768
  167DOPC  H12A20211   8.000   1.472  16.803
  167DOPC  H12B20212   7.907   1.426  16.663
  167DOPC   C1320213   7.748   1.576  16.817
  167DOPC  H13A20214   7.820   1.649  16.851
  167DOPC  H13B20215   7.727   1.592  16.712
  167DOPC  H13C20216   7.655   1.596  16.868
  167DOPC   C1420217   7.820   1.422  16.990
  167DOPC  H14A20218   7.732   1.444  17.049
  167DOPC  H14B20219   7.857   1.322  17.010
  167DOPC  H14C20220   7.899   1.489  17.021
  167DOPC   C1520221   7.684   1.343  16.802
  167DOPC  H15A20222   7.669   1.343  16.695
  167DOPC  H15B20223   7.590   1.372  16.848
  167DOPC  H15C20224   7.707   1.241  16.830
  167DOPC   C1120225   7.980   1.262  16.780
  167DOPC  H11A20226   7.901   1.188  16.760
  167DOPC  H11B20227   8.055   1.248  16.699
  167DOPC     P20228   8.173   1.311  16.946
  167DOPC   O1320229   8.243   1.237  17.054
  167DOPC   O1420230   8.143   1.454  16.969
  167DOPC   O1220231   8.038   1.238  16.909
  167DOPC   O1120232   8.259   1.295  16.814
  167DOPC    C120233   8.393   1.348  16.813
  167DOPC    HA20234   8.457   1.295  16.887
  167DOPC    HB20235   8.392   1.456  16.841
  167DOPC    C220236   8.464   1.339  16.675
  167DOPC    HS20237   8.560   1.395  16.683
  167DOPC   O2120238   8.382   1.393  16.570
  167DOPC   C2120239   8.378   1.524  16.565
  167DOPC   O2220240   8.438   1.601  16.638
  167DOPC   C2220241   8.288   1.565  16.448
  167DOPC   H2R20242   8.183   1.552  16.482
  167DOPC   H2S20243   8.307   1.495  16.364
  167DOPC    C320244   8.505   1.194  16.633
  167DOPC    HX20245   8.561   1.146  16.716
  167DOPC    HY20246   8.577   1.207  16.550
  167DOPC   O3120247   8.395   1.114  16.583
  167DOPC   C3120248   8.345   1.022  16.663
  167DOPC   O3220249   8.384   0.995  16.776
  167DOPC   C3220250   8.233   0.946  16.591
  167DOPC   H2X20251   8.282   0.891  16.508
  167DOPC   H2Y20252   8.192   0.871  16.662
  167DOPC   C2320253   8.312   1.710  16.402
  167DOPC   H3R20254   8.418   1.722  16.369
  167DOPC   H3S20255   8.297   1.779  16.488
  167DOPC   C2420256   8.218   1.753  16.289
  167DOPC   H4R20257   8.238   1.860  16.265
  167DOPC   H4S20258   8.113   1.747  16.324
  167DOPC   C2520259   8.231   1.672  16.158
  167DOPC   H5R20260   8.161   1.716  16.084
  167DOPC   H5S20261   8.199   1.567  16.175
  167DOPC   C2620262   8.373   1.673  16.099
  167DOPC   H6R20263   8.436   1.597  16.150
  167DOPC   H6S20264   8.418   1.772  16.118
  167DOPC   C2720265   8.376   1.650  15.946
  167DOPC   H7R20266   8.481   1.660  15.911
  167DOPC   H7S20267   8.317   1.732  15.899
  167DOPC   C2820268   8.320   1.513  15.901
  167DOPC   H8R20269   8.217   1.501  15.941
  167DOPC   H8S20270   8.383   1.434  15.946
  167DOPC   C2920271   8.316   1.505  15.750
  167DOPC   H9R20272   8.258   1.586  15.703
  167DOPC  C21020273   8.374   1.414  15.671
  167DOPC  H10R20274   8.361   1.422  15.562
  167DOPC  C21120275   8.458   1.295  15.714
  167DOPC  H11R20276   8.444   1.270  15.821
  167DOPC  H11S20277   8.564   1.324  15.702
  167DOPC  C21220278   8.428   1.163  15.627
  167DOPC  H12R20279   8.328   1.171  15.674
  167DOPC  H12S20280   8.533   1.139  15.657
  167DOPC  C21320281   8.411   1.013  15.681
  167DOPC  H13R20282   8.309   0.976  15.659
  167DOPC  H13S20283   8.423   1.015  15.791
  167DOPC  C21420284   8.510   0.910  15.622
  167DOPC  H14R20285   8.520   0.828  15.697
  167DOPC  H14S20286   8.612   0.954  15.610
  167DOPC  C21520287   8.465   0.844  15.491
  167DOPC  H15R20288   8.367   0.794  15.507
  167DOPC  H15S20289   8.539   0.766  15.464
  167DOPC  C21620290   8.451   0.940  15.371
  167DOPC  H16R20291   8.549   0.987  15.349
  167DOPC  H16S20292   8.381   1.022  15.399
  167DOPC  C21720293   8.397   0.872  15.244
  167DOPC  H17R20294   8.385   0.950  15.165
  167DOPC  H17S20295   8.296   0.832  15.266
  167DOPC  C21820296   8.486   0.760  15.188
  167DOPC  H18R20297   8.443   0.721  15.094
  167DOPC  H18S20298   8.493   0.676  15.261
  167DOPC  H18T20299   8.588   0.798  15.168
  167DOPC   C3320300   8.121   1.037  16.537
  167DOPC   H3X20301   8.155   1.143  16.532
  167DOPC   H3Y20302   8.034   1.033  16.606
  167DOPC   C3420303   8.076   1.000  16.395
  167DOPC   H4X20304   7.989   1.065  16.368
  167DOPC   H4Y20305   8.040   0.895  16.393
  167DOPC   C3520306   8.186   1.021  16.291
  167DOPC   H5X20307   8.262   0.939  16.299
  167DOPC   H5Y20308   8.238   1.116  16.312
  167DOPC   C3620309   8.134   1.026  16.146
  167DOPC   H6X20310   8.069   1.115  16.136
  167DOPC   H6Y20311   8.220   1.039  16.077
  167DOPC   C3720312   8.056   0.900  16.103
  167DOPC   H7X20313   8.121   0.811  16.116
  167DOPC   H7Y20314   7.968   0.886  16.169
  167DOPC   C3820315   8.010   0.907  15.956
  167DOPC   H8X20316   7.963   0.810  15.928
  167DOPC   H8Y20317   8.099   0.920  15.892
  167DOPC   C3920318   7.910   1.019  15.940
  167DOPC   H9X20319   7.814   1.002  15.991
  167DOPC  C31020320   7.927   1.134  15.872
  167DOPC  H10X20321   7.843   1.205  15.871
  167DOPC  C31120322   8.048   1.179  15.794
  167DOPC  H11X20323   8.110   1.093  15.762
  167DOPC  H11Y20324   8.113   1.244  15.857
  167DOPC  C31220325   8.008   1.258  15.668
  167DOPC  H12X20326   7.935   1.198  15.608
  167DOPC  H12Y20327   8.098   1.272  15.604
  167DOPC  C31320328   7.948   1.396  15.698
  167DOPC  H13X20329   7.871   1.388  15.778
  167DOPC  H13Y20330   8.028   1.464  15.736
  167DOPC  C31420331   7.879   1.461  15.577
  167DOPC  H14X20332   7.802   1.391  15.537
  167DOPC  H14Y20333   7.826   1.553  15.611
  167DOPC  C31520334   7.975   1.501  15.463
  167DOPC  H15X20335   8.029   1.411  15.427
  167DOPC  H15Y20336   8.050   1.572  15.502
  167DOPC  C31620337   7.899   1.565  15.346
  167DOPC  H16X20338   7.820   1.494  15.311
  167DOPC  H16Y20339   7.848   1.657  15.381
  167DOPC  C31720340   7.989   1.600  15.227
  167DOPC  H17X20341   8.069   1.669  15.262
  167DOPC  H17Y20342   8.039   1.507  15.191
  167DOPC  C31820343   7.912   1.665  15.112
  167DOPC  H18X20344   7.981   1.690  15.028
  167DOPC  H18Y20345   7.834   1.595  15.074
  167DOPC  H18Z20346   7.863   1.758  15.146
  168DOPC     N20347   2.515   8.988  16.920
  168DOPC   C1220348   2.428   8.995  16.794
  168DOPC  H12A20349   2.396   8.895  16.768
  168DOPC  H12B20350   2.487   9.032  16.712
  168DOPC   C1320351   2.658   8.957  16.886
  168DOPC  H13A20352   2.718   8.953  16.975
  168DOPC  H13B20353   2.668   8.862  16.836
  168DOPC  H13C20354   2.701   9.033  16.822
  168DOPC   C1420355   2.463   8.883  17.013
  168DOPC  H14A20356   2.467   8.785  16.969
  168DOPC  H14B20357   2.516   8.882  17.108
  168DOPC  H14C20358   2.359   8.901  17.035
  168DOPC   C1520359   2.508   9.120  16.992
  168DOPC  H15A20360   2.546   9.201  16.932
  168DOPC  H15B20361   2.561   9.117  17.086
  168DOPC  H15C20362   2.404   9.141  17.014
  168DOPC   C1120363   2.298   9.081  16.800
  168DOPC  H11A20364   2.325   9.188  16.812
  168DOPC  H11B20365   2.246   9.074  16.702
  168DOPC     P20366   2.130   8.907  16.899
  168DOPC   O1320367   1.986   8.938  16.891
  168DOPC   O1420368   2.173   8.825  17.014
  168DOPC   O1220369   2.213   9.042  16.907
  168DOPC   O1120370   2.183   8.840  16.766
  168DOPC    C120371   2.127   8.715  16.727
  168DOPC    HA20372   2.016   8.719  16.725
  168DOPC    HB20373   2.157   8.637  16.801
  168DOPC    C220374   2.175   8.670  16.586
  168DOPC    HS20375   2.149   8.563  16.573
  168DOPC   O2120376   2.317   8.689  16.569
  168DOPC   C2120377   2.395   8.607  16.634
  168DOPC   O2220378   2.361   8.515  16.706
  168DOPC   C2220379   2.541   8.641  16.601
  168DOPC   H2R20380   2.603   8.559  16.646
  168DOPC   H2S20381   2.568   8.736  16.650
  168DOPC    C320382   2.102   8.747  16.472
  168DOPC    HX20383   1.993   8.727  16.482
  168DOPC    HY20384   2.137   8.703  16.376
  168DOPC   O3120385   2.128   8.889  16.474
  168DOPC   C3120386   2.067   8.952  16.374
  168DOPC   O3220387   2.001   8.897  16.288
  168DOPC   C3220388   2.097   9.102  16.380
  168DOPC   H2X20389   2.105   9.132  16.487
  168DOPC   H2Y20390   2.196   9.117  16.331
  168DOPC   C2320391   2.570   8.648  16.449
  168DOPC   H3R20392   2.510   8.571  16.395
  168DOPC   H3S20393   2.677   8.623  16.430
  168DOPC   C2420394   2.543   8.786  16.387
  168DOPC   H4R20395   2.621   8.858  16.419
  168DOPC   H4S20396   2.445   8.825  16.424
  168DOPC   C2520397   2.536   8.780  16.234
  168DOPC   H5R20398   2.464   8.700  16.207
  168DOPC   H5S20399   2.635   8.753  16.192
  168DOPC   C2620400   2.487   8.912  16.172
  168DOPC   H6R20401   2.561   8.992  16.194
  168DOPC   H6S20402   2.392   8.942  16.222
  168DOPC   C2720403   2.464   8.905  16.020
  168DOPC   H7R20404   2.562   8.886  15.971
  168DOPC   H7S20405   2.429   9.005  15.985
  168DOPC   C2820406   2.365   8.797  15.973
  168DOPC   H8R20407   2.405   8.697  15.999
  168DOPC   H8S20408   2.363   8.801  15.862
  168DOPC   C2920409   2.226   8.814  16.031
  168DOPC   H9R20410   2.222   8.816  16.141
  168DOPC  C21020411   2.112   8.827  15.962
  168DOPC  H10R20412   2.018   8.843  16.018
  168DOPC  C21120413   2.099   8.827  15.812
  168DOPC  H11R20414   1.998   8.792  15.782
  168DOPC  H11S20415   2.172   8.757  15.766
  168DOPC  C21220416   2.122   8.967  15.752
  168DOPC  H12R20417   2.220   9.008  15.784
  168DOPC  H12S20418   2.043   9.035  15.791
  168DOPC  C21320419   2.116   8.969  15.598
  168DOPC  H13R20420   2.092   9.072  15.565
  168DOPC  H13S20421   2.033   8.903  15.564
  168DOPC  C21420422   2.247   8.925  15.532
  168DOPC  H14R20423   2.284   8.832  15.580
  168DOPC  H14S20424   2.324   9.004  15.549
  168DOPC  C21520425   2.233   8.899  15.381
  168DOPC  H15R20426   2.159   8.817  15.367
  168DOPC  H15S20427   2.330   8.864  15.341
  168DOPC  C21620428   2.188   9.022  15.300
  168DOPC  H16R20429   2.260   9.105  15.317
  168DOPC  H16S20430   2.089   9.056  15.336
  168DOPC  C21720431   2.178   8.996  15.149
  168DOPC  H17R20432   2.278   8.965  15.111
  168DOPC  H17S20433   2.152   9.091  15.098
  168DOPC  C21820434   2.075   8.889  15.110
  168DOPC  H18R20435   2.104   8.789  15.149
  168DOPC  H18S20436   2.066   8.882  15.000
  168DOPC  H18T20437   1.975   8.915  15.152
  168DOPC   C3320438   1.990   9.187  16.308
  168DOPC   H3X20439   1.893   9.176  16.362
  168DOPC   H3Y20440   1.973   9.148  16.205
  168DOPC   C3420441   2.024   0.120  16.300
  168DOPC   H4X20442   2.047   0.157  16.402
  168DOPC   H4Y20443   1.934   0.175  16.264
  168DOPC   C3520444   2.141   0.154  16.206
  168DOPC   H5X20445   2.233   0.101  16.239
  168DOPC   H5Y20446   2.161   0.263  16.213
  168DOPC   C3620447   2.114   0.121  16.058
  168DOPC   H6X20448   2.097   0.012  16.047
  168DOPC   H6Y20449   2.021   0.173  16.026
  168DOPC   C3720450   2.230   0.161  15.966
  168DOPC   H7X20451   2.247   0.271  15.974
  168DOPC   H7Y20452   2.322   0.110  16.002
  168DOPC   C3820453   2.208   0.123  15.818
  168DOPC   H8X20454   2.182   0.015  15.814
  168DOPC   H8Y20455   2.305   0.133  15.766
  168DOPC   C3920456   2.100   0.204  15.751
  168DOPC   H9X20457   1.998   0.183  15.786
  168DOPC  C31020458   2.118   0.297  15.655
  168DOPC  H10X20459   2.030   0.347  15.613
  168DOPC  C31120460   2.250   0.339  15.595
  168DOPC  H11X20461   2.333   0.322  15.666
  168DOPC  H11Y20462   2.249   0.448  15.574
  168DOPC  C31220463   2.283   0.264  15.464
  168DOPC  H12X20464   2.278   0.154  15.481
  168DOPC  H12Y20465   2.388   0.288  15.437
  168DOPC  C31320466   2.191   0.302  15.347
  168DOPC  H13X20467   2.086   0.279  15.373
  168DOPC  H13Y20468   2.199   0.412  15.330
  168DOPC  C31420469   2.225   0.230  15.214
  168DOPC  H14X20470   2.205   0.122  15.224
  168DOPC  H14Y20471   2.156   0.270  15.136
  168DOPC  C31520472   2.370   0.251  15.168
  168DOPC  H15X20473   2.437   0.192  15.235
  168DOPC  H15Y20474   2.398   0.357  15.181
  168DOPC  C31620475   2.397   0.208  15.023
  168DOPC  H16X20476   2.506   0.214  15.005
  168DOPC  H16Y20477   2.367   0.101  15.010
  168DOPC  C31720478   2.326   0.293  14.916
  168DOPC  H17X20479   2.358   0.256  14.816
  168DOPC  H17Y20480   2.216   0.277  14.923
  168DOPC  C31820481   2.355   0.443  14.924
  168DOPC  H18X20482   2.464   0.462  14.921
  168DOPC  H18Y20483   2.308   0.496  14.838
  168DOPC  H18Z20484   2.314   0.486  15.018
  169DOPC     N20485   0.744   1.322  17.034
  169DOPC   C1220486   0.674   1.455  17.008
  169DOPC  H12A20487   0.671   1.472  16.902
  169DOPC  H12B20488   0.734   1.534  17.052
  169DOPC   C1320489   0.690   1.217  16.942
  169DOPC  H13A20490   0.733   1.119  16.960
  169DOPC  H13B20491   0.583   1.209  16.952
  169DOPC  H13C20492   0.705   1.243  16.838
  169DOPC   C1420493   0.719   1.278  17.176
  169DOPC  H14A20494   0.768   1.185  17.198
  169DOPC  H14B20495   0.753   1.353  17.246
  169DOPC  H14C20496   0.613   1.265  17.192
  169DOPC   C1520497   0.891   1.336  17.011
  169DOPC  H15A20498   0.913   1.359  16.908
  169DOPC  H15B20499   0.944   1.244  17.033
  169DOPC  H15C20500   0.932   1.414  17.073
  169DOPC   C1120501   0.528   1.474  17.058
  169DOPC  H11A20502   0.527   1.473  17.169
  169DOPC  H11B20503   0.492   1.575  17.028
  169DOPC     P20504   0.391   1.371  16.859
  169DOPC   O1320505   0.254   1.424  16.853
  169DOPC   O1420506   0.417   1.234  16.809
  169DOPC   O1220507   0.440   1.373  17.010
  169DOPC   O1120508   0.491   1.472  16.787
  169DOPC    C120509   0.453   1.519  16.657
  169DOPC    HA20510   0.357   1.574  16.663
  169DOPC    HB20511   0.442   1.435  16.585
  169DOPC    C220512   0.561   1.615  16.602
  169DOPC    HS20513   0.580   1.693  16.679
  169DOPC   O2120514   0.517   1.674  16.479
  169DOPC   C2120515   0.431   1.773  16.489
  169DOPC   O2220516   0.394   1.827  16.591
  169DOPC   C2220517   0.385   1.810  16.348
  169DOPC   H2R20518   0.293   1.872  16.355
  169DOPC   H2S20519   0.360   1.715  16.295
  169DOPC    C320520   0.697   1.542  16.577
  169DOPC    HX20521   0.718   1.480  16.667
  169DOPC    HY20522   0.778   1.618  16.571
  169DOPC   O3120523   0.691   1.456  16.461
  169DOPC   C3120524   0.732   1.511  16.347
  169DOPC   O3220525   0.786   1.620  16.337
  169DOPC   C3220526   0.698   1.421  16.229
  169DOPC   H2X20527   0.614   1.354  16.257
  169DOPC   H2Y20528   0.662   1.488  16.148
  169DOPC   C2320529   0.496   1.886  16.271
  169DOPC   H3R20530   0.596   1.844  16.295
  169DOPC   H3S20531   0.495   1.992  16.305
  169DOPC   C2420532   0.479   1.880  16.119
  169DOPC   H4R20533   0.545   1.957  16.073
  169DOPC   H4S20534   0.374   1.904  16.091
  169DOPC   C2520535   0.521   1.744  16.060
  169DOPC   H5R20536   0.453   1.663  16.096
  169DOPC   H5S20537   0.623   1.720  16.097
  169DOPC   C2620538   0.524   1.743  15.906
  169DOPC   H6R20539   0.578   1.652  15.871
  169DOPC   H6S20540   0.583   1.831  15.873
  169DOPC   C2720541   0.385   1.744  15.842
  169DOPC   H7R20542   0.320   1.818  15.893
  169DOPC   H7S20543   0.338   1.644  15.857
  169DOPC   C2820544   0.388   1.775  15.691
  169DOPC   H8R20545   0.285   1.760  15.650
  169DOPC   H8S20546   0.454   1.701  15.641
  169DOPC   C2920547   0.432   1.917  15.667
  169DOPC   H9R20548   0.381   1.991  15.731
  169DOPC  C21020549   0.523   1.961  15.579
  169DOPC  H10R20550   0.546   2.068  15.574
  169DOPC  C21120551   0.603   1.876  15.482
  169DOPC  H11R20552   0.613   1.930  15.386
  169DOPC  H11S20553   0.551   1.781  15.460
  169DOPC  C21220554   0.745   1.845  15.535
  169DOPC  H12R20555   0.737   1.773  15.619
  169DOPC  H12S20556   0.792   1.938  15.574
  169DOPC  C21320557   0.838   1.787  15.427
  169DOPC  H13R20558   0.939   1.772  15.471
  169DOPC  H13S20559   0.848   1.862  15.345
  169DOPC  C21420560   0.790   1.655  15.366
  169DOPC  H14R20561   0.686   1.669  15.330
  169DOPC  H14S20562   0.789   1.576  15.444
  169DOPC  C21520563   0.874   1.608  15.245
  169DOPC  H15R20564   0.874   1.690  15.169
  169DOPC  H15S20565   0.824   1.520  15.199
  169DOPC  C21620566   1.018   1.570  15.281
  169DOPC  H16R20567   1.015   1.491  15.360
  169DOPC  H16S20568   1.071   1.658  15.323
  169DOPC  C21720569   1.098   1.517  15.161
  169DOPC  H17R20570   1.046   1.429  15.119
  169DOPC  H17S20571   1.197   1.481  15.198
  169DOPC  C21820572   1.121   1.620  15.050
  169DOPC  H18R20573   1.173   1.710  15.091
  169DOPC  H18S20574   1.025   1.652  15.005
  169DOPC  H18T20575   1.184   1.577  14.969
  169DOPC   C3320576   0.820   1.341  16.177
  169DOPC   H3X20577   0.906   1.411  16.161
  169DOPC   H3Y20578   0.795   1.298  16.078
  169DOPC   C3420579   0.865   1.227  16.270
  169DOPC   H4X20580   0.887   1.271  16.370
  169DOPC   H4Y20581   0.960   1.183  16.233
  169DOPC   C3520582   0.763   1.113  16.290
  169DOPC   H5X20583   0.660   1.152  16.300
  169DOPC   H5Y20584   0.788   1.065  16.387
  169DOPC   C3620585   0.769   1.000  16.185
  169DOPC   H6X20586   0.874   0.967  16.173
  169DOPC   H6Y20587   0.712   0.915  16.225
  169DOPC   C3720588   0.711   1.032  16.045
  169DOPC   H7X20589   0.778   1.101  15.990
  169DOPC   H7Y20590   0.711   0.936  15.989
  169DOPC   C3820591   0.568   1.091  16.048
  169DOPC   H8X20592   0.576   1.201  16.060
  169DOPC   H8Y20593   0.517   1.053  16.139
  169DOPC   C3920594   0.486   1.052  15.928
  169DOPC   H9X20595   0.448   0.949  15.931
  169DOPC  C31020596   0.456   1.127  15.820
  169DOPC  H10X20597   0.394   1.081  15.741
  169DOPC  C31120598   0.496   1.269  15.790
  169DOPC  H11X20599   0.541   1.319  15.879
  169DOPC  H11Y20600   0.407   1.328  15.763
  169DOPC  C31220601   0.599   1.279  15.674
  169DOPC  H12X20602   0.696   1.241  15.711
  169DOPC  H12Y20603   0.612   1.386  15.649
  169DOPC  C31320604   0.562   1.201  15.546
  169DOPC  H13X20605   0.644   1.214  15.471
  169DOPC  H13Y20606   0.559   1.093  15.570
  169DOPC  C31420607   0.428   1.239  15.481
  169DOPC  H14X20608   0.399   1.159  15.410
  169DOPC  H14Y20609   0.349   1.243  15.559
  169DOPC  C31520610   0.428   1.372  15.404
  169DOPC  H15X20611   0.462   1.455  15.470
  169DOPC  H15Y20612   0.323   1.394  15.374
  169DOPC  C31620613   0.515   1.368  15.277
  169DOPC  H16X20614   0.622   1.363  15.307
  169DOPC  H16Y20615   0.492   1.275  15.220
  169DOPC  C31720616   0.496   1.488  15.183
  169DOPC  H17X20617   0.511   1.582  15.241
  169DOPC  H17Y20618   0.575   1.485  15.105
  169DOPC  C31820619   0.360   1.494  15.113
  169DOPC  H18X20620   0.342   1.400  15.056
  169DOPC  H18Y20621   0.278   1.505  15.188
  169DOPC  H18Z20622   0.356   1.579  15.043
  170DOPC     N20623   8.346   8.404  16.900
  170DOPC   C1220624   8.248   8.313  16.973
  170DOPC  H12A20625   8.218   8.363  17.065
  170DOPC  H12B20626   8.300   8.223  17.002
  170DOPC   C1320627   8.466   8.430  16.987
  170DOPC  H13A20628   8.537   8.494  16.937
  170DOPC  H13B20629   8.439   8.476  17.080
  170DOPC  H13C20630   8.517   8.337  17.009
  170DOPC   C1420631   8.279   8.534  16.867
  170DOPC  H14A20632   8.190   8.513  16.809
  170DOPC  H14B20633   8.245   8.581  16.958
  170DOPC  H14C20634   8.344   8.601  16.813
  170DOPC   C1520635   8.393   8.337  16.774
  170DOPC  H15A20636   8.462   8.400  16.719
  170DOPC  H15B20637   8.309   8.312  16.711
  170DOPC  H15C20638   8.447   8.247  16.797
  170DOPC   C1120639   8.118   8.273  16.899
  170DOPC  H11A20640   8.145   8.226  16.801
  170DOPC  H11B20641   8.067   8.193  16.957
  170DOPC     P20642   7.953   8.445  16.998
  170DOPC   O1320643   8.046   8.522  17.083
  170DOPC   O1420644   7.876   8.335  17.063
  170DOPC   O1220645   8.032   8.384  16.875
  170DOPC   O1120646   7.850   8.541  16.928
  170DOPC    C120647   7.891   8.640  16.832
  170DOPC    HA20648   8.000   8.637  16.808
  170DOPC    HB20649   7.870   8.740  16.875
  170DOPC    C220650   7.813   8.627  16.698
  170DOPC    HS20651   7.705   8.619  16.723
  170DOPC   O2120652   7.861   8.513  16.624
  170DOPC   C2120653   7.803   8.398  16.655
  170DOPC   O2220654   7.703   8.386  16.724
  170DOPC   C2220655   7.883   8.282  16.596
  170DOPC   H2R20656   7.891   8.206  16.676
  170DOPC   H2S20657   7.985   8.317  16.570
  170DOPC    C320658   7.827   8.754  16.610
  170DOPC    HX20659   7.800   8.842  16.672
  170DOPC    HY20660   7.752   8.749  16.528
  170DOPC   O3120661   7.963   8.771  16.562
  170DOPC   C3120662   7.984   8.735  16.436
  170DOPC   O3220663   7.899   8.702  16.356
  170DOPC   C3220664   8.134   8.740  16.406
  170DOPC   H2X20665   8.184   8.671  16.478
  170DOPC   H2Y20666   8.150   8.702  16.303
  170DOPC   C2320667   7.813   8.220  16.473
  170DOPC   H3R20668   7.706   8.201  16.494
  170DOPC   H3S20669   7.861   8.122  16.451
  170DOPC   C2420670   7.827   8.308  16.347
  170DOPC   H4R20671   7.935   8.324  16.326
  170DOPC   H4S20672   7.782   8.407  16.366
  170DOPC   C2520673   7.761   8.244  16.224
  170DOPC   H5R20674   7.652   8.235  16.243
  170DOPC   H5S20675   7.802   8.142  16.210
  170DOPC   C2620676   7.782   8.324  16.094
  170DOPC   H6R20677   7.729   8.272  16.012
  170DOPC   H6S20678   7.890   8.325  16.069
  170DOPC   C2720679   7.731   8.469  16.103
  170DOPC   H7R20680   7.796   8.528  16.171
  170DOPC   H7S20681   7.629   8.468  16.147
  170DOPC   C2820682   7.723   8.541  15.967
  170DOPC   H8R20683   7.679   8.641  15.984
  170DOPC   H8S20684   7.651   8.486  15.902
  170DOPC   C2920685   7.856   8.551  15.897
  170DOPC   H9R20686   7.888   8.461  15.843
  170DOPC  C21020687   7.937   8.659  15.897
  170DOPC  H10R20688   8.031   8.655  15.840
  170DOPC  C21120689   7.911   8.790  15.967
  170DOPC  H11R20690   8.007   8.840  15.991
  170DOPC  H11S20691   7.860   8.773  16.064
  170DOPC  C21220692   7.824   8.888  15.884
  170DOPC  H12R20693   7.815   8.983  15.941
  170DOPC  H12S20694   7.722   8.846  15.874
  170DOPC  C21320695   7.876   8.919  15.743
  170DOPC  H13R20696   7.807   8.992  15.696
  170DOPC  H13S20697   7.874   8.826  15.682
  170DOPC  C21420698   8.018   8.978  15.741
  170DOPC  H14R20699   8.089   8.904  15.783
  170DOPC  H14S20700   8.020   9.068  15.806
  170DOPC  C21520701   8.066   9.020  15.600
  170DOPC  H15R20702   8.165   9.068  15.610
  170DOPC  H15S20703   7.996   9.096  15.559
  170DOPC  C21620704   8.077   8.903  15.500
  170DOPC  H16R20705   7.980   8.851  15.493
  170DOPC  H16S20706   8.152   8.830  15.537
  170DOPC  C21720707   8.118   8.948  15.359
  170DOPC  H17R20708   8.041   9.018  15.320
  170DOPC  H17S20709   8.117   8.858  15.293
  170DOPC  C21820710   8.255   9.015  15.349
  170DOPC  H18R20711   8.280   9.037  15.244
  170DOPC  H18S20712   8.334   8.948  15.391
  170DOPC  H18T20713   8.257   9.110  15.407
  170DOPC   C3320714   8.194   8.882  16.421
  170DOPC   H3X20715   8.153   8.931  16.512
  170DOPC   H3Y20716   8.164   8.945  16.334
  170DOPC   C3420717   8.347   8.882  16.436
  170DOPC   H4X20718   8.374   8.822  16.525
  170DOPC   H4Y20719   8.381   8.986  16.455
  170DOPC   C3520720   8.424   8.827  16.315
  170DOPC   H5X20721   8.393   8.722  16.293
  170DOPC   H5Y20722   8.532   8.825  16.341
  170DOPC   C3620723   8.408   8.912  16.188
  170DOPC   H6X20724   8.306   8.900  16.146
  170DOPC   H6Y20725   8.421   9.019  16.214
  170DOPC   C3720726   8.512   8.876  16.080
  170DOPC   H7X20727   8.613   8.886  16.126
  170DOPC   H7Y20728   8.500   8.770  16.050
  170DOPC   C3820729   8.508   8.968  15.956
  170DOPC   H8X20730   8.601   8.951  15.898
  170DOPC   H8Y20731   8.512   9.074  15.990
  170DOPC   C3920732   8.387   8.945  15.870
  170DOPC   H9X20733   8.298   9.005  15.897
  170DOPC  C31020734   8.378   8.860  15.766
  170DOPC  H10X20735   8.284   8.855  15.709
  170DOPC  C31120736   8.487   8.769  15.714
  170DOPC  H11X20737   8.578   8.774  15.778
  170DOPC  H11Y20738   8.518   8.802  15.612
  170DOPC  C31220739   8.445   8.621  15.707
  170DOPC  H12X20740   8.415   8.585  15.808
  170DOPC  H12Y20741   8.533   8.562  15.676
  170DOPC  C31320742   8.332   8.594  15.607
  170DOPC  H13X20743   8.237   8.640  15.643
  170DOPC  H13Y20744   8.358   8.641  15.510
  170DOPC  C31420745   8.307   8.443  15.585
  170DOPC  H14X20746   8.399   8.398  15.543
  170DOPC  H14Y20747   8.288   8.396  15.684
  170DOPC  C31520748   8.189   8.412  15.492
  170DOPC  H15X20749   8.096   8.452  15.536
  170DOPC  H15Y20750   8.178   8.301  15.486
  170DOPC  C31620751   8.206   8.468  15.350
  170DOPC  H16X20752   8.209   8.579  15.355
  170DOPC  H16Y20753   8.302   8.434  15.307
  170DOPC  C31720754   8.092   8.429  15.254
  170DOPC  H17X20755   7.995   8.458  15.299
  170DOPC  H17Y20756   8.104   8.487  15.160
  170DOPC  C31820757   8.089   8.280  15.217
  170DOPC  H18X20758   8.008   8.259  15.144
  170DOPC  H18Y20759   8.185   8.249  15.172
  170DOPC  H18Z20760   8.071   8.217  15.307
  171DOPC     N20761   4.779   3.519  12.989
  171DOPC   C1220762   4.704   3.614  13.081
  171DOPC  H12A20763   4.774   3.683  13.124
  171DOPC  H12B20764   4.661   3.558  13.163
  171DOPC   C1320765   4.689   3.414  12.930
  171DOPC  H13A20766   4.649   3.349  13.007
  171DOPC  H13B20767   4.609   3.461  12.876
  171DOPC  H13C20768   4.746   3.355  12.860
  171DOPC   C1420769   4.893   3.454  13.060
  171DOPC  H14A20770   4.861   3.401  13.149
  171DOPC  H14B20771   4.942   3.382  12.995
  171DOPC  H14C20772   4.967   3.528  13.087
  171DOPC   C1520773   4.837   3.595  12.873
  171DOPC  H15A20774   4.881   3.529  12.800
  171DOPC  H15B20775   4.911   3.666  12.907
  171DOPC  H15C20776   4.760   3.655  12.827
  171DOPC   C1120777   4.593   3.702  13.018
  171DOPC  H11A20778   4.524   3.639  12.957
  171DOPC  H11B20779   4.531   3.748  13.098
  171DOPC     P20780   4.742   3.916  12.996
  171DOPC   O1320781   4.702   4.049  12.945
  171DOPC   O1420782   4.882   3.875  12.976
  171DOPC   O1220783   4.648   3.804  12.934
  171DOPC   O1120784   4.712   3.905  13.151
  171DOPC    C120785   4.758   4.009  13.239
  171DOPC    HA20786   4.694   4.007  13.330
  171DOPC    HB20787   4.746   4.110  13.194
  171DOPC    C220788   4.905   3.989  13.285
  171DOPC    HS20789   4.968   3.985  13.193
  171DOPC   O2120790   4.914   3.864  13.356
  171DOPC   C2120791   5.037   3.818  13.372
  171DOPC   O2220792   5.139   3.870  13.331
  171DOPC   C2220793   5.035   3.686  13.450
  171DOPC   H2R20794   5.122   3.690  13.520
  171DOPC   H2S20795   5.051   3.604  13.378
  171DOPC    C320796   4.953   4.110  13.371
  171DOPC    HX20797   4.962   4.196  13.302
  171DOPC    HY20798   5.056   4.092  13.411
  171DOPC   O3120799   4.859   4.145  13.474
  171DOPC   C3120800   4.873   4.085  13.591
  171DOPC   O3220801   4.961   4.007  13.622
  171DOPC   C3220802   4.763   4.135  13.686
  171DOPC   H2X20803   4.789   4.102  13.789
  171DOPC   H2Y20804   4.766   4.246  13.683
  171DOPC   C2320805   4.907   3.661  13.532
  171DOPC   H3R20806   4.820   3.645  13.464
  171DOPC   H3S20807   4.884   3.752  13.593
  171DOPC   C2420808   4.921   3.542  13.628
  171DOPC   H4R20809   5.007   3.561  13.695
  171DOPC   H4S20810   4.942   3.449  13.571
  171DOPC   C2520811   4.796   3.523  13.715
  171DOPC   H5R20812   4.711   3.489  13.652
  171DOPC   H5S20813   4.768   3.622  13.757
  171DOPC   C2620814   4.818   3.423  13.830
  171DOPC   H6R20815   4.908   3.453  13.888
  171DOPC   H6S20816   4.838   3.323  13.786
  171DOPC   C2720817   4.697   3.413  13.926
  171DOPC   H7R20818   4.711   3.325  13.992
  171DOPC   H7S20819   4.606   3.394  13.865
  171DOPC   C2820820   4.673   3.539  14.012
  171DOPC   H8R20821   4.574   3.527  14.062
  171DOPC   H8S20822   4.662   3.627  13.946
  171DOPC   C2920823   4.779   3.560  14.118
  171DOPC   H9R20824   4.775   3.487  14.200
  171DOPC  C21020825   4.874   3.656  14.120
  171DOPC  H10R20826   4.943   3.658  14.206
  171DOPC  C21120827   4.898   3.764  14.018
  171DOPC  H11R20828   4.848   3.741  13.922
  171DOPC  H11S20829   5.007   3.770  13.996
  171DOPC  C21220830   4.850   3.903  14.063
  171DOPC  H12R20831   4.739   3.903  14.074
  171DOPC  H12S20832   4.875   3.976  13.983
  171DOPC  C21320833   4.914   3.952  14.194
  171DOPC  H13R20834   5.024   3.938  14.189
  171DOPC  H13S20835   4.875   3.890  14.278
  171DOPC  C21420836   4.885   4.100  14.223
  171DOPC  H14R20837   4.776   4.120  14.215
  171DOPC  H14S20838   4.935   4.161  14.144
  171DOPC  C21520839   4.934   4.147  14.361
  171DOPC  H15R20840   4.934   4.258  14.363
  171DOPC  H15S20841   5.038   4.112  14.377
  171DOPC  C21620842   4.843   4.098  14.475
  171DOPC  H16R20843   4.844   3.987  14.479
  171DOPC  H16S20844   4.739   4.130  14.454
  171DOPC  C21720845   4.884   4.152  14.613
  171DOPC  H17R20846   4.806   4.122  14.687
  171DOPC  H17S20847   4.884   4.263  14.609
  171DOPC  C21820848   5.020   4.102  14.663
  171DOPC  H18R20849   5.021   3.992  14.668
  171DOPC  H18S20850   5.042   4.143  14.764
  171DOPC  H18T20851   5.101   4.135  14.594
  171DOPC   C3320852   4.621   4.087  13.647
  171DOPC   H3X20853   4.607   3.982  13.680
  171DOPC   H3Y20854   4.610   4.089  13.537
  171DOPC   C3420855   4.509   4.176  13.705
  171DOPC   H4X20856   4.410   4.137  13.672
  171DOPC   H4Y20857   4.520   4.277  13.661
  171DOPC   C3520858   4.509   4.190  13.858
  171DOPC   H5X20859   4.439   4.272  13.886
  171DOPC   H5Y20860   4.610   4.220  13.893
  171DOPC   C3620861   4.465   4.063  13.932
  171DOPC   H6X20862   4.358   4.043  13.912
  171DOPC   H6Y20863   4.524   3.976  13.894
  171DOPC   C3720864   4.488   4.074  14.084
  171DOPC   H7X20865   4.597   4.091  14.099
  171DOPC   H7Y20866   4.434   4.162  14.124
  171DOPC   C3820867   4.445   3.947  14.161
  171DOPC   H8X20868   4.473   3.858  14.101
  171DOPC   H8Y20869   4.334   3.947  14.168
  171DOPC   C3920870   4.510   3.938  14.296
  171DOPC   H9X20871   4.610   3.892  14.295
  171DOPC  C31020872   4.461   3.981  14.414
  171DOPC  H10X20873   4.523   3.967  14.504
  171DOPC  C31120874   4.329   4.050  14.439
  171DOPC  H11X20875   4.266   4.055  14.348
  171DOPC  H11Y20876   4.349   4.154  14.470
  171DOPC  C31220877   4.248   3.983  14.552
  171DOPC  H12X20878   4.315   3.965  14.639
  171DOPC  H12Y20879   4.211   3.884  14.517
  171DOPC  C31320880   4.130   4.069  14.598
  171DOPC  H13X20881   4.169   4.167  14.634
  171DOPC  H13Y20882   4.065   4.090  14.510
  171DOPC  C31420883   4.043   4.006  14.708
  171DOPC  H14X20884   3.966   4.080  14.739
  171DOPC  H14Y20885   3.989   3.919  14.665
  171DOPC  C31520886   4.120   3.959  14.833
  171DOPC  H15X20887   4.190   3.877  14.803
  171DOPC  H15Y20888   4.047   3.915  14.904
  171DOPC  C31620889   4.197   4.070  14.904
  171DOPC  H16X20890   4.273   4.113  14.835
  171DOPC  H16Y20891   4.126   4.151  14.931
  171DOPC  C31720892   4.269   4.023  15.032
  171DOPC  H17X20893   4.312   4.112  15.083
  171DOPC  H17Y20894   4.193   3.979  15.101
  171DOPC  C31820895   4.381   3.921  15.009
  171DOPC  H18X20896   4.456   3.962  14.938
  171DOPC  H18Y20897   4.431   3.896  15.104
  171DOPC  H18Z20898   4.340   3.827  14.965
  172DOPC     N20899   3.831   5.345  12.988
  172DOPC   C1220900   3.775   5.333  13.130
  172DOPC  H12A20901   3.783   5.428  13.180
  172DOPC  H12B20902   3.837   5.265  13.188
  172DOPC   C1320903   3.802   5.220  12.910
  172DOPC  H13A20904   3.848   5.133  12.955
  172DOPC  H13B20905   3.695   5.204  12.908
  172DOPC  H13C20906   3.836   5.228  12.808
  172DOPC   C1420907   3.979   5.369  12.992
  172DOPC  H14A20908   4.031   5.286  13.038
  172DOPC  H14B20909   4.018   5.383  12.892
  172DOPC  H14C20910   4.001   5.458  13.050
  172DOPC   C1520911   3.764   5.460  12.920
  172DOPC  H15A20912   3.780   5.552  12.973
  172DOPC  H15B20913   3.657   5.445  12.923
  172DOPC  H15C20914   3.795   5.471  12.817
  172DOPC   C1120915   3.627   5.289  13.146
  172DOPC  H11A20916   3.614   5.186  13.106
  172DOPC  H11B20917   3.603   5.283  13.255
  172DOPC     P20918   3.498   5.516  13.144
  172DOPC   O1320919   3.402   5.494  13.254
  172DOPC   O1420920   3.459   5.607  13.034
  172DOPC   O1220921   3.538   5.377  13.079
  172DOPC   O1120922   3.637   5.566  13.203
  172DOPC    C120923   3.652   5.704  13.235
  172DOPC    HA20924   3.569   5.740  13.299
  172DOPC    HB20925   3.653   5.765  13.142
  172DOPC    C220926   3.784   5.730  13.312
  172DOPC    HS20927   3.869   5.687  13.255
  172DOPC   O2120928   3.775   5.673  13.444
  172DOPC   C2120929   3.812   5.548  13.458
  172DOPC   O2220930   3.866   5.478  13.373
  172DOPC   C2220931   3.779   5.504  13.601
  172DOPC   H2R20932   3.804   5.397  13.612
  172DOPC   H2S20933   3.669   5.517  13.613
  172DOPC    C320934   3.811   5.883  13.327
  172DOPC    HX20935   3.824   5.925  13.225
  172DOPC    HY20936   3.908   5.899  13.380
  172DOPC   O3120937   3.700   5.949  13.391
  172DOPC   C3120938   3.707   5.955  13.524
  172DOPC   O3220939   3.808   5.937  13.591
  172DOPC   C3220940   3.569   5.988  13.581
  172DOPC   H2X20941   3.569   6.095  13.612
  172DOPC   H2Y20942   3.494   5.974  13.501
  172DOPC   C2320943   3.852   5.588  13.709
  172DOPC   H3R20944   3.856   5.694  13.676
  172DOPC   H3S20945   3.957   5.553  13.719
  172DOPC   C2420946   3.782   5.589  13.846
  172DOPC   H4R20947   3.676   5.618  13.831
  172DOPC   H4S20948   3.828   5.669  13.909
  172DOPC   C2520949   3.787   5.456  13.924
  172DOPC   H5R20950   3.743   5.376  13.860
  172DOPC   H5S20951   3.723   5.466  14.013
  172DOPC   C2620952   3.928   5.412  13.970
  172DOPC   H6R20953   3.989   5.389  13.880
  172DOPC   H6S20954   3.917   5.317  14.026
  172DOPC   C2720955   4.005   5.513  14.057
  172DOPC   H7R20956   4.031   5.601  13.994
  172DOPC   H7S20957   4.101   5.467  14.088
  172DOPC   C2820958   3.931   5.565  14.182
  172DOPC   H8R20959   3.839   5.617  14.149
  172DOPC   H8S20960   3.995   5.643  14.229
  172DOPC   C2920961   3.895   5.456  14.280
  172DOPC   H9R20962   3.841   5.371  14.236
  172DOPC  C21020963   3.920   5.453  14.413
  172DOPC  H10R20964   3.885   5.366  14.470
  172DOPC  C21120965   3.990   5.557  14.497
  172DOPC  H11R20966   4.049   5.627  14.433
  172DOPC  H11S20967   4.064   5.508  14.564
  172DOPC  C21220968   3.894   5.642  14.582
  172DOPC  H12R20969   3.828   5.701  14.514
  172DOPC  H12S20970   3.953   5.715  14.641
  172DOPC  C21320971   3.803   5.563  14.679
  172DOPC  H13R20972   3.737   5.496  14.619
  172DOPC  H13S20973   3.737   5.634  14.732
  172DOPC  C21420974   3.878   5.476  14.783
  172DOPC  H14R20975   3.946   5.407  14.730
  172DOPC  H14S20976   3.803   5.414  14.837
  172DOPC  C21520977   3.959   5.555  14.888
  172DOPC  H15R20978   4.029   5.624  14.837
  172DOPC  H15S20979   4.019   5.483  14.946
  172DOPC  C21620980   3.871   5.635  14.986
  172DOPC  H16R20981   3.796   5.566  15.031
  172DOPC  H16S20982   3.816   5.714  14.931
  172DOPC  C21720983   3.952   5.700  15.099
  172DOPC  H17R20984   4.024   5.772  15.054
  172DOPC  H17S20985   4.012   5.621  15.150
  172DOPC  C21820986   3.866   5.772  15.202
  172DOPC  H18R20987   3.796   5.700  15.251
  172DOPC  H18S20988   3.805   5.852  15.154
  172DOPC  H18T20989   3.929   5.818  15.281
  172DOPC   C3320990   3.533   5.898  13.702
  172DOPC   H3X20991   3.597   5.924  13.789
  172DOPC   H3Y20992   3.553   5.791  13.676
  172DOPC   C3420993   3.385   5.911  13.739
  172DOPC   H4X20994   3.324   5.880  13.651
  172DOPC   H4Y20995   3.361   6.017  13.760
  172DOPC   C3520996   3.342   5.824  13.859
  172DOPC   H5X20997   3.376   5.720  13.843
  172DOPC   H5Y20998   3.231   5.823  13.862
  172DOPC   C3620999   3.393   5.876  13.994
  172DOPC   H6X21000   3.503   5.871  13.998
  172DOPC   H6Y21001   3.364   5.983  14.003
  172DOPC   C3721002   3.331   5.802  14.115
  172DOPC   H7X21003   3.348   5.862  14.207
  172DOPC   H7Y21004   3.222   5.796  14.100
  172DOPC   C3821005   3.386   5.659  14.137
  172DOPC   H8X21006   3.377   5.602  14.043
  172DOPC   H8Y21007   3.318   5.609  14.210
  172DOPC   C3921008   3.529   5.659  14.186
  172DOPC   H9X21009   3.603   5.685  14.109
  172DOPC  C31021010   3.572   5.634  14.311
  172DOPC  H10X21011   3.680   5.640  14.331
  172DOPC  C31121012   3.489   5.599  14.432
  172DOPC  H11X21013   3.537   5.516  14.488
  172DOPC  H11Y21014   3.387   5.563  14.403
  172DOPC  C31221015   3.472   5.719  14.526
  172DOPC  H12X21016   3.423   5.802  14.471
  172DOPC  H12Y21017   3.572   5.755  14.559
  172DOPC  C31321018   3.386   5.686  14.650
  172DOPC  H13X21019   3.293   5.637  14.615
  172DOPC  H13Y21020   3.440   5.614  14.714
  172DOPC  C31421021   3.346   5.810  14.731
  172DOPC  H14X21022   3.294   5.880  14.663
  172DOPC  H14Y21023   3.273   5.781  14.810
  172DOPC  C31521024   3.463   5.886  14.797
  172DOPC  H15X21025   3.425   5.981  14.839
  172DOPC  H15Y21026   3.538   5.912  14.719
  172DOPC  C31621027   3.535   5.808  14.910
  172DOPC  H16X21028   3.574   5.713  14.868
  172DOPC  H16Y21029   3.622   5.868  14.943
  172DOPC  C31721030   3.449   5.777  15.033
  172DOPC  H17X21031   3.364   5.711  15.003
  172DOPC  H17Y21032   3.511   5.718  15.104
  172DOPC  C31821033   3.394   5.900  15.106
  172DOPC  H18X21034   3.339   5.870  15.198
  172DOPC  H18Y21035   3.477   5.967  15.136
  172DOPC  H18Z21036   3.324   5.956  15.041
  173DOPC     N21037   2.595   3.645  12.905
  173DOPC   C1221038   2.654   3.692  13.038
  173DOPC  H12A21039   2.726   3.770  13.019
  173DOPC  H12B21040   2.708   3.609  13.083
  173DOPC   C1321041   2.698   3.575  12.821
  173DOPC  H13A21042   2.657   3.549  12.724
  173DOPC  H13B21043   2.785   3.637  12.804
  173DOPC  H13C21044   2.729   3.482  12.867
  173DOPC   C1421045   2.542   3.765  12.832
  173DOPC  H14A21046   2.477   3.820  12.898
  173DOPC  H14B21047   2.622   3.832  12.804
  173DOPC  H14C21048   2.487   3.737  12.743
  173DOPC   C1521049   2.482   3.550  12.930
  173DOPC  H15A21050   2.407   3.598  12.992
  173DOPC  H15B21051   2.517   3.461  12.980
  173DOPC  H15C21052   2.435   3.519  12.837
  173DOPC   C1121053   2.555   3.747  13.145
  173DOPC  H11A21054   2.483   3.668  13.175
  173DOPC  H11B21055   2.614   3.770  13.236
  173DOPC     P21056   2.490   4.003  13.164
  173DOPC   O1321057   2.474   4.107  13.060
  173DOPC   O1421058   2.608   4.012  13.251
  173DOPC   O1221059   2.482   3.860  13.096
  173DOPC   O1121060   2.358   4.011  13.251
  173DOPC    C121061   2.301   3.895  13.312
  173DOPC    HA21062   2.374   3.847  13.381
  173DOPC    HB21063   2.272   3.821  13.235
  173DOPC    C221064   2.174   3.931  13.394
  173DOPC    HS21065   2.103   3.984  13.327
  173DOPC   O2121066   2.211   4.011  13.507
  173DOPC   C2121067   2.221   4.141  13.487
  173DOPC   O2221068   2.190   4.201  13.385
  173DOPC   C2221069   2.276   4.207  13.612
  173DOPC   H2R21070   2.241   4.148  13.699
  173DOPC   H2S21071   2.233   4.309  13.620
  173DOPC    C321072   2.101   3.804  13.445
  173DOPC    HX21073   2.070   3.745  13.356
  173DOPC    HY21074   2.007   3.834  13.496
  173DOPC   O3121075   2.186   3.721  13.528
  173DOPC   C3121076   2.178   3.744  13.659
  173DOPC   O3221077   2.102   3.823  13.713
  173DOPC   C3221078   2.276   3.653  13.732
  173DOPC   H2X21079   2.255   3.548  13.700
  173DOPC   H2Y21080   2.379   3.680  13.698
  173DOPC   C2321081   2.431   4.214  13.612
  173DOPC   H3R21082   2.465   4.310  13.569
  173DOPC   H3S21083   2.473   4.132  13.550
  173DOPC   C2421084   2.485   4.195  13.754
  173DOPC   H4R21085   2.451   4.096  13.790
  173DOPC   H4S21086   2.441   4.272  13.821
  173DOPC   C2521087   2.638   4.201  13.764
  173DOPC   H5R21088   2.671   4.306  13.763
  173DOPC   H5S21089   2.682   4.150  13.676
  173DOPC   C2621090   2.689   4.130  13.891
  173DOPC   H6R21091   2.799   4.144  13.900
  173DOPC   H6S21092   2.671   4.021  13.877
  173DOPC   C2721093   2.620   4.176  14.021
  173DOPC   H7R21094   2.510   4.172  14.009
  173DOPC   H7S21095   2.648   4.282  14.040
  173DOPC   C2821096   2.656   4.091  14.144
  173DOPC   H8R21097   2.607   4.136  14.233
  173DOPC   H8S21098   2.766   4.098  14.162
  173DOPC   C2921099   2.616   3.946  14.128
  173DOPC   H9R21100   2.693   3.883  14.082
  173DOPC  C21021101   2.498   3.890  14.159
  173DOPC  H10R21102   2.485   3.783  14.138
  173DOPC  C21121103   2.377   3.958  14.218
  173DOPC  H11R21104   2.293   3.955  14.145
  173DOPC  H11S21105   2.396   4.065  14.240
  173DOPC  C21221106   2.328   3.890  14.349
  173DOPC  H12R21107   2.238   3.944  14.384
  173DOPC  H12S21108   2.406   3.900  14.427
  173DOPC  C21321109   2.292   3.742  14.331
  173DOPC  H13R21110   2.385   3.684  14.313
  173DOPC  H13S21111   2.227   3.729  14.242
  173DOPC  C21421112   2.221   3.681  14.453
  173DOPC  H14R21113   2.119   3.726  14.462
  173DOPC  H14S21114   2.277   3.708  14.545
  173DOPC  C21521115   2.210   3.528  14.443
  173DOPC  H15R21116   2.313   3.486  14.447
  173DOPC  H15S21117   2.169   3.502  14.343
  173DOPC  C21621118   2.122   3.462  14.550
  173DOPC  H16R21119   2.128   3.352  14.537
  173DOPC  H16S21120   2.017   3.491  14.532
  173DOPC  C21721121   2.159   3.497  14.696
  173DOPC  H17R21122   2.089   3.443  14.763
  173DOPC  H17S21123   2.143   3.606  14.712
  173DOPC  C21821124   2.303   3.461  14.734
  173DOPC  H18R21125   2.375   3.522  14.676
  173DOPC  H18S21126   2.323   3.354  14.714
  173DOPC  H18T21127   2.320   3.480  14.843
  173DOPC   C3321128   2.266   3.666  13.886
  173DOPC   H3X21129   2.162   3.642  13.918
  173DOPC   H3Y21130   2.285   3.772  13.914
  173DOPC   C3421131   2.364   3.576  13.962
  173DOPC   H4X21132   2.357   3.603  14.070
  173DOPC   H4Y21133   2.467   3.597  13.929
  173DOPC   C3521134   2.335   3.426  13.948
  173DOPC   H5X21135   2.343   3.398  13.840
  173DOPC   H5Y21136   2.231   3.405  13.981
  173DOPC   C3621137   2.432   3.336  14.027
  173DOPC   H6X21138   2.412   3.230  14.000
  173DOPC   H6Y21139   2.536   3.360  13.997
  173DOPC   C3721140   2.419   3.350  14.180
  173DOPC   H7X21141   2.442   3.454  14.210
  173DOPC   H7Y21142   2.313   3.329  14.209
  173DOPC   C3821143   2.512   3.253  14.255
  173DOPC   H8X21144   2.616   3.273  14.221
  173DOPC   H8Y21145   2.489   3.149  14.224
  173DOPC   C3921146   2.501   3.265  14.405
  173DOPC   H9X21147   2.425   3.200  14.451
  173DOPC  C31021148   2.572   3.347  14.484
  173DOPC  H10X21149   2.554   3.345  14.593
  173DOPC  C31121150   2.678   3.445  14.439
  173DOPC  H11X21151   2.678   3.456  14.329
  173DOPC  H11Y21152   2.779   3.409  14.468
  173DOPC  C31221153   2.657   3.586  14.499
  173DOPC  H12X21154   2.553   3.621  14.480
  173DOPC  H12Y21155   2.725   3.656  14.446
  173DOPC  C31321156   2.688   3.594  14.650
  173DOPC  H13X21157   2.619   3.528  14.705
  173DOPC  H13Y21158   2.792   3.558  14.667
  173DOPC  C31421159   2.676   3.737  14.705
  173DOPC  H14X21160   2.738   3.805  14.641
  173DOPC  H14Y21161   2.571   3.771  14.697
  173DOPC  C31521162   2.725   3.751  14.850
  173DOPC  H15X21163   2.720   3.858  14.880
  173DOPC  H15Y21164   2.831   3.720  14.854
  173DOPC  C31621165   2.646   3.667  14.953
  173DOPC  H16X21166   2.655   3.559  14.926
  173DOPC  H16Y21167   2.695   3.680  15.052
  173DOPC  C31721168   2.497   3.703  14.967
  173DOPC  H17X21169   2.447   3.689  14.869
  173DOPC  H17Y21170   2.451   3.631  15.038
  173DOPC  C31821171   2.471   3.845  15.017
  173DOPC  H18X21172   2.523   3.863  15.114
  173DOPC  H18Y21173   2.508   3.920  14.943
  173DOPC  H18Z21174   2.362   3.862  15.031
  174DOPC     N21175   5.898   2.975  12.943
  174DOPC   C1221176   5.963   2.858  12.870
  174DOPC  H12A21177   6.066   2.881  12.851
  174DOPC  H12B21178   5.919   2.847  12.772
  174DOPC   C1321179   5.851   3.078  12.844
  174DOPC  H13A21180   5.808   3.164  12.893
  174DOPC  H13B21181   5.933   3.116  12.785
  174DOPC  H13C21182   5.779   3.037  12.775
  174DOPC   C1421183   5.999   3.039  13.033
  174DOPC  H14A21184   6.045   2.964  13.096
  174DOPC  H14B21185   6.079   3.084  12.976
  174DOPC  H14C21186   5.955   3.115  13.097
  174DOPC   C1521187   5.784   2.926  13.026
  174DOPC  H15A21188   5.822   2.849  13.092
  174DOPC  H15B21189   5.708   2.881  12.965
  174DOPC  H15C21190   5.741   3.005  13.086
  174DOPC   C1121191   5.959   2.719  12.941
  174DOPC  H11A21192   5.854   2.683  12.945
  174DOPC  H11B21193   6.011   2.645  12.877
  174DOPC     P21194   6.169   2.719  13.095
  174DOPC   O1321195   6.216   2.858  13.106
  174DOPC   O1421196   6.229   2.639  12.987
  174DOPC   O1221197   6.011   2.724  13.073
  174DOPC   O1121198   6.184   2.647  13.235
  174DOPC    C121199   6.072   2.609  13.315
  174DOPC    HA21200   6.107   2.542  13.396
  174DOPC    HB21201   5.998   2.551  13.255
  174DOPC    C221202   6.001   2.730  13.382
  174DOPC    HS21203   5.974   2.801  13.301
  174DOPC   O2121204   6.092   2.792  13.475
  174DOPC   C2121205   6.063   2.917  13.505
  174DOPC   O2221206   5.975   2.984  13.454
  174DOPC   C2221207   6.156   2.964  13.617
  174DOPC   H2R21208   6.234   3.028  13.570
  174DOPC   H2S21209   6.206   2.876  13.662
  174DOPC    C321210   5.869   2.688  13.453
  174DOPC    HX21211   5.800   2.646  13.376
  174DOPC    HY21212   5.823   2.780  13.494
  174DOPC   O3121213   5.893   2.589  13.555
  174DOPC   C3121214   5.798   2.580  13.647
  174DOPC   O3221215   5.696   2.647  13.650
  174DOPC   C3221216   5.834   2.474  13.751
  174DOPC   H2X21217   5.756   2.477  13.830
  174DOPC   H2Y21218   5.830   2.375  13.700
  174DOPC   C2321219   6.081   3.043  13.727
  174DOPC   H3R21220   6.040   3.138  13.686
  174DOPC   H3S21221   6.155   3.070  13.806
  174DOPC   C2421222   5.967   2.962  13.791
  174DOPC   H4R21223   6.001   2.858  13.812
  174DOPC   H4S21224   5.883   2.956  13.719
  174DOPC   C2521225   5.915   3.025  13.922
  174DOPC   H5R21226   5.811   2.990  13.938
  174DOPC   H5S21227   5.913   3.135  13.913
  174DOPC   C2621228   5.998   2.983  14.044
  174DOPC   H6R21229   6.104   3.011  14.030
  174DOPC   H6S21230   5.994   2.872  14.052
  174DOPC   C2721231   5.947   3.045  14.175
  174DOPC   H7R21232   5.837   3.030  14.183
  174DOPC   H7S21233   5.964   3.155  14.170
  174DOPC   C2821234   6.016   2.990  14.301
  174DOPC   H8R21235   5.991   3.058  14.386
  174DOPC   H8S21236   6.126   2.997  14.287
  174DOPC   C2921237   5.975   2.847  14.330
  174DOPC   H9R21238   6.011   2.775  14.256
  174DOPC  C21021239   5.903   2.802  14.434
  174DOPC  H10R21240   5.881   2.694  14.439
  174DOPC  C21121241   5.843   2.883  14.548
  174DOPC  H11R21242   5.732   2.879  14.543
  174DOPC  H11S21243   5.871   2.990  14.541
  174DOPC  C21221244   5.890   2.832  14.686
  174DOPC  H12R21245   5.857   2.904  14.764
  174DOPC  H12S21246   6.001   2.830  14.689
  174DOPC  C21321247   5.836   2.693  14.725
  174DOPC  H13R21248   5.891   2.658  14.815
  174DOPC  H13S21249   5.858   2.620  14.644
  174DOPC  C21421250   5.686   2.693  14.757
  174DOPC  H14R21251   5.628   2.735  14.672
  174DOPC  H14S21252   5.669   2.759  14.844
  174DOPC  C21521253   5.630   2.553  14.789
  174DOPC  H15R21254   5.532   2.566  14.840
  174DOPC  H15S21255   5.699   2.502  14.861
  174DOPC  C21621256   5.607   2.466  14.665
  174DOPC  H16R21257   5.704   2.448  14.613
  174DOPC  H16S21258   5.542   2.522  14.595
  174DOPC  C21721259   5.541   2.331  14.696
  174DOPC  H17R21260   5.514   2.283  14.600
  174DOPC  H17S21261   5.446   2.351  14.751
  174DOPC  C21821262   5.627   2.234  14.777
  174DOPC  H18R21263   5.573   2.139  14.794
  174DOPC  H18S21264   5.653   2.278  14.876
  174DOPC  H18T21265   5.721   2.212  14.723
  174DOPC   C3321266   5.974   2.496  13.814
  174DOPC   H3X21267   5.979   2.596  13.860
  174DOPC   H3Y21268   6.051   2.491  13.734
  174DOPC   C3421269   6.007   2.389  13.919
  174DOPC   H4X21270   5.992   2.289  13.874
  174DOPC   H4Y21271   5.936   2.398  14.005
  174DOPC   C3521272   6.151   2.397  13.972
  174DOPC   H5X21273   6.221   2.394  13.885
  174DOPC   H5Y21274   6.172   2.308  14.034
  174DOPC   C3621275   6.180   2.523  14.055
  174DOPC   H6X21276   6.157   2.614  13.995
  174DOPC   H6Y21277   6.114   2.523  14.144
  174DOPC   C3721278   6.327   2.532  14.101
  174DOPC   H7X21279   6.353   2.439  14.156
  174DOPC   H7Y21280   6.392   2.537  14.010
  174DOPC   C3821281   6.353   2.654  14.191
  174DOPC   H8X21282   6.287   2.645  14.280
  174DOPC   H8Y21283   6.319   2.745  14.137
  174DOPC   C3921284   6.498   2.669  14.230
  174DOPC   H9X21285   6.560   2.725  14.159
  174DOPC  C31021286   6.554   2.619  14.341
  174DOPC  H10X21287   6.661   2.638  14.360
  174DOPC  C31121288   6.484   2.537  14.447
  174DOPC  H11X21289   6.555   2.469  14.497
  174DOPC  H11Y21290   6.407   2.472  14.400
  174DOPC  C31221291   6.414   2.624  14.553
  174DOPC  H12X21292   6.343   2.693  14.503
  174DOPC  H12Y21293   6.488   2.686  14.608
  174DOPC  C31321294   6.334   2.539  14.653
  174DOPC  H13X21295   6.275   2.464  14.596
  174DOPC  H13Y21296   6.405   2.482  14.718
  174DOPC  C31421297   6.237   2.620  14.740
  174DOPC  H14X21298   6.167   2.674  14.672
  174DOPC  H14Y21299   6.177   2.550  14.801
  174DOPC  C31521300   6.303   2.722  14.834
  174DOPC  H15X21301   6.223   2.777  14.888
  174DOPC  H15Y21302   6.360   2.797  14.775
  174DOPC  C31621303   6.396   2.658  14.938
  174DOPC  H16X21304   6.342   2.573  14.986
  174DOPC  H16Y21305   6.486   2.617  14.888
  174DOPC  C31721306   6.439   2.756  15.048
  174DOPC  H17X21307   6.494   2.840  15.000
  174DOPC  H17Y21308   6.349   2.798  15.096
  174DOPC  C31821309   6.528   2.692  15.155
  174DOPC  H18X21310   6.621   2.652  15.110
  174DOPC  H18Y21311   6.555   2.766  15.233
  174DOPC  H18Z21312   6.474   2.608  15.204
  175DOPC     N21313   3.761   6.833  12.949
  175DOPC   C1221314   3.790   6.983  12.945
  175DOPC  H12A21315   3.718   7.029  12.879
  175DOPC  H12B21316   3.888   6.999  12.902
  175DOPC   C1321317   3.777   6.772  12.812
  175DOPC  H13A21318   3.710   6.819  12.741
  175DOPC  H13B21319   3.878   6.783  12.776
  175DOPC  H13C21320   3.754   6.667  12.811
  175DOPC   C1421321   3.619   6.815  12.993
  175DOPC  H14A21322   3.590   6.711  12.999
  175DOPC  H14B21323   3.605   6.863  13.088
  175DOPC  H14C21324   3.552   6.867  12.926
  175DOPC   C1521325   3.850   6.763  13.047
  175DOPC  H15A21326   3.954   6.775  13.020
  175DOPC  H15B21327   3.828   6.658  13.051
  175DOPC  H15C21328   3.836   6.805  13.145
  175DOPC   C1121329   3.781   7.062  13.078
  175DOPC  H11A21330   3.844   7.014  13.156
  175DOPC  H11B21331   3.824   7.164  13.063
  175DOPC     P21332   3.545   7.165  13.049
  175DOPC   O1321333   3.522   7.106  12.915
  175DOPC   O1421334   3.595   7.305  13.052
  175DOPC   O1221335   3.647   7.070  13.125
  175DOPC   O1121336   3.413   7.152  13.134
  175DOPC    C121337   3.363   7.026  13.181
  175DOPC    HA21338   3.430   6.940  13.159
  175DOPC    HB21339   3.265   7.006  13.132
  175DOPC    C221340   3.340   7.029  13.335
  175DOPC    HS21341   3.279   7.120  13.355
  175DOPC   O2121342   3.467   7.036  13.401
  175DOPC   C2121343   3.461   7.081  13.526
  175DOPC   O2221344   3.361   7.124  13.580
  175DOPC   C2221345   3.600   7.065  13.589
  175DOPC   H2R21346   3.672   7.126  13.530
  175DOPC   H2S21347   3.627   6.958  13.578
  175DOPC    C321348   3.259   6.904  13.384
  175DOPC    HX21349   3.165   6.901  13.325
  175DOPC    HY21350   3.228   6.920  13.489
  175DOPC   O3121351   3.332   6.781  13.362
  175DOPC   C3121352   3.395   6.732  13.469
  175DOPC   O3221353   3.392   6.780  13.581
  175DOPC   C3221354   3.472   6.606  13.429
  175DOPC   H2X21355   3.400   6.539  13.377
  175DOPC   H2Y21356   3.551   6.635  13.357
  175DOPC   C2321357   3.604   7.104  13.738
  175DOPC   H3R21358   3.697   7.062  13.783
  175DOPC   H3S21359   3.518   7.056  13.791
  175DOPC   C2421360   3.604   7.256  13.762
  175DOPC   H4R21361   3.509   7.299  13.723
  175DOPC   H4S21362   3.687   7.301  13.704
  175DOPC   C2521363   3.621   7.295  13.910
  175DOPC   H5R21364   3.632   7.405  13.918
  175DOPC   H5S21365   3.715   7.248  13.947
  175DOPC   C2621366   3.505   7.250  14.001
  175DOPC   H6R21367   3.536   7.256  14.107
  175DOPC   H6S21368   3.481   7.144  13.980
  175DOPC   C2721369   3.377   7.334  13.983
  175DOPC   H7R21370   3.374   7.375  13.880
  175DOPC   H7S21371   3.381   7.422  14.052
  175DOPC   C2821372   3.247   7.254  14.004
  175DOPC   H8R21373   3.240   7.182  13.920
  175DOPC   H8S21374   3.161   7.323  13.992
  175DOPC   C2921375   3.239   7.185  14.139
  175DOPC   H9R21376   3.249   7.253  14.225
  175DOPC  C21021377   3.224   7.053  14.161
  175DOPC  H10R21378   3.222   7.017  14.265
  175DOPC  C21121379   3.211   6.944  14.058
  175DOPC  H11R21380   3.186   6.985  13.958
  175DOPC  H11S21381   3.126   6.877  14.084
  175DOPC  C21221382   3.340   6.859  14.042
  175DOPC  H12R21383   3.424   6.927  14.016
  175DOPC  H12S21384   3.326   6.790  13.956
  175DOPC  C21321385   3.379   6.776  14.166
  175DOPC  H13R21386   3.386   6.843  14.254
  175DOPC  H13S21387   3.480   6.733  14.148
  175DOPC  C21421388   3.282   6.661  14.196
  175DOPC  H14R21389   3.278   6.595  14.106
  175DOPC  H14S21390   3.179   6.700  14.212
  175DOPC  C21521391   3.323   6.577  14.318
  175DOPC  H15R21392   3.431   6.549  14.309
  175DOPC  H15S21393   3.264   6.482  14.316
  175DOPC  C21621394   3.299   6.647  14.452
  175DOPC  H16R21395   3.190   6.666  14.463
  175DOPC  H16S21396   3.349   6.746  14.451
  175DOPC  C21721397   3.348   6.568  14.574
  175DOPC  H17R21398   3.325   6.628  14.665
  175DOPC  H17S21399   3.459   6.560  14.568
  175DOPC  C21821400   3.289   6.428  14.589
  175DOPC  H18R21401   3.320   6.363  14.505
  175DOPC  H18S21402   3.178   6.433  14.591
  175DOPC  H18T21403   3.323   6.381  14.684
  175DOPC   C3321404   3.533   6.529  13.550
  175DOPC   H3X21405   3.568   6.430  13.514
  175DOPC   H3Y21406   3.453   6.510  13.625
  175DOPC   C3421407   3.651   6.600  13.619
  175DOPC   H4X21408   3.678   6.540  13.709
  175DOPC   H4Y21409   3.619   6.700  13.655
  175DOPC   C3521410   3.777   6.614  13.531
  175DOPC   H5X21411   3.754   6.680  13.445
  175DOPC   H5Y21412   3.803   6.514  13.492
  175DOPC   C3621413   3.898   6.671  13.608
  175DOPC   H6X21414   3.917   6.609  13.698
  175DOPC   H6Y21415   3.988   6.663  13.543
  175DOPC   C3721416   3.882   6.818  13.649
  175DOPC   H7X21417   3.858   6.878  13.558
  175DOPC   H7Y21418   3.796   6.828  13.719
  175DOPC   C3821419   4.008   6.876  13.716
  175DOPC   H8X21420   4.094   6.860  13.648
  175DOPC   H8Y21421   4.029   6.817  13.808
  175DOPC   C3921422   3.994   7.023  13.745
  175DOPC   H9X21423   3.984   7.086  13.655
  175DOPC  C31021424   3.991   7.084  13.865
  175DOPC  H10X21425   3.979   7.194  13.867
  175DOPC  C31121426   4.001   7.020  14.001
  175DOPC  H11X21427   4.097   7.049  14.049
  175DOPC  H11Y21428   4.000   6.909  13.996
  175DOPC  C31221429   3.886   7.064  14.094
  175DOPC  H12X21430   3.789   7.032  14.051
  175DOPC  H12Y21431   3.885   7.175  14.102
  175DOPC  C31321432   3.900   7.007  14.236
  175DOPC  H13X21433   3.896   6.896  14.231
  175DOPC  H13Y21434   4.000   7.035  14.275
  175DOPC  C31421435   3.794   7.058  14.335
  175DOPC  H14X21436   3.823   7.024  14.437
  175DOPC  H14Y21437   3.795   7.169  14.335
  175DOPC  C31521438   3.652   7.008  14.305
  175DOPC  H15X21439   3.651   6.897  14.304
  175DOPC  H15Y21440   3.622   7.042  14.203
  175DOPC  C31621441   3.546   7.058  14.405
  175DOPC  H16X21442   3.548   7.169  14.408
  175DOPC  H16Y21443   3.446   7.028  14.367
  175DOPC  C31721444   3.563   7.003  14.547
  175DOPC  H17X21445   3.569   6.892  14.542
  175DOPC  H17Y21446   3.658   7.040  14.589
  175DOPC  C31821447   3.448   7.042  14.641
  175DOPC  H18X21448   3.467   7.005  14.744
  175DOPC  H18Y21449   3.438   7.153  14.645
  175DOPC  H18Z21450   3.352   6.999  14.605
  176DOPC     N21451   3.564   2.126  13.044
  176DOPC   C1221452   3.503   2.065  13.170
  176DOPC  H12A21453   3.395   2.073  13.161
  176DOPC  H12B21454   3.530   2.126  13.256
  176DOPC   C1321455   3.714   2.120  13.048
  176DOPC  H13A21456   3.746   2.017  13.057
  176DOPC  H13B21457   3.757   2.160  12.958
  176DOPC  H13C21458   3.754   2.175  13.132
  176DOPC   C1421459   3.518   2.268  13.030
  176DOPC  H14A21460   3.410   2.271  13.031
  176DOPC  H14B21461   3.554   2.330  13.110
  176DOPC  H14C21462   3.551   2.310  12.936
  176DOPC   C1521463   3.516   2.049  12.925
  176DOPC  H15A21464   3.558   2.086  12.832
  176DOPC  H15B21465   3.408   2.051  12.919
  176DOPC  H15C21466   3.541   1.945  12.938
  176DOPC   C1121467   3.533   1.917  13.203
  176DOPC  H11A21468   3.643   1.903  13.211
  176DOPC  H11B21469   3.492   1.892  13.304
  176DOPC     P21470   3.327   1.797  13.095
  176DOPC   O1321471   3.309   1.669  13.023
  176DOPC   O1421472   3.259   1.917  13.041
  176DOPC   O1221473   3.482   1.828  13.105
  176DOPC   O1121474   3.281   1.779  13.246
  176DOPC    C121475   3.160   1.704  13.267
  176DOPC    HA21476   3.178   1.596  13.249
  176DOPC    HB21477   3.079   1.736  13.198
  176DOPC    C221478   3.099   1.720  13.411
  176DOPC    HS21479   2.989   1.731  13.401
  176DOPC   O2121480   3.155   1.832  13.481
  176DOPC   C2121481   3.127   1.949  13.427
  176DOPC   O2221482   3.049   1.970  13.336
  176DOPC   C2221483   3.212   2.058  13.493
  176DOPC   H2R21484   3.208   2.146  13.425
  176DOPC   H2S21485   3.317   2.022  13.499
  176DOPC    C321486   3.123   1.591  13.496
  176DOPC    HX21487   3.079   1.506  13.442
  176DOPC    HY21488   3.067   1.600  13.592
  176DOPC   O3121489   3.264   1.567  13.514
  176DOPC   C3121490   3.316   1.619  13.624
  176DOPC   O3221491   3.254   1.653  13.723
  176DOPC   C3221492   3.467   1.635  13.607
  176DOPC   H2X21493   3.516   1.591  13.696
  176DOPC   H2Y21494   3.500   1.580  13.516
  176DOPC   C2321495   3.162   2.101  13.634
  176DOPC   H3R21496   3.052   2.117  13.634
  176DOPC   H3S21497   3.209   2.198  13.658
  176DOPC   C2421498   3.201   2.003  13.746
  176DOPC   H4R21499   3.309   1.979  13.737
  176DOPC   H4S21500   3.145   1.908  13.734
  176DOPC   C2521501   3.176   2.061  13.886
  176DOPC   H5R21502   3.068   2.083  13.898
  176DOPC   H5S21503   3.231   2.157  13.894
  176DOPC   C2621504   3.223   1.969  14.000
  176DOPC   H6R21505   3.225   2.030  14.094
  176DOPC   H6S21506   3.326   1.934  13.980
  176DOPC   C2721507   3.131   1.848  14.023
  176DOPC   H7R21508   3.127   1.789  13.929
  176DOPC   H7S21509   3.028   1.883  14.045
  176DOPC   C2821510   3.178   1.754  14.137
  176DOPC   H8R21511   3.279   1.716  14.110
  176DOPC   H8S21512   3.111   1.665  14.136
  176DOPC   C2921513   3.182   1.820  14.272
  176DOPC   H9R21514   3.264   1.892  14.284
  176DOPC  C21021515   3.097   1.802  14.376
  176DOPC  H10R21516   3.115   1.858  14.468
  176DOPC  C21121517   2.978   1.709  14.382
  176DOPC  H11R21518   2.968   1.646  14.291
  176DOPC  H11S21519   2.886   1.770  14.389
  176DOPC  C21221520   2.982   1.616  14.506
  176DOPC  H12R21521   2.884   1.565  14.513
  176DOPC  H12S21522   2.995   1.677  14.598
  176DOPC  C21321523   3.091   1.509  14.498
  176DOPC  H13R21524   3.191   1.557  14.488
  176DOPC  H13S21525   3.074   1.449  14.406
  176DOPC  C21421526   3.092   1.413  14.619
  176DOPC  H14R21527   3.162   1.329  14.598
  176DOPC  H14S21528   2.990   1.369  14.629
  176DOPC  C21521529   3.132   1.477  14.753
  176DOPC  H15R21530   3.115   1.402  14.833
  176DOPC  H15S21531   3.066   1.564  14.774
  176DOPC  C21621532   3.279   1.522  14.758
  176DOPC  H16R21533   3.298   1.593  14.675
  176DOPC  H16S21534   3.344   1.433  14.742
  176DOPC  C21721535   3.320   1.592  14.889
  176DOPC  H17R21536   3.261   1.685  14.899
  176DOPC  H17S21537   3.427   1.621  14.881
  176DOPC  C21821538   3.301   1.508  15.016
  176DOPC  H18R21539   3.194   1.481  15.031
  176DOPC  H18S21540   3.334   1.565  15.106
  176DOPC  H18T21541   3.361   1.414  15.011
  176DOPC   C3321542   3.504   1.784  13.596
  176DOPC   H3X21543   3.476   1.835  13.691
  176DOPC   H3Y21544   3.444   1.830  13.514
  176DOPC   C3421545   3.652   1.808  13.568
  176DOPC   H4X21546   3.680   1.753  13.475
  176DOPC   H4Y21547   3.713   1.767  13.651
  176DOPC   C3521548   3.686   1.957  13.548
  176DOPC   H5X21549   3.624   1.998  13.466
  176DOPC   H5Y21550   3.793   1.966  13.517
  176DOPC   C3621551   3.665   2.042  13.674
  176DOPC   H6X21552   3.560   2.033  13.709
  176DOPC   H6Y21553   3.731   2.003  13.755
  176DOPC   C3721554   3.694   2.191  13.651
  176DOPC   H7X21555   3.797   2.203  13.611
  176DOPC   H7Y21556   3.624   2.228  13.573
  176DOPC   C3821557   3.675   2.276  13.778
  176DOPC   H8X21558   3.573   2.260  13.817
  176DOPC   H8Y21559   3.681   2.384  13.749
  176DOPC   C3921560   3.782   2.247  13.881
  176DOPC   H9X21561   3.884   2.274  13.849
  176DOPC  C31021562   3.765   2.192  14.002
  176DOPC  H10X21563   3.854   2.179  14.066
  176DOPC  C31121564   3.636   2.145  14.066
  176DOPC  H11X21565   3.553   2.141  13.992
  176DOPC  H11Y21566   3.605   2.218  14.144
  176DOPC  C31221567   3.647   2.007  14.133
  176DOPC  H12X21568   3.666   1.929  14.056
  176DOPC  H12Y21569   3.548   1.984  14.179
  176DOPC  C31321570   3.755   1.998  14.242
  176DOPC  H13X21571   3.855   2.001  14.192
  176DOPC  H13Y21572   3.749   2.087  14.308
  176DOPC  C31421573   3.749   1.869  14.327
  176DOPC  H14X21574   3.741   1.782  14.259
  176DOPC  H14Y21575   3.844   1.860  14.383
  176DOPC  C31521576   3.634   1.864  14.429
  176DOPC  H15X21577   3.640   1.766  14.481
  176DOPC  H15Y21578   3.536   1.868  14.376
  176DOPC  C31621579   3.639   1.977  14.534
  176DOPC  H16X21580   3.742   1.983  14.575
  176DOPC  H16Y21581   3.617   2.073  14.483
  176DOPC  C31721582   3.540   1.959  14.650
  176DOPC  H17X21583   3.538   2.054  14.708
  176DOPC  H17Y21584   3.438   1.944  14.608
  176DOPC  C31821585   3.574   1.845  14.745
  176DOPC  H18X21586   3.569   1.747  14.693
  176DOPC  H18Y21587   3.677   1.857  14.786
  176DOPC  H18Z21588   3.503   1.843  14.831
  177DOPC     N21589   5.864   7.262  12.879
  177DOPC   C1221590   5.905   7.172  12.995
  177DOPC  H12A21591   6.000   7.126  12.973
  177DOPC  H12B21592   5.832   7.093  13.003
  177DOPC   C1321593   5.733   7.326  12.912
  177DOPC  H13A21594   5.740   7.376  13.008
  177DOPC  H13B21595   5.699   7.398  12.839
  177DOPC  H13C21596   5.657   7.251  12.928
  177DOPC   C1421597   5.848   7.182  12.753
  177DOPC  H14A21598   5.940   7.132  12.726
  177DOPC  H14B21599   5.769   7.109  12.764
  177DOPC  H14C21600   5.821   7.246  12.670
  177DOPC   C1521601   5.966   7.370  12.857
  177DOPC  H15A21602   6.063   7.330  12.831
  177DOPC  H15B21603   5.977   7.429  12.947
  177DOPC  H15C21604   5.935   7.436  12.777
  177DOPC   C1121605   5.913   7.235  13.136
  177DOPC  H11A21606   5.967   7.167  13.205
  177DOPC  H11B21607   5.972   7.329  13.132
  177DOPC     P21608   5.680   7.147  13.217
  177DOPC   O1321609   5.611   7.114  13.090
  177DOPC   O1421610   5.597   7.183  13.333
  177DOPC   O1221611   5.783   7.265  13.187
  177DOPC   O1121612   5.776   7.026  13.251
  177DOPC    C121613   5.730   6.914  13.328
  177DOPC    HA21614   5.748   6.821  13.269
  177DOPC    HB21615   5.621   6.917  13.349
  177DOPC    C221616   5.806   6.900  13.463
  177DOPC    HS21617   5.764   6.814  13.519
  177DOPC   O2121618   5.796   7.021  13.540
  177DOPC   C2121619   5.678   7.043  13.594
  177DOPC   O2221620   5.584   6.965  13.595
  177DOPC   C2221621   5.681   7.178  13.665
  177DOPC   H2R21622   5.577   7.201  13.697
  177DOPC   H2S21623   5.714   7.254  13.591
  177DOPC    C321624   5.957   6.870  13.442
  177DOPC    HX21625   6.005   6.959  13.397
  177DOPC    HY21626   5.966   6.787  13.369
  177DOPC   O3121627   6.017   6.827  13.567
  177DOPC   C3121628   6.100   6.911  13.627
  177DOPC   O3221629   6.142   7.016  13.581
  177DOPC   C3221630   6.133   6.857  13.766
  177DOPC   H2X21631   6.041   6.865  13.828
  177DOPC   H2Y21632   6.159   6.749  13.756
  177DOPC   C2321633   5.777   7.175  13.786
  177DOPC   H3R21634   5.878   7.144  13.753
  177DOPC   H3S21635   5.741   7.099  13.859
  177DOPC   C2421636   5.788   7.310  13.858
  177DOPC   H4R21637   5.686   7.347  13.883
  177DOPC   H4S21638   5.835   7.383  13.790
  177DOPC   C2521639   5.870   7.298  13.987
  177DOPC   H5R21640   5.971   7.257  13.963
  177DOPC   H5S21641   5.820   7.225  14.054
  177DOPC   C2621642   5.887   7.432  14.061
  177DOPC   H6R21643   5.787   7.476  14.079
  177DOPC   H6S21644   5.942   7.502  13.994
  177DOPC   C2721645   5.964   7.420  14.194
  177DOPC   H7R21646   5.976   7.521  14.237
  177DOPC   H7S21647   6.066   7.381  14.171
  177DOPC   C2821648   5.900   7.327  14.300
  177DOPC   H8R21649   5.971   7.322  14.386
  177DOPC   H8S21650   5.894   7.224  14.258
  177DOPC   C2921651   5.763   7.371  14.345
  177DOPC   H9R21652   5.700   7.415  14.266
  177DOPC  C21021653   5.712   7.361  14.469
  177DOPC  H10R21654   5.609   7.397  14.487
  177DOPC  C21121655   5.779   7.301  14.591
  177DOPC  H11R21656   5.810   7.384  14.659
  177DOPC  H11S21657   5.871   7.245  14.563
  177DOPC  C21221658   5.687   7.206  14.670
  177DOPC  H12R21659   5.599   7.262  14.708
  177DOPC  H12S21660   5.744   7.169  14.758
  177DOPC  C21321661   5.638   7.085  14.589
  177DOPC  H13R21662   5.725   7.030  14.548
  177DOPC  H13S21663   5.578   7.121  14.503
  177DOPC  C21421664   5.552   6.989  14.673
  177DOPC  H14R21665   5.476   7.049  14.728
  177DOPC  H14S21666   5.615   6.939  14.749
  177DOPC  C21521667   5.477   6.884  14.589
  177DOPC  H15R21668   5.410   6.937  14.518
  177DOPC  H15S21669   5.412   6.824  14.656
  177DOPC  C21621670   5.566   6.788  14.508
  177DOPC  H16R21671   5.620   6.846  14.430
  177DOPC  H16S21672   5.500   6.716  14.455
  177DOPC  C21721673   5.669   6.708  14.590
  177DOPC  H17R21674   5.746   6.779  14.628
  177DOPC  H17S21675   5.721   6.638  14.523
  177DOPC  C21821676   5.610   6.630  14.709
  177DOPC  H18R21677   5.569   6.700  14.785
  177DOPC  H18S21678   5.689   6.569  14.757
  177DOPC  H18T21679   5.529   6.563  14.675
  177DOPC   C3321680   6.249   6.932  13.835
  177DOPC   H3X21681   6.229   7.041  13.837
  177DOPC   H3Y21682   6.343   6.916  13.777
  177DOPC   C3421683   6.272   6.883  13.979
  177DOPC   H4X21684   6.281   6.773  13.979
  177DOPC   H4Y21685   6.183   6.910  14.041
  177DOPC   C3521686   6.398   6.943  14.043
  177DOPC   H5X21687   6.395   7.054  14.038
  177DOPC   H5Y21688   6.486   6.909  13.983
  177DOPC   C3621689   6.419   6.899  14.190
  177DOPC   H6X21690   6.394   6.792  14.199
  177DOPC   H6Y21691   6.527   6.911  14.215
  177DOPC   C3721692   6.337   6.982  14.290
  177DOPC   H7X21693   6.374   7.087  14.290
  177DOPC   H7Y21694   6.231   6.984  14.255
  177DOPC   C3821695   6.338   6.926  14.434
  177DOPC   H8X21696   6.293   6.825  14.432
  177DOPC   H8Y21697   6.269   6.989  14.494
  177DOPC   C3921698   6.475   6.919  14.496
  177DOPC   H9X21699   6.545   6.851  14.446
  177DOPC  C31021700   6.519   6.987  14.604
  177DOPC  H10X21701   6.622   6.970  14.639
  177DOPC  C31121702   6.439   7.085  14.687
  177DOPC  H11X21703   6.380   7.152  14.621
  177DOPC  H11Y21704   6.508   7.150  14.745
  177DOPC  C31221705   6.341   7.018  14.785
  177DOPC  H12X21706   6.269   6.955  14.729
  177DOPC  H12Y21707   6.282   7.098  14.835
  177DOPC  C31321708   6.407   6.932  14.894
  177DOPC  H13X21709   6.464   6.851  14.845
  177DOPC  H13Y21710   6.478   6.994  14.953
  177DOPC  C31421711   6.302   6.871  14.989
  177DOPC  H14X21712   6.244   6.954  15.035
  177DOPC  H14Y21713   6.232   6.810  14.929
  177DOPC  C31521714   6.360   6.784  15.103
  177DOPC  H15X21715   6.276   6.748  15.165
  177DOPC  H15Y21716   6.423   6.849  15.168
  177DOPC  C31621717   6.444   6.664  15.057
  177DOPC  H16X21718   6.525   6.699  14.989
  177DOPC  H16Y21719   6.494   6.619  15.146
  177DOPC  C31721720   6.364   6.553  14.987
  177DOPC  H17X21721   6.301   6.597  14.907
  177DOPC  H17Y21722   6.437   6.486  14.937
  177DOPC  C31821723   6.277   6.469  15.082
  177DOPC  H18X21724   6.227   6.387  15.026
  177DOPC  H18Y21725   6.340   6.425  15.162
  177DOPC  H18Z21726   6.199   6.532  15.129
  178DOPC     N21727   2.561   6.935  12.869
  178DOPC   C1221728   2.452   6.923  12.975
  178DOPC  H12A21729   2.476   6.841  13.041
  178DOPC  H12B21730   2.358   6.900  12.928
  178DOPC   C1321731   2.697   6.926  12.933
  178DOPC  H13A21732   2.706   7.004  13.008
  178DOPC  H13B21733   2.709   6.834  12.988
  178DOPC  H13C21734   2.777   6.938  12.862
  178DOPC   C1421735   2.552   7.067  12.800
  178DOPC  H14A21736   2.632   7.080  12.728
  178DOPC  H14B21737   2.458   7.079  12.746
  178DOPC  H14C21738   2.558   7.146  12.872
  178DOPC   C1521739   2.548   6.824  12.768
  178DOPC  H15A21740   2.625   6.832  12.693
  178DOPC  H15B21741   2.452   6.829  12.718
  178DOPC  H15C21742   2.557   6.728  12.815
  178DOPC   C1121743   2.427   7.043  13.071
  178DOPC  H11A21744   2.389   7.129  13.012
  178DOPC  H11B21745   2.346   7.017  13.142
  178DOPC     P21746   2.601   6.982  13.253
  178DOPC   O1321747   2.748   6.979  13.237
  178DOPC   O1421748   2.531   6.852  13.240
  178DOPC   O1221749   2.546   7.081  13.141
  178DOPC   O1121750   2.561   7.055  13.388
  178DOPC    C121751   2.659   7.079  13.490
  178DOPC    HA21752   2.622   7.160  13.557
  178DOPC    HB21753   2.755   7.115  13.447
  178DOPC    C221754   2.685   6.954  13.578
  178DOPC    HS21755   2.703   6.868  13.509
  178DOPC   O2121756   2.569   6.931  13.660
  178DOPC   C2121757   2.557   6.808  13.707
  178DOPC   O2221758   2.636   6.717  13.691
  178DOPC   C2221759   2.421   6.795  13.778
  178DOPC   H2R21760   2.355   6.742  13.707
  178DOPC   H2S21761   2.379   6.897  13.795
  178DOPC    C321762   2.814   6.971  13.665
  178DOPC    HX21763   2.898   6.987  13.595
  178DOPC    HY21764   2.835   6.875  13.718
  178DOPC   O3121765   2.804   7.085  13.753
  178DOPC   C3121766   2.787   7.059  13.882
  178DOPC   O3221767   2.793   6.949  13.934
  178DOPC   C3221768   2.758   7.189  13.957
  178DOPC   H2X21769   2.838   7.203  14.034
  178DOPC   H2Y21770   2.762   7.274  13.886
  178DOPC   C2321771   2.427   6.717  13.911
  178DOPC   H3R21772   2.485   6.622  13.898
  178DOPC   H3S21773   2.324   6.688  13.939
  178DOPC   C2421774   2.486   6.799  14.027
  178DOPC   H4R21775   2.433   6.896  14.033
  178DOPC   H4S21776   2.593   6.820  14.006
  178DOPC   C2521777   2.473   6.728  14.163
  178DOPC   H5R21778   2.533   6.634  14.161
  178DOPC   H5S21779   2.367   6.699  14.177
  178DOPC   C2621780   2.517   6.814  14.282
  178DOPC   H6R21781   2.489   6.762  14.376
  178DOPC   H6S21782   2.461   6.910  14.280
  178DOPC   C2721783   2.668   6.844  14.285
  178DOPC   H7R21784   2.697   6.897  14.193
  178DOPC   H7S21785   2.723   6.747  14.287
  178DOPC   C2821786   2.708   6.929  14.408
  178DOPC   H8R21787   2.673   6.877  14.499
  178DOPC   H8S21788   2.651   7.024  14.402
  178DOPC   C2921789   2.857   6.952  14.416
  178DOPC   H9R21790   2.915   6.861  14.436
  178DOPC  C21021791   2.922   7.068  14.398
  178DOPC  H10R21792   3.032   7.068  14.407
  178DOPC  C21121793   2.862   7.203  14.366
  178DOPC  H11R21794   2.756   7.194  14.336
  178DOPC  H11S21795   2.915   7.246  14.278
  178DOPC  C21221796   2.872   7.304  14.482
  178DOPC  H12R21797   2.827   7.400  14.446
  178DOPC  H12S21798   2.978   7.325  14.506
  178DOPC  C21321799   2.797   7.261  14.609
  178DOPC  H13R21800   2.854   7.180  14.660
  178DOPC  H13S21801   2.699   7.217  14.578
  178DOPC  C21421802   2.770   7.375  14.708
  178DOPC  H14R21803   2.707   7.336  14.790
  178DOPC  H14S21804   2.711   7.454  14.656
  178DOPC  C21521805   2.897   7.438  14.768
  178DOPC  H15R21806   2.962   7.474  14.685
  178DOPC  H15S21807   2.954   7.360  14.822
  178DOPC  C21621808   2.869   7.558  14.861
  178DOPC  H16R21809   2.819   7.637  14.802
  178DOPC  H16S21810   2.967   7.599  14.895
  178DOPC  C21721811   2.784   7.526  14.985
  178DOPC  H17R21812   2.683   7.492  14.951
  178DOPC  H17S21813   2.769   7.620  15.041
  178DOPC  C21821814   2.844   7.421  15.078
  178DOPC  H18R21815   2.945   7.452  15.112
  178DOPC  H18S21816   2.853   7.323  15.027
  178DOPC  H18T21817   2.779   7.407  15.168
  178DOPC   C3321818   2.619   7.184  14.025
  178DOPC   H3X21819   2.619   7.108  14.106
  178DOPC   H3Y21820   2.543   7.155  13.950
  178DOPC   C3421821   2.578   7.321  14.083
  178DOPC   H4X21822   2.591   7.397  14.004
  178DOPC   H4Y21823   2.646   7.348  14.167
  178DOPC   C3521824   2.431   7.325  14.129
  178DOPC   H5X21825   2.368   7.290  14.045
  178DOPC   H5Y21826   2.403   7.430  14.150
  178DOPC   C3621827   2.400   7.240  14.254
  178DOPC   H6X21828   2.289   7.233  14.263
  178DOPC   H6Y21829   2.438   7.137  14.240
  178DOPC   C3721830   2.456   7.300  14.383
  178DOPC   H7X21831   2.567   7.305  14.375
  178DOPC   H7Y21832   2.420   7.404  14.394
  178DOPC   C3821833   2.422   7.219  14.510
  178DOPC   H8X21834   2.473   7.267  14.596
  178DOPC   H8Y21835   2.466   7.117  14.499
  178DOPC   C3921836   2.274   7.213  14.538
  178DOPC   H9X21837   2.223   7.311  14.535
  178DOPC  C31021838   2.199   7.104  14.564
  178DOPC  H10X21839   2.092   7.117  14.583
  178DOPC  C31121840   2.248   6.961  14.572
  178DOPC  H11X21841   2.342   6.946  14.516
  178DOPC  H11Y21842   2.173   6.894  14.525
  178DOPC  C31221843   2.270   6.914  14.718
  178DOPC  H12X21844   2.286   6.804  14.717
  178DOPC  H12Y21845   2.179   6.934  14.778
  178DOPC  C31321846   2.391   6.981  14.785
  178DOPC  H13X21847   2.483   6.957  14.726
  178DOPC  H13Y21848   2.377   7.091  14.782
  178DOPC  C31421849   2.411   6.938  14.931
  178DOPC  H14X21850   2.321   6.966  14.989
  178DOPC  H14Y21851   2.420   6.827  14.935
  178DOPC  C31521852   2.536   6.999  14.996
  178DOPC  H15X21853   2.626   6.960  14.944
  178DOPC  H15Y21854   2.542   6.965  15.102
  178DOPC  C31621855   2.542   7.153  14.994
  178DOPC  H16X21856   2.635   7.186  15.047
  178DOPC  H16Y21857   2.551   7.188  14.889
  178DOPC  C31721858   2.422   7.222  15.060
  178DOPC  H17X21859   2.330   7.193  15.004
  178DOPC  H17Y21860   2.411   7.184  15.164
  178DOPC  C31821861   2.432   7.374  15.063
  178DOPC  H18X21862   2.342   7.419  15.108
  178DOPC  H18Y21863   2.521   7.406  15.122
  178DOPC  H18Z21864   2.444   7.414  14.960
  179DOPC     N21865   7.100   6.272  12.899
  179DOPC   C1221866   7.071   6.175  13.013
  179DOPC  H12A21867   7.110   6.078  12.986
  179DOPC  H12B21868   6.965   6.164  13.026
  179DOPC   C1321869   7.244   6.262  12.858
  179DOPC  H13A21870   7.270   6.336  12.784
  179DOPC  H13B21871   7.307   6.281  12.944
  179DOPC  H13C21872   7.269   6.164  12.821
  179DOPC   C1421873   7.076   6.413  12.944
  179DOPC  H14A21874   7.137   6.435  13.031
  179DOPC  H14B21875   7.101   6.484  12.867
  179DOPC  H14C21876   6.974   6.429  12.975
  179DOPC   C1521877   7.014   6.244  12.780
  179DOPC  H15A21878   6.909   6.253  12.804
  179DOPC  H15B21879   7.032   6.144  12.742
  179DOPC  H15C21880   7.035   6.314  12.701
  179DOPC   C1121881   7.130   6.207  13.154
  179DOPC  H11A21882   7.081   6.298  13.193
  179DOPC  H11B21883   7.102   6.125  13.223
  179DOPC     P21884   7.354   6.347  13.192
  179DOPC   O1321885   7.441   6.379  13.077
  179DOPC   O1421886   7.419   6.327  13.323
  179DOPC   O1221887   7.272   6.217  13.151
  179DOPC   O1121888   7.242   6.459  13.203
  179DOPC    C121889   7.277   6.597  13.190
  179DOPC    HA21890   7.291   6.622  13.083
  179DOPC    HB21891   7.372   6.620  13.243
  179DOPC    C221892   7.167   6.692  13.248
  179DOPC    HS21893   7.201   6.796  13.230
  179DOPC   O2121894   7.150   6.668  13.388
  179DOPC   C2121895   7.241   6.720  13.467
  179DOPC   O2221896   7.330   6.796  13.434
  179DOPC   C2221897   7.213   6.674  13.611
  179DOPC   H2R21898   7.103   6.665  13.623
  179DOPC   H2S21899   7.250   6.752  13.681
  179DOPC    C321900   7.028   6.680  13.177
  179DOPC    HX21901   7.046   6.694  13.069
  179DOPC    HY21902   6.965   6.765  13.210
  179DOPC   O3121903   6.963   6.553  13.197
  179DOPC   C3121904   6.885   6.545  13.306
  179DOPC   O3221905   6.856   6.638  13.379
  179DOPC   C3221906   6.826   6.404  13.317
  179DOPC   H2X21907   6.718   6.411  13.291
  179DOPC   H2Y21908   6.875   6.338  13.242
  179DOPC   C2321909   7.280   6.539  13.640
  179DOPC   H3R21910   7.268   6.470  13.554
  179DOPC   H3S21911   7.230   6.491  13.727
  179DOPC   C2421912   7.429   6.553  13.674
  179DOPC   H4R21913   7.440   6.596  13.776
  179DOPC   H4S21914   7.473   6.625  13.602
  179DOPC   C2521915   7.506   6.421  13.663
  179DOPC   H5R21916   7.614   6.439  13.681
  179DOPC   H5S21917   7.495   6.383  13.559
  179DOPC   C2621918   7.457   6.311  13.759
  179DOPC   H6R21919   7.347   6.299  13.748
  179DOPC   H6S21920   7.477   6.342  13.864
  179DOPC   C2721921   7.525   6.176  13.731
  179DOPC   H7R21922   7.635   6.191  13.737
  179DOPC   H7S21923   7.501   6.146  13.627
  179DOPC   C2821924   7.485   6.064  13.828
  179DOPC   H8R21925   7.520   6.094  13.929
  179DOPC   H8S21926   7.541   5.972  13.800
  179DOPC   C2921927   7.337   6.037  13.825
  179DOPC   H9R21928   7.290   6.044  13.726
  179DOPC  C21021929   7.259   6.007  13.931
  179DOPC  H10R21930   7.151   5.993  13.916
  179DOPC  C21121931   7.305   5.995  14.075
  179DOPC  H11R21932   7.415   5.991  14.082
  179DOPC  H11S21933   7.269   5.899  14.118
  179DOPC  C21221934   7.256   6.110  14.164
  179DOPC  H12R21935   7.283   6.208  14.121
  179DOPC  H12S21936   7.311   6.100  14.260
  179DOPC  C21321937   7.105   6.106  14.193
  179DOPC  H13R21938   7.076   6.002  14.219
  179DOPC  H13S21939   7.049   6.133  14.101
  179DOPC  C21421940   7.059   6.197  14.309
  179DOPC  H14R21941   6.950   6.180  14.325
  179DOPC  H14S21942   7.071   6.303  14.278
  179DOPC  C21521943   7.133   6.175  14.442
  179DOPC  H15R21944   7.085   6.237  14.521
  179DOPC  H15S21945   7.237   6.211  14.431
  179DOPC  C21621946   7.137   6.028  14.489
  179DOPC  H16R21947   7.177   5.964  14.407
  179DOPC  H16S21948   7.033   5.994  14.511
  179DOPC  C21721949   7.226   6.007  14.611
  179DOPC  H17R21950   7.185   6.066  14.697
  179DOPC  H17S21951   7.327   6.047  14.589
  179DOPC  C21821952   7.239   5.860  14.652
  179DOPC  H18R21953   7.301   5.850  14.744
  179DOPC  H18S21954   7.287   5.802  14.571
  179DOPC  H18T21955   7.139   5.817  14.672
  179DOPC   C3321956   6.840   6.342  13.458
  179DOPC   H3X21957   6.794   6.241  13.456
  179DOPC   H3Y21958   6.784   6.403  13.532
  179DOPC   C3421959   6.986   6.328  13.504
  179DOPC   H4X21960   7.025   6.427  13.535
  179DOPC   H4Y21961   7.049   6.295  13.418
  179DOPC   C3521962   7.007   6.226  13.618
  179DOPC   H5X21963   7.114   6.228  13.646
  179DOPC   H5Y21964   6.984   6.125  13.580
  179DOPC   C3621965   6.923   6.251  13.744
  179DOPC   H6X21966   6.815   6.241  13.721
  179DOPC   H6Y21967   6.948   6.172  13.818
  179DOPC   C3721968   6.948   6.388  13.809
  179DOPC   H7X21969   7.058   6.402  13.817
  179DOPC   H7Y21970   6.908   6.467  13.742
  179DOPC   C3821971   6.887   6.401  13.950
  179DOPC   H8X21972   6.935   6.325  14.016
  179DOPC   H8Y21973   6.779   6.373  13.943
  179DOPC   C3921974   6.901   6.539  14.008
  179DOPC   H9X21975   6.808   6.598  14.011
  179DOPC  C31021976   7.015   6.595  14.053
  179DOPC  H10X21977   7.012   6.698  14.092
  179DOPC  C31121978   7.151   6.530  14.054
  179DOPC  H11X21979   7.192   6.530  13.950
  179DOPC  H11Y21980   7.145   6.423  14.085
  179DOPC  C31221981   7.253   6.603  14.143
  179DOPC  H12X21982   7.258   6.710  14.115
  179DOPC  H12Y21983   7.354   6.560  14.122
  179DOPC  C31321984   7.227   6.591  14.294
  179DOPC  H13X21985   7.125   6.630  14.317
  179DOPC  H13Y21986   7.229   6.483  14.322
  179DOPC  C31421987   7.331   6.668  14.376
  179DOPC  H14X21988   7.432   6.633  14.347
  179DOPC  H14Y21989   7.324   6.776  14.352
  179DOPC  C31521990   7.315   6.649  14.528
  179DOPC  H15X21991   7.324   6.541  14.552
  179DOPC  H15Y21992   7.213   6.682  14.558
  179DOPC  C31621993   7.421   6.727  14.607
  179DOPC  H16X21994   7.521   6.702  14.567
  179DOPC  H16Y21995   7.405   6.836  14.591
  179DOPC  C31721996   7.421   6.698  14.758
  179DOPC  H17X21997   7.442   6.590  14.774
  179DOPC  H17Y21998   7.504   6.755  14.805
  179DOPC  C31821999   7.290   6.735  14.831
  179DOPC  H18X22000   7.267   6.843  14.817
  179DOPC  H18Y22001   7.205   6.675  14.791
  179DOPC  H18Z22002   7.299   6.714  14.939
  180DOPC     N22003   7.720   3.875  12.875
  180DOPC   C1222004   7.601   3.939  12.945
  180DOPC  H12A22005   7.533   3.861  12.976
  180DOPC  H12B22006   7.544   4.000  12.876
  180DOPC   C1322007   7.787   3.780  12.969
  180DOPC  H13A22008   7.809   3.831  13.061
  180DOPC  H13B22009   7.720   3.700  12.998
  180DOPC  H13C22010   7.877   3.738  12.928
  180DOPC   C1422011   7.819   3.979  12.833
  180DOPC  H14A22012   7.904   3.935  12.784
  180DOPC  H14B22013   7.774   4.051  12.765
  180DOPC  H14C22014   7.853   4.033  12.920
  180DOPC   C1522015   7.673   3.799  12.754
  180DOPC  H15A22016   7.603   3.721  12.782
  180DOPC  H15B22017   7.755   3.751  12.703
  180DOPC  H15C22018   7.622   3.864  12.684
  180DOPC   C1122019   7.628   4.020  13.075
  180DOPC  H11A22020   7.704   4.098  13.055
  180DOPC  H11B22021   7.535   4.074  13.105
  180DOPC     P22022   7.572   3.838  13.253
  180DOPC   O1322023   7.649   3.733  13.322
  180DOPC   O1422024   7.471   3.792  13.153
  180DOPC   O1222025   7.674   3.935  13.180
  180DOPC   O1122026   7.502   3.935  13.356
  180DOPC    C122027   7.573   3.987  13.470
  180DOPC    HA22028   7.568   4.098  13.467
  180DOPC    HB22029   7.681   3.960  13.471
  180DOPC    C222030   7.506   3.940  13.602
  180DOPC    HS22031   7.555   3.991  13.688
  180DOPC   O2122032   7.517   3.797  13.615
  180DOPC   C2122033   7.639   3.753  13.644
  180DOPC   O2222034   7.731   3.822  13.681
  180DOPC   C2222035   7.642   3.601  13.623
  180DOPC   H2R22036   7.633   3.585  13.514
  180DOPC   H2S22037   7.552   3.556  13.672
  180DOPC    C322038   7.356   3.981  13.602
  180DOPC    HX22039   7.307   3.924  13.520
  180DOPC    HY22040   7.351   4.089  13.578
  180DOPC   O3122041   7.290   3.954  13.729
  180DOPC   C3122042   7.159   3.981  13.725
  180DOPC   O3222043   7.102   4.030  13.629
  180DOPC   C3222044   7.091   3.943  13.856
  180DOPC   H2X22045   7.168   3.915  13.931
  180DOPC   H2Y22046   7.037   4.033  13.893
  180DOPC   C2322047   7.770   3.529  13.672
  180DOPC   H3R22048   7.860   3.593  13.658
  180DOPC   H3S22049   7.783   3.440  13.607
  180DOPC   C2422050   7.761   3.477  13.817
  180DOPC   H4R22051   7.840   3.400  13.829
  180DOPC   H4S22052   7.663   3.427  13.833
  180DOPC   C2522053   7.784   3.585  13.923
  180DOPC   H5R22054   7.701   3.659  13.920
  180DOPC   H5S22055   7.877   3.639  13.899
  180DOPC   C2622056   7.797   3.525  14.065
  180DOPC   H6R22057   7.865   3.438  14.059
  180DOPC   H6S22058   7.697   3.489  14.099
  180DOPC   C2722059   7.856   3.624  14.167
  180DOPC   H7R22060   7.949   3.665  14.125
  180DOPC   H7S22061   7.882   3.567  14.259
  180DOPC   C2822062   7.759   3.738  14.205
  180DOPC   H8R22063   7.671   3.694  14.257
  180DOPC   H8S22064   7.723   3.783  14.110
  180DOPC   C2922065   7.826   3.841  14.291
  180DOPC   H9R22066   7.899   3.801  14.364
  180DOPC  C21022067   7.805   3.974  14.287
  180DOPC  H10R22068   7.861   4.040  14.356
  180DOPC  C21122069   7.709   4.047  14.195
  180DOPC  H11R22070   7.642   3.976  14.142
  180DOPC  H11S22071   7.766   4.102  14.117
  180DOPC  C21222072   7.619   4.146  14.271
  180DOPC  H12R22073   7.544   4.185  14.199
  180DOPC  H12S22074   7.679   4.233  14.305
  180DOPC  C21322075   7.546   4.085  14.391
  180DOPC  H13R22076   7.618   4.070  14.474
  180DOPC  H13S22077   7.507   3.985  14.363
  180DOPC  C21422078   7.429   4.172  14.440
  180DOPC  H14R22079   7.355   4.184  14.358
  180DOPC  H14S22080   7.468   4.273  14.466
  180DOPC  C21522081   7.359   4.112  14.562
  180DOPC  H15R22082   7.435   4.096  14.642
  180DOPC  H15S22083   7.318   4.012  14.535
  180DOPC  C21622084   7.246   4.201  14.616
  180DOPC  H16R22085   7.174   4.219  14.534
  180DOPC  H16S22086   7.289   4.299  14.645
  180DOPC  C21722087   7.172   4.141  14.736
  180DOPC  H17R22088   7.125   4.045  14.704
  180DOPC  H17S22089   7.089   4.209  14.764
  180DOPC  C21822090   7.259   4.116  14.859
  180DOPC  H18R22091   7.309   4.210  14.891
  180DOPC  H18S22092   7.338   4.040  14.837
  180DOPC  H18T22093   7.198   4.078  14.944
  180DOPC   C3322094   6.990   3.827  13.839
  180DOPC   H3X22095   7.045   3.736  13.807
  180DOPC   H3Y22096   6.917   3.851  13.758
  180DOPC   C3422097   6.912   3.794  13.967
  180DOPC   H4X22098   6.820   3.857  13.969
  180DOPC   H4Y22099   6.972   3.822  14.056
  180DOPC   C3522100   6.871   3.646  13.979
  180DOPC   H5X22101   6.839   3.609  13.880
  180DOPC   H5Y22102   6.785   3.638  14.048
  180DOPC   C3622103   6.984   3.556  14.034
  180DOPC   H6X22104   7.075   3.570  13.973
  180DOPC   H6Y22105   7.007   3.587  14.138
  180DOPC   C3722106   6.947   3.406  14.035
  180DOPC   H7X22107   6.854   3.391  14.093
  180DOPC   H7Y22108   6.925   3.377  13.930
  180DOPC   C3822109   7.058   3.312  14.088
  180DOPC   H8X22110   7.150   3.329  14.029
  180DOPC   H8Y22111   7.025   3.208  14.067
  180DOPC   C3922112   7.085   3.326  14.236
  180DOPC   H9X22113   6.996   3.344  14.298
  180DOPC  C31022114   7.205   3.318  14.296
  180DOPC  H10X22115   7.211   3.332  14.405
  180DOPC  C31122116   7.338   3.293  14.229
  180DOPC  H11X22117   7.385   3.390  14.199
  180DOPC  H11Y22118   7.324   3.234  14.136
  180DOPC  C31222119   7.439   3.217  14.318
  180DOPC  H12X22120   7.523   3.183  14.253
  180DOPC  H12Y22121   7.390   3.125  14.357
  180DOPC  C31322122   7.498   3.298  14.435
  180DOPC  H13X22123   7.417   3.338  14.499
  180DOPC  H13Y22124   7.558   3.228  14.497
  180DOPC  C31422125   7.591   3.412  14.390
  180DOPC  H14X22126   7.659   3.373  14.312
  180DOPC  H14Y22127   7.531   3.494  14.345
  180DOPC  C31522128   7.678   3.470  14.504
  180DOPC  H15X22129   7.753   3.539  14.459
  180DOPC  H15Y22130   7.734   3.387  14.551
  180DOPC  C31622131   7.599   3.546  14.611
  180DOPC  H16X22132   7.550   3.634  14.563
  180DOPC  H16Y22133   7.520   3.480  14.651
  180DOPC  C31722134   7.685   3.597  14.728
  180DOPC  H17X22135   7.616   3.639  14.805
  180DOPC  H17Y22136   7.737   3.511  14.774
  180DOPC  C31822137   7.787   3.705  14.689
  180DOPC  H18X22138   7.862   3.664  14.618
  180DOPC  H18Y22139   7.736   3.791  14.641
  180DOPC  H18Z22140   7.840   3.742  14.779
  181DOPC     N22141   0.985   4.618  13.027
  181DOPC   C1222142   1.126   4.622  12.971
  181DOPC  H12A22143   1.195   4.647  13.050
  181DOPC  H12B22144   1.132   4.701  12.897
  181DOPC   C1322145   0.979   4.522  13.142
  181DOPC  H13A22146   1.016   4.426  13.110
  181DOPC  H13B22147   1.047   4.551  13.221
  181DOPC  H13C22148   0.879   4.511  13.183
  181DOPC   C1422149   0.889   4.576  12.920
  181DOPC  H14A22150   0.788   4.571  12.957
  181DOPC  H14B22151   0.891   4.649  12.840
  181DOPC  H14C22152   0.918   4.480  12.880
  181DOPC   C1522153   0.946   4.756  13.073
  181DOPC  H15A22154   0.847   4.756  13.118
  181DOPC  H15B22155   0.943   4.823  12.988
  181DOPC  H15C22156   1.016   4.794  13.145
  181DOPC   C1122157   1.184   4.492  12.907
  181DOPC  H11A22158   1.118   4.459  12.824
  181DOPC  H11B22159   1.282   4.517  12.861
  181DOPC     P22160   1.306   4.395  13.117
  181DOPC   O1322161   1.339   4.538  13.139
  181DOPC   O1422162   1.416   4.301  13.085
  181DOPC   O1222163   1.198   4.385  13.001
  181DOPC   O1122164   1.222   4.341  13.239
  181DOPC    C122165   1.157   4.213  13.230
  181DOPC    HA22166   1.231   4.133  13.209
  181DOPC    HB22167   1.082   4.214  13.149
  181DOPC    C222168   1.082   4.174  13.361
  181DOPC    HS22169   1.028   4.080  13.339
  181DOPC   O2122170   0.988   4.279  13.394
  181DOPC   C2122171   0.903   4.246  13.489
  181DOPC   O2222172   0.889   4.135  13.537
  181DOPC   C2222173   0.818   4.367  13.528
  181DOPC   H2R22174   0.745   4.333  13.604
  181DOPC   H2S22175   0.761   4.399  13.437
  181DOPC    C322176   1.182   4.142  13.478
  181DOPC    HX22177   1.251   4.064  13.439
  181DOPC    HY22178   1.126   4.097  13.563
  181DOPC   O3122179   1.254   4.258  13.523
  181DOPC   C3122180   1.358   4.229  13.600
  181DOPC   O3222181   1.388   4.116  13.636
  181DOPC   C3222182   1.436   4.355  13.639
  181DOPC   H2X22183   1.389   4.398  13.730
  181DOPC   H2Y22184   1.538   4.319  13.667
  181DOPC   C2322185   0.900   4.486  13.582
  181DOPC   H3R22186   0.831   4.566  13.616
  181DOPC   H3S22187   0.963   4.528  13.501
  181DOPC   C2422188   0.992   4.449  13.700
  181DOPC   H4R22189   1.042   4.541  13.738
  181DOPC   H4S22190   1.073   4.383  13.661
  181DOPC   C2522191   0.922   4.380  13.818
  181DOPC   H5R22192   0.876   4.284  13.783
  181DOPC   H5S22193   0.840   4.445  13.854
  181DOPC   C2622194   1.016   4.347  13.935
  181DOPC   H6R22195   0.957   4.300  14.016
  181DOPC   H6S22196   1.059   4.442  13.974
  181DOPC   C2722197   1.131   4.253  13.895
  181DOPC   H7R22198   1.195   4.305  13.821
  181DOPC   H7S22199   1.088   4.163  13.846
  181DOPC   C2822200   1.218   4.210  14.015
  181DOPC   H8R22201   1.154   4.155  14.087
  181DOPC   H8S22202   1.253   4.302  14.066
  181DOPC   C2922203   1.332   4.124  13.968
  181DOPC   H9R22204   1.304   4.039  13.905
  181DOPC  C21022205   1.463   4.143  13.994
  181DOPC  H10R22206   1.536   4.072  13.953
  181DOPC  C21122207   1.521   4.256  14.075
  181DOPC  H11R22208   1.473   4.353  14.047
  181DOPC  H11S22209   1.629   4.267  14.053
  181DOPC  C21222210   1.502   4.236  14.226
  181DOPC  H12R22211   1.552   4.141  14.258
  181DOPC  H12S22212   1.394   4.226  14.250
  181DOPC  C21322213   1.560   4.352  14.308
  181DOPC  H13R22214   1.512   4.447  14.274
  181DOPC  H13S22215   1.668   4.359  14.287
  181DOPC  C21422216   1.536   4.336  14.459
  181DOPC  H14R22217   1.583   4.241  14.493
  181DOPC  H14S22218   1.427   4.326  14.477
  181DOPC  C21522219   1.590   4.453  14.542
  181DOPC  H15R22220   1.568   4.434  14.649
  181DOPC  H15S22221   1.535   4.545  14.513
  181DOPC  C21622222   1.741   4.480  14.527
  181DOPC  H16R22223   1.767   4.568  14.590
  181DOPC  H16S22224   1.764   4.507  14.422
  181DOPC  C21722225   1.829   4.361  14.568
  181DOPC  H17R22226   1.806   4.274  14.502
  181DOPC  H17S22227   1.803   4.331  14.672
  181DOPC  C21822228   1.980   4.390  14.560
  181DOPC  H18R22229   2.038   4.299  14.587
  181DOPC  H18S22230   2.008   4.472  14.629
  181DOPC  H18T22231   2.007   4.420  14.457
  181DOPC   C3322232   1.450   4.460  13.526
  181DOPC   H3X22233   1.463   4.409  13.428
  181DOPC   H3Y22234   1.542   4.519  13.544
  181DOPC   C3422235   1.333   4.560  13.517
  181DOPC   H4X22236   1.237   4.505  13.504
  181DOPC   H4Y22237   1.349   4.620  13.425
  181DOPC   C3522238   1.323   4.655  13.637
  181DOPC   H5X22239   1.423   4.700  13.655
  181DOPC   H5Y22240   1.295   4.598  13.728
  181DOPC   C3622241   1.223   4.769  13.613
  181DOPC   H6X22242   1.249   4.819  13.518
  181DOPC   H6Y22243   1.121   4.726  13.601
  181DOPC   C3722244   1.221   4.875  13.725
  181DOPC   H7X22245   1.324   4.914  13.739
  181DOPC   H7Y22246   1.158   4.960  13.689
  181DOPC   C3822247   1.165   4.824  13.859
  181DOPC   H8X22248   1.231   4.743  13.896
  181DOPC   H8Y22249   1.066   4.778  13.839
  181DOPC   C3922250   1.150   4.936  13.959
  181DOPC   H9X22251   1.096   5.023  13.921
  181DOPC  C31022252   1.194   4.939  14.087
  181DOPC  H10X22253   1.172   5.028  14.147
  181DOPC  C31122254   1.269   4.830  14.160
  181DOPC  H11X22255   1.351   4.877  14.220
  181DOPC  H11Y22256   1.319   4.759  14.090
  181DOPC  C31222257   1.180   4.749  14.256
  181DOPC  H12X22258   1.122   4.817  14.322
  181DOPC  H12Y22259   1.246   4.687  14.321
  181DOPC  C31322260   1.083   4.655  14.182
  181DOPC  H13X22261   1.020   4.714  14.113
  181DOPC  H13Y22262   1.143   4.584  14.121
  181DOPC  C31422263   0.989   4.575  14.275
  181DOPC  H14X22264   0.929   4.646  14.335
  181DOPC  H14Y22265   0.919   4.517  14.211
  181DOPC  C31522266   1.062   4.477  14.368
  181DOPC  H15X22267   1.127   4.535  14.438
  181DOPC  H15Y22268   1.127   4.411  14.308
  181DOPC  C31622269   0.965   4.391  14.450
  181DOPC  H16X22270   0.900   4.457  14.512
  181DOPC  H16Y22271   0.899   4.336  14.379
  181DOPC  C31722272   1.034   4.288  14.541
  181DOPC  H17X22273   0.955   4.224  14.587
  181DOPC  H17Y22274   1.098   4.222  14.479
  181DOPC  C31822275   1.118   4.350  14.654
  181DOPC  H18X22276   1.202   4.409  14.612
  181DOPC  H18Y22277   1.055   4.417  14.716
  181DOPC  H18Z22278   1.160   4.270  14.719
  182DOPC     N22279   3.085   1.113  13.076
  182DOPC   C1222280   3.023   1.248  13.043
  182DOPC  H12A22281   2.992   1.248  12.940
  182DOPC  H12B22282   3.100   1.324  13.053
  182DOPC   C1322283   3.133   1.111  13.218
  182DOPC  H13A22284   3.180   1.017  13.242
  182DOPC  H13B22285   3.207   1.189  13.232
  182DOPC  H13C22286   3.051   1.129  13.286
  182DOPC   C1422287   3.203   1.087  12.988
  182DOPC  H14A22288   3.278   1.163  13.003
  182DOPC  H14B22289   3.250   0.992  13.009
  182DOPC  H14C22290   3.175   1.088  12.883
  182DOPC   C1522291   2.981   1.007  13.055
  182DOPC  H15A22292   2.893   1.032  13.113
  182DOPC  H15B22293   3.017   0.909  13.083
  182DOPC  H15C22294   2.949   1.006  12.953
  182DOPC   C1122295   2.898   1.292  13.125
  182DOPC  H11A22296   2.918   1.281  13.234
  182DOPC  H11B22297   2.880   1.400  13.108
  182DOPC     P22298   2.711   1.246  12.953
  182DOPC   O1322299   2.810   1.226  12.845
  182DOPC   O1422300   2.646   1.378  12.963
  182DOPC   O1222301   2.783   1.214  13.091
  182DOPC   O1122302   2.598   1.134  12.940
  182DOPC    C122303   2.539   1.071  13.054
  182DOPC    HA22304   2.615   1.023  13.118
  182DOPC    HB22305   2.472   0.990  13.017
  182DOPC    C222306   2.452   1.168  13.139
  182DOPC    HS22307   2.426   1.254  13.074
  182DOPC   O2122308   2.530   1.208  13.253
  182DOPC   C2122309   2.502   1.327  13.303
  182DOPC   O2222310   2.417   1.404  13.259
  182DOPC   C2222311   2.601   1.360  13.415
  182DOPC   H2R22312   2.678   1.425  13.370
  182DOPC   H2S22313   2.650   1.266  13.448
  182DOPC    C322314   2.318   1.102  13.184
  182DOPC    HX22315   2.259   1.083  13.092
  182DOPC    HY22316   2.258   1.174  13.244
  182DOPC   O3122317   2.338   0.975  13.251
  182DOPC   C3122318   2.346   0.983  13.384
  182DOPC   O3222319   2.331   1.084  13.450
  182DOPC   C3222320   2.373   0.845  13.443
  182DOPC   H2X22321   2.280   0.812  13.493
  182DOPC   H2Y22322   2.396   0.772  13.361
  182DOPC   C2322323   2.536   1.434  13.535
  182DOPC   H3R22324   2.480   1.522  13.498
  182DOPC   H3S22325   2.616   1.472  13.602
  182DOPC   C2422326   2.441   1.347  13.619
  182DOPC   H4R22327   2.363   1.305  13.552
  182DOPC   H4S22328   2.388   1.410  13.693
  182DOPC   C2522329   2.509   1.231  13.695
  182DOPC   H5R22330   2.584   1.180  13.630
  182DOPC   H5S22331   2.431   1.155  13.719
  182DOPC   C2622332   2.574   1.274  13.828
  182DOPC   H6R22333   2.494   1.313  13.894
  182DOPC   H6S22334   2.646   1.356  13.809
  182DOPC   C2722335   2.645   1.157  13.899
  182DOPC   H7R22336   2.735   1.128  13.840
  182DOPC   H7S22337   2.576   1.069  13.898
  182DOPC   C2822338   2.683   1.186  14.045
  182DOPC   H8R22339   2.730   1.094  14.087
  182DOPC   H8S22340   2.590   1.203  14.102
  182DOPC   C2922341   2.777   1.303  14.061
  182DOPC   H9R22342   2.821   1.341  13.968
  182DOPC  C21022343   2.810   1.360  14.178
  182DOPC  H10R22344   2.879   1.447  14.177
  182DOPC  C21122345   2.761   1.319  14.315
  182DOPC  H11R22346   2.846   1.319  14.386
  182DOPC  H11S22347   2.721   1.215  14.313
  182DOPC  C21222348   2.651   1.413  14.368
  182DOPC  H12R22349   2.560   1.404  14.305
  182DOPC  H12S22350   2.686   1.518  14.362
  182DOPC  C21322351   2.613   1.385  14.515
  182DOPC  H13R22352   2.538   1.461  14.547
  182DOPC  H13S22353   2.703   1.398  14.579
  182DOPC  C21422354   2.554   1.245  14.539
  182DOPC  H14R22355   2.629   1.168  14.511
  182DOPC  H14S22356   2.465   1.231  14.473
  182DOPC  C21522357   2.512   1.223  14.685
  182DOPC  H15R22358   2.437   1.299  14.714
  182DOPC  H15S22359   2.602   1.237  14.750
  182DOPC  C21622360   2.456   1.082  14.708
  182DOPC  H16R22361   2.526   1.008  14.665
  182DOPC  H16S22362   2.359   1.072  14.654
  182DOPC  C21722363   2.434   1.048  14.857
  182DOPC  H17R22364   2.531   1.058  14.910
  182DOPC  H17S22365   2.403   0.941  14.864
  182DOPC  C21822366   2.329   1.134  14.926
  182DOPC  H18R22367   2.359   1.241  14.927
  182DOPC  H18S22368   2.314   1.101  15.032
  182DOPC  H18T22369   2.231   1.126  14.873
  182DOPC   C3322370   2.488   0.849  13.546
  182DOPC   H3X22371   2.481   0.760  13.611
  182DOPC   H3Y22372   2.478   0.938  13.611
  182DOPC   C3422373   2.627   0.848  13.479
  182DOPC   H4X22374   2.628   0.919  13.394
  182DOPC   H4Y22375   2.645   0.746  13.438
  182DOPC   C3522376   2.742   0.885  13.574
  182DOPC   H5X22377   2.740   0.994  13.592
  182DOPC   H5Y22378   2.838   0.862  13.523
  182DOPC   C3622379   2.739   0.813  13.710
  182DOPC   H6X22380   2.654   0.853  13.769
  182DOPC   H6Y22381   2.722   0.704  13.695
  182DOPC   C3722382   2.869   0.833  13.789
  182DOPC   H7X22383   2.948   0.769  13.746
  182DOPC   H7Y22384   2.901   0.939  13.777
  182DOPC   C3822385   2.854   0.806  13.941
  182DOPC   H8X22386   2.785   0.883  13.982
  182DOPC   H8Y22387   2.953   0.825  13.988
  182DOPC   C3922388   2.808   0.666  13.973
  182DOPC   H9X22389   2.854   0.588  13.911
  182DOPC  C31022390   2.719   0.631  14.067
  182DOPC  H10X22391   2.696   0.524  14.081
  182DOPC  C31122392   2.644   0.723  14.161
  182DOPC  H11X22393   2.538   0.691  14.166
  182DOPC  H11Y22394   2.643   0.827  14.125
  182DOPC  C31222395   2.701   0.723  14.305
  182DOPC  H12X22396   2.702   0.620  14.346
  182DOPC  H12Y22397   2.633   0.784  14.368
  182DOPC  C31322398   2.843   0.783  14.314
  182DOPC  H13X22399   2.911   0.721  14.253
  182DOPC  H13Y22400   2.842   0.885  14.269
  182DOPC  C31422401   2.898   0.791  14.457
  182DOPC  H14X22402   2.891   0.692  14.505
  182DOPC  H14Y22403   3.006   0.817  14.450
  182DOPC  C31522404   2.829   0.897  14.545
  182DOPC  H15X22405   2.723   0.869  14.559
  182DOPC  H15Y22406   2.831   0.995  14.492
  182DOPC  C31622407   2.897   0.912  14.682
  182DOPC  H16X22408   2.895   0.814  14.734
  182DOPC  H16Y22409   3.003   0.940  14.667
  182DOPC  C31722410   2.830   1.018  14.770
  182DOPC  H17X22411   2.830   1.115  14.716
  182DOPC  H17Y22412   2.723   0.989  14.784
  182DOPC  C31822413   2.896   1.036  14.906
  182DOPC  H18X22414   2.844   1.113  14.966
  182DOPC  H18Y22415   2.894   0.940  14.963
  182DOPC  H18Z22416   3.002   1.067  14.894
  183DOPC     N22417   7.986   6.303  13.031
  183DOPC   C1222418   8.100   6.393  13.075
  183DOPC  H12A22419   8.057   6.481  13.121
  183DOPC  H12B22420   8.153   6.426  12.987
  183DOPC   C1322421   7.902   6.263  13.149
  183DOPC  H13A22422   7.862   6.351  13.197
  183DOPC  H13B22423   7.819   6.201  13.118
  183DOPC  H13C22424   7.962   6.209  13.221
  183DOPC   C1422425   8.040   6.180  12.964
  183DOPC  H14A22426   8.097   6.207  12.877
  183DOPC  H14B22427   8.109   6.131  13.031
  183DOPC  H14C22428   7.962   6.111  12.936
  183DOPC   C1522429   7.897   6.376  12.934
  183DOPC  H15A22430   7.952   6.405  12.846
  183DOPC  H15B22431   7.857   6.465  12.980
  183DOPC  H15C22432   7.815   6.314  12.903
  183DOPC   C1122433   8.206   6.334  13.172
  183DOPC  H11A22434   8.268   6.417  13.213
  183DOPC  H11B22435   8.156   6.288  13.259
  183DOPC     P22436   8.394   6.279  12.999
  183DOPC   O1322437   8.322   6.330  12.879
  183DOPC   O1422438   8.489   6.168  12.976
  183DOPC   O1222439   8.288   6.235  13.108
  183DOPC   O1122440   8.467   6.404  13.063
  183DOPC    C122441   8.589   6.395  13.138
  183DOPC    HA22442   8.665   6.459  13.090
  183DOPC    HB22443   8.631   6.292  13.141
  183DOPC    C222444   8.572   6.447  13.285
  183DOPC    HS22445   8.672   6.450  13.333
  183DOPC   O2122446   8.483   6.362  13.359
  183DOPC   C2122447   8.536   6.247  13.395
  183DOPC   O2222448   8.651   6.211  13.376
  183DOPC   C2222449   8.431   6.165  13.471
  183DOPC   H2R22450   8.375   6.104  13.396
  183DOPC   H2S22451   8.360   6.236  13.519
  183DOPC    C322452   8.518   6.593  13.287
  183DOPC    HX22453   8.425   6.596  13.227
  183DOPC    HY22454   8.592   6.657  13.234
  183DOPC   O3122455   8.502   6.643  13.422
  183DOPC   C3122456   8.377   6.663  13.464
  183DOPC   O3222457   8.276   6.644  13.399
  183DOPC   C3222458   8.379   6.723  13.605
  183DOPC   H2X22459   8.433   6.820  13.600
  183DOPC   H2Y22460   8.273   6.745  13.632
  183DOPC   C2322461   8.497   6.074  13.577
  183DOPC   H3R22462   8.557   6.136  13.647
  183DOPC   H3S22463   8.568   6.004  13.527
  183DOPC   C2422464   8.396   5.991  13.658
  183DOPC   H4R22465   8.452   5.933  13.735
  183DOPC   H4S22466   8.348   5.918  13.590
  183DOPC   C2522467   8.287   6.073  13.729
  183DOPC   H5R22468   8.221   6.002  13.784
  183DOPC   H5S22469   8.223   6.123  13.653
  183DOPC   C2622470   8.341   6.178  13.828
  183DOPC   H6R22471   8.412   6.245  13.775
  183DOPC   H6S22472   8.397   6.127  13.909
  183DOPC   C2722473   8.231   6.267  13.889
  183DOPC   H7R22474   8.181   6.322  13.807
  183DOPC   H7S22475   8.279   6.343  13.955
  183DOPC   C2822476   8.123   6.192  13.970
  183DOPC   H8R22477   8.072   6.119  13.903
  183DOPC   H8S22478   8.045   6.266  13.998
  183DOPC   C2922479   8.178   6.121  14.091
  183DOPC   H9R22480   8.222   6.022  14.072
  183DOPC  C21022481   8.179   6.170  14.217
  183DOPC  H10R22482   8.222   6.108  14.297
  183DOPC  C21122483   8.127   6.305  14.260
  183DOPC  H11R22484   8.025   6.294  14.302
  183DOPC  H11S22485   8.120   6.375  14.174
  183DOPC  C21222486   8.216   6.370  14.367
  183DOPC  H12R22487   8.321   6.374  14.331
  183DOPC  H12S22488   8.214   6.308  14.459
  183DOPC  C21322489   8.171   6.513  14.401
  183DOPC  H13R22490   8.063   6.512  14.426
  183DOPC  H13S22491   8.183   6.575  14.310
  183DOPC  C21422492   8.250   6.577  14.516
  183DOPC  H14R22493   8.223   6.685  14.521
  183DOPC  H14S22494   8.359   6.571  14.492
  183DOPC  C21522495   8.225   6.514  14.654
  183DOPC  H15R22496   8.289   6.567  14.728
  183DOPC  H15S22497   8.257   6.408  14.654
  183DOPC  C21622498   8.079   6.524  14.700
  183DOPC  H16R22499   8.017   6.452  14.642
  183DOPC  H16S22500   8.042   6.626  14.678
  183DOPC  C21722501   8.060   6.497  14.850
  183DOPC  H17R22502   7.953   6.512  14.875
  183DOPC  H17S22503   8.118   6.572  14.908
  183DOPC  C21822504   8.102   6.356  14.895
  183DOPC  H18R22505   8.211   6.341  14.879
  183DOPC  H18S22506   8.046   6.279  14.837
  183DOPC  H18T22507   8.080   6.342  15.003
  183DOPC   C3322508   8.443   6.633  13.713
  183DOPC   H3X22509   8.549   6.614  13.685
  183DOPC   H3Y22510   8.391   6.535  13.718
  183DOPC   C3422511   8.439   6.699  13.852
  183DOPC   H4X22512   8.334   6.703  13.888
  183DOPC   H4Y22513   8.476   6.803  13.844
  183DOPC   C3522514   8.526   6.626  13.956
  183DOPC   H5X22515   8.630   6.622  13.919
  183DOPC   H5Y22516   8.490   6.521  13.967
  183DOPC   C3622517   8.526   6.694  14.094
  183DOPC   H6X22518   8.556   6.801  14.081
  183DOPC   H6Y22519   8.422   6.693  14.135
  183DOPC   C3722520   8.621   6.627  14.194
  183DOPC   H7X22521   8.593   6.520  14.202
  183DOPC   H7Y22522   8.724   6.632  14.153
  183DOPC   C3822523   8.619   6.692  14.334
  183DOPC   H8X22524   8.515   6.687  14.372
  183DOPC   H8Y22525   8.644   6.800  14.323
  183DOPC   C3922526   8.713   6.622  14.428
  183DOPC   H9X22527   8.718   6.513  14.415
  183DOPC  C31022528   8.789   6.679  14.524
  183DOPC  H10X22529   8.855   6.616  14.584
  183DOPC  C31122530   8.795   6.826  14.557
  183DOPC  H11X22531   8.694   6.872  14.552
  183DOPC  H11Y22532   8.859   6.879  14.483
  183DOPC  C31222533   8.852   6.854  14.698
  183DOPC  H12X22534   8.867   6.963  14.708
  183DOPC  H12Y22535   8.952   6.806  14.707
  183DOPC  C31322536   8.761   6.806  14.812
  183DOPC  H13X22537   8.667   6.864  14.810
  183DOPC  H13Y22538   8.734   6.699  14.794
  183DOPC  C31422539   8.826   6.815  14.951
  183DOPC  H14X22540   8.760   6.765  15.025
  183DOPC  H14Y22541   8.921   6.757  14.950
  183DOPC  C31522542   8.857   6.958  15.000
  183DOPC  H15X22543   8.927   7.005  14.928
  183DOPC  H15Y22544   8.908   6.952  15.098
  183DOPC  C31622545   8.734   7.049  15.015
  183DOPC  H16X22546   8.768   7.151  15.043
  183DOPC  H16Y22547   8.682   7.058  14.918
  183DOPC  C31722548   8.634   7.001  15.122
  183DOPC  H17X22549   8.598   6.899  15.095
  183DOPC  H17Y22550   8.686   6.992  15.219
  183DOPC  C31822551   8.513   7.093  15.137
  183DOPC  H18X22552   8.443   7.054  15.214
  183DOPC  H18Y22553   8.545   7.195  15.167
  183DOPC  H18Z22554   8.457   7.101  15.041
  184DOPC     N22555   5.644   0.568  13.027
  184DOPC   C1222556   5.644   0.660  12.906
  184DOPC  H12A22557   5.550   0.714  12.902
  184DOPC  H12B22558   5.648   0.598  12.817
  184DOPC   C1322559   5.749   0.463  13.007
  184DOPC  H13A22560   5.731   0.404  12.918
  184DOPC  H13B22561   5.845   0.510  12.993
  184DOPC  H13C22562   5.758   0.396  13.092
  184DOPC   C1422563   5.512   0.499  13.041
  184DOPC  H14A22564   5.431   0.570  13.055
  184DOPC  H14B22565   5.490   0.440  12.954
  184DOPC  H14C22566   5.513   0.432  13.126
  184DOPC   C1522567   5.677   0.646  13.151
  184DOPC  H15A22568   5.605   0.723  13.170
  184DOPC  H15B22569   5.773   0.694  13.139
  184DOPC  H15C22570   5.685   0.581  13.238
  184DOPC   C1122571   5.758   0.764  12.892
  184DOPC  H11A22572   5.741   0.821  12.797
  184DOPC  H11B22573   5.751   0.839  12.973
  184DOPC     P22574   6.003   0.716  12.986
  184DOPC   O1322575   6.114   0.789  12.922
  184DOPC   O1422576   6.031   0.580  13.038
  184DOPC   O1222577   5.884   0.701  12.883
  184DOPC   O1122578   5.939   0.803  13.103
  184DOPC    C122579   6.022   0.895  13.175
  184DOPC    HA22580   6.022   0.994  13.124
  184DOPC    HB22581   6.127   0.861  13.181
  184DOPC    C222582   5.972   0.914  13.322
  184DOPC    HS22583   6.050   0.968  13.379
  184DOPC   O2122584   5.942   0.786  13.381
  184DOPC   C2122585   6.050   0.716  13.412
  184DOPC   O2222586   6.165   0.756  13.409
  184DOPC   C2222587   6.009   0.575  13.456
  184DOPC   H2R22588   6.076   0.505  13.403
  184DOPC   H2S22589   5.904   0.556  13.424
  184DOPC    C322590   5.844   1.002  13.329
  184DOPC    HX22591   5.766   0.950  13.269
  184DOPC    HY22592   5.863   1.099  13.278
  184DOPC   O3122593   5.796   1.019  13.464
  184DOPC   C3122594   5.857   1.115  13.534
  184DOPC   O3222595   5.940   1.192  13.490
  184DOPC   C3222596   5.806   1.111  13.679
  184DOPC   H2X22597   5.696   1.102  13.677
  184DOPC   H2Y22598   5.849   1.020  13.726
  184DOPC   C2322599   6.025   0.556  13.609
  184DOPC   H3R22600   6.127   0.588  13.640
  184DOPC   H3S22601   6.015   0.448  13.632
  184DOPC   C2422602   5.918   0.632  13.690
  184DOPC   H4R22603   5.818   0.597  13.657
  184DOPC   H4S22604   5.924   0.741  13.668
  184DOPC   C2522605   5.931   0.611  13.842
  184DOPC   H5R22606   5.940   0.502  13.863
  184DOPC   H5S22607   5.838   0.647  13.891
  184DOPC   C2622608   6.050   0.686  13.904
  184DOPC   H6R22609   6.033   0.795  13.896
  184DOPC   H6S22610   6.142   0.662  13.847
  184DOPC   C2722611   6.076   0.648  14.052
  184DOPC   H7R22612   6.168   0.701  14.086
  184DOPC   H7S22613   6.098   0.539  14.056
  184DOPC   C2822614   5.961   0.678  14.149
  184DOPC   H8R22615   5.990   0.639  14.249
  184DOPC   H8S22616   5.872   0.620  14.118
  184DOPC   C2922617   5.931   0.826  14.162
  184DOPC   H9R22618   6.021   0.889  14.172
  184DOPC  C21022619   5.810   0.885  14.163
  184DOPC  H10R22620   5.805   0.995  14.174
  184DOPC  C21122621   5.676   0.818  14.150
  184DOPC  H11R22622   5.685   0.716  14.107
  184DOPC  H11S22623   5.612   0.875  14.079
  184DOPC  C21222624   5.601   0.806  14.285
  184DOPC  H12R22625   5.662   0.745  14.356
  184DOPC  H12S22626   5.506   0.751  14.267
  184DOPC  C21322627   5.567   0.942  14.348
  184DOPC  H13R22628   5.521   1.006  14.270
  184DOPC  H13S22629   5.661   0.991  14.383
  184DOPC  C21422630   5.469   0.932  14.466
  184DOPC  H14R22631   5.377   0.880  14.433
  184DOPC  H14S22632   5.440   1.035  14.497
  184DOPC  C21522633   5.526   0.860  14.590
  184DOPC  H15R22634   5.619   0.911  14.621
  184DOPC  H15S22635   5.552   0.755  14.563
  184DOPC  C21622636   5.427   0.859  14.707
  184DOPC  H16R22637   5.334   0.807  14.676
  184DOPC  H16S22638   5.400   0.964  14.733
  184DOPC  C21722639   5.482   0.790  14.832
  184DOPC  H17R22640   5.575   0.843  14.864
  184DOPC  H17S22641   5.511   0.686  14.806
  184DOPC  C21822642   5.383   0.788  14.949
  184DOPC  H18R22643   5.291   0.732  14.921
  184DOPC  H18S22644   5.355   0.891  14.978
  184DOPC  H18T22645   5.428   0.738  15.038
  184DOPC   C3322646   5.848   1.236  13.760
  184DOPC   H3X22647   5.799   1.326  13.717
  184DOPC   H3Y22648   5.958   1.251  13.754
  184DOPC   C3422649   5.809   1.224  13.909
  184DOPC   H4X22650   5.863   1.137  13.953
  184DOPC   H4Y22651   5.700   1.204  13.917
  184DOPC   C3522652   5.844   1.350  13.989
  184DOPC   H5X22653   5.782   1.435  13.954
  184DOPC   H5Y22654   5.950   1.377  13.970
  184DOPC   C3622655   5.826   1.335  14.142
  184DOPC   H6X22656   5.890   1.251  14.177
  184DOPC   H6Y22657   5.863   1.428  14.191
  184DOPC   C3722658   5.681   1.310  14.186
  184DOPC   H7X22659   5.617   1.394  14.151
  184DOPC   H7Y22660   5.645   1.217  14.137
  184DOPC   C3822661   5.666   1.291  14.339
  184DOPC   H8X22662   5.733   1.208  14.370
  184DOPC   H8Y22663   5.562   1.256  14.359
  184DOPC   C3922664   5.691   1.416  14.419
  184DOPC   H9X22665   5.609   1.490  14.416
  184DOPC  C31022666   5.802   1.446  14.489
  184DOPC  H10X22667   5.806   1.542  14.543
  184DOPC  C31122668   5.926   1.362  14.504
  184DOPC  H11X22669   6.014   1.420  14.468
  184DOPC  H11Y22670   5.922   1.270  14.440
  184DOPC  C31222671   5.954   1.318  14.649
  184DOPC  H12X22672   5.960   1.407  14.716
  184DOPC  H12Y22673   6.055   1.270  14.650
  184DOPC  C31322674   5.853   1.217  14.704
  184DOPC  H13X22675   5.757   1.268  14.728
  184DOPC  H13Y22676   5.831   1.143  14.624
  184DOPC  C31422677   5.905   1.140  14.826
  184DOPC  H14X22678   5.837   1.054  14.847
  184DOPC  H14Y22679   6.005   1.098  14.801
  184DOPC  C31522680   5.917   1.225  14.954
  184DOPC  H15X22681   5.815   1.243  14.994
  184DOPC  H15Y22682   5.961   1.324  14.929
  184DOPC  C31622683   6.005   1.160  15.062
  184DOPC  H16X22684   6.110   1.157  15.025
  184DOPC  H16Y22685   6.004   1.225  15.153
  184DOPC  C31722686   5.964   1.018  15.102
  184DOPC  H17X22687   5.858   1.020  15.137
  184DOPC  H17Y22688   5.968   0.952  15.013
  184DOPC  C31822689   6.052   0.958  15.212
  184DOPC  H18X22690   6.157   0.951  15.177
  184DOPC  H18Y22691   6.049   1.020  15.303
  184DOPC  H18Z22692   6.017   0.855  15.238
  185DOPC     N22693   7.627   7.180  13.121
  185DOPC   C1222694   7.655   7.035  13.159
  185DOPC  H12A22695   7.601   7.009  13.249
  185DOPC  H12B22696   7.760   7.024  13.181
  185DOPC   C1322697   7.512   7.184  13.025
  185DOPC  H13A22698   7.535   7.119  12.942
  185DOPC  H13B22699   7.421   7.146  13.069
  185DOPC  H13C22700   7.494   7.282  12.984
  185DOPC   C1422701   7.747   7.238  13.052
  185DOPC  H14A22702   7.835   7.231  13.113
  185DOPC  H14B22703   7.768   7.181  12.962
  185DOPC  H14C22704   7.732   7.340  13.022
  185DOPC   C1522705   7.594   7.263  13.242
  185DOPC  H15A22706   7.676   7.262  13.312
  185DOPC  H15B22707   7.506   7.226  13.291
  185DOPC  H15C22708   7.576   7.365  13.214
  185DOPC   C1122709   7.622   6.926  13.053
  185DOPC  H11A22710   7.654   6.826  13.091
  185DOPC  H11B22711   7.512   6.918  13.040
  185DOPC     P22712   7.836   6.932  12.903
  185DOPC   O1322713   7.889   7.052  12.835
  185DOPC   O1422714   7.857   6.802  12.836
  185DOPC   O1222715   7.681   6.954  12.926
  185DOPC   O1122716   7.892   6.927  13.051
  185DOPC    C122717   8.017   6.864  13.079
  185DOPC    HA22718   8.101   6.926  13.043
  185DOPC    HB22719   8.023   6.765  13.029
  185DOPC    C222720   8.036   6.837  13.232
  185DOPC    HS22721   8.109   6.754  13.244
  185DOPC   O2122722   7.910   6.804  13.295
  185DOPC   C2122723   7.865   6.684  13.267
  185DOPC   O2222724   7.920   6.601  13.196
  185DOPC   C2222725   7.736   6.659  13.344
  185DOPC   H2R22726   7.708   6.553  13.326
  185DOPC   H2S22727   7.655   6.722  13.301
  185DOPC    C322728   8.097   6.959  13.307
  185DOPC    HX22729   8.199   6.977  13.267
  185DOPC    HY22730   8.107   6.926  13.413
  185DOPC   O3122731   8.017   7.080  13.296
  185DOPC   C3122732   8.051   7.172  13.385
  185DOPC   O3222733   8.136   7.159  13.472
  185DOPC   C3222734   7.968   7.298  13.361
  185DOPC   H2X22735   8.016   7.352  13.276
  185DOPC   H2Y22736   7.866   7.268  13.330
  185DOPC   C2322737   7.750   6.682  13.496
  185DOPC   H3R22738   7.850   6.652  13.533
  185DOPC   H3S22739   7.676   6.616  13.546
  185DOPC   C2422740   7.719   6.826  13.539
  185DOPC   H4R22741   7.622   6.858  13.494
  185DOPC   H4S22742   7.798   6.894  13.501
  185DOPC   C2522743   7.708   6.841  13.692
  185DOPC   H5R22744   7.801   6.803  13.739
  185DOPC   H5S22745   7.624   6.777  13.727
  185DOPC   C2622746   7.683   6.986  13.737
  185DOPC   H6R22747   7.603   7.029  13.674
  185DOPC   H6S22748   7.775   7.045  13.720
  185DOPC   C2722749   7.640   6.998  13.884
  185DOPC   H7R22750   7.541   6.948  13.895
  185DOPC   H7S22751   7.625   7.105  13.909
  185DOPC   C2822752   7.736   6.934  13.987
  185DOPC   H8R22753   7.745   6.825  13.965
  185DOPC   H8S22754   7.688   6.942  14.087
  185DOPC   C2922755   7.871   7.000  13.992
  185DOPC   H9R22756   7.878   7.097  13.940
  185DOPC  C21022757   7.981   6.950  14.051
  185DOPC  H10R22758   8.074   7.008  14.049
  185DOPC  C21122759   7.988   6.818  14.124
  185DOPC  H11R22760   8.091   6.775  14.116
  185DOPC  H11S22761   7.920   6.744  14.078
  185DOPC  C21222762   7.952   6.829  14.274
  185DOPC  H12R22763   7.946   6.726  14.316
  185DOPC  H12S22764   7.851   6.875  14.284
  185DOPC  C21322765   8.053   6.908  14.357
  185DOPC  H13R22766   8.061   7.012  14.317
  185DOPC  H13S22767   8.153   6.861  14.349
  185DOPC  C21422768   8.013   6.916  14.506
  185DOPC  H14R22769   8.001   6.813  14.545
  185DOPC  H14S22770   7.916   6.968  14.514
  185DOPC  C21522771   8.117   6.990  14.591
  185DOPC  H15R22772   8.139   7.087  14.541
  185DOPC  H15S22773   8.212   6.932  14.592
  185DOPC  C21622774   8.073   7.020  14.735
  185DOPC  H16R22775   7.981   7.081  14.735
  185DOPC  H16S22776   8.153   7.082  14.781
  185DOPC  C21722777   8.053   6.896  14.824
  185DOPC  H17R22778   8.083   6.923  14.928
  185DOPC  H17S22779   8.121   6.815  14.791
  185DOPC  C21822780   7.908   6.845  14.830
  185DOPC  H18R22781   7.874   6.813  14.729
  185DOPC  H18S22782   7.841   6.926  14.866
  185DOPC  H18T22783   7.900   6.759  14.899
  185DOPC   C3322784   7.961   7.392  13.483
  185DOPC   H3X22785   7.923   7.491  13.449
  185DOPC   H3Y22786   8.063   7.410  13.524
  185DOPC   C3422787   7.868   7.341  13.594
  185DOPC   H4X22788   7.904   7.242  13.631
  185DOPC   H4Y22789   7.765   7.327  13.553
  185DOPC   C3522790   7.861   7.438  13.713
  185DOPC   H5X22791   7.832   7.539  13.676
  185DOPC   H5Y22792   7.962   7.447  13.758
  185DOPC   C3622793   7.760   7.395  13.821
  185DOPC   H6X22794   7.660   7.388  13.774
  185DOPC   H6Y22795   7.786   7.294  13.859
  185DOPC   C3722796   7.751   7.495  13.939
  185DOPC   H7X22797   7.729   7.595  13.897
  185DOPC   H7Y22798   7.664   7.467  14.003
  185DOPC   C3822799   7.877   7.503  14.028
  185DOPC   H8X22800   7.861   7.587  14.099
  185DOPC   H8Y22801   7.964   7.533  13.965
  185DOPC   C3922802   7.905   7.374  14.100
  185DOPC   H9X22803   7.938   7.292  14.034
  185DOPC  C31022804   7.895   7.350  14.232
  185DOPC  H10X22805   7.918   7.249  14.269
  185DOPC  C31122806   7.854   7.449  14.338
  185DOPC  H11X22807   7.743   7.452  14.344
  185DOPC  H11Y22808   7.888   7.552  14.312
  185DOPC  C31222809   7.909   7.414  14.478
  185DOPC  H12X22810   7.873   7.313  14.507
  185DOPC  H12Y22811   7.866   7.487  14.550
  185DOPC  C31322812   8.062   7.418  14.487
  185DOPC  H13X22813   8.104   7.345  14.416
  185DOPC  H13Y22814   8.099   7.519  14.457
  185DOPC  C31422815   8.114   7.384  14.628
  185DOPC  H14X22816   8.062   7.292  14.663
  185DOPC  H14Y22817   8.223   7.360  14.621
  185DOPC  C31522818   8.096   7.497  14.730
  185DOPC  H15X22819   7.990   7.529  14.734
  185DOPC  H15Y22820   8.156   7.584  14.696
  185DOPC  C31622821   8.142   7.459  14.872
  185DOPC  H16X22822   8.244   7.413  14.867
  185DOPC  H16Y22823   8.150   7.551  14.933
  185DOPC  C31722824   8.046   7.362  14.943
  185DOPC  H17X22825   7.946   7.409  14.948
  185DOPC  H17Y22826   8.036   7.270  14.883
  185DOPC  C31822827   8.091   7.325  15.084
  185DOPC  H18X22828   8.191   7.276  15.082
  185DOPC  H18Y22829   8.098   7.415  15.148
  185DOPC  H18Z22830   8.019   7.254  15.131
  186DOPC     N22831   0.519   3.537  12.913
  186DOPC   C1222832   0.462   3.668  12.858
  186DOPC  H12A22833   0.386   3.643  12.786
  186DOPC  H12B22834   0.540   3.720  12.806
  186DOPC   C1322835   0.408   3.461  12.979
  186DOPC  H13A22836   0.443   3.372  13.029
  186DOPC  H13B22837   0.357   3.526  13.048
  186DOPC  H13C22838   0.334   3.432  12.906
  186DOPC   C1422839   0.628   3.566  13.011
  186DOPC  H14A22840   0.708   3.620  12.964
  186DOPC  H14B22841   0.589   3.624  13.093
  186DOPC  H14C22842   0.668   3.474  13.051
  186DOPC   C1522843   0.574   3.455  12.800
  186DOPC  H15A22844   0.612   3.359  12.833
  186DOPC  H15B22845   0.655   3.506  12.750
  186DOPC  H15C22846   0.497   3.431  12.728
  186DOPC   C1122847   0.395   3.765  12.958
  186DOPC  H11A22848   0.465   3.790  13.041
  186DOPC  H11B22849   0.371   3.859  12.904
  186DOPC     P22850   0.171   3.790  13.093
  186DOPC   O1322851   0.052   3.811  13.006
  186DOPC   O1422852   0.238   3.913  13.141
  186DOPC   O1222853   0.276   3.706  13.010
  186DOPC   O1122854   0.137   3.691  13.211
  186DOPC    C122855   0.104   3.553  13.185
  186DOPC    HA22856   0.183   3.489  13.231
  186DOPC    HB22857   0.100   3.527  13.077
  186DOPC    C222858   9.184   3.512  13.249
  186DOPC    HS22859   9.104   3.554  13.184
  186DOPC   O2122860   9.176   3.563  13.383
  186DOPC   C2122861   9.125   3.685  13.393
  186DOPC   O2222862   9.061   3.743  13.307
  186DOPC   C2222863   9.150   3.740  13.533
  186DOPC   H2R22864   9.118   3.661  13.605
  186DOPC   H2S22865   9.085   3.829  13.547
  186DOPC    C322866   9.161   3.357  13.249
  186DOPC    HX22867   9.146   3.325  13.144
  186DOPC    HY22868   9.065   3.340  13.303
  186DOPC   O3122869   0.055   3.283  13.305
  186DOPC   C3122870   0.023   3.170  13.371
  186DOPC   O3222871   9.127   3.132  13.397
  186DOPC   C3222872   0.152   3.092  13.401
  186DOPC   H2X22873   0.156   3.006  13.331
  186DOPC   H2Y22874   0.238   3.158  13.379
  186DOPC   C2322875   0.082   3.777  13.557
  186DOPC   H3R22876   0.107   3.871  13.504
  186DOPC   H3S22877   0.147   3.698  13.514
  186DOPC   C2422878   0.113   3.789  13.707
  186DOPC   H4R22879   0.083   3.695  13.757
  186DOPC   H4S22880   0.051   3.871  13.751
  186DOPC   C2522881   0.261   3.813  13.737
  186DOPC   H5R22882   0.289   3.916  13.706
  186DOPC   H5S22883   0.321   3.743  13.675
  186DOPC   C2622884   0.298   3.790  13.885
  186DOPC   H6R22885   0.407   3.809  13.897
  186DOPC   H6S22886   0.279   3.684  13.911
  186DOPC   C2722887   0.221   3.880  13.983
  186DOPC   H7R22888   0.112   3.857  13.976
  186DOPC   H7S22889   0.236   3.986  13.951
  186DOPC   C2822890   0.267   3.862  14.129
  186DOPC   H8R22891   0.376   3.881  14.133
  186DOPC   H8S22892   0.252   3.756  14.157
  186DOPC   C2922893   0.195   3.957  14.221
  186DOPC   H9R22894   0.197   4.062  14.187
  186DOPC  C21022895   0.131   3.928  14.336
  186DOPC  H10R22896   0.082   4.011  14.391
  186DOPC  C21122897   0.116   3.793  14.402
  186DOPC  H11R22898   0.171   3.714  14.346
  186DOPC  H11S22899   0.010   3.762  14.402
  186DOPC  C21222900   0.170   3.791  14.547
  186DOPC  H12R22901   0.276   3.823  14.546
  186DOPC  H12S22902   0.168   3.686  14.584
  186DOPC  C21322903   0.092   3.880  14.646
  186DOPC  H13R22904   0.096   3.985  14.611
  186DOPC  H13S22905   0.145   3.878  14.744
  186DOPC  C21422906   9.161   3.840  14.668
  186DOPC  H14R22907   9.108   3.844  14.571
  186DOPC  H14S22908   9.114   3.916  14.733
  186DOPC  C21522909   9.140   3.701  14.731
  186DOPC  H15R22910   9.180   3.624  14.661
  186DOPC  H15S22911   9.031   3.683  14.741
  186DOPC  C21622912   9.205   3.681  14.869
  186DOPC  H16R22913   0.099   3.693  14.860
  186DOPC  H16S22914   9.186   3.577  14.902
  186DOPC  C21722915   9.153   3.777  14.977
  186DOPC  H17R22916   9.043   3.766  14.986
  186DOPC  H17S22917   9.173   3.882  14.945
  186DOPC  C21822918   0.001   3.755  15.114
  186DOPC  H18R22919   9.178   3.828  15.188
  186DOPC  H18S22920   0.111   3.767  15.108
  186DOPC  H18T22921   9.196   3.652  15.151
  186DOPC   C3322922   0.167   3.041  13.547
  186DOPC   H3X22923   0.101   2.954  13.563
  186DOPC   H3Y22924   0.139   3.120  13.619
  186DOPC   C3422925   0.314   3.002  13.573
  186DOPC   H4X22926   0.378   3.092  13.565
  186DOPC   H4Y22927   0.344   2.933  13.491
  186DOPC   C3522928   0.343   2.931  13.707
  186DOPC   H5X22929   0.450   2.901  13.704
  186DOPC   H5Y22930   0.283   2.838  13.715
  186DOPC   C3622931   0.322   3.015  13.834
  186DOPC   H6X22932   0.398   2.983  13.908
  186DOPC   H6Y22933   0.340   3.123  13.813
  186DOPC   C3722934   0.184   2.995  13.898
  186DOPC   H7X22935   0.107   3.046  13.836
  186DOPC   H7Y22936   0.160   2.886  13.898
  186DOPC   C3822937   0.178   3.046  14.043
  186DOPC   H8X22938   0.208   3.153  14.043
  186DOPC   H8Y22939   0.255   2.992  14.103
  186DOPC   C3922940   0.039   3.030  14.100
  186DOPC   H9X22941   9.176   3.073  14.038
  186DOPC  C31022942   0.005   2.970  14.216
  186DOPC  H10X22943   9.115   2.967  14.243
  186DOPC  C31122944   0.097   2.906  14.316
  186DOPC  H11X22945   0.202   2.943  14.307
  186DOPC  H11Y22946   0.100   2.796  14.299
  186DOPC  C31222947   0.051   2.930  14.462
  186DOPC  H12X22948   0.111   2.864  14.528
  186DOPC  H12Y22949   9.161   2.899  14.474
  186DOPC  C31322950   0.068   3.074  14.510
  186DOPC  H13X22951   0.174   3.104  14.493
  186DOPC  H13Y22952   0.004   3.142  14.449
  186DOPC  C31422953   0.032   3.091  14.658
  186DOPC  H14X22954   9.142   3.061  14.672
  186DOPC  H14Y22955   0.095   3.021  14.718
  186DOPC  C31522956   0.051   3.234  14.712
  186DOPC  H15X22957   0.013   3.237  14.816
  186DOPC  H15Y22958   9.206   3.304  14.651
  186DOPC  C31622959   0.197   3.280  14.711
  186DOPC  H16X22960   0.260   3.204  14.764
  186DOPC  H16Y22961   0.234   3.285  14.606
  186DOPC  C31722962   0.217   3.416  14.778
  186DOPC  H17X22963   0.156   3.491  14.723
  186DOPC  H17Y22964   0.179   3.411  14.882
  186DOPC  C31822965   0.363   3.462  14.780
  186DOPC  H18X22966   0.426   3.389  14.836
  186DOPC  H18Y22967   0.403   3.471  14.677
  186DOPC  H18Z22968   0.372   3.561  14.829
  187DOPC     N22969   6.905   1.315  12.950
  187DOPC   C1222970   7.044   1.369  12.984
  187DOPC  H12A22971   7.058   1.466  12.939
  187DOPC  H12B22972   7.118   1.304  12.940
  187DOPC   C1322973   6.798   1.414  12.983
  187DOPC  H13A22974   6.810   1.506  12.927
  187DOPC  H13B22975   6.700   1.374  12.961
  187DOPC  H13C22976   6.802   1.438  13.089
  187DOPC   C1422977   6.881   1.189  13.028
  187DOPC  H14A22978   6.955   1.115  13.001
  187DOPC  H14B22979   6.899   1.207  13.133
  187DOPC  H14C22980   6.783   1.148  13.013
  187DOPC   C1522981   6.900   1.278  12.804
  187DOPC  H15A22982   6.924   1.362  12.740
  187DOPC  H15B22983   6.802   1.241  12.778
  187DOPC  H15C22984   6.969   1.198  12.785
  187DOPC   C1122985   7.083   1.376  13.135
  187DOPC  H11A22986   7.172   1.441  13.146
  187DOPC  H11B22987   7.001   1.424  13.193
  187DOPC     P22988   7.223   1.159  13.117
  187DOPC   O1322989   7.315   1.252  13.048
  187DOPC   O1422990   7.154   1.061  13.031
  187DOPC   O1222991   7.110   1.246  13.188
  187DOPC   O1122992   7.296   1.088  13.238
  187DOPC    C122993   7.234   0.977  13.304
  187DOPC    HA22994   7.263   0.882  13.252
  187DOPC    HB22995   7.123   0.983  13.303
  187DOPC    C222996   7.280   0.965  13.452
  187DOPC    HS22997   7.228   0.879  13.498
  187DOPC   O2122998   7.251   1.087  13.524
  187DOPC   C2122999   7.125   1.103  13.558
  187DOPC   O2223000   7.034   1.024  13.541
  187DOPC   C2223001   7.111   1.240  13.626
  187DOPC   H2R23002   7.118   1.316  13.545
  187DOPC   H2S23003   7.198   1.255  13.694
  187DOPC    C323004   7.432   0.937  13.463
  187DOPC    HX23005   7.484   1.018  13.408
  187DOPC    HY23006   7.454   0.840  13.414
  187DOPC   O3123007   7.470   0.933  13.603
  187DOPC   C3123008   7.596   0.960  13.629
  187DOPC   O3223009   7.687   0.968  13.549
  187DOPC   C3223010   7.607   0.988  13.780
  187DOPC   H2X23011   7.551   1.082  13.799
  187DOPC   H2Y23012   7.556   0.905  13.833
  187DOPC   C2323013   6.978   1.258  13.702
  187DOPC   H3R23014   6.893   1.225  13.638
  187DOPC   H3S23015   6.963   1.366  13.723
  187DOPC   C2423016   6.970   1.183  13.837
  187DOPC   H4R23017   6.987   1.074  13.820
  187DOPC   H4S23018   6.867   1.195  13.876
  187DOPC   C2523019   7.068   1.236  13.943
  187DOPC   H5R23020   7.066   1.347  13.939
  187DOPC   H5S23021   7.172   1.203  13.920
  187DOPC   C2623022   7.031   1.194  14.087
  187DOPC   H6R23023   6.924   1.219  14.104
  187DOPC   H6S23024   7.090   1.256  14.158
  187DOPC   C2723025   7.052   1.045  14.117
  187DOPC   H7R23026   7.067   0.991  14.021
  187DOPC   H7S23027   6.960   1.003  14.164
  187DOPC   C2823028   7.172   1.014  14.210
  187DOPC   H8R23029   7.263   1.059  14.164
  187DOPC   H8S23030   7.188   0.904  14.210
  187DOPC   C2923031   7.152   1.067  14.350
  187DOPC   H9R23032   7.148   1.177  14.356
  187DOPC  C21023033   7.138   0.997  14.464
  187DOPC  H10R23034   7.124   1.054  14.557
  187DOPC  C21123035   7.137   0.847  14.482
  187DOPC  H11R23036   7.128   0.794  14.385
  187DOPC  H11S23037   7.049   0.818  14.543
  187DOPC  C21223038   7.264   0.795  14.553
  187DOPC  H12R23039   7.352   0.808  14.487
  187DOPC  H12S23040   7.252   0.686  14.571
  187DOPC  C21323041   7.292   0.864  14.688
  187DOPC  H13R23042   7.201   0.861  14.751
  187DOPC  H13S23043   7.316   0.970  14.668
  187DOPC  C21423044   7.409   0.801  14.765
  187DOPC  H14R23045   7.492   0.778  14.695
  187DOPC  H14S23046   7.375   0.705  14.809
  187DOPC  C21523047   7.462   0.894  14.876
  187DOPC  H15R23048   7.521   0.834  14.949
  187DOPC  H15S23049   7.376   0.939  14.930
  187DOPC  C21623050   7.553   1.005  14.820
  187DOPC  H16R23051   7.503   1.056  14.735
  187DOPC  H16S23052   7.646   0.958  14.782
  187DOPC  C21723053   7.590   1.111  14.925
  187DOPC  H17R23054   7.640   1.060  15.010
  187DOPC  H17S23055   7.496   1.157  14.964
  187DOPC  C21823056   7.681   1.220  14.870
  187DOPC  H18R23057   7.705   1.295  14.949
  187DOPC  H18S23058   7.632   1.273  14.785
  187DOPC  H18T23059   7.776   1.177  14.833
  187DOPC   C3323060   7.753   1.003  13.829
  187DOPC   H3X23061   7.805   1.079  13.767
  187DOPC   H3Y23062   7.805   0.906  13.815
  187DOPC   C3423063   7.762   1.045  13.976
  187DOPC   H4X23064   7.864   1.023  14.014
  187DOPC   H4Y23065   7.692   0.983  14.037
  187DOPC   C3523066   7.732   1.194  13.999
  187DOPC   H5X23067   7.630   1.216  13.962
  187DOPC   H5Y23068   7.804   1.255  13.941
  187DOPC   C3623069   7.741   1.233  14.147
  187DOPC   H6X23070   7.669   1.172  14.206
  187DOPC   H6Y23071   7.843   1.208  14.184
  187DOPC   C3723072   7.714   1.383  14.174
  187DOPC   H7X23073   7.723   1.401  14.283
  187DOPC   H7Y23074   7.794   1.442  14.124
  187DOPC   C3823075   7.577   1.435  14.125
  187DOPC   H8X23076   7.574   1.428  14.015
  187DOPC   H8Y23077   7.572   1.544  14.149
  187DOPC   C3923078   7.461   1.360  14.185
  187DOPC   H9X23079   7.444   1.260  14.141
  187DOPC  C31023080   7.378   1.401  14.284
  187DOPC  H10X23081   7.298   1.333  14.315
  187DOPC  C31123082   7.383   1.531  14.359
  187DOPC  H11X23083   7.288   1.587  14.344
  187DOPC  H11Y23084   7.464   1.597  14.322
  187DOPC  C31223085   7.406   1.513  14.511
  187DOPC  H12X23086   7.422   1.613  14.555
  187DOPC  H12Y23087   7.499   1.454  14.527
  187DOPC  C31323088   7.289   1.445  14.584
  187DOPC  H13X23089   7.196   1.506  14.569
  187DOPC  H13Y23090   7.271   1.345  14.539
  187DOPC  C31423091   7.314   1.426  14.734
  187DOPC  H14X23092   7.233   1.361  14.774
  187DOPC  H14Y23093   7.410   1.372  14.749
  187DOPC  C31523094   7.315   1.556  14.816
  187DOPC  H15X23095   7.217   1.606  14.804
  187DOPC  H15Y23096   7.393   1.624  14.776
  187DOPC  C31623097   7.344   1.531  14.965
  187DOPC  H16X23098   7.270   1.458  15.005
  187DOPC  H16Y23099   7.444   1.485  14.974
  187DOPC  C31723100   7.339   1.658  15.052
  187DOPC  H17X23101   7.377   1.632  15.153
  187DOPC  H17Y23102   7.408   1.734  15.009
  187DOPC  C31823103   7.199   1.719  15.067
  187DOPC  H18X23104   7.201   1.806  15.136
  187DOPC  H18Y23105   7.160   1.754  14.969
  187DOPC  H18Z23106   7.128   1.644  15.108
  188DOPC     N23107   1.701   0.971  12.842
  188DOPC   C1223108   1.618   0.916  12.957
  188DOPC  H12A23109   1.638   0.810  12.968
  188DOPC  H12B23110   1.513   0.928  12.934
  188DOPC   C1323111   1.844   0.986  12.886
  188DOPC  H13A23112   1.886   0.893  12.919
  188DOPC  H13B23113   1.905   1.028  12.807
  188DOPC  H13C23114   1.848   1.054  12.970
  188DOPC   C1423115   1.650   1.107  12.806
  188DOPC  H14A23116   1.550   1.103  12.765
  188DOPC  H14B23117   1.645   1.167  12.896
  188DOPC  H14C23118   1.714   1.157  12.735
  188DOPC   C1523119   1.693   0.882  12.722
  188DOPC  H15A23120   1.725   0.781  12.744
  188DOPC  H15B23121   1.756   0.919  12.643
  188DOPC  H15C23122   1.592   0.877  12.683
  188DOPC   C1123123   1.639   0.980  13.097
  188DOPC  H11A23124   1.568   0.933  13.168
  188DOPC  H11B23125   1.741   0.953  13.134
  188DOPC     P23126   1.717   1.222  13.162
  188DOPC   O1323127   1.673   1.359  13.128
  188DOPC   O1423128   1.853   1.182  13.118
  188DOPC   O1223129   1.615   1.121  13.093
  188DOPC   O1123130   1.698   1.192  13.317
  188DOPC    C123131   1.565   1.169  13.368
  188DOPC    HA23132   1.519   1.079  13.322
  188DOPC    HB23133   1.500   1.256  13.343
  188DOPC    C223134   1.559   1.149  13.523
  188DOPC    HS23135   1.453   1.158  13.553
  188DOPC   O2123136   1.640   1.247  13.591
  188DOPC   C2123137   1.591   1.369  13.585
  188DOPC   O2223138   1.480   1.400  13.545
  188DOPC   C2223139   1.693   1.468  13.642
  188DOPC   H2R23140   1.665   1.568  13.601
  188DOPC   H2S23141   1.794   1.441  13.604
  188DOPC    C323142   1.605   1.007  13.570
  188DOPC    HX23143   1.551   0.930  13.511
  188DOPC    HY23144   1.571   0.997  13.675
  188DOPC   O3123145   1.748   0.990  13.569
  188DOPC   C3123146   1.801   0.929  13.465
  188DOPC   O3223147   1.738   0.870  13.378
  188DOPC   C3223148   1.954   0.939  13.469
  188DOPC   H2X23149   1.992   0.839  13.438
  188DOPC   H2Y23150   1.985   1.013  13.392
  188DOPC   C2323151   1.690   1.471  13.796
  188DOPC   H3R23152   1.586   1.457  13.833
  188DOPC   H3S23153   1.723   1.572  13.831
  188DOPC   C2423154   1.783   1.367  13.859
  188DOPC   H4R23155   1.888   1.396  13.839
  188DOPC   H4S23156   1.767   1.268  13.811
  188DOPC   C2523157   1.762   1.353  14.011
  188DOPC   H5R23158   1.730   1.451  14.052
  188DOPC   H5S23159   1.860   1.328  14.059
  188DOPC   C2623160   1.661   1.244  14.049
  188DOPC   H6R23161   1.571   1.252  13.985
  188DOPC   H6S23162   1.630   1.258  14.154
  188DOPC   C2723163   1.722   1.103  14.037
  188DOPC   H7R23164   1.814   1.102  14.099
  188DOPC   H7S23165   1.752   1.084  13.932
  188DOPC   C2823166   1.627   0.991  14.085
  188DOPC   H8R23167   1.544   0.982  14.011
  188DOPC   H8S23168   1.581   1.023  14.181
  188DOPC   C2923169   1.701   0.860  14.097
  188DOPC   H9R23170   1.726   0.813  14.001
  188DOPC  C21023171   1.740   0.800  14.211
  188DOPC  H10R23172   1.794   0.705  14.204
  188DOPC  C21123173   1.719   0.849  14.353
  188DOPC  H11R23174   1.668   0.948  14.356
  188DOPC  H11S23175   1.817   0.862  14.403
  188DOPC  C21223176   1.635   0.749  14.433
  188DOPC  H12R23177   1.683   0.649  14.430
  188DOPC  H12S23178   1.534   0.739  14.387
  188DOPC  C21323179   1.617   0.789  14.581
  188DOPC  H13R23180   1.555   0.881  14.586
  188DOPC  H13S23181   1.717   0.814  14.624
  188DOPC  C21423182   1.553   0.677  14.664
  188DOPC  H14R23183   1.621   0.590  14.665
  188DOPC  H14S23184   1.459   0.646  14.614
  188DOPC  C21523185   1.522   0.720  14.808
  188DOPC  H15R23186   1.454   0.808  14.804
  188DOPC  H15S23187   1.614   0.753  14.859
  188DOPC  C21623188   1.453   0.609  14.889
  188DOPC  H16R23189   1.382   0.554  14.824
  188DOPC  H16S23190   1.394   0.656  14.971
  188DOPC  C21723191   1.553   0.511  14.951
  188DOPC  H17R23192   1.623   0.567  15.016
  188DOPC  H17S23193   1.614   0.465  14.870
  188DOPC  C21823194   1.487   0.400  15.033
  188DOPC  H18R23195   1.564   0.333  15.077
  188DOPC  H18S23196   1.419   0.339  14.969
  188DOPC  H18T23197   1.427   0.444  15.116
  188DOPC   C3323198   2.018   0.976  13.606
  188DOPC   H3X23199   2.126   0.952  13.600
  188DOPC   H3Y23200   1.974   0.914  13.688
  188DOPC   C3423201   2.007   1.126  13.641
  188DOPC   H4X23202   1.904   1.149  13.673
  188DOPC   H4Y23203   2.027   1.184  13.548
  188DOPC   C3523204   2.108   1.173  13.748
  188DOPC   H5X23205   2.094   1.282  13.762
  188DOPC   H5Y23206   2.210   1.158  13.708
  188DOPC   C3623207   2.096   1.103  13.884
  188DOPC   H6X23208   1.991   1.110  13.920
  188DOPC   H6Y23209   2.121   0.995  13.872
  188DOPC   C3723210   2.190   1.165  13.989
  188DOPC   H7X23211   2.292   1.170  13.945
  188DOPC   H7Y23212   2.158   1.269  14.009
  188DOPC   C3823213   2.200   1.088  14.122
  188DOPC   H8X23214   2.278   1.137  14.184
  188DOPC   H8Y23215   2.238   0.985  14.100
  188DOPC   C3923216   2.070   1.079  14.197
  188DOPC   H9X23217   2.004   0.996  14.165
  188DOPC  C31023218   2.026   1.160  14.295
  188DOPC  H10X23219   1.927   1.141  14.339
  188DOPC  C31123220   2.099   1.280  14.352
  188DOPC  H11X23221   2.031   1.368  14.356
  188DOPC  H11Y23222   2.183   1.309  14.285
  188DOPC  C31223223   2.158   1.258  14.493
  188DOPC  H12X23224   2.243   1.330  14.504
  188DOPC  H12Y23225   2.201   1.156  14.501
  188DOPC  C31323226   2.063   1.285  14.611
  188DOPC  H13X23227   2.123   1.280  14.704
  188DOPC  H13Y23228   2.023   1.389  14.604
  188DOPC  C31423229   1.945   1.187  14.623
  188DOPC  H14X23230   1.875   1.205  14.539
  188DOPC  H14Y23231   1.983   1.083  14.614
  188DOPC  C31523232   1.866   1.200  14.755
  188DOPC  H15X23233   1.774   1.138  14.746
  188DOPC  H15Y23234   1.834   1.305  14.769
  188DOPC  C31623235   1.944   1.152  14.878
  188DOPC  H16X23236   1.982   1.050  14.859
  188DOPC  H16Y23237   2.032   1.219  14.893
  188DOPC  C31723238   1.861   1.152  15.007
  188DOPC  H17X23239   1.826   1.256  15.027
  188DOPC  H17Y23240   1.770   1.089  14.991
  188DOPC  C31823241   1.938   1.100  15.129
  188DOPC  H18X23242   1.874   1.102  15.219
  188DOPC  H18Y23243   1.971   0.995  15.111
  188DOPC  H18Z23244   2.028   1.162  15.148
  189DOPC     N23245   4.405   0.326  12.991
  189DOPC   C1223246   4.350   0.242  13.105
  189DOPC  H12A23247   4.430   0.212  13.171
  189DOPC  H12B23248   4.308   0.152  13.065
  189DOPC   C1323249   4.491   0.242  12.901
  189DOPC  H13A23250   4.433   0.160  12.860
  189DOPC  H13B23251   4.525   0.300  12.816
  189DOPC  H13C23252   4.577   0.203  12.952
  189DOPC   C1423253   4.483   0.442  13.043
  189DOPC  H14A23254   4.420   0.505  13.104
  189DOPC  H14B23255   4.568   0.410  13.101
  189DOPC  H14C23256   4.520   0.503  12.962
  189DOPC   C1523257   4.292   0.379  12.908
  189DOPC  H15A23258   4.240   0.298  12.858
  189DOPC  H15B23259   4.325   0.449  12.833
  189DOPC  H15C23260   4.218   0.425  12.972
  189DOPC   C1123261   4.236   0.304  13.190
  189DOPC  H11A23262   4.221   0.242  13.282
  189DOPC  H11B23263   4.264   0.406  13.224
  189DOPC     P23264   4.034   0.178  13.086
  189DOPC   O1323265   4.133   0.075  13.045
  189DOPC   O1423266   3.927   0.206  12.988
  189DOPC   O1223267   4.114   0.312  13.115
  189DOPC   O1123268   3.974   0.144  13.228
  189DOPC    C123269   3.890   0.239  13.294
  189DOPC    HA23270   3.787   0.231  13.255
  189DOPC    HB23271   3.924   0.344  13.279
  189DOPC    C223272   3.885   0.211  13.448
  189DOPC    HS23273   3.809   0.279  13.493
  189DOPC   O2123274   4.014   0.231  13.509
  189DOPC   C2123275   4.052   0.356  13.522
  189DOPC   O2223276   3.986   0.455  13.494
  189DOPC   C2223277   4.197   0.356  13.574
  189DOPC   H2R23278   4.259   0.315  13.491
  189DOPC   H2S23279   4.203   0.286  13.660
  189DOPC    C323280   3.839   0.065  13.475
  189DOPC    HX23281   3.914   9.215  13.428
  189DOPC    HY23282   3.743   0.046  13.423
  189DOPC   O3123283   3.833   0.035  13.616
  189DOPC   C3123284   3.718   0.065  13.676
  189DOPC   O3223285   3.619   0.110  13.622
  189DOPC   C3223286   3.733   0.037  13.826
  189DOPC   H2X23287   3.807   9.172  13.839
  189DOPC   H2Y23288   3.773   0.130  13.872
  189DOPC   C2323289   4.250   0.496  13.612
  189DOPC   H3R23290   4.212   0.573  13.541
  189DOPC   H3S23291   4.361   0.495  13.602
  189DOPC   C2423292   4.218   0.539  13.757
  189DOPC   H4R23293   4.108   0.539  13.772
  189DOPC   H4S23294   4.253   0.643  13.770
  189DOPC   C2523295   4.286   0.451  13.863
  189DOPC   H5R23296   4.390   0.430  13.830
  189DOPC   H5S23297   4.233   0.354  13.871
  189DOPC   C2623298   4.294   0.517  14.002
  189DOPC   H6R23299   4.352   0.611  13.993
  189DOPC   H6S23300   4.350   0.450  14.071
  189DOPC   C2723301   4.158   0.550  14.066
  189DOPC   H7R23302   4.102   0.619  13.998
  189DOPC   H7S23303   4.175   0.605  14.161
  189DOPC   C2823304   4.067   0.429  14.096
  189DOPC   H8R23305   4.043   0.378  14.000
  189DOPC   H8S23306   3.971   0.468  14.134
  189DOPC   C2923307   4.126   0.329  14.193
  189DOPC   H9R23308   4.185   0.249  14.146
  189DOPC  C21023309   4.114   0.332  14.327
  189DOPC  H10R23310   4.161   0.252  14.386
  189DOPC  C21123311   4.039   0.435  14.408
  189DOPC  H11R23312   4.026   0.529  14.350
  189DOPC  H11S23313   4.098   0.463  14.498
  189DOPC  C21223314   3.899   0.388  14.453
  189DOPC  H12R23315   3.839   0.360  14.364
  189DOPC  H12S23316   3.849   0.474  14.501
  189DOPC  C21323317   3.901   0.271  14.552
  189DOPC  H13R23318   3.969   0.295  14.636
  189DOPC  H13S23319   3.940   0.180  14.502
  189DOPC  C21423320   3.761   0.243  14.609
  189DOPC  H14R23321   3.692   0.217  14.526
  189DOPC  H14S23322   3.723   0.336  14.656
  189DOPC  C21523323   3.757   0.131  14.715
  189DOPC  H15R23324   3.657   0.133  14.763
  189DOPC  H15S23325   3.833   0.151  14.793
  189DOPC  C21623326   3.778   9.207  14.656
  189DOPC  H16R23327   3.881   9.200  14.613
  189DOPC  H16S23328   3.706   9.191  14.574
  189DOPC  C21723329   3.760   9.097  14.762
  189DOPC  H17R23330   3.659   9.108  14.807
  189DOPC  H17S23331   3.834   9.112  14.842
  189DOPC  C21823332   3.774   8.955  14.705
  189DOPC  H18R23333   3.874   8.942  14.659
  189DOPC  H18S23334   3.697   8.937  14.627
  189DOPC  H18T23335   3.761   8.879  14.785
  189DOPC   C3323336   3.599   9.216  13.895
  189DOPC   H3X23337   3.565   9.117  13.858
  189DOPC   H3Y23338   3.521   0.073  13.867
  189DOPC   C3423339   3.610   9.214  14.048
  189DOPC   H4X23340   3.510   9.191  14.091
  189DOPC   H4Y23341   3.639   0.099  14.083
  189DOPC   C3523342   3.711   9.111  14.102
  189DOPC   H5X23343   3.810   9.131  14.056
  189DOPC   H5Y23344   3.679   9.009  14.072
  189DOPC   C3623345   3.726   9.118  14.255
  189DOPC   H6X23346   3.763   0.002  14.284
  189DOPC   H6Y23347   3.625   9.105  14.301
  189DOPC   C3723348   3.820   9.010  14.313
  189DOPC   H7X23349   3.828   9.025  14.423
  189DOPC   H7Y23350   3.773   8.911  14.296
  189DOPC   C3823351   3.962   9.007  14.251
  189DOPC   H8X23352   3.952   8.986  14.143
  189DOPC   H8Y23353   4.014   8.919  14.295
  189DOPC   C3923354   4.040   9.134  14.272
  189DOPC   H9X23355   3.989   0.009  14.237
  189DOPC  C31023356   4.162   9.145  14.327
  189DOPC  H10X23357   4.206   0.029  14.338
  189DOPC  C31123358   4.246   9.032  14.380
  189DOPC  H11X23359   4.353   9.062  14.382
  189DOPC  H11Y23360   4.239   8.943  14.314
  189DOPC  C31223361   4.205   8.988  14.522
  189DOPC  H12X23362   4.270   8.904  14.554
  189DOPC  H12Y23363   4.101   8.950  14.521
  189DOPC  C31323364   4.215   9.101  14.627
  189DOPC  H13X23365   4.319   9.140  14.629
  189DOPC  H13Y23366   4.148   9.184  14.597
  189DOPC  C31423367   4.174   9.055  14.767
  189DOPC  H14X23368   4.075   9.005  14.761
  189DOPC  H14Y23369   4.247   8.980  14.805
  189DOPC  C31523370   4.163   9.173  14.864
  189DOPC  H15X23371   4.093   0.030  14.820
  189DOPC  H15Y23372   4.262   0.005  14.875
  189DOPC  C31623373   4.112   9.131  15.003
  189DOPC  H16X23374   4.012   9.084  14.992
  189DOPC  H16Y23375   4.181   9.055  15.045
  189DOPC  C31723376   4.102   0.032  15.101
  189DOPC  H17X23377   4.069   9.209  15.200
  189DOPC  H17Y23378   4.203   0.075  15.115
  189DOPC  C31823379   4.005   0.143  15.057
  189DOPC  H18X23380   3.904   0.101  15.037
  189DOPC  H18Y23381   3.996   0.220  15.137
  189DOPC  H18Z23382   4.041   0.193  14.965
  190DOPC     N23383   2.394   8.674  13.178
  190DOPC   C1223384   2.532   8.700  13.121
  190DOPC  H12A23385   2.606   8.647  13.180
  190DOPC  H12B23386   2.553   8.805  13.130
  190DOPC   C1323387   2.348   8.533  13.156
  190DOPC  H13A23388   2.245   8.523  13.188
  190DOPC  H13B23389   2.350   8.509  13.051
  190DOPC  H13C23390   2.409   8.462  13.209
  190DOPC   C1423391   2.295   8.764  13.110
  190DOPC  H14A23392   2.326   8.867  13.118
  190DOPC  H14B23393   2.292   8.741  13.004
  190DOPC  H14C23394   2.196   8.752  13.151
  190DOPC   C1523395   2.387   8.708  13.324
  190DOPC  H15A23396   2.453   8.646  13.383
  190DOPC  H15B23397   2.286   8.695  13.359
  190DOPC  H15C23398   2.412   8.812  13.339
  190DOPC   C1123399   2.556   8.664  12.972
  190DOPC  H11A23400   2.664   8.677  12.948
  190DOPC  H11B23401   2.535   8.557  12.955
  190DOPC     P23402   2.514   8.894  12.857
  190DOPC   O1323403   2.412   8.952  12.767
  190DOPC   O1423404   2.655   8.901  12.814
  190DOPC   O1223405   2.475   8.742  12.883
  190DOPC   O1123406   2.499   8.954  13.003
  190DOPC    C123407   2.549   9.084  13.037
  190DOPC    HA23408   2.486   9.162  12.989
  190DOPC    HB23409   2.653   9.097  13.002
  190DOPC    C223410   2.545   9.111  13.192
  190DOPC    HS23411   2.567   0.002  13.208
  190DOPC   O2123412   2.642   9.027  13.259
  190DOPC   C2123413   2.763   9.082  13.263
  190DOPC   O2223414   2.802   9.173  13.192
  190DOPC   C2223415   2.841   9.021  13.379
  190DOPC   H2R23416   2.855   8.912  13.360
  190DOPC   H2S23417   2.780   9.034  13.470
  190DOPC    C323418   2.402   9.088  13.252
  190DOPC    HX23419   2.340   9.037  13.175
  190DOPC    HY23420   2.356   9.188  13.266
  190DOPC   O3123421   2.397   9.010  13.375
  190DOPC   C3123422   2.432   9.077  13.484
  190DOPC   O3223423   2.486   9.186  13.487
  190DOPC   C3223424   2.397   8.992  13.608
  190DOPC   H2X23425   2.298   8.946  13.592
  190DOPC   H2Y23426   2.474   8.913  13.616
  190DOPC   C2323427   2.979   9.090  13.400
  190DOPC   H3R23428   2.969   9.200  13.395
  190DOPC   H3S23429   3.047   9.059  13.317
  190DOPC   C2423430   3.043   9.054  13.534
  190DOPC   H4R23431   3.152   9.071  13.527
  190DOPC   H4S23432   3.028   8.945  13.555
  190DOPC   C2523433   2.990   9.137  13.653
  190DOPC   H5R23434   2.879   9.132  13.656
  190DOPC   H5S23435   3.019   0.026  13.637
  190DOPC   C2623436   3.047   9.087  13.786
  190DOPC   H6R23437   3.156   9.070  13.772
  190DOPC   H6S23438   3.002   8.989  13.811
  190DOPC   C2723439   3.030   9.183  13.905
  190DOPC   H7R23440   3.094   0.056  13.887
  190DOPC   H7S23441   3.069   9.133  13.996
  190DOPC   C2823442   2.886   0.015  13.931
  190DOPC   H8R23443   2.855   0.080  13.847
  190DOPC   H8S23444   2.889   0.081  14.021
  190DOPC   C2923445   2.783   9.123  13.952
  190DOPC   H9R23446   2.722   9.100  13.863
  190DOPC  C21023447   2.762   9.055  14.066
  190DOPC  H10R23448   2.680   8.981  14.067
  190DOPC  C21123449   2.836   9.072  14.196
  190DOPC  H11R23450   2.939   9.109  14.178
  190DOPC  H11S23451   2.847   8.973  14.246
  190DOPC  C21223452   2.768   9.169  14.294
  190DOPC  H12R23453   2.761   0.054  14.249
  190DOPC  H12S23454   2.833   9.178  14.384
  190DOPC  C21323455   2.629   9.125  14.341
  190DOPC  H13R23456   2.634   9.020  14.378
  190DOPC  H13S23457   2.558   9.126  14.255
  190DOPC  C21423458   2.573   9.214  14.453
  190DOPC  H14R23459   2.570   0.102  14.417
  190DOPC  H14S23460   2.643   9.210  14.540
  190DOPC  C21523461   2.433   9.171  14.498
  190DOPC  H15R23462   2.437   9.065  14.530
  190DOPC  H15S23463   2.364   9.179  14.412
  190DOPC  C21623464   2.380   0.041  14.613
  190DOPC  H16R23465   2.384   0.148  14.582
  190DOPC  H16S23466   2.446   0.029  14.702
  190DOPC  C21723467   2.235   0.008  14.653
  190DOPC  H17R23468   2.169   0.024  14.565
  190DOPC  H17S23469   2.202   0.080  14.731
  190DOPC  C21823470   2.215   9.082  14.705
  190DOPC  H18R23471   2.279   9.063  14.793
  190DOPC  H18S23472   2.240   9.008  14.626
  190DOPC  H18T23473   2.109   9.066  14.734
  190DOPC   C3323474   2.396   9.076  13.738
  190DOPC   H3X23475   2.313   9.150  13.734
  190DOPC   H3Y23476   2.490   9.134  13.745
  190DOPC   C3423477   2.382   8.995  13.868
  190DOPC   H4X23478   2.404   9.063  13.952
  190DOPC   H4Y23479   2.459   8.914  13.871
  190DOPC   C3523480   2.243   8.934  13.892
  190DOPC   H5X23481   2.226   8.850  13.822
  190DOPC   H5Y23482   2.165   9.011  13.873
  190DOPC   C3623483   2.228   8.885  14.037
  190DOPC   H6X23484   2.313   8.817  14.060
  190DOPC   H6Y23485   2.234   8.972  14.106
  190DOPC   C3723486   2.097   8.809  14.065
  190DOPC   H7X23487   2.010   8.873  14.038
  190DOPC   H7Y23488   2.095   8.719  14.000
  190DOPC   C3823489   2.085   8.766  14.213
  190DOPC   H8X23490   2.069   8.857  14.275
  190DOPC   H8Y23491   2.184   8.725  14.244
  190DOPC   C3923492   1.975   8.666  14.239
  190DOPC   H9X23493   1.873   8.708  14.238
  190DOPC  C31023494   1.990   8.533  14.262
  190DOPC  H10X23495   1.901   8.472  14.281
  190DOPC  C31123496   2.121   8.457  14.267
  190DOPC  H11X23497   2.203   8.517  14.223
  190DOPC  H11Y23498   2.113   8.366  14.205
  190DOPC  C31223499   2.165   8.417  14.409
  190DOPC  H12X23500   2.090   8.350  14.456
  190DOPC  H12Y23501   2.171   8.509  14.471
  190DOPC  C31323502   2.303   8.349  14.408
  190DOPC  H13X23503   2.298   8.253  14.352
  190DOPC  H13Y23504   2.372   8.416  14.354
  190DOPC  C31423505   2.361   8.325  14.548
  190DOPC  H14X23506   2.332   8.412  14.612
  190DOPC  H14Y23507   2.318   8.234  14.594
  190DOPC  C31523508   2.515   8.319  14.548
  190DOPC  H15X23509   2.552   8.403  14.484
  190DOPC  H15Y23510   2.550   8.224  14.502
  190DOPC  C31623511   2.576   8.338  14.687
  190DOPC  H16X23512   2.525   8.423  14.737
  190DOPC  H16Y23513   2.558   8.247  14.749
  190DOPC  C31723514   2.726   8.371  14.683
  190DOPC  H17X23515   2.782   8.282  14.647
  190DOPC  H17Y23516   2.742   8.452  14.609
  190DOPC  C31823517   2.782   8.416  14.818
  190DOPC  H18X23518   2.766   8.338  14.895
  190DOPC  H18Y23519   2.890   8.438  14.810
  190DOPC  H18Z23520   2.730   8.509  14.852
  191DOPC     N23521   6.001   8.811  13.098
  191DOPC   C1223522   5.980   8.947  13.032
  191DOPC  H12A23523   6.013   9.022  13.101
  191DOPC  H12B23524   5.875   8.962  13.013
  191DOPC   C1323525   5.930   8.806  13.229
  191DOPC  H13A23526   5.823   8.816  13.217
  191DOPC  H13B23527   5.949   8.713  13.281
  191DOPC  H13C23528   5.960   8.888  13.293
  191DOPC   C1423529   6.148   8.791  13.121
  191DOPC  H14A23530   6.200   8.807  13.027
  191DOPC  H14B23531   6.186   8.868  13.186
  191DOPC  H14C23532   6.171   8.693  13.159
  191DOPC   C1523533   5.951   8.701  13.009
  191DOPC  H15A23534   5.844   8.709  12.992
  191DOPC  H15B23535   5.971   8.603  13.050
  191DOPC  H15C23536   5.997   8.706  12.911
  191DOPC   C1123537   6.058   8.977  12.901
  191DOPC  H11A23538   6.039   8.896  12.827
  191DOPC  H11B23539   6.018   9.070  12.855
  191DOPC     P23540   6.260   9.115  12.992
  191DOPC   O1323541   6.222   0.019  12.915
  191DOPC   O1423542   6.404   9.091  13.019
  191DOPC   O1223543   6.198   8.987  12.923
  191DOPC   O1123544   6.181   9.119  13.130
  191DOPC    C123545   6.205   0.013  13.218
  191DOPC    HA23546   6.193   0.110  13.166
  191DOPC    HB23547   6.309   0.009  13.257
  191DOPC    C223548   6.106   0.012  13.338
  191DOPC    HS23549   6.126   0.101  13.401
  191DOPC   O2123550   6.120   9.107  13.415
  191DOPC   C2123551   6.225   9.107  13.496
  191DOPC   O2223552   6.301   9.200  13.513
  191DOPC   C2223553   6.234   8.971  13.565
  191DOPC   H2R23554   6.309   8.911  13.508
  191DOPC   H2S23555   6.136   8.919  13.559
  191DOPC    C323556   5.959   0.024  13.289
  191DOPC    HX23557   5.935   9.154  13.224
  191DOPC    HY23558   5.953   0.114  13.225
  191DOPC   O3123559   5.867   0.039  13.399
  191DOPC   C3123560   5.815   9.143  13.449
  191DOPC   O3223561   5.830   9.032  13.402
  191DOPC   C3223562   5.733   9.178  13.573
  191DOPC   H2X23563   5.786   0.041  13.628
  191DOPC   H2Y23564   5.635   0.001  13.538
  191DOPC   C2323565   6.279   8.982  13.712
  191DOPC   H3R23566   6.373   9.042  13.720
  191DOPC   H3S23567   6.302   8.880  13.750
  191DOPC   C2423568   6.172   9.043  13.803
  191DOPC   H4R23569   6.077   8.986  13.791
  191DOPC   H4S23570   6.152   9.148  13.772
  191DOPC   C2523571   6.213   9.043  13.951
  191DOPC   H5R23572   6.310   9.096  13.961
  191DOPC   H5S23573   6.230   8.937  13.983
  191DOPC   C2623574   6.111   9.108  14.046
  191DOPC   H6R23575   6.101   9.216  14.020
  191DOPC   H6S23576   6.150   9.101  14.149
  191DOPC   C2723577   5.972   9.041  14.041
  191DOPC   H7R23578   5.987   8.931  14.048
  191DOPC   H7S23579   5.924   9.063  13.944
  191DOPC   C2823580   5.879   9.084  14.157
  191DOPC   H8R23581   5.928   9.055  14.252
  191DOPC   H8S23582   5.786   9.023  14.149
  191DOPC   C2923583   5.843   0.014  14.153
  191DOPC   H9R23584   5.816   0.052  14.054
  191DOPC  C21023585   5.842   0.098  14.258
  191DOPC  H10R23586   5.815   0.203  14.241
  191DOPC  C21123587   5.876   0.063  14.401
  191DOPC  H11R23588   5.864   9.171  14.421
  191DOPC  H11S23589   5.806   0.115  14.470
  191DOPC  C21223590   6.021   0.103  14.437
  191DOPC  H12R23591   6.032   0.213  14.429
  191DOPC  H12S23592   6.090   0.057  14.363
  191DOPC  C21323593   6.064   0.058  14.578
  191DOPC  H13R23594   6.171   0.085  14.592
  191DOPC  H13S23595   6.056   9.164  14.584
  191DOPC  C21423596   5.982   0.122  14.691
  191DOPC  H14R23597   5.876   0.089  14.683
  191DOPC  H14S23598   5.984   0.232  14.680
  191DOPC  C21523599   6.036   0.084  14.830
  191DOPC  H15R23600   6.143   0.113  14.835
  191DOPC  H15S23601   6.030   9.191  14.844
  191DOPC  C21623602   5.961   0.154  14.946
  191DOPC  H16R23603   5.964   0.263  14.930
  191DOPC  H16S23604   6.015   0.132  15.040
  191DOPC  C21723605   5.816   0.108  14.962
  191DOPC  H17R23606   5.815   9.214  14.975
  191DOPC  H17S23607   5.759   0.131  14.869
  191DOPC  C21823608   5.745   0.173  15.081
  191DOPC  H18R23609   5.799   0.151  15.175
  191DOPC  H18S23610   5.641   0.134  15.090
  191DOPC  H18T23611   5.741   0.283  15.068
  191DOPC   C3323612   5.710   9.057  13.667
  191DOPC   H3X23613   5.808   9.015  13.698
  191DOPC   H3Y23614   5.655   8.976  13.613
  191DOPC   C3423615   5.631   9.097  13.793
  191DOPC   H4X23616   5.529   9.129  13.764
  191DOPC   H4Y23617   5.682   9.185  13.838
  191DOPC   C3523618   5.623   8.987  13.899
  191DOPC   H5X23619   5.578   9.030  13.991
  191DOPC   H5Y23620   5.726   8.954  13.925
  191DOPC   C3623621   5.540   8.864  13.858
  191DOPC   H6X23622   5.442   8.899  13.820
  191DOPC   H6Y23623   5.591   8.809  13.776
  191DOPC   C3723624   5.514   8.768  13.976
  191DOPC   H7X23625   5.465   8.825  14.057
  191DOPC   H7Y23626   5.442   8.690  13.942
  191DOPC   C3823627   5.641   8.699  14.030
  191DOPC   H8X23628   5.717   8.777  14.053
  191DOPC   H8Y23629   5.685   8.637  13.950
  191DOPC   C3923630   5.613   8.615  14.152
  191DOPC   H9X23631   5.585   8.511  14.132
  191DOPC  C31023632   5.617   8.657  14.280
  191DOPC  H10X23633   5.594   8.585  14.361
  191DOPC  C31123634   5.651   8.797  14.328
  191DOPC  H11X23635   5.664   8.866  14.242
  191DOPC  H11Y23636   5.747   8.797  14.383
  191DOPC  C31223637   5.541   8.858  14.418
  191DOPC  H12X23638   5.443   8.846  14.367
  191DOPC  H12Y23639   5.559   8.968  14.426
  191DOPC  C31323640   5.533   8.800  14.560
  191DOPC  H13X23641   5.426   8.792  14.587
  191DOPC  H13Y23642   5.574   8.696  14.562
  191DOPC  C31423643   5.601   8.886  14.668
  191DOPC  H14X23644   5.556   8.988  14.665
  191DOPC  H14Y23645   5.578   8.843  14.768
  191DOPC  C31523646   5.754   8.899  14.655
  191DOPC  H15X23647   5.789   8.970  14.733
  191DOPC  H15Y23648   5.780   8.943  14.556
  191DOPC  C31623649   5.829   8.766  14.674
  191DOPC  H16X23650   5.796   8.719  14.769
  191DOPC  H16Y23651   5.803   8.697  14.591
  191DOPC  C31723652   5.981   8.784  14.678
  191DOPC  H17X23653   6.014   8.830  14.583
  191DOPC  H17Y23654   6.007   8.855  14.760
  191DOPC  C31823655   6.057   8.653  14.700
  191DOPC  H18X23656   6.035   8.581  14.618
  191DOPC  H18Y23657   6.167   8.671  14.703
  191DOPC  H18Z23658   6.027   8.606  14.797
  192DOPC     N23659   0.144   6.133  12.928
  192DOPC   C1223660   0.231   6.140  13.053
  192DOPC  H12A23661   0.303   6.059  13.050
  192DOPC  H12B23662   0.169   6.123  13.139
  192DOPC   C1323663   0.032   6.232  12.937
  192DOPC  H13A23664   0.074   6.330  12.956
  192DOPC  H13B23665   9.191   6.237  12.846
  192DOPC  H13C23666   9.182   6.210  13.019
  192DOPC   C1423667   0.086   5.996  12.910
  192DOPC  H14A23668   0.024   5.992  12.822
  192DOPC  H14B23669   0.162   5.920  12.899
  192DOPC  H14C23670   0.024   5.967  12.994
  192DOPC   C1523671   0.227   6.168  12.808
  192DOPC  H15A23672   0.311   6.102  12.797
  192DOPC  H15B23673   0.264   6.269  12.819
  192DOPC  H15C23674   0.168   6.167  12.718
  192DOPC   C1123675   0.311   6.271  13.079
  192DOPC  H11A23676   0.364   6.260  13.176
  192DOPC  H11B23677   0.389   6.283  13.001
  192DOPC     P23678   0.236   6.507  13.176
  192DOPC   O1323679   0.251   6.630  13.094
  192DOPC   O1423680   0.340   6.486  13.277
  192DOPC   O1223681   0.225   6.385  13.077
  192DOPC   O1123682   0.094   6.507  13.244
  192DOPC    C123683   0.028   6.387  13.286
  192DOPC    HA23684   0.085   6.296  13.259
  192DOPC    HB23685   9.146   6.381  13.236
  192DOPC    C223686   0.004   6.379  13.440
  192DOPC    HS23687   9.136   6.447  13.466
  192DOPC   O2123688   0.124   6.411  13.512
  192DOPC   C2123689   0.136   6.539  13.544
  192DOPC   O2223690   0.056   6.627  13.520
  192DOPC   C2223691   0.264   6.559  13.625
  192DOPC   H2R23692   0.350   6.564  13.554
  192DOPC   H2S23693   0.277   6.469  13.689
  192DOPC    C323694   9.176   6.235  13.481
  192DOPC    HX23695   0.045   6.169  13.455
  192DOPC    HY23696   9.088   6.206  13.420
  192DOPC   O3123697   9.142   6.229  13.621
  192DOPC   C3123698   9.155   6.107  13.675
  192DOPC   O3223699   9.191   6.008  13.616
  192DOPC   C3223700   9.110   6.111  13.822
  192DOPC   H2X23701   9.051   6.203  13.837
  192DOPC   H2Y23702   9.044   6.023  13.839
  192DOPC   C2323703   0.256   6.686  13.712
  192DOPC   H3R23704   0.160   6.687  13.768
  192DOPC   H3S23705   0.256   6.776  13.646
  192DOPC   C2423706   0.370   6.700  13.815
  192DOPC   H4R23707   0.353   6.793  13.874
  192DOPC   H4S23708   0.466   6.713  13.760
  192DOPC   C2523709   0.385   6.582  13.913
  192DOPC   H5R23710   0.464   6.607  13.987
  192DOPC   H5S23711   0.420   6.493  13.857
  192DOPC   C2623712   0.256   6.545  13.988
  192DOPC   H6R23713   0.177   6.518  13.914
  192DOPC   H6S23714   0.220   6.633  14.045
  192DOPC   C2723715   0.275   6.425  14.082
  192DOPC   H7R23716   0.345   6.452  14.164
  192DOPC   H7S23717   0.323   6.343  14.024
  192DOPC   C2823718   0.143   6.370  14.139
  192DOPC   H8R23719   0.164   6.272  14.187
  192DOPC   H8S23720   0.074   6.351  14.054
  192DOPC   C2923721   0.077   6.462  14.239
  192DOPC   H9R23722   0.130   6.557  14.257
  192DOPC  C21023723   9.179   6.436  14.303
  192DOPC  H10R23724   9.139   6.511  14.373
  192DOPC  C21123725   9.096   6.311  14.288
  192DOPC  H11R23726   9.090   6.258  14.386
  192DOPC  H11S23727   9.143   6.239  14.217
  192DOPC  C21223728   8.954   6.341  14.238
  192DOPC  H12R23729   8.959   6.409  14.150
  192DOPC  H12S23730   8.898   6.394  14.318
  192DOPC  C21323731   8.876   6.215  14.195
  192DOPC  H13R23732   8.923   6.174  14.103
  192DOPC  H13S23733   8.772   6.245  14.168
  192DOPC  C21423734   8.869   6.103  14.300
  192DOPC  H14R23735   8.971   6.063  14.318
  192DOPC  H14S23736   8.808   6.019  14.258
  192DOPC  C21523737   8.807   6.145  14.434
  192DOPC  H15R23738   8.708   6.191  14.415
  192DOPC  H15S23739   8.872   6.223  14.481
  192DOPC  C21623740   8.792   6.027  14.531
  192DOPC  H16R23741   8.890   5.977  14.542
  192DOPC  H16S23742   8.720   5.954  14.488
  192DOPC  C21723743   8.742   6.071  14.669
  192DOPC  H17R23744   8.644   6.122  14.658
  192DOPC  H17S23745   8.814   6.145  14.711
  192DOPC  C21823746   8.728   5.954  14.768
  192DOPC  H18R23747   8.690   5.991  14.866
  192DOPC  H18S23748   8.826   5.905  14.784
  192DOPC  H18T23749   8.657   5.879  14.728
  192DOPC   C3323750   0.011   6.109  13.922
  192DOPC   H3X23751   9.186   6.137  14.022
  192DOPC   H3Y23752   0.088   6.185  13.896
  192DOPC   C3423753   0.078   5.971  13.939
  192DOPC   H4X23754   0.136   5.947  13.847
  192DOPC   H4Y23755   9.215   5.894  13.950
  192DOPC   C3523756   0.169   5.965  14.062
  192DOPC   H5X23757   0.107   5.980  14.153
  192DOPC   H5Y23758   0.242   6.049  14.058
  192DOPC   C3623759   0.247   5.833  14.078
  192DOPC   H6X23760   0.321   5.827  13.995
  192DOPC   H6Y23761   0.304   5.837  14.173
  192DOPC   C3723762   0.162   5.705  14.076
  192DOPC   H7X23763   0.114   5.696  13.976
  192DOPC   H7Y23764   0.229   5.617  14.086
  192DOPC   C3823765   0.051   5.697  14.183
  192DOPC   H8X23766   9.208   5.607  14.161
  192DOPC   H8Y23767   9.199   5.784  14.168
  192DOPC   C3923768   0.102   5.688  14.324
  192DOPC   H9X23769   0.176   5.608  14.340
  192DOPC  C31023770   0.068   5.765  14.430
  192DOPC  H10X23771   0.114   5.744  14.527
  192DOPC  C31123772   9.186   5.879  14.431
  192DOPC  H11X23773   9.090   5.845  14.475
  192DOPC  H11Y23774   9.163   5.916  14.328
  192DOPC  C31223775   0.020   5.999  14.513
  192DOPC  H12X23776   0.036   5.969  14.619
  192DOPC  H12Y23777   9.157   6.076  14.513
  192DOPC  C31323778   0.148   6.062  14.457
  192DOPC  H13X23779   0.232   5.990  14.467
  192DOPC  H13Y23780   0.134   6.083  14.349
  192DOPC  C31423781   0.186   6.193  14.528
  192DOPC  H14X23782   0.105   6.267  14.510
  192DOPC  H14Y23783   0.192   6.176  14.637
  192DOPC  C31523784   0.319   6.251  14.477
  192DOPC  H15X23785   0.317   6.250  14.366
  192DOPC  H15Y23786   0.402   6.185  14.509
  192DOPC  C31623787   0.345   6.395  14.523
  192DOPC  H16X23788   0.443   6.428  14.482
  192DOPC  H16Y23789   0.267   6.461  14.478
  192DOPC  C31723790   0.345   6.416  14.675
  192DOPC  H17X23791   0.364   6.524  14.695
  192DOPC  H17Y23792   0.244   6.393  14.715
  192DOPC  C31823793   0.450   6.333  14.750
  192DOPC  H18X23794   0.448   6.358  14.859
  192DOPC  H18Y23795   0.430   6.225  14.738
  192DOPC  H18Z23796   0.552   6.355  14.711
  193DOPC     N23797   8.783   1.958  12.986
  193DOPC   C1223798   8.759   2.044  13.110
  193DOPC  H12A23799   8.792   1.992  13.199
  193DOPC  H12B23800   8.652   2.057  13.122
  193DOPC   C1323801   8.705   1.831  12.993
  193DOPC  H13A23802   8.720   1.773  12.903
  193DOPC  H13B23803   8.737   1.770  13.076
  193DOPC  H13C23804   8.600   1.851  13.002
  193DOPC   C1423805   8.929   1.926  12.970
  193DOPC  H14A23806   8.987   2.017  12.971
  193DOPC  H14B23807   8.964   1.861  13.048
  193DOPC  H14C23808   8.947   1.877  12.876
  193DOPC   C1523809   8.737   2.036  12.866
  193DOPC  H15A23810   8.748   1.981  12.773
  193DOPC  H15B23811   8.791   2.129  12.859
  193DOPC  H15C23812   8.634   2.065  12.877
  193DOPC   C1123813   8.818   2.187  13.111
  193DOPC  H11A23814   8.817   2.226  13.215
  193DOPC  H11B23815   8.925   2.184  13.080
  193DOPC     P23816   8.596   2.312  13.057
  193DOPC   O1323817   8.510   2.200  13.011
  193DOPC   O1423818   8.567   2.446  13.001
  193DOPC   O1223819   8.746   2.275  13.024
  193DOPC   O1123820   8.596   2.316  13.214
  193DOPC    C123821   8.491   2.372  13.292
  193DOPC    HA23822   8.393   2.370  13.239
  193DOPC    HB23823   8.516   2.478  13.314
  193DOPC    C223824   8.477   2.294  13.426
  193DOPC    HS23825   8.578   2.276  13.468
  193DOPC   O2123826   8.405   2.172  13.403
  193DOPC   C2123827   8.478   2.066  13.375
  193DOPC   O2223828   8.600   2.061  13.365
  193DOPC   C2223829   8.387   1.945  13.361
  193DOPC   H2R23830   8.427   1.883  13.278
  193DOPC   H2S23831   8.285   1.979  13.334
  193DOPC    C323832   8.398   2.378  13.531
  193DOPC    HX23833   8.302   2.405  13.483
  193DOPC    HY23834   8.454   2.471  13.552
  193DOPC   O3123835   8.378   2.303  13.653
  193DOPC   C3123836   8.280   2.351  13.730
  193DOPC   O3223837   8.214   2.450  13.704
  193DOPC   C3223838   8.258   2.263  13.852
  193DOPC   H2X23839   8.149   2.248  13.861
  193DOPC   H2Y23840   8.305   2.163  13.835
  193DOPC   C2323841   8.383   1.860  13.491
  193DOPC   H3R23842   8.487   1.834  13.522
  193DOPC   H3S23843   8.330   1.765  13.469
  193DOPC   C2423844   8.309   1.931  13.606
  193DOPC   H4R23845   8.206   1.954  13.573
  193DOPC   H4S23846   8.359   2.027  13.630
  193DOPC   C2523847   8.301   1.845  13.734
  193DOPC   H5R23848   8.263   1.744  13.707
  193DOPC   H5S23849   8.227   1.891  13.802
  193DOPC   C2623850   8.435   1.832  13.808
  193DOPC   H6R23851   8.464   1.931  13.850
  193DOPC   H6S23852   8.514   1.803  13.736
  193DOPC   C2723853   8.434   1.727  13.921
  193DOPC   H7R23854   8.535   1.720  13.965
  193DOPC   H7S23855   8.411   1.629  13.874
  193DOPC   C2823856   8.331   1.751  14.033
  193DOPC   H8R23857   8.329   1.661  14.097
  193DOPC   H8S23858   8.230   1.760  13.988
  193DOPC   C2923859   8.362   1.874  14.114
  193DOPC   H9R23860   8.341   1.969  14.063
  193DOPC  C21023861   8.408   1.878  14.241
  193DOPC  H10R23862   8.425   1.975  14.288
  193DOPC  C21123863   8.439   1.759  14.328
  193DOPC  H11R23864   8.536   1.775  14.380
  193DOPC  H11S23865   8.453   1.666  14.268
  193DOPC  C21223866   8.332   1.730  14.436
  193DOPC  H12R23867   8.364   1.639  14.490
  193DOPC  H12S23868   8.235   1.709  14.387
  193DOPC  C21323869   8.315   1.845  14.537
  193DOPC  H13R23870   8.263   1.929  14.486
  193DOPC  H13S23871   8.415   1.882  14.567
  193DOPC  C21423872   8.237   1.805  14.663
  193DOPC  H14R23873   8.140   1.759  14.635
  193DOPC  H14S23874   8.215   1.898  14.720
  193DOPC  C21523875   8.315   1.709  14.755
  193DOPC  H15R23876   8.419   1.749  14.767
  193DOPC  H15S23877   8.323   1.610  14.706
  193DOPC  C21623878   8.251   1.694  14.893
  193DOPC  H16R23879   8.146   1.660  14.879
  193DOPC  H16S23880   8.248   1.793  14.943
  193DOPC  C21723881   8.323   1.593  14.985
  193DOPC  H17R23882   8.321   1.493  14.936
  193DOPC  H17S23883   8.266   1.585  15.080
  193DOPC  C21823884   8.468   1.629  15.018
  193DOPC  H18R23885   8.474   1.729  15.066
  193DOPC  H18S23886   8.530   1.631  14.925
  193DOPC  H18T23887   8.512   1.554  15.087
  193DOPC   C3323888   8.310   2.329  13.982
  193DOPC   H3X23889   8.271   2.271  14.069
  193DOPC   H3Y23890   8.269   2.432  13.991
  193DOPC   C3423891   8.464   2.334  13.994
  193DOPC   H4X23892   8.490   2.386  14.088
  193DOPC   H4Y23893   8.506   2.394  13.910
  193DOPC   C3523894   8.527   2.194  13.995
  193DOPC   H5X23895   8.511   2.146  13.896
  193DOPC   H5Y23896   8.475   2.133  14.071
  193DOPC   C3623897   8.677   2.192  14.026
  193DOPC   H6X23898   8.732   2.253  13.951
  193DOPC   H6Y23899   8.694   2.236  14.126
  193DOPC   C3723900   8.731   2.048  14.024
  193DOPC   H7X23901   8.671   1.987  14.095
  193DOPC   H7Y23902   8.714   2.005  13.923
  193DOPC   C3823903   8.880   2.038  14.061
  193DOPC   H8X23904   8.893   2.084  14.161
  193DOPC   H8Y23905   8.939   2.099  13.990
  193DOPC   C3923906   8.926   1.894  14.057
  193DOPC   H9X23907   8.934   1.852  13.956
  193DOPC  C31023908   8.956   1.816  14.162
  193DOPC  H10X23909   8.986   1.712  14.144
  193DOPC  C31123910   8.948   1.856  14.308
  193DOPC  H11X23911   8.968   1.964  14.320
  193DOPC  H11Y23912   9.026   1.803  14.366
  193DOPC  C31223913   8.810   1.824  14.369
  193DOPC  H12X23914   8.791   1.715  14.360
  193DOPC  H12Y23915   8.732   1.875  14.309
  193DOPC  C31323916   8.796   1.865  14.517
  193DOPC  H13X23917   8.692   1.841  14.550
  193DOPC  H13Y23918   8.865   1.803  14.577
  193DOPC  C31423919   8.824   2.013  14.547
  193DOPC  H14X23920   8.812   2.030  14.656
  193DOPC  H14Y23921   8.929   2.036  14.522
  193DOPC  C31523922   8.733   2.112  14.471
  193DOPC  H15X23923   8.629   2.104  14.510
  193DOPC  H15Y23924   8.730   2.084  14.364
  193DOPC  C31623925   8.782   2.258  14.478
  193DOPC  H16X23926   8.883   2.262  14.433
  193DOPC  H16Y23927   8.715   2.321  14.416
  193DOPC  C31723928   8.788   2.319  14.620
  193DOPC  H17X23929   8.853   2.255  14.684
  193DOPC  H17Y23930   8.837   2.418  14.612
  193DOPC  C31823931   8.651   2.336  14.686
  193DOPC  H18X23932   8.587   2.403  14.625
  193DOPC  H18Y23933   8.600   2.238  14.697
  193DOPC  H18Z23934   8.663   2.382  14.787
  194DOPC     N23935   2.172   0.448  12.925
  194DOPC   C1223936   2.218   0.307  12.964
  194DOPC  H12A23937   2.273   0.318  13.056
  194DOPC  H12B23938   2.289   0.271  12.892
  194DOPC   C1323939   2.024   0.462  12.940
  194DOPC  H13A23940   1.992   0.565  12.931
  194DOPC  H13B23941   1.972   0.401  12.866
  194DOPC  H13C23942   1.996   0.423  13.036
  194DOPC   C1423943   2.215   0.477  12.785
  194DOPC  H14A23944   2.320   0.458  12.774
  194DOPC  H14B23945   2.163   0.414  12.714
  194DOPC  H14C23946   2.199   0.581  12.758
  194DOPC   C1523947   2.240   0.543  13.020
  194DOPC  H15A23948   2.347   0.540  13.007
  194DOPC  H15B23949   2.219   0.512  13.122
  194DOPC  H15C23950   2.207   0.644  13.006
  194DOPC   C1123951   2.110   0.201  12.997
  194DOPC  H11A23952   2.041   0.189  12.910
  194DOPC  H11B23953   2.159   0.102  13.011
  194DOPC     P23954   2.111   0.235  13.253
  194DOPC   O1323955   2.215   0.340  13.248
  194DOPC   O1423956   2.154   0.097  13.280
  194DOPC   O1223957   2.035   0.237  13.113
  194DOPC   O1123958   1.999   0.278  13.356
  194DOPC    C123959   1.901   0.376  13.323
  194DOPC    HA23960   1.854   0.355  13.224
  194DOPC    HB23961   1.947   0.476  13.319
  194DOPC    C223962   1.785   0.376  13.427
  194DOPC    HS23963   1.718   0.462  13.405
  194DOPC   O2123964   1.834   0.386  13.562
  194DOPC   C2123965   1.895   0.498  13.594
  194DOPC   O2223966   1.904   0.598  13.526
  194DOPC   C2223967   1.945   0.487  13.739
  194DOPC   H2R23968   1.875   0.422  13.795
  194DOPC   H2S23969   1.941   0.589  13.782
  194DOPC    C323970   1.698   0.246  13.416
  194DOPC    HX23971   1.644   0.251  13.320
  194DOPC    HY23972   1.622   0.247  13.497
  194DOPC   O3123973   1.778   0.125  13.417
  194DOPC   C3123974   1.816   0.084  13.538
  194DOPC   O3223975   1.769   0.121  13.644
  194DOPC   C3223976   1.926   9.194  13.524
  194DOPC   H2X23977   1.905   9.132  13.434
  194DOPC   H2Y23978   2.021   0.032  13.508
  194DOPC   C2323979   2.089   0.431  13.748
  194DOPC   H3R23980   2.121   0.438  13.854
  194DOPC   H3S23981   2.158   0.493  13.687
  194DOPC   C2423982   2.098   0.284  13.704
  194DOPC   H4R23983   2.071   0.278  13.596
  194DOPC   H4S23984   2.024   0.224  13.759
  194DOPC   C2523985   2.238   0.223  13.720
  194DOPC   H5R23986   2.311   0.284  13.662
  194DOPC   H5S23987   2.236   0.123  13.673
  194DOPC   C2623988   2.288   0.210  13.865
  194DOPC   H6R23989   2.304   0.311  13.908
  194DOPC   H6S23990   2.387   0.159  13.863
  194DOPC   C2723991   2.193   0.131  13.957
  194DOPC   H7R23992   2.166   0.036  13.906
  194DOPC   H7S23993   2.099   0.188  13.971
  194DOPC   C2823994   2.253   0.096  14.095
  194DOPC   H8R23995   2.344   0.035  14.080
  194DOPC   H8S23996   2.180   0.032  14.149
  194DOPC   C2923997   2.288   0.219  14.176
  194DOPC   H9R23998   2.381   0.269  14.144
  194DOPC  C21023999   2.219   0.272  14.279
  194DOPC  H10R24000   2.258   0.363  14.326
  194DOPC  C21124001   2.089   0.222  14.338
  194DOPC  H11R24002   2.098   0.217  14.449
  194DOPC  H11S24003   2.066   0.120  14.304
  194DOPC  C21224004   1.969   0.313  14.302
  194DOPC  H12R24005   1.878   0.267  14.345
  194DOPC  H12S24006   1.957   0.313  14.191
  194DOPC  C21324007   1.980   0.458  14.351
  194DOPC  H13R24008   1.891   0.514  14.312
  194DOPC  H13S24009   2.070   0.506  14.306
  194DOPC  C21424010   1.983   0.473  14.504
  194DOPC  H14R24011   2.071   0.420  14.545
  194DOPC  H14S24012   1.892   0.423  14.544
  194DOPC  C21524013   1.983   0.619  14.552
  194DOPC  H15R24014   1.965   0.621  14.662
  194DOPC  H15S24015   1.898   0.671  14.504
  194DOPC  C21624016   2.112   0.697  14.522
  194DOPC  H16R24017   2.094   0.804  14.546
  194DOPC  H16S24018   2.136   0.691  14.414
  194DOPC  C21724019   2.232   0.650  14.605
  194DOPC  H17R24020   2.253   0.543  14.582
  194DOPC  H17S24021   2.205   0.656  14.712
  194DOPC  C21824022   2.359   0.732  14.580
  194DOPC  H18R24023   2.442   0.695  14.644
  194DOPC  H18S24024   2.341   0.839  14.604
  194DOPC  H18T24025   2.390   0.724  14.474
  194DOPC   C3324026   1.936   9.106  13.651
  194DOPC   H3X24027   1.942   9.172  13.740
  194DOPC   H3Y24028   2.031   9.048  13.648
  194DOPC   C3424029   1.818   9.008  13.664
  194DOPC   H4X24030   1.837   8.921  13.597
  194DOPC   H4Y24031   1.725   9.057  13.628
  194DOPC   C3524032   1.792   8.960  13.808
  194DOPC   H5X24033   1.882   8.910  13.849
  194DOPC   H5Y24034   1.710   8.884  13.803
  194DOPC   C3624035   1.747   9.073  13.902
  194DOPC   H6X24036   1.836   9.127  13.940
  194DOPC   H6Y24037   1.687   9.146  13.842
  194DOPC   C3724038   1.659   9.026  14.019
  194DOPC   H7X24039   1.624   9.115  14.075
  194DOPC   H7Y24040   1.569   8.976  13.976
  194DOPC   C3824041   1.731   8.931  14.116
  194DOPC   H8X24042   1.816   8.985  14.162
  194DOPC   H8Y24043   1.773   8.846  14.058
  194DOPC   C3924044   1.635   8.876  14.220
  194DOPC   H9X24045   1.544   8.832  14.177
  194DOPC  C31024046   1.648   8.877  14.353
  194DOPC  H10X24047   1.567   8.833  14.414
  194DOPC  C31124048   1.762   8.933  14.435
  194DOPC  H11X24049   1.816   9.014  14.381
  194DOPC  H11Y24050   1.837   8.853  14.456
  194DOPC  C31224051   1.710   8.988  14.569
  194DOPC  H12X24052   1.655   8.908  14.623
  194DOPC  H12Y24053   1.640   9.072  14.549
  194DOPC  C31324054   1.821   9.039  14.663
  194DOPC  H13X24055   1.898   8.960  14.675
  194DOPC  H13Y24056   1.870   9.128  14.617
  194DOPC  C31424057   1.765   9.077  14.801
  194DOPC  H14X24058   1.683   9.150  14.787
  194DOPC  H14Y24059   1.722   8.986  14.848
  194DOPC  C31524060   1.871   9.137  14.895
  194DOPC  H15X24061   1.906   0.018  14.855
  194DOPC  H15Y24062   1.958   9.068  14.895
  194DOPC  C31624063   1.827   9.153  15.041
  194DOPC  H16X24064   1.784   9.058  15.079
  194DOPC  H16Y24065   1.918   9.174  15.100
  194DOPC  C31724066   1.729   0.052  15.068
  194DOPC  H17X24067   1.745   0.087  15.172
  194DOPC  H17Y24068   1.753   0.138  15.001
  194DOPC  C31824069   1.581   0.016  15.054
  194DOPC  H18X24070   1.556   9.206  14.949
  194DOPC  H18Y24071   1.556   9.145  15.118
  194DOPC  H18Z24072   1.516   0.101  15.084
  195DOPC     N24073   6.848   9.080  12.980
  195DOPC   C1224074   6.866   8.985  13.097
  195DOPC  H12A24075   6.796   8.903  13.084
  195DOPC  H12B24076   6.837   9.037  13.187
  195DOPC   C1324077   6.716   9.151  12.986
  195DOPC  H13A24078   6.631   9.084  12.988
  195DOPC  H13B24079   6.708   9.215  13.072
  195DOPC  H13C24080   6.702   9.216  12.901
  195DOPC   C1424081   6.855   9.003  12.851
  195DOPC  H14A24082   6.856   9.069  12.765
  195DOPC  H14B24083   6.946   8.945  12.850
  195DOPC  H14C24084   6.772   8.936  12.840
  195DOPC   C1524085   6.959   9.182  12.979
  195DOPC  H15A24086   6.957   0.027  13.067
  195DOPC  H15B24087   6.953   0.030  12.893
  195DOPC  H15C24088   7.055   9.133  12.974
  195DOPC   C1124089   7.007   8.923  13.122
  195DOPC  H11A24090   7.073   9.005  13.156
  195DOPC  H11B24091   7.000   8.851  13.206
  195DOPC     P24092   7.205   8.879  12.957
  195DOPC   O1324093   7.229   9.024  12.952
  195DOPC   O1424094   7.225   8.804  12.830
  195DOPC   O1224095   7.057   8.854  13.007
  195DOPC   O1124096   7.294   8.813  13.068
  195DOPC    C124097   7.364   8.895  13.163
  195DOPC    HA24098   7.305   8.984  13.192
  195DOPC    HB24099   7.460   8.930  13.119
  195DOPC    C224100   7.393   8.816  13.293
  195DOPC    HS24101   7.457   8.730  13.265
  195DOPC   O2124102   7.267   8.772  13.348
  195DOPC   C2124103   7.276   8.666  13.426
  195DOPC   O2224104   7.379   8.607  13.454
  195DOPC   C2224105   7.136   8.632  13.476
  195DOPC   H2R24106   7.068   8.630  13.388
  195DOPC   H2S24107   7.105   8.715  13.543
  195DOPC    C324108   7.470   8.905  13.395
  195DOPC    HX24109   7.573   8.921  13.355
  195DOPC    HY24110   7.479   8.850  13.492
  195DOPC   O3124111   7.402   9.031  13.413
  195DOPC   C3124112   7.462   9.114  13.497
  195DOPC   O3224113   7.563   9.090  13.560
  195DOPC   C3224114   7.387   0.031  13.499
  195DOPC   H2X24115   7.416   0.086  13.591
  195DOPC   H2Y24116   7.423   0.089  13.411
  195DOPC   C2324117   7.128   8.497  13.550
  195DOPC   H3R24118   7.199   8.496  13.635
  195DOPC   H3S24119   7.160   8.415  13.481
  195DOPC   C2424120   6.987   8.465  13.601
  195DOPC   H4R24121   6.989   8.366  13.652
  195DOPC   H4S24122   6.918   8.455  13.514
  195DOPC   C2524123   6.928   8.570  13.698
  195DOPC   H5R24124   6.829   8.534  13.734
  195DOPC   H5S24125   6.910   8.664  13.642
  195DOPC   C2624126   7.017   8.603  13.820
  195DOPC   H6R24127   6.970   8.686  13.877
  195DOPC   H6S24128   7.116   8.638  13.785
  195DOPC   C2724129   7.037   8.483  13.914
  195DOPC   H7R24130   7.069   8.395  13.855
  195DOPC   H7S24131   6.940   8.457  13.963
  195DOPC   C2824132   7.146   8.507  14.021
  195DOPC   H8R24133   7.242   8.519  13.967
  195DOPC   H8S24134   7.155   8.413  14.080
  195DOPC   C2924135   7.116   8.622  14.113
  195DOPC   H9R24136   7.012   8.628  14.147
  195DOPC  C21024137   7.203   8.715  14.157
  195DOPC  H10R24138   7.166   8.793  14.226
  195DOPC  C21124139   7.350   8.727  14.123
  195DOPC  H11R24140   7.378   8.659  14.040
  195DOPC  H11S24141   7.411   8.696  14.211
  195DOPC  C21224142   7.391   8.869  14.081
  195DOPC  H12R24143   7.326   8.902  13.996
  195DOPC  H12S24144   7.495   8.866  14.043
  195DOPC  C21324145   7.384   8.975  14.193
  195DOPC  H13R24146   7.280   8.980  14.233
  195DOPC  H13S24147   7.406   9.074  14.148
  195DOPC  C21424148   7.483   8.950  14.308
  195DOPC  H14R24149   7.584   8.939  14.264
  195DOPC  H14S24150   7.458   8.855  14.359
  195DOPC  C21524151   7.487   9.064  14.412
  195DOPC  H15R24152   7.507   9.160  14.360
  195DOPC  H15S24153   7.572   9.044  14.481
  195DOPC  C21624154   7.358   9.077  14.495
  195DOPC  H16R24155   7.342   8.982  14.550
  195DOPC  H16S24156   7.272   9.090  14.426
  195DOPC  C21724157   7.359   9.194  14.594
  195DOPC  H17R24158   7.261   9.195  14.647
  195DOPC  H17S24159   7.365   0.073  14.536
  195DOPC  C21824160   7.472   9.191  14.697
  195DOPC  H18R24161   7.462   0.059  14.769
  195DOPC  H18S24162   7.571   9.200  14.647
  195DOPC  H18T24163   7.470   9.096  14.754
  195DOPC   C3324164   7.232   0.020  13.490
  195DOPC   H3X24165   7.201   9.160  13.416
  195DOPC   H3Y24166   7.195   0.117  13.452
  195DOPC   C3424167   7.163   9.212  13.625
  195DOPC   H4X24168   7.053   0.005  13.611
  195DOPC   H4Y24169   7.195   0.075  13.696
  195DOPC   C3524170   7.190   9.074  13.687
  195DOPC   H5X24171   7.298   9.065  13.713
  195DOPC   H5Y24172   7.166   8.995  13.612
  195DOPC   C3624173   7.108   9.048  13.815
  195DOPC   H6X24174   7.000   9.051  13.791
  195DOPC   H6Y24175   7.131   8.945  13.851
  195DOPC   C3724176   7.139   9.147  13.928
  195DOPC   H7X24177   7.249   9.149  13.943
  195DOPC   H7Y24178   7.109   0.033  13.898
  195DOPC   C3824179   7.073   9.112  14.063
  195DOPC   H8X24180   7.114   9.181  14.139
  195DOPC   H8Y24181   7.106   9.009  14.090
  195DOPC   C3924182   6.923   9.122  14.060
  195DOPC   H9X24183   6.883   9.197  13.989
  195DOPC  C31024184   6.837   9.051  14.136
  195DOPC  H10X24185   6.729   9.070  14.126
  195DOPC  C31124186   6.874   8.947  14.238
  195DOPC  H11X24187   6.974   8.903  14.217
  195DOPC  H11Y24188   6.802   8.862  14.235
  195DOPC  C31224189   6.877   9.004  14.381
  195DOPC  H12X24190   6.775   9.039  14.408
  195DOPC  H12Y24191   6.945   9.092  14.384
  195DOPC  C31324192   6.926   8.902  14.484
  195DOPC  H13X24193   6.859   8.813  14.484
  195DOPC  H13Y24194   7.027   8.867  14.454
  195DOPC  C31424195   6.935   8.957  14.628
  195DOPC  H14X24196   6.987   8.882  14.691
  195DOPC  H14Y24197   6.997   9.050  14.627
  195DOPC  C31524198   6.798   8.988  14.690
  195DOPC  H15X24199   6.737   8.895  14.691
  195DOPC  H15Y24200   6.745   9.062  14.627
  195DOPC  C31624201   6.805   9.044  14.833
  195DOPC  H16X24202   6.868   9.136  14.833
  195DOPC  H16Y24203   6.703   9.074  14.865
  195DOPC  C31724204   6.861   8.946  14.937
  195DOPC  H17X24205   6.801   8.852  14.932
  195DOPC  H17Y24206   6.966   8.920  14.910
  195DOPC  C31824207   6.858   9.000  15.080
  195DOPC  H18X24208   6.900   8.926  15.151
  195DOPC  H18Y24209   6.919   9.093  15.087
  195DOPC  H18Z24210   6.754   9.024  15.110
  196DOPC     N24211   0.919   1.335  12.904
  196DOPC   C1224212   1.053   1.262  12.912
  196DOPC  H12A24213   1.124   1.327  12.960
  196DOPC  H12B24214   1.088   1.242  12.812
  196DOPC   C1324215   0.809   1.237  12.873
  196DOPC  H13A24216   0.829   1.180  12.784
  196DOPC  H13B24217   0.799   1.169  12.956
  196DOPC  H13C24218   0.715   1.288  12.862
  196DOPC   C1424219   0.921   1.441  12.798
  196DOPC  H14A24220   0.935   1.399  12.700
  196DOPC  H14B24221   0.826   1.494  12.797
  196DOPC  H14C24222   0.999   1.514  12.817
  196DOPC   C1524223   0.887   1.396  13.036
  196DOPC  H15A24224   0.792   1.447  13.034
  196DOPC  H15B24225   0.964   1.464  13.070
  196DOPC  H15C24226   0.879   1.318  13.110
  196DOPC   C1124227   1.057   1.127  12.990
  196DOPC  H11A24228   0.996   1.052  12.936
  196DOPC  H11B24229   1.162   1.090  12.989
  196DOPC     P24230   0.899   1.068  13.196
  196DOPC   O1324231   0.776   1.147  13.171
  196DOPC   O1424232   0.936   1.038  13.335
  196DOPC   O1224233   1.018   1.144  13.126
  196DOPC   O1124234   0.887   0.933  13.111
  196DOPC    C124235   0.852   0.810  13.176
  196DOPC    HA24236   0.898   0.801  13.277
  196DOPC    HB24237   0.892   0.726  13.116
  196DOPC    C224238   0.698   0.790  13.188
  196DOPC    HS24239   0.653   0.814  13.090
  196DOPC   O2124240   0.649   0.873  13.295
  196DOPC   C2124241   0.553   0.959  13.266
  196DOPC   O2224242   0.490   0.963  13.162
  196DOPC   C2224243   0.530   1.054  13.385
  196DOPC   H2R24244   0.423   1.047  13.415
  196DOPC   H2S24245   0.549   1.156  13.346
  196DOPC    C324246   0.664   0.642  13.221
  196DOPC    HX24247   0.699   0.579  13.137
  196DOPC    HY24248   0.553   0.630  13.226
  196DOPC   O3124249   0.731   0.599  13.341
  196DOPC   C3124250   0.663   0.610  13.454
  196DOPC   O3224251   0.543   0.631  13.464
  196DOPC   C3224252   0.759   0.594  13.572
  196DOPC   H2X24253   0.697   0.583  13.664
  196DOPC   H2Y24254   0.817   0.500  13.556
  196DOPC   C2324255   0.622   1.030  13.507
  196DOPC   H3R24256   0.727   1.023  13.472
  196DOPC   H3S24257   0.598   0.933  13.556
  196DOPC   C2424258   0.618   1.144  13.610
  196DOPC   H4R24259   0.520   1.145  13.663
  196DOPC   H4S24260   0.629   1.240  13.556
  196DOPC   C2524261   0.733   1.134  13.712
  196DOPC   H5R24262   0.829   1.126  13.655
  196DOPC   H5S24263   0.723   1.041  13.771
  196DOPC   C2624264   0.743   1.255  13.805
  196DOPC   H6R24265   0.655   1.256  13.874
  196DOPC   H6S24266   0.737   1.347  13.743
  196DOPC   C2724267   0.873   1.261  13.886
  196DOPC   H7R24268   0.880   1.360  13.937
  196DOPC   H7S24269   0.958   1.256  13.815
  196DOPC   C2824270   0.889   1.148  13.990
  196DOPC   H8R24271   0.993   1.152  14.029
  196DOPC   H8S24272   0.879   1.051  13.937
  196DOPC   C2924273   0.793   1.161  14.105
  196DOPC   H9R24274   0.793   1.259  14.154
  196DOPC  C21024275   0.709   1.067  14.152
  196DOPC  H10R24276   0.645   1.092  14.238
  196DOPC  C21124277   0.690   0.926  14.101
  196DOPC  H11R24278   0.729   0.915  13.997
  196DOPC  H11S24279   0.582   0.902  14.095
  196DOPC  C21224280   0.760   0.820  14.189
  196DOPC  H12R24281   0.869   0.841  14.191
  196DOPC  H12S24282   0.746   0.721  14.142
  196DOPC  C21324283   0.707   0.815  14.333
  196DOPC  H13R24284   0.597   0.799  14.331
  196DOPC  H13S24285   0.726   0.913  14.382
  196DOPC  C21424286   0.773   0.704  14.416
  196DOPC  H14R24287   0.883   0.720  14.418
  196DOPC  H14S24288   0.754   0.606  14.366
  196DOPC  C21524289   0.721   0.695  14.561
  196DOPC  H15R24290   0.769   0.608  14.610
  196DOPC  H15S24291   0.611   0.677  14.559
  196DOPC  C21624292   0.750   0.821  14.644
  196DOPC  H16R24293   0.691   0.907  14.604
  196DOPC  H16S24294   0.858   0.847  14.632
  196DOPC  C21724295   0.720   0.805  14.794
  196DOPC  H17R24296   0.756   0.896  14.846
  196DOPC  H17S24297   0.779   0.719  14.833
  196DOPC  C21824298   0.572   0.785  14.827
  196DOPC  H18R24299   0.556   0.781  14.937
  196DOPC  H18S24300   0.535   0.689  14.783
  196DOPC  H18T24301   0.511   0.868  14.786
  196DOPC   C3324302   0.854   0.714  13.584
  196DOPC   H3X24303   0.797   0.807  13.605
  196DOPC   H3Y24304   0.906   0.730  13.486
  196DOPC   C3424305   0.963   0.697  13.690
  196DOPC   H4X24306   1.030   0.786  13.683
  196DOPC   H4Y24307   1.025   0.608  13.667
  196DOPC   C3524308   0.909   0.687  13.834
  196DOPC   H5X24309   0.845   0.597  13.843
  196DOPC   H5Y24310   0.845   0.776  13.854
  196DOPC   C3624311   1.020   0.681  13.940
  196DOPC   H6X24312   0.975   0.654  14.038
  196DOPC   H6Y24313   1.093   0.601  13.914
  196DOPC   C3724314   1.093   0.815  13.956
  196DOPC   H7X24315   1.140   0.843  13.859
  196DOPC   H7Y24316   1.017   0.892  13.980
  196DOPC   C3824317   1.200   0.814  14.066
  196DOPC   H8X24318   1.280   0.741  14.040
  196DOPC   H8Y24319   1.154   0.778  14.160
  196DOPC   C3924320   1.259   0.952  14.081
  196DOPC   H9X24321   1.325   0.983  13.998
  196DOPC  C31024322   1.236   1.039  14.181
  196DOPC  H10X24323   1.286   1.137  14.179
  196DOPC  C31124324   1.145   1.015  14.299
  196DOPC  H11X24325   1.069   0.937  14.278
  196DOPC  H11Y24326   1.090   1.108  14.324
  196DOPC  C31224327   1.228   0.971  14.421
  196DOPC  H12X24328   1.301   1.051  14.447
  196DOPC  H12Y24329   1.286   0.880  14.396
  196DOPC  C31324330   1.142   0.941  14.545
  196DOPC  H13X24331   1.079   1.030  14.567
  196DOPC  H13Y24332   1.075   0.855  14.524
  196DOPC  C31424333   1.231   0.911  14.666
  196DOPC  H14X24334   1.294   0.822  14.644
  196DOPC  H14Y24335   1.300   0.997  14.680
  196DOPC  C31524336   1.155   0.888  14.797
  196DOPC  H15X24337   1.070   0.960  14.805
  196DOPC  H15Y24338   1.225   0.909  14.881
  196DOPC  C31624339   1.105   0.744  14.814
  196DOPC  H16X24340   1.025   0.723  14.741
  196DOPC  H16Y24341   1.189   0.675  14.793
  196DOPC  C31724342   1.055   0.717  14.957
  196DOPC  H17X24343   1.134   0.747  15.029
  196DOPC  H17Y24344   0.966   0.780  14.976
  196DOPC  C31824345   1.020   0.570  14.980
  196DOPC  H18X24346   0.941   0.537  14.909
  196DOPC  H18Y24347   1.109   0.506  14.965
  196DOPC  H18Z24348   0.982   0.554  15.084
  197DOPC     N24349   1.611   8.636  12.884
  197DOPC   C1224350   1.646   8.766  12.956
  197DOPC  H12A24351   1.555   8.807  12.998
  197DOPC  H12B24352   1.683   8.836  12.883
  197DOPC   C1324353   1.577   8.528  12.982
  197DOPC  H13A24354   1.557   8.434  12.932
  197DOPC  H13B24355   1.661   8.511  13.048
  197DOPC  H13C24356   1.491   8.552  13.042
  197DOPC   C1424357   1.729   8.588  12.804
  197DOPC  H14A24358   1.813   8.570  12.870
  197DOPC  H14B24359   1.706   8.496  12.752
  197DOPC  H14C24360   1.761   8.662  12.732
  197DOPC   C1524361   1.496   8.655  12.790
  197DOPC  H15A24362   1.406   8.685  12.843
  197DOPC  H15B24363   1.473   8.563  12.739
  197DOPC  H15C24364   1.518   8.729  12.715
  197DOPC   C1124365   1.751   8.761  13.070
  197DOPC  H11A24366   1.760   8.862  13.114
  197DOPC  H11B24367   1.715   8.695  13.151
  197DOPC     P24368   1.969   8.613  13.089
  197DOPC   O1324369   2.029   8.670  13.211
  197DOPC   O1424370   2.063   8.562  12.987
  197DOPC   O1224371   1.879   8.723  13.019
  197DOPC   O1124372   1.862   8.501  13.125
  197DOPC    C124373   1.869   8.432  13.250
  197DOPC    HA24374   1.921   8.489  13.330
  197DOPC    HB24375   1.922   8.336  13.236
  197DOPC    C224376   1.726   8.402  13.304
  197DOPC    HS24377   1.672   8.353  13.220
  197DOPC   O2124378   1.664   8.526  13.343
  197DOPC   C2124379   1.532   8.527  13.335
  197DOPC   O2224380   1.465   8.437  13.288
  197DOPC   C2224381   1.477   8.662  13.379
  197DOPC   H2R24382   1.377   8.673  13.331
  197DOPC   H2S24383   1.544   8.742  13.342
  197DOPC    C324384   1.729   8.301  13.422
  197DOPC    HX24385   1.773   8.207  13.384
  197DOPC    HY24386   1.625   8.276  13.453
  197DOPC   O3124387   1.812   8.349  13.531
  197DOPC   C3124388   1.747   8.413  13.628
  197DOPC   O3224389   1.626   8.423  13.638
  197DOPC   C3224390   1.846   8.476  13.728
  197DOPC   H2X24391   1.831   8.586  13.722
  197DOPC   H2Y24392   1.814   8.442  13.829
  197DOPC   C2324393   1.460   8.674  13.532
  197DOPC   H3R24394   1.560   8.672  13.581
  197DOPC   H3S24395   1.404   8.586  13.570
  197DOPC   C2424396   1.386   8.802  13.574
  197DOPC   H4R24397   1.283   8.800  13.532
  197DOPC   H4S24398   1.438   8.889  13.530
  197DOPC   C2524399   1.377   8.822  13.726
  197DOPC   H5R24400   1.324   8.918  13.746
  197DOPC   H5S24401   1.480   8.832  13.767
  197DOPC   C2624402   1.304   8.709  13.800
  197DOPC   H6R24403   1.361   8.614  13.785
  197DOPC   H6S24404   1.203   8.696  13.755
  197DOPC   C2724405   1.290   8.736  13.950
  197DOPC   H7R24406   1.236   8.832  13.963
  197DOPC   H7S24407   1.391   8.748  13.995
  197DOPC   C2824408   1.211   8.626  14.026
  197DOPC   H8R24409   1.111   8.616  13.979
  197DOPC   H8S24410   1.194   8.663  14.129
  197DOPC   C2924411   1.283   8.493  14.025
  197DOPC   H9R24412   1.294   8.448  13.925
  197DOPC  C21024413   1.335   8.427  14.130
  197DOPC  H10R24414   1.386   8.332  14.112
  197DOPC  C21124415   1.332   8.470  14.275
  197DOPC  H11R24416   1.310   8.383  14.340
  197DOPC  H11S24417   1.251   8.544  14.294
  197DOPC  C21224418   1.465   8.534  14.321
  197DOPC  H12R24419   1.454   8.566  14.427
  197DOPC  H12S24420   1.483   8.625  14.261
  197DOPC  C21324421   1.589   8.443  14.309
  197DOPC  H13R24422   1.678   8.500  14.345
  197DOPC  H13S24423   1.606   8.420  14.202
  197DOPC  C21424424   1.580   8.311  14.387
  197DOPC  H14R24425   1.667   8.248  14.359
  197DOPC  H14S24426   1.489   8.255  14.357
  197DOPC  C21524427   1.581   8.328  14.540
  197DOPC  H15R24428   1.497   8.394  14.570
  197DOPC  H15S24429   1.675   8.377  14.571
  197DOPC  C21624430   1.567   8.194  14.614
  197DOPC  H16R24431   1.647   8.125  14.580
  197DOPC  H16S24432   1.469   8.148  14.587
  197DOPC  C21724433   1.575   8.209  14.766
  197DOPC  H17R24434   1.496   8.280  14.800
  197DOPC  H17S24435   1.673   8.253  14.793
  197DOPC  C21824436   1.558   8.076  14.841
  197DOPC  H18R24437   1.638   8.005  14.812
  197DOPC  H18S24438   1.459   8.030  14.817
  197DOPC  H18T24439   1.563   8.092  14.951
  197DOPC   C3324440   1.995   8.442  13.706
  197DOPC   H3X24441   2.027   8.474  13.604
  197DOPC   H3Y24442   2.009   8.332  13.713
  197DOPC   C3424443   2.084   8.510  13.811
  197DOPC   H4X24444   2.044   8.486  13.912
  197DOPC   H4Y24445   2.078   8.620  13.797
  197DOPC   C3524446   2.231   8.466  13.806
  197DOPC   H5X24447   2.276   8.494  13.709
  197DOPC   H5Y24448   2.234   8.355  13.814
  197DOPC   C3624449   2.314   8.525  13.921
  197DOPC   H6X24450   2.327   8.634  13.907
  197DOPC   H6Y24451   2.256   8.511  14.015
  197DOPC   C3724452   2.450   8.457  13.940
  197DOPC   H7X24453   2.433   8.347  13.934
  197DOPC   H7Y24454   2.518   8.483  13.856
  197DOPC   C3824455   2.517   8.485  14.076
  197DOPC   H8X24456   2.593   8.406  14.093
  197DOPC   H8Y24457   2.440   8.470  14.155
  197DOPC   C3924458   2.586   8.619  14.089
  197DOPC   H9X24459   2.665   8.636  14.014
  197DOPC  C31024460   2.562   8.716  14.179
  197DOPC  H10X24461   2.625   8.807  14.175
  197DOPC  C31124462   2.460   8.717  14.290
  197DOPC  H11X24463   2.392   8.629  14.284
  197DOPC  H11Y24464   2.396   8.807  14.279
  197DOPC  C31224465   2.520   8.721  14.432
  197DOPC  H12X24466   2.584   8.811  14.444
  197DOPC  H12Y24467   2.585   8.632  14.448
  197DOPC  C31324468   2.411   8.723  14.540
  197DOPC  H13X24469   2.343   8.810  14.521
  197DOPC  H13Y24470   2.350   8.631  14.529
  197DOPC  C31424471   2.465   8.732  14.683
  197DOPC  H14X24472   2.534   8.647  14.701
  197DOPC  H14Y24473   2.524   8.826  14.692
  197DOPC  C31524474   2.356   8.732  14.792
  197DOPC  H15X24475   2.285   8.816  14.772
  197DOPC  H15Y24476   2.404   8.751  14.890
  197DOPC  C31624477   2.276   8.601  14.800
  197DOPC  H16X24478   2.224   8.584  14.704
  197DOPC  H16Y24479   2.347   8.517  14.816
  197DOPC  C31724480   2.172   8.599  14.913
  197DOPC  H17X24481   2.223   8.619  15.009
  197DOPC  H17Y24482   2.099   8.682  14.895
  197DOPC  C31824483   2.096   8.467  14.921
  197DOPC  H18X24484   2.166   8.382  14.939
  197DOPC  H18Y24485   2.023   8.469  15.005
  197DOPC  H18Z24486   2.041   8.447  14.827
  198DOPC     N24487   8.422   7.942  12.953
  198DOPC   C1224488   8.363   7.820  12.884
  198DOPC  H12A24489   8.425   7.793  12.800
  198DOPC  H12B24490   8.267   7.848  12.843
  198DOPC   C1324491   8.330   7.985  13.064
  198DOPC  H13A24492   8.234   8.014  13.024
  198DOPC  H13B24493   8.311   7.900  13.128
  198DOPC  H13C24494   8.370   8.066  13.123
  198DOPC   C1424495   8.434   8.054  12.854
  198DOPC  H14A24496   8.337   8.075  12.811
  198DOPC  H14B24497   8.470   8.144  12.901
  198DOPC  H14C24498   8.500   8.028  12.772
  198DOPC   C1524499   8.556   7.909  13.012
  198DOPC  H15A24500   8.626   7.876  12.936
  198DOPC  H15B24501   8.544   7.828  13.083
  198DOPC  H15C24502   8.598   7.993  13.064
  198DOPC   C1124503   8.337   7.693  12.969
  198DOPC  H11A24504   8.307   7.609  12.903
  198DOPC  H11B24505   8.432   7.661  13.018
  198DOPC     P24506   8.086   7.723  13.031
  198DOPC   O1324507   8.035   7.587  13.002
  198DOPC   O1424508   8.072   7.821  12.920
  198DOPC   O1224509   8.239   7.716  13.070
  198DOPC   O1124510   8.021   7.782  13.162
  198DOPC    C124511   7.925   7.888  13.160
  198DOPC    HA24512   7.823   7.846  13.147
  198DOPC    HB24513   7.945   7.961  13.079
  198DOPC    C224514   7.929   7.966  13.294
  198DOPC    HS24515   8.034   8.000  13.307
  198DOPC   O2124516   7.887   7.877  13.400
  198DOPC   C2124517   7.946   7.898  13.517
  198DOPC   O2224518   8.042   7.970  13.536
  198DOPC   C2224519   7.873   7.817  13.625
  198DOPC   H2R24520   7.948   7.753  13.676
  198DOPC   H2S24521   7.799   7.751  13.575
  198DOPC    C324522   7.835   8.090  13.291
  198DOPC    HX24523   7.732   8.051  13.276
  198DOPC    HY24524   7.859   8.153  13.202
  198DOPC   O3124525   7.839   8.166  13.413
  198DOPC   C3124526   7.946   8.245  13.425
  198DOPC   O3224527   8.025   8.270  13.336
  198DOPC   C3224528   7.954   8.299  13.568
  198DOPC   H2X24529   7.913   8.402  13.570
  198DOPC   H2Y24530   7.891   8.234  13.633
  198DOPC   C2324531   7.800   7.908  13.726
  198DOPC   H3R24532   7.723   7.848  13.779
  198DOPC   H3S24533   7.745   7.988  13.672
  198DOPC   C2424534   7.893   7.971  13.832
  198DOPC   H4R24535   7.837   8.050  13.886
  198DOPC   H4S24536   7.978   8.021  13.780
  198DOPC   C2524537   7.947   7.869  13.934
  198DOPC   H5R24538   7.907   7.769  13.909
  198DOPC   H5S24539   7.909   7.895  14.035
  198DOPC   C2624540   8.101   7.861  13.938
  198DOPC   H6R24541   8.139   7.844  13.835
  198DOPC   H6S24542   8.130   7.774  14.001
  198DOPC   C2724543   8.167   7.987  13.996
  198DOPC   H7R24544   8.131   8.003  14.100
  198DOPC   H7S24545   8.135   8.075  13.936
  198DOPC   C2824546   8.321   7.978  13.997
  198DOPC   H8R24547   8.354   7.954  13.894
  198DOPC   H8S24548   8.350   7.892  14.060
  198DOPC   C2924549   8.384   8.108  14.041
  198DOPC   H9R24550   8.368   8.192  13.972
  198DOPC  C21024551   8.455   8.130  14.153
  198DOPC  H10R24552   8.495   8.231  14.170
  198DOPC  C21124553   8.488   8.031  14.262
  198DOPC  H11R24554   8.597   8.007  14.259
  198DOPC  H11S24555   8.434   7.935  14.250
  198DOPC  C21224556   8.456   8.085  14.403
  198DOPC  H12R24557   8.509   8.181  14.420
  198DOPC  H12S24558   8.494   8.013  14.478
  198DOPC  C21324559   8.305   8.104  14.428
  198DOPC  H13R24560   8.255   8.006  14.409
  198DOPC  H13S24561   8.264   8.177  14.356
  198DOPC  C21424562   8.271   8.150  14.571
  198DOPC  H14R24563   8.314   8.078  14.644
  198DOPC  H14S24564   8.161   8.148  14.583
  198DOPC  C21524565   8.321   8.292  14.602
  198DOPC  H15R24566   8.285   8.360  14.522
  198DOPC  H15S24567   8.432   8.293  14.601
  198DOPC  C21624568   8.272   8.343  14.739
  198DOPC  H16R24569   8.303   8.271  14.817
  198DOPC  H16S24570   8.161   8.346  14.738
  198DOPC  C21724571   8.326   8.482  14.775
  198DOPC  H17R24572   8.437   8.478  14.779
  198DOPC  H17S24573   8.290   8.508  14.877
  198DOPC  C21824574   8.285   8.594  14.679
  198DOPC  H18R24575   8.322   8.693  14.714
  198DOPC  H18S24576   8.174   8.599  14.670
  198DOPC  H18T24577   8.326   8.576  14.577
  198DOPC   C3324578   8.100   8.296  13.620
  198DOPC   H3X24579   8.160   8.374  13.569
  198DOPC   H3Y24580   8.144   8.198  13.594
  198DOPC   C3424581   8.111   8.310  13.772
  198DOPC   H4X24582   8.213   8.276  13.802
  198DOPC   H4Y24583   8.038   8.242  13.821
  198DOPC   C3524584   8.092   8.454  13.824
  198DOPC   H5X24585   7.988   8.488  13.807
  198DOPC   H5Y24586   8.158   8.519  13.764
  198DOPC   C3624587   8.131   8.470  13.972
  198DOPC   H6X24588   8.208   8.395  14.000
  198DOPC   H6Y24589   8.177   8.570  13.983
  198DOPC   C3724590   8.014   8.462  14.072
  198DOPC   H7X24591   8.053   8.492  14.171
  198DOPC   H7Y24592   7.937   8.537  14.042
  198DOPC   C3824593   7.949   8.323  14.084
  198DOPC   H8X24594   8.030   8.249  14.104
  198DOPC   H8Y24595   7.903   8.296  13.987
  198DOPC   C3924596   7.844   8.322  14.192
  198DOPC   H9X24597   7.765   8.398  14.179
  198DOPC  C31024598   7.837   8.241  14.299
  198DOPC  H10X24599   7.754   8.253  14.370
  198DOPC  C31124600   7.935   8.131  14.335
  198DOPC  H11X24601   8.015   8.173  14.399
  198DOPC  H11Y24602   7.983   8.089  14.244
  198DOPC  C31224603   7.867   8.016  14.412
  198DOPC  H12X24604   7.788   7.969  14.349
  198DOPC  H12Y24605   7.819   8.056  14.503
  198DOPC  C31324606   7.968   7.908  14.453
  198DOPC  H13X24607   8.013   7.864  14.362
  198DOPC  H13Y24608   8.051   7.956  14.511
  198DOPC  C31424609   7.909   7.794  14.538
  198DOPC  H14X24610   7.833   7.740  14.478
  198DOPC  H14Y24611   7.990   7.721  14.560
  198DOPC  C31524612   7.845   7.837  14.671
  198DOPC  H15X24613   7.816   7.746  14.728
  198DOPC  H15Y24614   7.751   7.892  14.649
  198DOPC  C31624615   7.932   7.926  14.762
  198DOPC  H16X24616   7.956   8.021  14.709
  198DOPC  H16Y24617   7.874   7.952  14.853
  198DOPC  C31724618   8.064   7.859  14.806
  198DOPC  H17X24619   8.040   7.763  14.857
  198DOPC  H17Y24620   8.124   7.835  14.716
  198DOPC  C31824621   8.147   7.947  14.900
  198DOPC  H18X24622   8.090   7.970  14.993
  198DOPC  H18Y24623   8.241   7.895  14.929
  198DOPC  H18Z24624   8.173   8.043  14.851
  199DOPC     N24625   7.661   0.325  12.933
  199DOPC   C1224626   7.567   0.446  12.941
  199DOPC  H12A24627   7.542   0.477  12.841
  199DOPC  H12B24628   7.621   0.526  12.989
  199DOPC   C1324629   7.697   0.282  13.072
  199DOPC  H13A24630   7.748   0.360  13.125
  199DOPC  H13B24631   7.606   0.267  13.128
  199DOPC  H13C24632   7.757   0.192  13.074
  199DOPC   C1424633   7.785   0.364  12.859
  199DOPC  H14A24634   7.853   0.280  12.851
  199DOPC  H14B24635   7.762   0.400  12.760
  199DOPC  H14C24636   7.837   0.443  12.912
  199DOPC   C1524637   7.592   0.214  12.861
  199DOPC  H15A24638   7.559   0.247  12.763
  199DOPC  H15B24639   7.503   0.182  12.914
  199DOPC  H15C24640   7.654   0.127  12.850
  199DOPC   C1124641   7.436   0.430  13.023
  199DOPC  H11A24642   7.371   0.518  13.005
  199DOPC  H11B24643   7.380   0.341  12.986
  199DOPC     P24644   7.516   0.539  13.244
  199DOPC   O1324645   7.406   0.634  13.267
  199DOPC   O1424646   7.638   0.589  13.177
  199DOPC   O1224647   7.462   0.414  13.162
  199DOPC   O1124648   7.558   0.471  13.381
  199DOPC    C124649   7.610   0.552  13.487
  199DOPC    HA24650   7.560   0.523  13.582
  199DOPC    HB24651   7.591   0.661  13.473
  199DOPC    C224652   7.763   0.532  13.506
  199DOPC    HS24653   7.813   0.555  13.409
  199DOPC   O2124654   7.786   0.397  13.549
  199DOPC   C2124655   7.814   0.310  13.453
  199DOPC   O2224656   7.848   0.337  13.339
  199DOPC   C2224657   7.797   0.167  13.504
  199DOPC   H2R24658   7.804   0.102  13.414
  199DOPC   H2S24659   7.695   0.156  13.546
  199DOPC    C324660   7.819   0.632  13.611
  199DOPC    HX24661   7.812   0.733  13.567
  199DOPC    HY24662   7.926   0.611  13.628
  199DOPC   O3124663   7.740   0.631  13.732
  199DOPC   C3124664   7.788   0.561  13.834
  199DOPC   O3224665   7.899   0.512  13.842
  199DOPC   C3224666   7.680   0.549  13.942
  199DOPC   H2X24667   7.583   0.531  13.891
  199DOPC   H2Y24668   7.705   0.461  14.005
  199DOPC   C2324669   7.905   0.121  13.606
  199DOPC   H3R24670   8.004   0.161  13.576
  199DOPC   H3S24671   7.912   0.011  13.603
  199DOPC   C2424672   7.875   0.162  13.751
  199DOPC   H4R24673   7.851   0.270  13.754
  199DOPC   H4S24674   7.966   0.146  13.813
  199DOPC   C2524675   7.759   0.083  13.814
  199DOPC   H5R24676   7.789   9.193  13.828
  199DOPC   H5S24677   7.672   0.083  13.745
  199DOPC   C2624678   7.714   0.143  13.948
  199DOPC   H6R24679   7.688   0.250  13.929
  199DOPC   H6S24680   7.798   0.141  14.020
  199DOPC   C2724681   7.592   0.071  14.009
  199DOPC   H7R24682   7.624   9.186  14.038
  199DOPC   H7S24683   7.513   0.060  13.931
  199DOPC   C2824684   7.534   0.143  14.132
  199DOPC   H8R24685   7.617   0.162  14.204
  199DOPC   H8S24686   7.463   0.074  14.182
  199DOPC   C2924687   7.465   0.272  14.098
  199DOPC   H9R24688   7.488   0.313  13.999
  199DOPC  C21024689   7.377   0.338  14.176
  199DOPC  H10R24690   7.333   0.432  14.139
  199DOPC  C21124691   7.331   0.297  14.314
  199DOPC  H11R24692   7.378   0.203  14.348
  199DOPC  H11S24693   7.221   0.277  14.311
  199DOPC  C21224694   7.356   0.406  14.420
  199DOPC  H12R24695   7.303   0.379  14.513
  199DOPC  H12S24696   7.313   0.502  14.384
  199DOPC  C21324697   7.505   0.429  14.454
  199DOPC  H13R24698   7.513   0.524  14.510
  199DOPC  H13S24699   7.564   0.440  14.360
  199DOPC  C21424700   7.566   0.316  14.539
  199DOPC  H14R24701   7.555   0.220  14.485
  199DOPC  H14S24702   7.510   0.308  14.634
  199DOPC  C21524703   7.716   0.336  14.569
  199DOPC  H15R24704   7.771   0.334  14.472
  199DOPC  H15S24705   7.752   0.251  14.629
  199DOPC  C21624706   7.752   0.468  14.641
  199DOPC  H16R24707   7.729   0.553  14.574
  199DOPC  H16S24708   7.861   0.469  14.658
  199DOPC  C21724709   7.681   0.490  14.776
  199DOPC  H17R24710   7.571   0.496  14.759
  199DOPC  H17S24711   7.713   0.588  14.816
  199DOPC  C21824712   7.710   0.382  14.881
  199DOPC  H18R24713   7.661   0.407  14.977
  199DOPC  H18S24714   7.820   0.373  14.898
  199DOPC  H18T24715   7.671   0.283  14.847
  199DOPC   C3324716   7.671   0.675  14.030
  199DOPC   H3X24717   7.659   0.765  13.966
  199DOPC   H3Y24718   7.766   0.687  14.087
  199DOPC   C3424719   7.553   0.669  14.128
  199DOPC   H4X24720   7.564   0.578  14.190
  199DOPC   H4Y24721   7.459   0.659  14.070
  199DOPC   C3524722   7.541   0.791  14.221
  199DOPC   H5X24723   7.456   0.774  14.290
  199DOPC   H5Y24724   7.518   0.882  14.162
  199DOPC   C3624725   7.668   0.815  14.304
  199DOPC   H6X24726   7.701   0.718  14.348
  199DOPC   H6Y24727   7.749   0.851  14.237
  199DOPC   C3724728   7.650   0.916  14.419
  199DOPC   H7X24729   7.615   1.014  14.378
  199DOPC   H7Y24730   7.570   0.878  14.486
  199DOPC   C3824731   7.778   0.935  14.502
  199DOPC   H8X24732   7.818   0.834  14.528
  199DOPC   H8Y24733   7.749   0.982  14.599
  199DOPC   C3924734   7.883   1.021  14.437
  199DOPC   H9X24735   7.870   1.129  14.455
  199DOPC  C31024736   7.986   0.981  14.361
  199DOPC  H10X24737   8.055   1.058  14.323
  199DOPC  C31124738   8.021   0.840  14.320
  199DOPC  H11X24739   8.019   0.834  14.209
  199DOPC  H11Y24740   7.947   0.766  14.357
  199DOPC  C31224741   8.162   0.797  14.366
  199DOPC  H12X24742   8.235   0.876  14.341
  199DOPC  H12Y24743   8.191   0.706  14.309
  199DOPC  C31324744   8.171   0.763  14.516
  199DOPC  H13X24745   8.279   0.751  14.541
  199DOPC  H13Y24746   8.132   0.848  14.576
  199DOPC  C31424747   8.099   0.633  14.553
  199DOPC  H14X24748   7.989   0.649  14.550
  199DOPC  H14Y24749   8.124   0.556  14.478
  199DOPC  C31524750   8.138   0.578  14.692
  199DOPC  H15X24751   8.248   0.563  14.694
  199DOPC  H15Y24752   8.090   0.479  14.706
  199DOPC  C31624753   8.098   0.670  14.808
  199DOPC  H16X24754   8.147   0.769  14.796
  199DOPC  H16Y24755   7.988   0.686  14.805
  199DOPC  C31724756   8.137   0.611  14.945
  199DOPC  H17X24757   8.089   0.512  14.956
  199DOPC  H17Y24758   8.247   0.595  14.946
  199DOPC  C31824759   8.098   0.701  15.062
  199DOPC  H18X24760   8.130   0.655  15.159
  199DOPC  H18Y24761   8.147   0.800  15.053
  199DOPC  H18Z24762   7.988   0.716  15.065
  200DOPC     N24763   1.410   0.188  12.891
  200DOPC   C1224764   1.394   0.339  12.889
  200DOPC  H12A24765   1.355   0.368  12.793
  200DOPC  H12B24766   1.492   0.385  12.894
  200DOPC   C1324767   1.439   0.139  13.030
  200DOPC  H13A24768   1.352   0.160  13.091
  200DOPC  H13B24769   1.453   0.032  13.032
  200DOPC  H13C24770   1.525   0.188  13.073
  200DOPC   C1424771   1.519   0.148  12.796
  200DOPC  H14A24772   1.613   0.196  12.821
  200DOPC  H14B24773   1.534   0.041  12.797
  200DOPC  H14C24774   1.493   0.177  12.696
  200DOPC   C1524775   1.282   0.122  12.847
  200DOPC  H15A24776   1.253   0.155  12.748
  200DOPC  H15B24777   1.204   0.148  12.916
  200DOPC  H15C24778   1.290   0.014  12.847
  200DOPC   C1124779   1.304   0.406  12.997
  200DOPC  H11A24780   1.343   0.382  13.098
  200DOPC  H11B24781   1.313   0.516  12.986
  200DOPC     P24782   1.082   0.298  13.092
  200DOPC   O1324783   1.144   0.165  13.112
  200DOPC   O1424784   0.940   0.302  13.050
  200DOPC   O1224785   1.167   0.370  12.979
  200DOPC   O1124786   1.106   0.387  13.219
  200DOPC    C124787   1.182   0.341  13.331
  200DOPC    HA24788   1.215   0.429  13.390
  200DOPC    HB24789   1.275   0.288  13.300
  200DOPC    C224790   1.101   0.248  13.426
  200DOPC    HS24791   0.999   0.237  13.382
  200DOPC   O2124792   1.092   0.311  13.556
  200DOPC   C2124793   1.004   0.258  13.638
  200DOPC   O2224794   0.924   0.169  13.610
  200DOPC   C2224795   1.012   0.330  13.773
  200DOPC   H2R24796   0.940   0.415  13.766
  200DOPC   H2S24797   1.114   0.371  13.788
  200DOPC    C324798   1.165   0.105  13.436
  200DOPC    HX24799   1.176   0.066  13.332
  200DOPC    HY24800   1.094   0.038  13.488
  200DOPC   O3124801   1.295   0.114  13.497
  200DOPC   C3124802   1.310   0.050  13.613
  200DOPC   O3224803   1.237   9.179  13.656
  200DOPC   C3224804   1.428   0.109  13.689
  200DOPC   H2X24805   1.428   0.061  13.789
  200DOPC   H2Y24806   1.521   0.081  13.636
  200DOPC   C2324807   0.971   0.241  13.893
  200DOPC   H3R24808   0.878   0.185  13.867
  200DOPC   H3S24809   0.946   0.306  13.979
  200DOPC   C2424810   1.079   0.142  13.937
  200DOPC   H4R24811   1.164   0.197  13.983
  200DOPC   H4S24812   1.118   0.088  13.848
  200DOPC   C2524813   1.023   0.038  14.035
  200DOPC   H5R24814   0.941   9.202  13.982
  200DOPC   H5S24815   0.979   0.088  14.124
  200DOPC   C2624816   1.126   9.149  14.080
  200DOPC   H6R24817   1.190   9.120  13.994
  200DOPC   H6S24818   1.070   9.059  14.112
  200DOPC   C2724819   1.213   9.197  14.197
  200DOPC   H7R24820   1.147   0.007  14.282
  200DOPC   H7S24821   1.265   0.073  14.166
  200DOPC   C2824822   1.318   9.094  14.244
  200DOPC   H8R24823   1.378   9.142  14.325
  200DOPC   H8S24824   1.388   9.076  14.160
  200DOPC   C2924825   1.260   8.963  14.291
  200DOPC   H9R24826   1.256   8.884  14.214
  200DOPC  C21024827   1.213   8.937  14.414
  200DOPC  H10R24828   1.176   8.836  14.437
  200DOPC  C21124829   1.210   9.036  14.528
  200DOPC  H11R24830   1.119   9.021  14.591
  200DOPC  H11S24831   1.204   9.139  14.489
  200DOPC  C21224832   1.333   9.025  14.620
  200DOPC  H12R24833   1.425   9.013  14.558
  200DOPC  H12S24834   1.323   8.934  14.683
  200DOPC  C21324835   1.353   9.148  14.709
  200DOPC  H13R24836   1.426   9.123  14.789
  200DOPC  H13S24837   1.256   9.175  14.758
  200DOPC  C21424838   1.407   0.053  14.631
  200DOPC  H14R24839   1.339   0.077  14.546
  200DOPC  H14S24840   1.505   0.024  14.587
  200DOPC  C21524841   1.424   0.179  14.716
  200DOPC  H15R24842   1.490   0.156  14.803
  200DOPC  H15S24843   1.325   0.208  14.757
  200DOPC  C21624844   1.482   0.297  14.638
  200DOPC  H16R24845   1.486   0.386  14.705
  200DOPC  H16S24846   1.412   0.322  14.555
  200DOPC  C21724847   1.623   0.274  14.579
  200DOPC  H17R24848   1.654   0.366  14.525
  200DOPC  H17S24849   1.618   0.193  14.503
  200DOPC  C21824850   1.731   0.238  14.682
  200DOPC  H18R24851   1.744   0.321  14.755
  200DOPC  H18S24852   1.828   0.220  14.631
  200DOPC  H18T24853   1.703   0.146  14.737
  200DOPC   C3324854   1.417   0.263  13.703
  200DOPC   H3X24855   1.317   0.290  13.744
  200DOPC   H3Y24856   1.425   0.310  13.602
  200DOPC   C3424857   1.524   0.325  13.794
  200DOPC   H4X24858   1.517   0.435  13.788
  200DOPC   H4Y24859   1.625   0.296  13.759
  200DOPC   C3524860   1.507   0.283  13.941
  200DOPC   H5X24861   1.525   0.174  13.951
  200DOPC   H5Y24862   1.402   0.303  13.972
  200DOPC   C3624863   1.602   0.357  14.036
  200DOPC   H6X24864   1.706   0.345  13.998
  200DOPC   H6Y24865   1.578   0.465  14.036
  200DOPC   C3724866   1.596   0.302  14.180
  200DOPC   H7X24867   1.621   0.194  14.176
  200DOPC   H7Y24868   1.675   0.351  14.241
  200DOPC   C3824869   1.459   0.318  14.250
  200DOPC   H8X24870   1.462   0.257  14.342
  200DOPC   H8Y24871   1.381   0.274  14.185
  200DOPC   C3924872   1.428   0.461  14.286
  200DOPC   H9X24873   1.515   0.519  14.322
  200DOPC  C31024874   1.309   0.523  14.278
  200DOPC  H10X24875   1.302   0.628  14.308
  200DOPC  C31124876   1.179   0.462  14.231
  200DOPC  H11X24877   1.192   0.423  14.128
  200DOPC  H11Y24878   1.101   0.540  14.225
  200DOPC  C31224879   1.125   0.347  14.319
  200DOPC  H12X24880   1.199   0.264  14.321
  200DOPC  H12Y24881   1.033   0.306  14.271
  200DOPC  C31324882   1.092   0.387  14.463
  200DOPC  H13X24883   1.181   0.434  14.510
  200DOPC  H13Y24884   1.011   0.463  14.463
  200DOPC  C31424885   1.050   0.266  14.547
  200DOPC  H14X24886   0.961   0.218  14.502
  200DOPC  H14Y24887   1.133   0.191  14.544
  200DOPC  C31524888   1.020   0.300  14.694
  200DOPC  H15X24889   0.932   0.366  14.699
  200DOPC  H15Y24890   1.106   0.355  14.737
  200DOPC  C31624891   0.996   0.173  14.777
  200DOPC  H16X24892   0.913   0.115  14.731
  200DOPC  H16Y24893   1.087   0.110  14.772
  200DOPC  C31724894   0.963   0.199  14.925
  200DOPC  H17X24895   0.972   0.103  14.980
  200DOPC  H17Y24896   1.039   0.268  14.967
  200DOPC  C31824897   0.822   0.255  14.949
  200DOPC  H18X24898   0.804   0.272  15.057
  200DOPC  H18Y24899   0.809   0.352  14.896
  200DOPC  H18Z24900   0.745   0.185  14.911
  201SOD    SOD24901   8.790   2.221  17.437
  202SOD    SOD24902   8.133   7.527  12.542
  203SOD    SOD24903   8.474   2.183  19.621
  204SOD    SOD24904   8.668   8.404  10.417
  205SOD    SOD24905   7.414   3.771  19.611
  206SOD    SOD24906   3.140   3.093  11.423
  207SOD    SOD24907   1.889   1.272  11.933
  208SOD    SOD24908   4.430   3.789  18.757
  209SOD    SOD24909   1.559   3.319  12.688
  210SOD    SOD24910   5.757   0.786  17.121
  211SOD    SOD24911   2.757   3.050  19.156
  212SOD    SOD24912   0.644   6.096  19.113
  213SOD    SOD24913   3.011   6.582  10.346
  214SOD    SOD24914   2.784   3.881  18.759
  215SOD    SOD24915   8.063   6.208  19.299
  216SOD    SOD24916   2.272   6.742  18.566
  217SOD    SOD24917   1.048   3.030  11.499
  218SOD    SOD24918   7.060   4.930  19.263
  219SOD    SOD24919   8.413   3.450  19.597
  220SOD    SOD24920   4.888   2.548  10.610
  221SOD    SOD24921   0.344   8.312  11.314
  222SOD    SOD24922   5.968   6.571  18.110
  223SOD    SOD24923   3.405   7.367  11.593
  224SOD    SOD24924   0.535   5.576  10.733
  225SOD    SOD24925   3.773   2.580  11.629
  226SOD    SOD24926   1.079   8.678  19.315
  227CLA    CLA24927   7.152   4.237  11.639
  228CLA    CLA24928   6.002   5.847  10.309
  229CLA    CLA24929   0.580   5.421  11.845
  230CLA    CLA24930   6.922   3.599  18.023
  231CLA    CLA24931   5.500   7.829  19.661
  232CLA    CLA24932   5.496   3.338  19.697
  233CLA    CLA24933   5.421   1.467  18.143
  234CLA    CLA24934   7.482   6.967  19.012
  235CLA    CLA24935   1.858   0.779  10.396
  236CLA    CLA24936   3.298   0.650  18.468
  237CLA    CLA24937   2.961   2.508  17.865
  238CLA    CLA24938   6.241   1.806  11.632
  239CLA    CLA24939   8.756   0.857  12.171
  240CLA    CLA24940   7.695   4.950  17.284
  241CLA    CLA24941   5.817   8.704  12.435
  242CLA    CLA24942   6.292   3.911  18.371
  243CLA    CLA24943   1.016   0.860  11.662
  244CLA    CLA24944   4.118   2.883  11.991
  245CLA    CLA24945   8.466   7.484  11.957
  246CLA    CLA24946   1.354   0.915  19.753
  247CLA    CLA24947   5.037   0.955  11.574
  248CLA    CLA24948   5.515   5.381  11.830
  249CLA    CLA24949   2.229   7.374  11.900
  250CLA    CLA24950   5.466   3.464  18.728
  251CLA    CLA24951   1.504   4.133  18.026
  252CLA    CLA24952   0.767   2.753  12.370
  253TIP3   OH224953   4.933   5.756  17.013
  253TIP3    H124954   4.868   5.689  16.993
  253TIP3    H224955   4.918   5.825  16.949
  254TIP3   OH224956   4.596   5.423  17.155
  254TIP3    H124957   4.537   5.499  17.158
  254TIP3    H224958   4.666   5.450  17.096
  255TIP3   OH224959   3.327   5.347  17.088
  255TIP3    H124960   3.389   5.415  17.116
  255TIP3    H224961   3.297   5.376  17.002
  256TIP3   OH224962   2.993   5.527  17.033
  256TIP3    H124963   2.906   5.560  17.056
  256TIP3    H224964   3.007   5.453  17.091
  257TIP3   OH224965   2.839   3.294  16.926
  257TIP3    H124966   2.771   3.353  16.893
  257TIP3    H224967   2.921   3.337  16.904
  258TIP3   OH224968   7.384   4.922  17.316
  258TIP3    H124969   7.374   5.001  17.262
  258TIP3    H224970   7.478   4.903  17.314
  259TIP3   OH224971   7.161   5.054  16.964
  259TIP3    H124972   7.249   5.022  16.942
  259TIP3    H224973   7.105   5.017  16.897
  260TIP3   OH224974   7.611   4.791  17.015
  260TIP3    H124975   7.647   4.820  17.099
  260TIP3    H224976   7.681   4.737  16.977
  261TIP3   OH224977   2.143   2.955  17.004
  261TIP3    H124978   2.222   2.941  16.952
  261TIP3    H224979   2.071   2.927  16.947
  262TIP3   OH224980   7.511   2.850  17.056
  262TIP3    H124981   7.437   2.895  17.015
  262TIP3    H224982   7.568   2.825  16.983
  263TIP3   OH224983   7.093   3.100  17.020
  263TIP3    H124984   7.097   3.171  17.085
  263TIP3    H224985   7.012   3.116  16.972
  264TIP3   OH224986   3.477   7.829  16.924
  264TIP3    H124987   3.407   7.858  16.983
  264TIP3    H224988   3.442   7.751  16.882
  265TIP3   OH224989   3.147   7.482  17.010
  265TIP3    H124990   3.104   7.550  17.063
  265TIP3    H224991   3.152   7.406  17.068
  266TIP3   OH224992   3.209   7.854  17.013
  266TIP3    H124993   3.213   7.948  16.998
  266TIP3    H224994   3.210   7.815  16.926
  267TIP3   OH224995   1.690   7.021  17.120
  267TIP3    H124996   1.608   7.065  17.097
  267TIP3    H224997   1.758   7.085  17.103
  268TIP3   OH224998   1.164   6.623  17.239
  268TIP3    H124999   1.236   6.611  17.177
  268TIP3    H225000   1.100   6.676  17.191
  269TIP3   OH225001   1.377   6.589  17.069
  269TIP3    H125002   1.388   6.525  16.999
  269TIP3    H225003   1.463   6.630  17.079
  270TIP3   OH225004   1.422   6.129  16.917
  270TIP3    H125005   1.378   6.150  16.999
  270TIP3    H225006   1.440   6.035  16.923
  271TIP3   OH225007   4.098   0.723  17.116
  271TIP3    H125008   4.121   0.816  17.124
  271TIP3    H225009   4.063   0.700  17.202
  272TIP3   OH225010   0.730   6.308  17.018
  272TIP3    H125011   0.768   6.263  17.093
  272TIP3    H225012   0.724   6.240  16.950
  273TIP3   OH225013   6.565   8.661  17.107
  273TIP3    H125014   6.539   8.618  17.025
  273TIP3    H225015   6.622   8.733  17.078
  274TIP3   OH225016   2.466   0.689  16.989
  274TIP3    H125017   2.438   0.680  17.080
  274TIP3    H225018   2.520   0.612  16.973
  275TIP3   OH225019   3.102   0.197  17.164
  275TIP3    H125020   3.161   0.238  17.227
  275TIP3    H225021   3.044   0.268  17.136
  276TIP3   OH225022   2.968   0.420  17.067
  276TIP3    H125023   2.959   0.514  17.082
  276TIP3    H225024   3.011   0.413  16.981
  277TIP3   OH225025   6.461   0.212  17.015
  277TIP3    H125026   6.366   0.203  17.006
  277TIP3    H225027   6.483   0.286  16.958
  278TIP3   OH225028   6.631   0.668  16.901
  278TIP3    H125029   6.721   0.686  16.874
  278TIP3    H225030   6.603   0.747  16.947
  279TIP3   OH225031   8.636   2.259  17.056
  279TIP3    H125032   8.695   2.185  17.038
  279TIP3    H225033   8.636   2.310  16.975
  280TIP3   OH225034   8.827   2.061  17.011
  280TIP3    H125035   8.905   2.089  16.964
  280TIP3    H225036   8.803   1.977  16.971
  281TIP3   OH225037   8.807   1.274  16.701
  281TIP3    H125038   8.890   1.309  16.669
  281TIP3    H225039   8.832   1.206  16.763
  282TIP3   OH225040   1.287   0.302  17.073
  282TIP3    H125041   1.220   0.244  17.035
  282TIP3    H225042   1.263   0.308  17.166
  283TIP3   OH225043   1.818   0.590  16.997
  283TIP3    H125044   1.793   0.499  17.009
  283TIP3    H225045   1.757   0.624  16.932
  284TIP3   OH225046   5.174   4.371  12.857
  284TIP3    H125047   5.216   4.296  12.898
  284TIP3    H225048   5.173   4.438  12.926
  285TIP3   OH225049   5.369   4.729  12.892
  285TIP3    H125050   5.329   4.693  12.813
  285TIP3    H225051   5.427   4.798  12.861
  286TIP3   OH225052   5.954   4.411  13.044
  286TIP3    H125053   6.014   4.474  13.083
  286TIP3    H225054   6.002   4.373  12.970
  287TIP3   OH225055   5.732   4.769  12.797
  287TIP3    H125056   5.776   4.793  12.878
  287TIP3    H225057   5.658   4.829  12.790
  288TIP3   OH225058   3.689   6.135  13.140
  288TIP3    H125059   3.652   6.083  13.212
  288TIP3    H225060   3.621   6.135  13.073
  289TIP3   OH225061   4.529   6.363  12.932
  289TIP3    H125062   4.468   6.381  12.859
  289TIP3    H225063   4.475   6.320  12.997
  290TIP3   OH225064   5.209   6.413  12.906
  290TIP3    H125065   5.192   6.344  12.970
  290TIP3    H225066   5.305   6.420  12.903
  291TIP3   OH225067   5.099   5.947  12.985
  291TIP3    H125068   5.038   5.895  12.933
  291TIP3    H225069   5.184   5.906  12.972
  292TIP3   OH225070   3.479   6.105  12.962
  292TIP3    H125071   3.412   6.142  12.904
  292TIP3    H225072   3.472   6.010  12.948
  293TIP3   OH225073   2.957   6.310  12.750
  293TIP3    H125074   2.955   6.225  12.793
  293TIP3    H225075   3.014   6.364  12.805
  294TIP3   OH225076   3.152   6.430  12.909
  294TIP3    H125077   3.166   6.517  12.947
  294TIP3    H225078   3.130   6.374  12.984
  295TIP3   OH225079   3.032   6.070  12.874
  295TIP3    H125080   3.012   5.985  12.835
  295TIP3    H225081   3.124   6.085  12.850
  296TIP3   OH225082   3.271   6.202  12.791
  296TIP3    H125083   3.256   6.213  12.697
  296TIP3    H225084   3.246   6.286  12.829
  297TIP3   OH225085   2.998   1.973  13.073
  297TIP3    H125086   3.084   1.941  13.046
  297TIP3    H225087   3.000   1.971  13.169
  298TIP3   OH225088   3.220   2.174  13.088
  298TIP3    H125089   3.233   2.083  13.063
  298TIP3    H225090   3.126   2.182  13.103
  299TIP3   OH225091   2.439   1.804  12.923
  299TIP3    H125092   2.432   1.722  12.971
  299TIP3    H225093   2.503   1.785  12.854
  300TIP3   OH225094   2.651   1.783  12.737
  300TIP3    H125095   2.700   1.837  12.799
  300TIP3    H225096   2.680   1.693  12.754
  301TIP3   OH225097   2.513   2.231  12.838
  301TIP3    H125098   2.530   2.158  12.897
  301TIP3    H225099   2.473   2.298  12.893
  302TIP3   OH225100   2.782   1.957  12.905
  302TIP3    H125101   2.711   1.992  12.959
  302TIP3    H225102   2.859   1.960  12.961
  303TIP3   OH225103   7.038   7.265  12.921
  303TIP3    H125104   7.082   7.181  12.904
  303TIP3    H225105   7.073   7.324  12.855
  304TIP3   OH225106   3.422   7.616  13.073
  304TIP3    H125107   3.515   7.631  13.057
  304TIP3    H225108   3.414   7.521  13.084
  305TIP3   OH225109   3.029   8.004  12.999
  305TIP3    H125110   3.096   7.944  13.031
  305TIP3    H225111   2.958   7.947  12.971
  306TIP3   OH225112   0.780   6.711  12.910
  306TIP3    H125113   0.768   6.804  12.930
  306TIP3    H225114   0.840   6.679  12.978
  307TIP3   OH225115   0.690   6.275  12.787
  307TIP3    H125116   0.779   6.264  12.821
  307TIP3    H225117   0.642   6.198  12.819
  308TIP3   OH225118   0.586   6.038  12.900
  308TIP3    H125119   0.651   6.011  12.965
  308TIP3    H225120   0.537   5.958  12.881
  309TIP3   OH225121   4.630   8.537  12.894
  309TIP3    H125122   4.574   8.529  12.971
  309TIP3    H225123   4.656   8.447  12.873
  310TIP3   OH225124   4.184   8.504  13.063
  310TIP3    H125125   4.166   8.544  12.978
  310TIP3    H225126   4.099   8.498  13.106
  311TIP3   OH225127   1.150   2.804  12.874
  311TIP3    H125128   1.129   2.720  12.833
  311TIP3    H225129   1.145   2.868  12.803
  312TIP3   OH225130   0.750   2.972  12.943
  312TIP3    H125131   0.688   2.917  12.990
  312TIP3    H225132   0.834   2.956  12.986
  313TIP3   OH225133   8.495   2.954  12.697
  313TIP3    H125134   8.544   2.927  12.775
  313TIP3    H225135   8.407   2.970  12.729
  314TIP3   OH225136   8.102   2.765  12.976
  314TIP3    H125137   8.027   2.714  13.008
  314TIP3    H225138   8.154   2.702  12.927
  315TIP3   OH225139   8.053   3.179  12.994
  315TIP3    H125140   8.121   3.122  13.031
  315TIP3    H225141   8.070   3.265  13.034
  316TIP3   OH225142   6.630   0.230  12.982
  316TIP3    H125143   6.546   0.219  12.937
  316TIP3    H225144   6.623   0.313  13.028
  317TIP3   OH225145   6.881   0.338  13.021
  317TIP3    H125146   6.815   0.279  12.987
  317TIP3    H225147   6.832   0.403  13.072
  318TIP3   OH225148   7.059   0.477  12.868
  318TIP3    H125149   6.998   0.427  12.922
  318TIP3    H225150   7.139   0.484  12.920
  319TIP3   OH225151   8.300   1.499  12.930
  319TIP3    H125152   8.239   1.458  12.991
  319TIP3    H225153   8.289   1.449  12.849
  320TIP3   OH225154   0.253   7.911  12.871
  320TIP3    H125155   0.291   7.998  12.879
  320TIP3    H225156   0.235   7.884  12.961
  321TIP3   OH225157   8.746   0.280  12.954
  321TIP3    H125158   8.691   0.236  12.890
  321TIP3    H225159   8.834   0.280  12.916
  322TIP3   OH225160   8.617   0.449  12.673
  322TIP3    H125161   8.621   0.354  12.689
  322TIP3    H225162   8.603   0.487  12.760
  323TIP3   OH225163   1.526   1.208  17.584
  323TIP3    H125164   1.503   1.297  17.559
  323TIP3    H225165   1.452   1.155  17.555
  324TIP3   OH225166   1.006   0.910  18.122
  324TIP3    H125167   1.097   0.921  18.149
  324TIP3    H225168   1.011   0.860  18.041
  325TIP3   OH225169   0.488   1.145  18.114
  325TIP3    H125170   0.567   1.093  18.099
  325TIP3    H225171   0.481   1.151  18.209
  326TIP3   OH225172   1.720   1.503  17.811
  326TIP3    H125173   1.715   1.408  17.820
  326TIP3    H225174   1.730   1.535  17.901
  327TIP3   OH225175   0.587   1.644  17.876
  327TIP3    H125176   0.558   1.556  17.898
  327TIP3    H225177   0.668   1.655  17.926
  328TIP3   OH225178   0.081   0.782  17.606
  328TIP3    H125179   0.003   0.813  17.560
  328TIP3    H225180   0.103   0.700  17.562
  329TIP3   OH225181   0.273   0.907  17.781
  329TIP3    H125182   0.277   0.816  17.811
  329TIP3    H225183   0.216   0.905  17.704
  330TIP3   OH225184   1.478   2.059  17.644
  330TIP3    H125185   1.538   1.994  17.610
  330TIP3    H225186   1.492   2.059  17.739
  331TIP3   OH225187   1.012   1.441  18.082
  331TIP3    H125188   1.065   1.400  18.014
  331TIP3    H225189   1.074   1.456  18.154
  332TIP3   OH225190   2.122   0.325  18.146
  332TIP3    H125191   2.121   0.413  18.182
  332TIP3    H225192   2.156   0.336  18.057
  333TIP3   OH225193   1.385   0.692  18.003
  333TIP3    H125194   1.413   0.601  18.014
  333TIP3    H225195   1.441   0.726  17.934
  334TIP3   OH225196   1.639   0.520  17.682
  334TIP3    H125197   1.690   0.481  17.752
  334TIP3    H225198   1.704   0.546  17.617
  335TIP3   OH225199   0.156   0.645  17.827
  335TIP3    H125200   0.177   0.564  17.781
  335TIP3    H225201   0.116   0.701  17.761
  336TIP3   OH225202   2.074   0.580  18.238
  336TIP3    H125203   2.064   0.675  18.241
  336TIP3    H225204   2.005   0.547  18.295
  337TIP3   OH225205   0.647   0.455  18.146
  337TIP3    H125206   0.642   0.551  18.146
  337TIP3    H225207   0.575   0.427  18.201
  338TIP3   OH225208   1.462   1.472  17.516
  338TIP3    H125209   1.405   1.509  17.584
  338TIP3    H225210   1.544   1.519  17.526
  339TIP3   OH225211   0.832   1.264  18.208
  339TIP3    H125212   0.759   1.322  18.230
  339TIP3    H225213   0.896   1.321  18.166
  340TIP3   OH225214   1.724   0.415  17.934
  340TIP3    H125215   1.633   0.419  17.963
  340TIP3    H225216   1.768   0.485  17.982
  341TIP3   OH225217   0.632   1.454  18.235
  341TIP3    H125218   0.607   1.449  18.143
  341TIP3    H225219   0.552   1.479  18.280
  342TIP3   OH225220   0.335   1.546  17.448
  342TIP3    H125221   0.262   1.538  17.387
  342TIP3    H225222   0.320   1.628  17.494
  343TIP3   OH225223   1.758   1.674  18.055
  343TIP3    H125224   1.687   1.719  18.101
  343TIP3    H225225   1.792   1.739  17.994
  344TIP3   OH225226   1.881   0.251  18.257
  344TIP3    H125227   1.824   0.225  18.184
  344TIP3    H225228   1.965   0.271  18.216
  345TIP3   OH225229   1.152   0.029  17.982
  345TIP3    H125230   1.076   9.187  17.989
  345TIP3    H225231   1.174   0.052  18.072
  346TIP3   OH225232   1.657   1.879  17.532
  346TIP3    H125233   1.670   1.784  17.536
  346TIP3    H225234   1.740   1.916  17.563
  347TIP3   OH225235   1.702   1.600  17.553
  347TIP3    H125236   1.757   1.541  17.502
  347TIP3    H225237   1.718   1.574  17.644
  348TIP3   OH225238   1.984   1.477  18.457
  348TIP3    H125239   2.000   1.420  18.382
  348TIP3    H225240   1.954   1.560  18.418
  349TIP3   OH225241   1.308   1.084  17.465
  349TIP3    H125242   1.225   1.131  17.466
  349TIP3    H225243   1.338   1.090  17.374
  350TIP3   OH225244   1.427   1.100  17.217
  350TIP3    H125245   1.503   1.042  17.222
  350TIP3    H225246   1.417   1.119  17.123
  351TIP3   OH225247   2.154   1.088  18.256
  351TIP3    H125248   2.101   1.168  18.257
  351TIP3    H225249   2.221   1.105  18.190
  352TIP3   OH225250   1.761   1.136  17.459
  352TIP3    H125251   1.684   1.155  17.512
  352TIP3    H225252   1.825   1.102  17.523
  353TIP3   OH225253   1.699   0.867  18.494
  353TIP3    H125254   1.718   0.948  18.541
  353TIP3    H225255   1.653   0.895  18.415
  354TIP3   OH225256   0.610   1.278  17.700
  354TIP3    H125257   0.569   1.305  17.618
  354TIP3    H225258   0.591   1.184  17.707
  355TIP3   OH225259   0.849   1.647  17.970
  355TIP3    H125260   0.875   1.636  17.879
  355TIP3    H225261   0.899   1.581  18.017
  356TIP3   OH225262   0.751   1.033  18.076
  356TIP3    H125263   0.832   0.982  18.087
  356TIP3    H225264   0.772   1.119  18.112
  357TIP3   OH225265   1.586   1.823  18.209
  357TIP3    H125266   1.578   1.917  18.226
  357TIP3    H225267   1.554   1.781  18.289
  358TIP3   OH225268   0.781   1.551  18.457
  358TIP3    H125269   0.716   1.606  18.500
  358TIP3    H225270   0.738   1.518  18.379
  359TIP3   OH225271   1.669   0.956  17.271
  359TIP3    H125272   1.702   1.021  17.333
  359TIP3    H225273   1.735   0.953  17.202
  360TIP3   OH225274   0.471   1.139  18.402
  360TIP3    H125275   0.494   1.194  18.476
  360TIP3    H225276   0.378   1.120  18.414
  361TIP3   OH225277   1.325   2.078  17.416
  361TIP3    H125278   1.362   2.067  17.503
  361TIP3    H225279   1.257   2.144  17.426
  362TIP3   OH225280   0.607   1.732  18.577
  362TIP3    H125281   0.591   1.795  18.507
  362TIP3    H225282   0.520   1.700  18.600
  363TIP3   OH225283   1.895   9.050  17.114
  363TIP3    H125284   1.907   9.143  17.094
  363TIP3    H225285   1.913   9.005  17.032
  364TIP3   OH225286   0.498   1.325  17.455
  364TIP3    H125287   0.446   1.406  17.458
  364TIP3    H225288   0.464   1.278  17.379
  365TIP3   OH225289   0.204   1.385  18.447
  365TIP3    H125290   0.112   1.394  18.425
  365TIP3    H225291   0.216   1.291  18.464
  366TIP3   OH225292   0.252   1.705  17.977
  366TIP3    H125293   0.311   1.645  17.931
  366TIP3    H225294   0.301   1.731  18.055
  367TIP3   OH225295   2.308   1.688  18.675
  367TIP3    H125296   2.280   1.599  18.655
  367TIP3    H225297   2.240   1.743  18.636
  368TIP3   OH225298   0.983   1.738  18.488
  368TIP3    H125299   0.984   1.744  18.583
  368TIP3    H225300   0.920   1.669  18.469
  369TIP3   OH225301   1.139   2.284  17.441
  369TIP3    H125302   1.049   2.316  17.443
  369TIP3    H225303   1.191   2.358  17.472
  370TIP3   OH225304   1.600   2.097  17.356
  370TIP3    H125305   1.505   2.095  17.368
  370TIP3    H225306   1.632   2.021  17.406
  371TIP3   OH225307   1.938   0.730  18.523
  371TIP3    H125308   1.855   0.777  18.521
  371TIP3    H225309   1.919   0.645  18.483
  372TIP3   OH225310   0.411   1.543  18.375
  372TIP3    H125311   0.409   1.586  18.460
  372TIP3    H225312   0.341   1.478  18.379
  373TIP3   OH225313   0.655   0.178  18.092
  373TIP3    H125314   0.566   0.174  18.056
  373TIP3    H225315   0.669   0.271  18.110
  374TIP3   OH225316   1.189   0.075  18.256
  374TIP3    H125317   1.214   0.001  18.312
  374TIP3    H225318   1.102   0.101  18.287
  375TIP3   OH225319   1.630   0.596  18.520
  375TIP3    H125320   1.586   0.577  18.603
  375TIP3    H225321   1.644   0.691  18.521
  376TIP3   OH225322   0.652   0.791  17.959
  376TIP3    H125323   0.616   0.759  18.042
  376TIP3    H225324   0.678   0.881  17.978
  377TIP3   OH225325   1.356   0.830  17.578
  377TIP3    H125326   1.335   0.917  17.544
  377TIP3    H225327   1.412   0.791  17.511
  378TIP3   OH225328   1.232   0.771  18.672
  378TIP3    H125329   1.214   0.683  18.706
  378TIP3    H225330   1.299   0.806  18.731
  379TIP3   OH225331   1.536   0.761  17.781
  379TIP3    H125332   1.472   0.794  17.717
  379TIP3    H225333   1.566   0.679  17.744
  380TIP3   OH225334   0.573   0.715  18.216
  380TIP3    H125335   0.600   0.788  18.272
  380TIP3    H225336   0.500   0.674  18.263
  381TIP3   OH225337   1.266   0.864  18.191
  381TIP3    H125338   1.319   0.817  18.127
  381TIP3    H225339   1.276   0.814  18.272
  382TIP3   OH225340   1.457   0.420  18.017
  382TIP3    H125341   1.439   0.378  18.101
  382TIP3    H225342   1.406   0.370  17.953
  383TIP3   OH225343   1.848   2.233  18.697
  383TIP3    H125344   1.879   2.255  18.610
  383TIP3    H225345   1.924   2.245  18.754
  384TIP3   OH225346   0.487   1.276  18.656
  384TIP3    H125347   0.565   1.298  18.708
  384TIP3    H225348   0.422   1.341  18.683
  385TIP3   OH225349   1.111   0.696  17.959
  385TIP3    H125350   1.206   0.699  17.967
  385TIP3    H225351   1.082   0.648  18.037
  386TIP3   OH225352   1.041   0.644  18.234
  386TIP3    H125353   1.014   0.736  18.223
  386TIP3    H225354   1.115   0.648  18.295
  387TIP3   OH225355   1.054   1.206  17.497
  387TIP3    H125356   1.011   1.127  17.532
  387TIP3    H225357   0.998   1.278  17.526
  388TIP3   OH225358   2.036   1.340  18.220
  388TIP3    H125359   2.118   1.375  18.185
  388TIP3    H225360   1.970   1.366  18.156
  389TIP3   OH225361   1.463   0.479  17.330
  389TIP3    H125362   1.440   0.476  17.237
  389TIP3    H225363   1.485   0.570  17.347
  390TIP3   OH225364   1.233   1.604  18.506
  390TIP3    H125365   1.236   1.599  18.602
  390TIP3    H225366   1.160   1.664  18.487
  391TIP3   OH225367   1.557   0.734  17.401
  391TIP3    H125368   1.637   0.692  17.430
  391TIP3    H225369   1.587   0.811  17.351
  392TIP3   OH225370   0.551   1.379  17.962
  392TIP3    H125371   0.575   1.347  17.875
  392TIP3    H225372   0.517   1.303  18.008
  393TIP3   OH225373   0.206   1.110  18.481
  393TIP3    H125374   0.221   1.085  18.573
  393TIP3    H225375   0.115   1.085  18.464
  394TIP3   OH225376   1.035   0.978  18.650
  394TIP3    H125377   1.000   0.986  18.561
  394TIP3    H225378   1.100   0.907  18.644
  395TIP3   OH225379   1.519   1.584  18.537
  395TIP3    H125380   1.429   1.582  18.506
  395TIP3    H225381   1.515   1.629  18.621
  396TIP3   OH225382   2.195   0.881  17.259
  396TIP3    H125383   2.136   0.831  17.203
  396TIP3    H225384   2.179   0.973  17.236
  397TIP3   OH225385   2.223   1.439  18.599
  397TIP3    H125386   2.132   1.447  18.569
  397TIP3    H225387   2.272   1.414  18.521
  398TIP3   OH225388   2.054   1.812  17.244
  398TIP3    H125389   2.064   1.726  17.284
  398TIP3    H225390   2.131   1.822  17.188
  399TIP3   OH225391   1.688   1.223  17.812
  399TIP3    H125392   1.626   1.214  17.740
  399TIP3    H225393   1.710   1.134  17.836
  400TIP3   OH225394   0.808   1.648  17.681
  400TIP3    H125395   0.818   1.728  17.631
  400TIP3    H225396   0.719   1.653  17.717
  401TIP3   OH225397   0.403   1.220  17.216
  401TIP3    H125398   0.413   1.280  17.142
  401TIP3    H225399   0.333   1.160  17.190
  402TIP3   OH225400   0.860   1.381  17.601
  402TIP3    H125401   0.854   1.474  17.624
  402TIP3    H225402   0.779   1.343  17.636
  403TIP3   OH225403   0.859   1.924  18.318
  403TIP3    H125404   0.907   2.006  18.335
  403TIP3    H225405   0.907   1.858  18.368
  404TIP3   OH225406   0.803   1.892  17.529
  404TIP3    H125407   0.710   1.900  17.507
  404TIP3    H225408   0.827   1.978  17.564
  405TIP3   OH225409   1.212   1.455  18.271
  405TIP3    H125410   1.216   1.508  18.351
  405TIP3    H225411   1.294   1.406  18.270
  406TIP3   OH225412   1.817   1.964  18.388
  406TIP3    H125413   1.732   1.998  18.360
  406TIP3    H225414   1.881   2.020  18.345
  407TIP3   OH225415   0.431   0.397  18.300
  407TIP3    H125416   0.358   0.360  18.250
  407TIP3    H225417   0.426   0.353  18.385
  408TIP3   OH225418   1.831   1.401  17.404
  408TIP3    H125419   1.800   1.311  17.416
  408TIP3    H225420   1.927   1.393  17.401
  409TIP3   OH225421   0.406   1.753  18.198
  409TIP3    H125422   0.403   1.676  18.255
  409TIP3    H225423   0.470   1.811  18.238
  410TIP3   OH225424   0.883   1.630  17.189
  410TIP3    H125425   0.870   1.603  17.280
  410TIP3    H225426   0.908   1.722  17.195
  411TIP3   OH225427   1.388   0.272  18.238
  411TIP3    H125428   1.416   0.273  18.329
  411TIP3    H225429   1.317   0.208  18.235
  412TIP3   OH225430   1.518   0.312  17.539
  412TIP3    H125431   1.497   0.357  17.457
  412TIP3    H225432   1.554   0.380  17.595
  413TIP3   OH225433   1.245   1.893  17.218
  413TIP3    H125434   1.150   1.888  17.229
  413TIP3    H225435   1.274   1.953  17.287
  414TIP3   OH225436   1.092   0.743  17.679
  414TIP3    H125437   1.179   0.768  17.647
  414TIP3    H225438   1.104   0.731  17.773
  415TIP3   OH225439   1.261   0.691  18.408
  415TIP3    H125440   1.246   0.727  18.495
  415TIP3    H225441   1.333   0.629  18.420
  416TIP3   OH225442   1.254   0.240  17.597
  416TIP3    H125443   1.259   0.262  17.690
  416TIP3    H225444   1.343   0.257  17.564
  417TIP3   OH225445   0.947   1.897  17.280
  417TIP3    H125446   0.913   1.981  17.251
  417TIP3    H225447   0.915   1.887  17.369
  418TIP3   OH225448   1.858   0.498  18.395
  418TIP3    H125449   1.772   0.515  18.433
  418TIP3    H225450   1.853   0.407  18.364
  419TIP3   OH225451   1.750   0.943  17.839
  419TIP3    H125452   1.675   0.885  17.826
  419TIP3    H225453   1.806   0.895  17.900
  420TIP3   OH225454   1.933   2.191  18.024
  420TIP3    H125455   1.901   2.199  17.934
  420TIP3    H225456   2.028   2.188  18.015
  421TIP3   OH225457   0.407   0.131  17.976
  421TIP3    H125458   0.405   0.150  17.882
  421TIP3    H225459   0.401   0.036  17.981
  422TIP3   OH225460   0.275   1.792  17.556
  422TIP3    H125461   0.266   1.838  17.639
  422TIP3    H225462   0.288   1.861  17.492
  423TIP3   OH225463   0.298   2.174  18.712
  423TIP3    H125464   0.375   2.155  18.766
  423TIP3    H225465   0.266   2.088  18.685
  424TIP3   OH225466   0.640   1.867  18.829
  424TIP3    H125467   0.703   1.819  18.882
  424TIP3    H225468   0.640   1.821  18.745
  425TIP3   OH225469   1.449   1.714  18.781
  425TIP3    H125470   1.431   1.641  18.841
  425TIP3    H225471   1.525   1.758  18.818
  426TIP3   OH225472   1.936   1.763  16.982
  426TIP3    H125473   1.957   1.781  17.073
  426TIP3    H225474   2.014   1.719  16.948
  427TIP3   OH225475   0.248   1.407  18.788
  427TIP3    H125476   0.259   1.335  18.849
  427TIP3    H225477   0.155   1.406  18.766
  428TIP3   OH225478   0.924   1.436  18.663
  428TIP3    H125479   0.877   1.467  18.585
  428TIP3    H225480   0.983   1.368  18.629
  429TIP3   OH225481   1.726   1.379  18.532
  429TIP3    H125482   1.808   1.425  18.519
  429TIP3    H225483   1.659   1.448  18.533
  430TIP3   OH225484   0.305   1.080  18.738
  430TIP3    H125485   0.380   1.131  18.707
  430TIP3    H225486   0.294   1.107  18.829
  431TIP3   OH225487   0.644   0.918  18.392
  431TIP3    H125488   0.584   0.992  18.398
  431TIP3    H225489   0.731   0.958  18.388
  432TIP3   OH225490   1.469   1.243  18.936
  432TIP3    H125491   1.553   1.203  18.913
  432TIP3    H225492   1.409   1.170  18.947
  433TIP3   OH225493   2.284   1.342  17.030
  433TIP3    H125494   2.244   1.357  16.944
  433TIP3    H225495   2.312   1.428  17.059
  434TIP3   OH225496   0.641   0.700  18.566
  434TIP3    H125497   0.710   0.650  18.522
  434TIP3    H225498   0.636   0.782  18.517
  435TIP3   OH225499   0.900   0.407  18.253
  435TIP3    H125500   0.952   0.487  18.247
  435TIP3    H225501   0.816   0.429  18.213
  436TIP3   OH225502   0.899   1.032  18.358
  436TIP3    H125503   0.943   0.989  18.285
  436TIP3    H225504   0.882   1.121  18.327
  437TIP3   OH225505   1.443   0.800  18.864
  437TIP3    H125506   1.470   0.714  18.832
  437TIP3    H225507   1.515   0.830  18.918
  438TIP3   OH225508   1.773   1.114  18.587
  438TIP3    H125509   1.750   1.204  18.564
  438TIP3    H225510   1.869   1.113  18.587
  439TIP3   OH225511   0.550   0.598  18.807
  439TIP3    H125512   0.481   0.542  18.771
  439TIP3    H225513   0.586   0.643  18.731
  440TIP3   OH225514   0.927   0.148  18.329
  440TIP3    H125515   0.927   0.242  18.310
  440TIP3    H225516   0.856   0.112  18.276
  441TIP3   OH225517   1.208   0.505  18.756
  441TIP3    H125518   1.204   0.483  18.849
  441TIP3    H225519   1.138   0.454  18.716
  442TIP3   OH225520   1.491   0.544  18.756
  442TIP3    H125521   1.400   0.516  18.754
  442TIP3    H225522   1.538   0.473  18.799
  443TIP3   OH225523   1.622   0.331  18.886
  443TIP3    H125524   1.621   0.236  18.871
  443TIP3    H225525   1.571   0.343  18.966
  444TIP3   OH225526   0.349   0.426  18.719
  444TIP3    H125527   0.353   0.372  18.639
  444TIP3    H225528   0.378   0.367  18.789
  445TIP3   OH225529   0.869   0.090  18.602
  445TIP3    H125530   0.907   0.002  18.602
  445TIP3    H225531   0.889   0.125  18.515
  446TIP3   OH225532   0.962   0.308  18.807
  446TIP3    H125533   0.934   0.237  18.749
  446TIP3    H225534   0.880   0.340  18.846
  447TIP3   OH225535   0.840   2.163  17.238
  447TIP3    H125536   0.842   2.224  17.312
  447TIP3    H225537   0.770   2.197  17.181
  448TIP3   OH225538   0.253   1.925  17.805
  448TIP3    H125539   0.225   1.855  17.863
  448TIP3    H225540   0.345   1.939  17.826
  449TIP3   OH225541   2.213   2.193  18.013
  449TIP3    H125542   2.253   2.278  17.994
  449TIP3    H225543   2.257   2.132  17.955
  450TIP3   OH225544   2.140   2.154  18.283
  450TIP3    H125545   2.154   2.169  18.190
  450TIP3    H225546   2.180   2.068  18.299
  451TIP3   OH225547   2.030   1.469  18.881
  451TIP3    H125548   1.957   1.503  18.933
  451TIP3    H225549   2.102   1.530  18.899
  452TIP3   OH225550   2.102   1.334  17.409
  452TIP3    H125551   2.169   1.401  17.394
  452TIP3    H225552   2.136   1.283  17.483
  453TIP3   OH225553   2.176   1.148  17.608
  453TIP3    H125554   2.089   1.113  17.626
  453TIP3    H225555   2.225   1.135  17.690
  454TIP3   OH225556   2.282   1.411  18.126
  454TIP3    H125557   2.322   1.333  18.087
  454TIP3    H225558   2.342   1.482  18.105
  455TIP3   OH225559   1.885   1.693  18.319
  455TIP3    H125560   1.856   1.780  18.346
  455TIP3    H225561   1.845   1.681  18.232
  456TIP3   OH225562   2.173   1.154  17.209
  456TIP3    H125563   2.196   1.217  17.141
  456TIP3    H225564   2.134   1.207  17.278
  457TIP3   OH225565   2.038   0.741  17.082
  457TIP3    H125566   2.092   0.745  17.003
  457TIP3    H225567   1.963   0.688  17.056
  458TIP3   OH225568   1.933   1.011  17.644
  458TIP3    H125569   1.960   0.921  17.624
  458TIP3    H225570   1.873   1.002  17.718
  459TIP3   OH225571   0.233   1.055  18.011
  459TIP3    H125572   0.258   1.021  17.925
  459TIP3    H225573   0.314   1.090  18.048
  460TIP3   OH225574   2.048   1.071  18.619
  460TIP3    H125575   2.058   0.982  18.652
  460TIP3    H225576   2.132   1.089  18.576
  461TIP3   OH225577   2.206   0.781  18.581
  461TIP3    H125578   2.116   0.752  18.562
  461TIP3    H225579   2.248   0.704  18.619
  462TIP3   OH225580   1.801   0.600  17.462
  462TIP3    H125581   1.835   0.514  17.483
  462TIP3    H225582   1.857   0.632  17.391
  463TIP3   OH225583   1.929   0.799  17.997
  463TIP3    H125584   2.010   0.756  17.969
  463TIP3    H225585   1.944   0.822  18.089
  464TIP3   OH225586   2.019   0.848  18.262
  464TIP3    H125587   1.995   0.841  18.355
  464TIP3    H225588   2.064   0.932  18.256
  465TIP3   OH225589   0.186   0.650  18.724
  465TIP3    H125590   0.232   0.566  18.720
  465TIP3    H225591   0.241   0.710  18.673
  466TIP3   OH225592   2.231   0.143  18.816
  466TIP3    H125593   2.321   0.118  18.795
  466TIP3    H225594   2.206   0.202  18.745
  467TIP3   OH225595   1.886   0.355  17.545
  467TIP3    H125596   1.947   0.321  17.611
  467TIP3    H225597   1.843   0.278  17.510
  468TIP3   OH225598   0.239   0.262  18.150
  468TIP3    H125599   0.298   0.212  18.094
  468TIP3    H225600   0.177   0.303  18.089
  469TIP3   OH225601   0.041   0.841  17.990
  469TIP3    H125602   0.085   0.763  17.956
  469TIP3    H225603   0.112   0.901  18.012
  470TIP3   OH225604   2.109   0.325  18.648
  470TIP3    H125605   2.031   0.353  18.696
  470TIP3    H225606   2.077   0.264  18.583
  471TIP3   OH225607   1.883   2.002  17.617
  471TIP3    H125608   1.965   2.011  17.568
  471TIP3    H225609   1.882   2.079  17.674
  472TIP3   OH225610   0.138   0.117  18.368
  472TIP3    H125611   0.044   0.134  18.361
  472TIP3    H225612   0.177   0.166  18.295
  473TIP3   OH225613   0.357   1.630  18.634
  473TIP3    H125614   0.300   1.553  18.634
  473TIP3    H225615   0.348   1.666  18.722
  474TIP3   OH225616   0.586   1.905  18.359
  474TIP3    H125617   0.561   1.997  18.354
  474TIP3    H225618   0.679   1.904  18.340
  475TIP3   OH225619   1.145   2.133  18.686
  475TIP3    H125620   1.163   2.040  18.702
  475TIP3    H225621   1.231   2.172  18.671
  476TIP3   OH225622   1.399   2.246  18.629
  476TIP3    H125623   1.450   2.194  18.567
  476TIP3    H225624   1.461   2.272  18.697
  477TIP3   OH225625   2.004   0.130  18.475
  477TIP3    H125626   1.946   0.167  18.409
  477TIP3    H225627   1.973   0.040  18.487
  478TIP3   OH225628   0.343   2.455  18.398
  478TIP3    H125629   0.254   2.420  18.386
  478TIP3    H225630   0.358   2.450  18.492
  479TIP3   OH225631   0.565   2.374  18.251
  479TIP3    H125632   0.489   2.385  18.308
  479TIP3    H225633   0.582   2.462  18.216
  480TIP3   OH225634   1.388   2.284  18.288
  480TIP3    H125635   1.395   2.339  18.210
  480TIP3    H225636   1.341   2.338  18.351
  481TIP3   OH225637   1.591   2.095  18.288
  481TIP3    H125638   1.508   2.142  18.292
  481TIP3    H225639   1.655   2.162  18.263
  482TIP3   OH225640   1.779   2.288  18.226
  482TIP3    H125641   1.750   2.374  18.194
  482TIP3    H225642   1.833   2.253  18.155
  483TIP3   OH225643   0.521   1.918  17.887
  483TIP3    H125644   0.528   1.825  17.870
  483TIP3    H225645   0.591   1.937  17.950
  484TIP3   OH225646   0.748   1.893  18.058
  484TIP3    H125647   0.788   1.812  18.028
  484TIP3    H225648   0.787   1.909  18.144
  485TIP3   OH225649   1.322   0.226  17.867
  485TIP3    H125650   1.271   0.161  17.914
  485TIP3    H225651   1.401   0.178  17.839
  486TIP3   OH225652   1.812   0.165  17.843
  486TIP3    H125653   1.898   0.184  17.804
  486TIP3    H225654   1.784   0.249  17.879
  487TIP3   OH225655   2.059   0.250  17.742
  487TIP3    H125656   2.127   0.189  17.714
  487TIP3    H225657   2.105   0.314  17.797
  488TIP3   OH225658   0.409   0.153  17.704
  488TIP3    H125659   0.374   0.207  17.633
  488TIP3    H225660   0.397   0.063  17.673
  489TIP3   OH225661   0.302   0.118  17.320
  489TIP3    H125662   0.256   0.170  17.253
  489TIP3    H225663   0.310   0.178  17.394
  490TIP3   OH225664   1.131   0.003  17.696
  490TIP3    H125665   1.162   0.082  17.651
  490TIP3    H225666   1.141   0.023  17.789
  491TIP3   OH225667   1.553   0.121  17.750
  491TIP3    H125668   1.547   0.171  17.668
  491TIP3    H225669   1.644   0.130  17.777
  492TIP3   OH225670   1.738   0.140  17.451
  492TIP3    H125671   1.652   0.182  17.455
  492TIP3    H225672   1.724   0.061  17.398
  493TIP3   OH225673   0.318   1.983  17.361
  493TIP3    H125674   0.294   1.944  17.276
  493TIP3    H225675   0.361   2.065  17.338
  494TIP3   OH225676   1.182   0.318  17.332
  494TIP3    H125677   1.196   0.275  17.416
  494TIP3    H225678   1.166   0.410  17.354
  495TIP3   OH225679   1.111   2.184  17.185
  495TIP3    H125680   1.133   2.224  17.269
  495TIP3    H225681   1.016   2.174  17.186
  496TIP3   OH225682   2.098   2.020  17.426
  496TIP3    H125683   2.062   1.952  17.369
  496TIP3    H225684   2.075   2.102  17.383
  497TIP3   OH225685   0.382   0.233  18.521
  497TIP3    H125686   0.314   0.172  18.493
  497TIP3    H225687   0.449   0.179  18.562
  498TIP3   OH225688   0.586   0.094  18.662
  498TIP3    H125689   0.680   0.098  18.643
  498TIP3    H225690   0.570   0.002  18.684
  499TIP3   OH225691   1.645   0.056  18.839
  499TIP3    H125692   1.594   9.196  18.815
  499TIP3    H225693   1.736   0.026  18.837
  500TIP3   OH225694   1.784   1.961  18.668
  500TIP3    H125695   1.799   1.945  18.575
  500TIP3    H225696   1.804   2.054  18.680
  501TIP3   OH225697   3.776   1.107  17.630
  501TIP3    H125698   3.702   1.101  17.691
  501TIP3    H225699   3.744   1.065  17.550
  502TIP3   OH225700   3.398   1.042  18.089
  502TIP3    H125701   3.482   1.007  18.118
  502TIP3    H225702   3.366   0.978  18.025
  503TIP3   OH225703   2.531   0.975  18.201
  503TIP3    H125704   2.576   0.895  18.228
  503TIP3    H225705   2.544   1.035  18.274
  504TIP3   OH225706   2.873   1.551  17.992
  504TIP3    H125707   2.868   1.468  17.945
  504TIP3    H225708   2.962   1.582  17.976
  505TIP3   OH225709   2.324   0.933  17.500
  505TIP3    H125710   2.280   1.013  17.530
  505TIP3    H225711   2.279   0.910  17.418
  506TIP3   OH225712   2.359   1.065  17.807
  506TIP3    H125713   2.362   0.975  17.839
  506TIP3    H225714   2.438   1.074  17.754
  507TIP3   OH225715   3.305   1.292  18.163
  507TIP3    H125716   3.336   1.209  18.128
  507TIP3    H225717   3.375   1.321  18.222
  508TIP3   OH225718   4.431   0.294  18.151
  508TIP3    H125719   4.416   0.374  18.202
  508TIP3    H225720   4.457   0.325  18.065
  509TIP3   OH225721   3.817   0.761  17.993
  509TIP3    H125722   3.809   0.677  18.039
  509TIP3    H225723   3.776   0.746  17.908
  510TIP3   OH225724   2.904   0.459  17.853
  510TIP3    H125725   2.929   0.538  17.805
  510TIP3    H225726   2.881   0.396  17.785
  511TIP3   OH225727   3.923   0.505  17.690
  511TIP3    H125728   3.955   0.479  17.776
  511TIP3    H225729   3.997   0.550  17.649
  512TIP3   OH225730   2.422   0.815  17.912
  512TIP3    H125731   2.497   0.823  17.971
  512TIP3    H225732   2.460   0.790  17.828
  513TIP3   OH225733   3.091   0.941  17.822
  513TIP3    H125734   3.176   0.910  17.855
  513TIP3    H225735   3.042   0.860  17.803
  514TIP3   OH225736   4.357   0.514  18.289
  514TIP3    H125737   4.356   0.609  18.277
  514TIP3    H225738   4.274   0.494  18.331
  515TIP3   OH225739   2.903   0.426  18.248
  515TIP3    H125740   2.878   0.493  18.184
  515TIP3    H225741   2.830   0.423  18.310
  516TIP3   OH225742   3.039   1.258  18.215
  516TIP3    H125743   2.989   1.337  18.236
  516TIP3    H225744   3.127   1.290  18.195
  517TIP3   OH225745   4.021   0.457  17.946
  517TIP3    H125746   3.944   0.470  18.002
  517TIP3    H225747   4.084   0.523  17.976
  518TIP3   OH225748   2.813   0.613  18.065
  518TIP3    H125749   2.875   0.686  18.065
  518TIP3    H225750   2.836   0.562  17.987
  519TIP3   OH225751   2.870   1.485  18.272
  519TIP3    H125752   2.856   1.517  18.183
  519TIP3    H225753   2.782   1.482  18.310
  520TIP3   OH225754   2.294   1.522  17.339
  520TIP3    H125755   2.309   1.545  17.248
  520TIP3    H225756   2.380   1.531  17.380
  521TIP3   OH225757   4.169   0.227  18.217
  521TIP3    H125758   4.128   0.203  18.134
  521TIP3    H225759   4.259   0.248  18.194
  522TIP3   OH225760   3.234   0.142  17.967
  522TIP3    H125761   3.231   0.061  18.018
  522TIP3    H225762   3.155   0.189  17.994
  523TIP3   OH225763   4.171   1.476  18.421
  523TIP3    H125764   4.204   1.428  18.345
  523TIP3    H225765   4.163   1.566  18.391
  524TIP3   OH225766   3.730   0.967  17.394
  524TIP3    H125767   3.698   0.952  17.305
  524TIP3    H225768   3.825   0.970  17.385
  525TIP3   OH225769   3.717   0.865  17.135
  525TIP3    H125770   3.765   0.858  17.053
  525TIP3    H225771   3.719   0.776  17.171
  526TIP3   OH225772   4.390   1.039  18.221
  526TIP3    H125773   4.311   1.077  18.182
  526TIP3    H225774   4.460   1.061  18.160
  527TIP3   OH225775   4.030   1.171  17.551
  527TIP3    H125776   3.941   1.159  17.586
  527TIP3    H225777   4.086   1.126  17.614
  528TIP3   OH225778   3.907   0.827  18.560
  528TIP3    H125779   3.953   0.902  18.599
  528TIP3    H225780   3.847   0.866  18.497
  529TIP3   OH225781   3.021   1.153  17.654
  529TIP3    H125782   2.966   1.111  17.587
  529TIP3    H225783   3.053   1.081  17.707
  530TIP3   OH225784   3.134   1.635  17.925
  530TIP3    H125785   3.166   1.685  17.850
  530TIP3    H225786   3.206   1.577  17.947
  531TIP3   OH225787   2.945   1.081  18.021
  531TIP3    H125788   3.016   1.058  17.961
  531TIP3    H225789   2.985   1.141  18.084
  532TIP3   OH225790   3.925   1.709  18.168
  532TIP3    H125791   3.871   1.780  18.202
  532TIP3    H225792   3.876   1.630  18.187
  533TIP3   OH225793   2.999   1.606  18.488
  533TIP3    H125794   2.933   1.668  18.519
  533TIP3    H225795   2.960   1.566  18.410
  534TIP3   OH225796   4.008   0.975  17.356
  534TIP3    H125797   4.027   1.052  17.409
  534TIP3    H225798   4.043   0.997  17.269
  535TIP3   OH225799   2.528   1.142  18.426
  535TIP3    H125800   2.572   1.182  18.501
  535TIP3    H225801   2.452   1.097  18.464
  536TIP3   OH225802   3.407   1.827  17.501
  536TIP3    H125803   3.486   1.869  17.534
  536TIP3    H225804   3.437   1.779  17.423
  537TIP3   OH225805   2.813   1.804  18.560
  537TIP3    H125806   2.826   1.855  18.480
  537TIP3    H225807   2.720   1.781  18.559
  538TIP3   OH225808   4.229   0.167  17.246
  538TIP3    H125809   4.169   0.182  17.319
  538TIP3    H225810   4.182   0.201  17.170
  539TIP3   OH225811   2.863   1.041  17.459
  539TIP3    H125812   2.768   1.054  17.461
  539TIP3    H225813   2.881   1.013  17.369
  540TIP3   OH225814   2.376   1.372  18.381
  540TIP3    H125815   2.338   1.386  18.294
  540TIP3    H225816   2.417   1.286  18.375
  541TIP3   OH225817   2.457   1.621  18.100
  541TIP3    H125818   2.452   1.692  18.036
  541TIP3    H225819   2.510   1.657  18.171
  542TIP3   OH225820   4.380   1.799  18.658
  542TIP3    H125821   4.378   1.709  18.627
  542TIP3    H225822   4.288   1.823  18.669
  543TIP3   OH225823   3.207   1.793  18.488
  543TIP3    H125824   3.246   1.779  18.574
  543TIP3    H225825   3.140   1.725  18.481
  544TIP3   OH225826   2.763   2.002  17.718
  544TIP3    H125827   2.772   1.944  17.794
  544TIP3    H225828   2.679   1.978  17.679
  545TIP3   OH225829   4.160   0.715  18.479
  545TIP3    H125830   4.077   0.751  18.513
  545TIP3    H225831   4.138   0.625  18.454
  546TIP3   OH225832   2.626   1.475  18.439
  546TIP3    H125833   2.645   1.413  18.509
  546TIP3    H225834   2.541   1.449  18.405
  547TIP3   OH225835   2.985   0.256  18.037
  547TIP3    H125836   2.959   0.318  17.969
  547TIP3    H225837   2.965   0.301  18.119
  548TIP3   OH225838   3.515   0.135  18.351
  548TIP3    H125839   3.538   0.049  18.386
  548TIP3    H225840   3.421   0.143  18.364
  549TIP3   OH225841   3.859   0.554  18.491
  549TIP3    H125842   3.767   0.534  18.508
  549TIP3    H225843   3.870   0.645  18.520
  550TIP3   OH225844   4.110   1.001  17.096
  550TIP3    H125845   4.047   0.999  17.025
  550TIP3    H225846   4.182   1.055  17.063
  551TIP3   OH225847   3.667   0.366  17.331
  551TIP3    H125848   3.575   0.376  17.356
  551TIP3    H225849   3.666   0.303  17.259
  552TIP3   OH225850   2.968   0.828  18.132
  552TIP3    H125851   2.950   0.845  18.225
  552TIP3    H225852   2.951   0.911  18.089
  553TIP3   OH225853   2.945   0.708  17.727
  553TIP3    H125854   2.868   0.752  17.690
  553TIP3    H225855   3.006   0.698  17.654
  554TIP3   OH225856   3.602   0.740  17.501
  554TIP3    H125857   3.627   0.831  17.485
  554TIP3    H225858   3.636   0.692  17.425
  555TIP3   OH225859   3.360   0.877  18.683
  555TIP3    H125860   3.334   0.815  18.615
  555TIP3    H225861   3.444   0.843  18.716
  556TIP3   OH225862   3.718   0.683  17.750
  556TIP3    H125863   3.670   0.705  17.670
  556TIP3    H225864   3.782   0.617  17.722
  557TIP3   OH225865   2.686   0.750  18.277
  557TIP3    H125866   2.759   0.791  18.323
  557TIP3    H225867   2.725   0.706  18.202
  558TIP3   OH225868   2.216   0.415  17.898
  558TIP3    H125869   2.311   0.407  17.908
  558TIP3    H225870   2.198   0.508  17.908
  559TIP3   OH225871   2.415   0.711  17.262
  559TIP3    H125872   2.487   0.773  17.257
  559TIP3    H225873   2.337   0.765  17.267
  560TIP3   OH225874   3.628   0.899  18.151
  560TIP3    H125875   3.698   0.867  18.095
  560TIP3    H225876   3.593   0.820  18.192
  561TIP3   OH225877   3.357   0.551  17.845
  561TIP3    H125878   3.296   0.553  17.919
  561TIP3    H225879   3.402   0.467  17.854
  562TIP3   OH225880   2.500   0.784  17.650
  562TIP3    H125881   2.441   0.838  17.597
  562TIP3    H225882   2.519   0.708  17.596
  563TIP3   OH225883   3.112   0.694  17.514
  563TIP3    H125884   3.199   0.657  17.530
  563TIP3    H225885   3.123   0.749  17.436
  564TIP3   OH225886   3.775   0.493  18.078
  564TIP3    H125887   3.746   0.462  18.163
  564TIP3    H225888   3.702   0.477  18.019
  565TIP3   OH225889   2.862   0.969  17.194
  565TIP3    H125890   2.774   0.939  17.171
  565TIP3    H225891   2.908   0.977  17.110
  566TIP3   OH225892   4.147   2.190  18.729
  566TIP3    H125893   4.182   2.197  18.640
  566TIP3    H225894   4.217   2.225  18.785
  567TIP3   OH225895   2.617   1.290  18.650
  567TIP3    H125896   2.690   1.291  18.713
  567TIP3    H225897   2.539   1.302  18.703
  568TIP3   OH225898   3.315   0.822  17.934
  568TIP3    H125899   3.362   0.754  17.886
  568TIP3    H225900   3.286   0.779  18.014
  569TIP3   OH225901   2.855   0.267  17.660
  569TIP3    H125902   2.780   0.209  17.649
  569TIP3    H225903   2.925   0.226  17.610
  570TIP3   OH225904   3.212   0.689  18.149
  570TIP3    H125905   3.125   0.730  18.152
  570TIP3    H225906   3.236   0.678  18.241
  571TIP3   OH225907   3.155   1.316  17.456
  571TIP3    H125908   3.124   1.247  17.515
  571TIP3    H225909   3.152   1.396  17.510
  572TIP3   OH225910   4.273   1.352  18.197
  572TIP3    H125911   4.364   1.361  18.169
  572TIP3    H225912   4.239   1.279  18.145
  573TIP3   OH225913   3.742   0.629  17.286
  573TIP3    H125914   3.727   0.535  17.296
  573TIP3    H225915   3.832   0.642  17.315
  574TIP3   OH225916   3.489   1.312  18.614
  574TIP3    H125917   3.413   1.255  18.619
  574TIP3    H225918   3.535   1.299  18.697
  575TIP3   OH225919   3.995   0.701  17.373
  575TIP3    H125920   4.049   0.675  17.447
  575TIP3    H225921   3.993   0.797  17.377
  576TIP3   OH225922   2.897   1.309  17.856
  576TIP3    H125923   2.938   1.271  17.778
  576TIP3    H225924   2.885   1.235  17.916
  577TIP3   OH225925   2.291   1.024  18.490
  577TIP3    H125926   2.274   0.934  18.517
  577TIP3    H225927   2.248   1.032  18.405
  578TIP3   OH225928   3.270   1.131  18.612
  578TIP3    H125929   3.212   1.114  18.537
  578TIP3    H225930   3.311   1.046  18.630
  579TIP3   OH225931   3.749   1.458  18.595
  579TIP3    H125932   3.657   1.431  18.589
  579TIP3    H225933   3.746   1.540  18.646
  580TIP3   OH225934   4.469   0.734  17.347
  580TIP3    H125935   4.377   0.729  17.373
  580TIP3    H225936   4.474   0.805  17.283
  581TIP3   OH225937   4.402   1.541  18.562
  581TIP3    H125938   4.316   1.513  18.531
  581TIP3    H225939   4.464   1.497  18.504
  582TIP3   OH225940   4.133   1.650  17.317
  582TIP3    H125941   4.134   1.564  17.361
  582TIP3    H225942   4.073   1.639  17.244
  583TIP3   OH225943   4.152   1.117  18.090
  583TIP3    H125944   4.066   1.148  18.119
  583TIP3    H225945   4.133   1.041  18.035
  584TIP3   OH225946   3.211   1.777  17.700
  584TIP3    H125947   3.286   1.794  17.644
  584TIP3    H225948   3.154   1.853  17.688
  585TIP3   OH225949   2.438   1.116  17.124
  585TIP3    H125950   2.423   1.196  17.072
  585TIP3    H225951   2.357   1.104  17.173
  586TIP3   OH225952   3.115   1.526  17.625
  586TIP3    H125953   3.150   1.614  17.637
  586TIP3    H225954   3.061   1.511  17.703
  587TIP3   OH225955   3.114   1.940  18.275
  587TIP3    H125956   3.166   2.019  18.264
  587TIP3    H225957   3.153   1.894  18.349
  588TIP3   OH225958   3.039   1.995  17.639
  588TIP3    H125959   2.945   1.990  17.660
  588TIP3    H225960   3.064   2.084  17.663
  589TIP3   OH225961   3.514   1.333  18.339
  589TIP3    H125962   3.498   1.336  18.433
  589TIP3    H225963   3.594   1.281  18.330
  590TIP3   OH225964   4.000   1.956  18.426
  590TIP3    H125965   3.915   1.933  18.389
  590TIP3    H225966   4.026   2.035  18.379
  591TIP3   OH225967   4.511   2.205  17.385
  591TIP3    H125968   4.417   2.215  17.402
  591TIP3    H225969   4.551   2.282  17.424
  592TIP3   OH225970   2.668   0.489  18.384
  592TIP3    H125971   2.660   0.581  18.358
  592TIP3    H225972   2.579   0.463  18.408
  593TIP3   OH225973   4.119   1.413  17.455
  593TIP3    H125974   4.075   1.331  17.476
  593TIP3    H225975   4.208   1.402  17.489
  594TIP3   OH225976   2.594   1.807  18.267
  594TIP3    H125977   2.682   1.846  18.274
  594TIP3    H225978   2.569   1.789  18.358
  595TIP3   OH225979   3.115   1.676  17.212
  595TIP3    H125980   3.167   1.719  17.145
  595TIP3    H225981   3.113   1.738  17.285
  596TIP3   OH225982   3.624   0.391  18.295
  596TIP3    H125983   3.620   0.422  18.385
  596TIP3    H225984   3.591   0.301  18.299
  597TIP3   OH225985   3.811   0.289  17.558
  597TIP3    H125986   3.760   0.324  17.485
  597TIP3    H225987   3.843   0.367  17.604
  598TIP3   OH225988   3.367   0.601  17.570
  598TIP3    H125989   3.445   0.655  17.553
  598TIP3    H225990   3.366   0.589  17.665
  599TIP3   OH225991   3.536   0.662  18.255
  599TIP3    H125992   3.460   0.668  18.313
  599TIP3    H225993   3.560   0.569  18.257
  600TIP3   OH225994   3.412   0.191  17.617
  600TIP3    H125995   3.404   0.250  17.692
  600TIP3    H225996   3.497   0.148  17.630
  601TIP3   OH225997   3.146   1.872  17.405
  601TIP3    H125998   3.237   1.868  17.435
  601TIP3    H225999   3.100   1.918  17.475
  602TIP3   OH226000   4.098   0.462  18.380
  602TIP3    H126001   4.009   0.475  18.414
  602TIP3    H226002   4.094   0.380  18.332
  603TIP3   OH226003   4.063   0.887  17.952
  603TIP3    H126004   3.972   0.860  17.966
  603TIP3    H226005   4.114   0.808  17.970
  604TIP3   OH226006   2.597   0.896  17.138
  604TIP3    H126007   2.550   0.979  17.135
  604TIP3    H226008   2.566   0.848  17.060
  605TIP3   OH226009   4.168   2.122  18.028
  605TIP3    H126010   4.179   2.147  17.936
  605TIP3    H226011   4.258   2.112  18.060
  606TIP3   OH226012   2.597   0.161  17.876
  606TIP3    H126013   2.609   0.152  17.781
  606TIP3    H226014   2.623   0.076  17.911
  607TIP3   OH226015   2.511   1.914  17.629
  607TIP3    H126016   2.462   1.915  17.547
  607TIP3    H226017   2.519   1.822  17.651
  608TIP3   OH226018   2.478   2.274  18.691
  608TIP3    H126019   2.531   2.218  18.748
  608TIP3    H226020   2.511   2.258  18.603
  609TIP3   OH226021   2.841   1.945  18.798
  609TIP3    H126022   2.921   1.910  18.837
  609TIP3    H226023   2.831   1.897  18.716
  610TIP3   OH226024   3.735   1.677  18.775
  610TIP3    H126025   3.726   1.615  18.847
  610TIP3    H226026   3.810   1.732  18.800
  611TIP3   OH226027   2.382   1.326  18.797
  611TIP3    H126028   2.332   1.261  18.847
  611TIP3    H226029   2.320   1.362  18.734
  612TIP3   OH226030   3.140   1.463  18.674
  612TIP3    H126031   3.091   1.509  18.606
  612TIP3    H226032   3.183   1.391  18.629
  613TIP3   OH226033   3.983   1.311  18.558
  613TIP3    H126034   4.049   1.367  18.517
  613TIP3    H226035   3.906   1.366  18.566
  614TIP3   OH226036   2.650   0.832  18.818
  614TIP3    H126037   2.611   0.841  18.731
  614TIP3    H226038   2.605   0.897  18.872
  615TIP3   OH226039   2.918   0.856  18.400
  615TIP3    H126040   2.977   0.930  18.413
  615TIP3    H226041   2.942   0.793  18.467
  616TIP3   OH226042   2.985   1.012  16.950
  616TIP3    H126043   2.992   1.108  16.947
  616TIP3    H226044   3.025   0.982  16.869
  617TIP3   OH226045   3.674   1.272  18.819
  617TIP3    H126046   3.748   1.283  18.760
  617TIP3    H226047   3.687   1.186  18.858
  618TIP3   OH226048   4.329   1.129  16.985
  618TIP3    H126049   4.325   1.178  16.902
  618TIP3    H226050   4.419   1.139  17.014
  619TIP3   OH226051   3.006   0.665  18.580
  619TIP3    H126052   2.987   0.571  18.574
  619TIP3    H226053   3.098   0.672  18.552
  620TIP3   OH226054   3.149   0.382  18.379
  620TIP3    H126055   3.196   0.463  18.398
  620TIP3    H226056   3.070   0.411  18.332
  621TIP3   OH226057   3.122   1.054  18.382
  621TIP3    H126058   3.194   1.021  18.328
  621TIP3    H226059   3.085   1.125  18.331
  622TIP3   OH226060   3.745   0.779  18.796
  622TIP3    H126061   3.751   0.692  18.835
  622TIP3    H226062   3.805   0.776  18.721
  623TIP3   OH226063   4.039   1.055  18.644
  623TIP3    H126064   4.015   1.142  18.613
  623TIP3    H226065   4.135   1.054  18.642
  624TIP3   OH226066   2.910   0.725  18.837
  624TIP3    H126067   2.820   0.756  18.833
  624TIP3    H226068   2.938   0.721  18.745
  625TIP3   OH226069   3.239   0.128  18.389
  625TIP3    H126070   3.216   0.221  18.393
  625TIP3    H226071   3.169   0.087  18.338
  626TIP3   OH226072   3.336   0.520  18.760
  626TIP3    H126073   3.248   0.507  18.796
  626TIP3    H226074   3.322   0.555  18.673
  627TIP3   OH226075   3.580   0.513  18.544
  627TIP3    H126076   3.504   0.563  18.514
  627TIP3    H226077   3.554   0.477  18.629
  628TIP3   OH226078   3.981   0.363  18.931
  628TIP3    H126079   3.945   0.274  18.932
  628TIP3    H226080   3.905   0.420  18.932
  629TIP3   OH226081   2.521   0.437  18.842
  629TIP3    H126082   2.592   0.418  18.780
  629TIP3    H226083   2.556   0.410  18.927
  630TIP3   OH226084   3.175   0.028  18.644
  630TIP3    H126085   3.189   9.150  18.636
  630TIP3    H226086   3.211   0.064  18.563
  631TIP3   OH226087   3.007   0.215  18.764
  631TIP3    H126088   3.069   0.153  18.727
  631TIP3    H226089   3.058   0.295  18.777
  632TIP3   OH226090   3.224   2.260  17.073
  632TIP3    H126091   3.269   2.215  17.144
  632TIP3    H226092   3.233   2.353  17.093
  633TIP3   OH226093   2.186   2.167  17.655
  633TIP3    H126094   2.173   2.106  17.582
  633TIP3    H226095   2.239   2.119  17.718
  634TIP3   OH226096   2.361   2.030  17.835
  634TIP3    H126097   2.412   2.004  17.758
  634TIP3    H226098   2.404   1.987  17.909
  635TIP3   OH226099   4.402   2.101  18.177
  635TIP3    H126100   4.403   2.038  18.248
  635TIP3    H226101   4.429   2.184  18.217
  636TIP3   OH226102   4.355   1.930  18.405
  636TIP3    H126103   4.304   1.860  18.364
  636TIP3    H226104   4.386   1.893  18.487
  637TIP3   OH226105   4.277   1.469  18.902
  637TIP3    H126106   4.186   1.482  18.928
  637TIP3    H226107   4.319   1.554  18.916
  638TIP3   OH226108   4.359   1.379  17.576
  638TIP3    H126109   4.436   1.403  17.524
  638TIP3    H226110   4.382   1.295  17.616
  639TIP3   OH226111   4.405   1.126  17.686
  639TIP3    H126112   4.326   1.072  17.695
  639TIP3    H226113   4.474   1.074  17.726
  640TIP3   OH226114   4.547   1.353  18.135
  640TIP3    H126115   4.571   1.269  18.096
  640TIP3    H226116   4.622   1.410  18.118
  641TIP3   OH226117   4.150   1.742  18.333
  641TIP3    H126118   4.103   1.812  18.379
  641TIP3    H226119   4.097   1.724  18.255
  642TIP3   OH226120   4.460   0.932  17.162
  642TIP3    H126121   4.381   0.958  17.114
  642TIP3    H226122   4.526   0.996  17.135
  643TIP3   OH226123   4.163   0.976  17.708
  643TIP3    H126124   4.127   0.906  17.653
  643TIP3    H226125   4.129   0.957  17.796
  644TIP3   OH226126   2.356   1.147  18.074
  644TIP3    H126127   2.354   1.126  17.980
  644TIP3    H226128   2.423   1.088  18.110
  645TIP3   OH226129   4.317   1.050  18.658
  645TIP3    H126130   4.339   0.958  18.668
  645TIP3    H226131   4.381   1.084  18.595
  646TIP3   OH226132   4.369   0.774  18.656
  646TIP3    H126133   4.303   0.746  18.592
  646TIP3    H226134   4.433   0.703  18.657
  647TIP3   OH226135   4.159   0.626  17.584
  647TIP3    H126136   4.178   0.533  17.567
  647TIP3    H226137   4.230   0.655  17.641
  648TIP3   OH226138   4.213   0.660  18.011
  648TIP3    H126139   4.300   0.654  17.971
  648TIP3    H226140   4.229   0.690  18.100
  649TIP3   OH226141   4.297   0.780  18.248
  649TIP3    H126142   4.247   0.776  18.330
  649TIP3    H226143   4.331   0.870  18.245
  650TIP3   OH226144   2.300   0.538  18.685
  650TIP3    H126145   2.368   0.504  18.743
  650TIP3    H226146   2.241   0.464  18.671
  651TIP3   OH226147   4.518   0.088  18.764
  651TIP3    H126148   4.608   0.099  18.732
  651TIP3    H226149   4.469   0.157  18.721
  652TIP3   OH226150   4.199   0.359  17.568
  652TIP3    H126151   4.246   0.313  17.638
  652TIP3    H226152   4.147   0.291  17.525
  653TIP3   OH226153   2.486   0.402  17.945
  653TIP3    H126154   2.521   0.316  17.923
  653TIP3    H226155   2.560   0.449  17.983
  654TIP3   OH226156   2.186   0.682  17.975
  654TIP3    H126157   2.265   0.732  17.955
  654TIP3    H226158   2.193   0.662  18.069
  655TIP3   OH226159   4.387   0.308  18.661
  655TIP3    H126160   4.319   0.347  18.716
  655TIP3    H226161   4.338   0.267  18.589
  656TIP3   OH226162   2.381   0.446  17.344
  656TIP3    H126163   2.286   0.446  17.359
  656TIP3    H226164   2.401   0.536  17.317
  657TIP3   OH226165   2.210   0.097  18.287
  657TIP3    H126166   2.156   0.111  18.364
  657TIP3    H226167   2.196   0.174  18.232
  658TIP3   OH226168   2.550   1.726  18.530
  658TIP3    H126169   2.475   1.717  18.589
  658TIP3    H226170   2.573   1.635  18.507
  659TIP3   OH226171   2.838   1.932  18.319
  659TIP3    H126172   2.811   2.022  18.301
  659TIP3    H226173   2.931   1.929  18.296
  660TIP3   OH226174   3.458   2.123  18.710
  660TIP3    H126175   3.476   2.029  18.710
  660TIP3    H226176   3.541   2.164  18.685
  661TIP3   OH226177   3.692   2.259  18.630
  661TIP3    H126178   3.753   2.237  18.560
  661TIP3    H226179   3.748   2.273  18.707
  662TIP3   OH226180   4.288   0.147  18.458
  662TIP3    H126181   4.234   0.174  18.384
  662TIP3    H226182   4.259   0.058  18.478
  663TIP3   OH226183   2.569   2.315  18.429
  663TIP3    H126184   2.475   2.309  18.412
  663TIP3    H226185   2.590   2.408  18.419
  664TIP3   OH226186   2.762   2.188  18.273
  664TIP3    H126187   2.695   2.226  18.330
  664TIP3    H226188   2.775   2.254  18.205
  665TIP3   OH226189   3.273   2.158  18.195
  665TIP3    H126190   3.220   2.205  18.131
  665TIP3    H226191   3.343   2.117  18.143
  666TIP3   OH226192   3.764   1.909  18.282
  666TIP3    H126193   3.682   1.889  18.327
  666TIP3    H226194   3.742   1.979  18.220
  667TIP3   OH226195   4.059   2.182  18.271
  667TIP3    H126196   4.030   2.271  18.253
  667TIP3    H226197   4.094   2.151  18.188
  668TIP3   OH226198   2.518   1.887  18.011
  668TIP3    H126199   2.532   1.880  18.105
  668TIP3    H226200   2.605   1.870  17.973
  669TIP3   OH226201   2.770   1.811  17.926
  669TIP3    H126202   2.779   1.717  17.941
  669TIP3    H226203   2.849   1.849  17.964
  670TIP3   OH226204   3.014   1.867  18.028
  670TIP3    H126205   3.065   1.790  18.004
  670TIP3    H226206   3.050   1.894  18.113
  671TIP3   OH226207   3.452   0.291  17.872
  671TIP3    H126208   3.387   0.239  17.920
  671TIP3    H226209   3.527   0.233  17.863
  672TIP3   OH226210   4.117   0.191  17.936
  672TIP3    H126211   4.193   0.204  17.881
  672TIP3    H226212   4.071   0.275  17.934
  673TIP3   OH226213   4.340   0.239  17.777
  673TIP3    H126214   4.402   0.168  17.758
  673TIP3    H226215   4.393   0.305  17.822
  674TIP3   OH226216   2.643   0.089  17.611
  674TIP3    H126217   2.601   0.129  17.535
  674TIP3    H226218   2.621   9.213  17.605
  675TIP3   OH226219   2.550   0.231  17.392
  675TIP3    H126220   2.627   0.272  17.353
  675TIP3    H226221   2.480   0.296  17.383
  676TIP3   OH226222   3.211   0.021  17.717
  676TIP3    H126223   3.272   0.065  17.658
  676TIP3    H226224   3.218   0.068  17.799
  677TIP3   OH226225   3.660   0.121  17.726
  677TIP3    H126226   3.720   0.176  17.674
  677TIP3    H226227   3.712   0.044  17.749
  678TIP3   OH226228   4.031   0.171  17.441
  678TIP3    H126229   3.955   0.209  17.485
  678TIP3    H226230   4.004   0.082  17.418
  679TIP3   OH226231   2.349   1.895  17.409
  679TIP3    H126232   2.344   1.856  17.321
  679TIP3    H226233   2.265   1.939  17.420
  680TIP3   OH226234   3.406   0.375  17.409
  680TIP3    H126235   3.395   0.305  17.474
  680TIP3    H226236   3.380   0.455  17.456
  681TIP3   OH226237   2.489   0.076  18.750
  681TIP3    H126238   2.540   9.212  18.756
  681TIP3    H226239   2.552   0.146  18.768
  682TIP3   OH226240   2.748   0.164  18.825
  682TIP3    H126241   2.837   0.184  18.797
  682TIP3    H226242   2.742   0.068  18.820
  683TIP3   OH226243   2.594   2.189  17.021
  683TIP3    H126244   2.569   2.270  17.066
  683TIP3    H226245   2.638   2.137  17.089
  684TIP3   OH226246   3.889   0.089  18.944
  684TIP3    H126247   3.794   0.093  18.956
  684TIP3    H226248   3.902   0.012  18.888
  685TIP3   OH226249   4.120   1.910  18.678
  685TIP3    H126250   4.074   1.918  18.595
  685TIP3    H226251   4.128   2.000  18.710
  686TIP3   OH226252   5.794   1.115  17.481
  686TIP3    H126253   5.848   1.192  17.498
  686TIP3    H226254   5.728   1.116  17.549
  687TIP3   OH226255   5.644   0.905  18.117
  687TIP3    H126256   5.733   0.896  18.149
  687TIP3    H226257   5.647   0.868  18.028
  688TIP3   OH226258   4.852   1.022  18.138
  688TIP3    H126259   4.874   0.991  18.226
  688TIP3    H226260   4.936   1.042  18.098
  689TIP3   OH226261   5.113   1.483  18.075
  689TIP3    H126262   5.096   1.418  18.008
  689TIP3    H226263   5.207   1.475  18.094
  690TIP3   OH226264   4.725   0.696  17.449
  690TIP3    H126265   4.759   0.783  17.426
  690TIP3    H226266   4.633   0.700  17.426
  691TIP3   OH226267   4.635   0.990  17.795
  691TIP3    H126268   4.671   0.902  17.807
  691TIP3    H226269   4.701   1.037  17.745
  692TIP3   OH226270   5.732   1.423  18.143
  692TIP3    H126271   5.729   1.334  18.108
  692TIP3    H226272   5.641   1.451  18.146
  693TIP3   OH226273   6.693   0.365  18.182
  693TIP3    H126274   6.672   0.455  18.206
  693TIP3    H226275   6.745   0.373  18.102
  694TIP3   OH226276   6.030   0.687  17.980
  694TIP3    H126277   6.018   0.594  18.002
  694TIP3    H226278   5.980   0.699  17.900
  695TIP3   OH226279   5.148   0.453  17.847
  695TIP3    H126280   5.172   0.534  17.803
  695TIP3    H226281   5.097   0.404  17.783
  696TIP3   OH226282   6.100   0.508  17.663
  696TIP3    H126283   6.157   0.478  17.733
  696TIP3    H226284   6.159   0.545  17.598
  697TIP3   OH226285   4.748   0.738  17.846
  697TIP3    H126286   4.805   0.728  17.922
  697TIP3    H226287   4.794   0.694  17.775
  698TIP3   OH226288   5.261   0.901  17.834
  698TIP3    H126289   5.355   0.888  17.846
  698TIP3    H226290   5.232   0.823  17.787
  699TIP3   OH226291   6.590   0.618  18.237
  699TIP3    H126292   6.576   0.713  18.245
  699TIP3    H226293   6.521   0.579  18.291
  700TIP3   OH226294   5.048   0.336  18.246
  700TIP3    H126295   5.010   0.403  18.190
  700TIP3    H226296   4.974   0.300  18.294
  701TIP3   OH226297   5.925   1.342  17.571
  701TIP3    H126298   5.903   1.434  17.583
  701TIP3    H226299   6.018   1.342  17.546
  702TIP3   OH226300   5.292   1.180  18.191
  702TIP3    H126301   5.217   1.217  18.239
  702TIP3    H226302   5.345   1.256  18.168
  703TIP3   OH226303   6.246   0.446  17.897
  703TIP3    H126304   6.164   0.431  17.944
  703TIP3    H226305   6.280   0.528  17.934
  704TIP3   OH226306   4.983   0.529  18.058
  704TIP3    H126307   5.006   0.617  18.089
  704TIP3    H226308   5.044   0.512  17.987
  705TIP3   OH226309   5.065   1.300  18.290
  705TIP3    H126310   5.069   1.376  18.231
  705TIP3    H226311   4.988   1.316  18.344
  706TIP3   OH226312   4.569   1.450  17.409
  706TIP3    H126313   4.620   1.391  17.353
  706TIP3    H226314   4.599   1.538  17.386
  707TIP3   OH226315   6.350   1.547  18.055
  707TIP3    H126316   6.274   1.593  18.089
  707TIP3    H226317   6.411   1.616  18.029
  708TIP3   OH226318   6.440   0.273  18.254
  708TIP3    H126319   6.397   0.242  18.174
  708TIP3    H226320   6.528   0.299  18.226
  709TIP3   OH226321   5.478   0.157  17.966
  709TIP3    H126322   5.486   0.076  18.015
  709TIP3    H226323   5.395   0.195  17.995
  710TIP3   OH226324   5.928   1.627  17.564
  710TIP3    H126325   6.010   1.624  17.515
  710TIP3    H226326   5.869   1.678  17.507
  711TIP3   OH226327   6.548   1.504  18.383
  711TIP3    H126328   6.526   1.443  18.312
  711TIP3    H226329   6.485   1.575  18.374
  712TIP3   OH226330   5.850   0.960  17.261
  712TIP3    H126331   5.823   1.023  17.328
  712TIP3    H226332   5.935   0.993  17.231
  713TIP3   OH226333   5.972   0.808  17.033
  713TIP3    H126334   6.029   0.877  17.066
  713TIP3    H226335   6.003   0.791  16.944
  714TIP3   OH226336   6.649   1.116  18.231
  714TIP3    H126337   6.591   1.191  18.215
  714TIP3    H226338   6.729   1.137  18.184
  715TIP3   OH226339   6.320   0.917  18.467
  715TIP3    H126340   6.312   0.986  18.532
  715TIP3    H226341   6.232   0.906  18.432
  716TIP3   OH226342   5.117   1.101  17.698
  716TIP3    H126343   5.096   1.063  17.613
  716TIP3    H226344   5.173   1.037  17.741
  717TIP3   OH226345   5.401   1.709  17.939
  717TIP3    H126346   5.410   1.682  17.848
  717TIP3    H226347   5.415   1.629  17.990
  718TIP3   OH226348   5.119   1.026  18.039
  718TIP3    H126349   5.169   0.992  17.965
  718TIP3    H226350   5.183   1.076  18.090
  719TIP3   OH226351   6.159   1.713  18.168
  719TIP3    H126352   6.114   1.795  18.148
  719TIP3    H226353   6.088   1.654  18.195
  720TIP3   OH226354   5.473   1.492  18.456
  720TIP3    H126355   5.437   1.579  18.441
  720TIP3    H226356   5.470   1.449  18.371
  721TIP3   OH226357   6.136   1.000  17.137
  721TIP3    H126358   6.139   1.063  17.209
  721TIP3    H226359   6.217   1.014  17.089
  722TIP3   OH226360   5.089   1.033  18.566
  722TIP3    H126361   5.104   1.127  18.557
  722TIP3    H226362   5.039   1.025  18.647
  723TIP3   OH226363   5.002   1.875  18.563
  723TIP3    H126364   5.050   1.860  18.481
  723TIP3    H226365   4.921   1.826  18.552
  724TIP3   OH226366   6.592   0.099  17.227
  724TIP3    H126367   6.551   0.139  17.150
  724TIP3    H226368   6.681   0.134  17.228
  725TIP3   OH226369   5.070   0.971  17.459
  725TIP3    H126370   5.031   1.032  17.396
  725TIP3    H226371   5.104   0.899  17.405
  726TIP3   OH226372   4.561   1.379  18.409
  726TIP3    H126373   4.551   1.378  18.314
  726TIP3    H226374   4.537   1.291  18.436
  727TIP3   OH226375   4.782   1.500  18.114
  727TIP3    H126376   4.867   1.476  18.077
  727TIP3    H226377   4.799   1.580  18.163
  728TIP3   OH226378   6.876   1.743  18.428
  728TIP3    H126379   6.852   1.653  18.451
  728TIP3    H226380   6.793   1.790  18.425
  729TIP3   OH226381   5.720   1.561  18.574
  729TIP3    H126382   5.688   1.621  18.641
  729TIP3    H226383   5.641   1.529  18.530
  730TIP3   OH226384   6.052   1.992  17.037
  730TIP3    H126385   6.132   1.941  17.052
  730TIP3    H226386   6.046   2.050  17.113
  731TIP3   OH226387   6.484   0.713  18.563
  731TIP3    H126388   6.426   0.783  18.533
  731TIP3    H226389   6.455   0.636  18.513
  732TIP3   OH226390   4.843   1.363  18.440
  732TIP3    H126391   4.844   1.407  18.526
  732TIP3    H226392   4.752   1.373  18.410
  733TIP3   OH226393   5.221   0.252  18.035
  733TIP3    H126394   5.200   0.319  17.969
  733TIP3    H226395   5.169   0.277  18.111
  734TIP3   OH226396   5.721   0.145  18.369
  734TIP3    H126397   5.728   0.059  18.408
  734TIP3    H226398   5.631   0.172  18.385
  735TIP3   OH226399   6.118   0.547  18.483
  735TIP3    H126400   6.096   0.538  18.575
  735TIP3    H226401   6.041   0.588  18.444
  736TIP3   OH226402   5.689   0.558  17.119
  736TIP3    H126403   5.637   0.518  17.189
  736TIP3    H226404   5.654   0.519  17.039
  737TIP3   OH226405   5.054   0.779  18.149
  737TIP3    H126406   5.012   0.810  18.230
  737TIP3    H226407   5.075   0.859  18.101
  738TIP3   OH226408   5.175   0.680  17.686
  738TIP3    H126409   5.081   0.676  17.668
  738TIP3    H226410   5.216   0.677  17.600
  739TIP3   OH226411   5.830   0.763  17.478
  739TIP3    H126412   5.826   0.853  17.446
  739TIP3    H226413   5.903   0.724  17.432
  740TIP3   OH226414   5.737   0.751  18.620
  740TIP3    H126415   5.690   0.673  18.650
  740TIP3    H226416   5.804   0.765  18.687
  741TIP3   OH226417   5.898   0.685  17.736
  741TIP3    H126418   5.872   0.723  17.652
  741TIP3    H226419   5.962   0.618  17.713
  742TIP3   OH226420   4.942   0.897  18.375
  742TIP3    H126421   4.999   0.952  18.428
  742TIP3    H226422   4.889   0.848  18.438
  743TIP3   OH226423   5.370   0.488  16.979
  743TIP3    H126424   5.298   0.441  16.936
  743TIP3    H226425   5.449   0.457  16.934
  744TIP3   OH226426   4.501   0.415  17.912
  744TIP3    H126427   4.596   0.403  17.918
  744TIP3    H226428   4.489   0.510  17.920
  745TIP3   OH226429   5.906   0.836  18.186
  745TIP3    H126430   5.956   0.791  18.118
  745TIP3    H226431   5.907   0.776  18.260
  746TIP3   OH226432   5.536   0.552  17.781
  746TIP3    H126433   5.448   0.529  17.811
  746TIP3    H226434   5.589   0.477  17.805
  747TIP3   OH226435   4.903   0.612  17.647
  747TIP3    H126436   4.842   0.630  17.575
  747TIP3    H226437   4.925   0.519  17.637
  748TIP3   OH226438   5.310   0.657  17.439
  748TIP3    H126439   5.401   0.666  17.467
  748TIP3    H226440   5.313   0.668  17.344
  749TIP3   OH226441   6.001   0.408  18.013
  749TIP3    H126442   5.966   0.381  18.098
  749TIP3    H226443   5.968   0.342  17.952
  750TIP3   OH226444   5.320   0.687  17.160
  750TIP3    H126445   5.239   0.718  17.119
  750TIP3    H226446   5.347   0.612  17.106
  751TIP3   OH226447   6.457   2.213  18.781
  751TIP3    H126448   6.489   2.303  18.771
  751TIP3    H226449   6.492   2.185  18.866
  752TIP3   OH226450   4.794   1.494  18.680
  752TIP3    H126451   4.855   1.498  18.753
  752TIP3    H226452   4.713   1.462  18.718
  753TIP3   OH226453   5.669   0.777  17.871
  753TIP3    H126454   5.756   0.759  17.834
  753TIP3    H226455   5.616   0.701  17.848
  754TIP3   OH226456   5.016   0.355  17.620
  754TIP3    H126457   4.988   0.264  17.611
  754TIP3    H226458   5.091   0.362  17.560
  755TIP3   OH226459   5.298   0.674  18.228
  755TIP3    H126460   5.213   0.705  18.197
  755TIP3    H226461   5.351   0.754  18.236
  756TIP3   OH226462   6.511   1.345  18.150
  756TIP3    H126463   6.589   1.374  18.104
  756TIP3    H226464   6.442   1.406  18.121
  757TIP3   OH226465   5.902   0.436  17.307
  757TIP3    H126466   5.825   0.461  17.256
  757TIP3    H226467   5.957   0.515  17.308
  758TIP3   OH226468   5.939   1.417  18.496
  758TIP3    H126469   5.895   1.333  18.489
  758TIP3    H226470   5.872   1.476  18.531
  759TIP3   OH226471   6.047   0.675  17.328
  759TIP3    H126472   6.126   0.652  17.377
  759TIP3    H226473   6.077   0.734  17.260
  760TIP3   OH226474   5.060   1.273  17.908
  760TIP3    H126475   5.076   1.240  17.820
  760TIP3    H226476   5.062   1.196  17.964
  761TIP3   OH226477   4.505   1.112  18.462
  761TIP3    H126478   4.588   1.064  18.462
  761TIP3    H226479   4.461   1.084  18.381
  762TIP3   OH226480   5.525   0.928  18.689
  762TIP3    H126481   5.453   0.911  18.629
  762TIP3    H226482   5.598   0.876  18.654
  763TIP3   OH226483   6.024   1.861  18.583
  763TIP3    H126484   5.963   1.802  18.539
  763TIP3    H226485   6.031   1.826  18.672
  764TIP3   OH226486   6.614   0.764  17.414
  764TIP3    H126487   6.627   0.719  17.330
  764TIP3    H226488   6.566   0.844  17.390
  765TIP3   OH226489   6.798   1.488  18.494
  765TIP3    H126490   6.709   1.489  18.459
  765TIP3    H226491   6.839   1.413  18.450
  766TIP3   OH226492   5.442   1.645  17.673
  766TIP3    H126493   5.479   1.704  17.607
  766TIP3    H226494   5.402   1.574  17.622
  767TIP3   OH226495   5.389   1.721  18.318
  767TIP3    H126496   5.442   1.788  18.275
  767TIP3    H226497   5.391   1.646  18.259
  768TIP3   OH226498   5.960   1.543  18.245
  768TIP3    H126499   5.960   1.502  18.331
  768TIP3    H226500   5.881   1.509  18.202
  769TIP3   OH226501   6.259   1.952  18.460
  769TIP3    H126502   6.176   1.928  18.501
  769TIP3    H226503   6.236   2.004  18.384
  770TIP3   OH226504   6.714   2.232  17.270
  770TIP3    H126505   6.667   2.273  17.198
  770TIP3    H226506   6.673   2.268  17.349
  771TIP3   OH226507   4.782   0.263  18.387
  771TIP3    H126508   4.738   0.348  18.386
  771TIP3    H226509   4.714   0.201  18.361
  772TIP3   OH226510   4.859   1.727  18.261
  772TIP3    H126511   4.951   1.742  18.283
  772TIP3    H226512   4.814   1.725  18.345
  773TIP3   OH226513   4.969   1.140  17.270
  773TIP3    H126514   4.917   1.136  17.189
  773TIP3    H226515   4.978   1.233  17.288
  774TIP3   OH226516   5.905   0.322  18.258
  774TIP3    H126517   5.952   0.343  18.338
  774TIP3    H226518   5.838   0.259  18.285
  775TIP3   OH226519   5.927   0.320  17.557
  775TIP3    H126520   5.922   0.344  17.465
  775TIP3    H226521   5.987   0.383  17.596
  776TIP3   OH226522   5.573   0.657  17.525
  776TIP3    H126523   5.660   0.697  17.518
  776TIP3    H226524   5.568   0.629  17.617
  777TIP3   OH226525   5.873   0.654  18.398
  777TIP3    H126526   5.826   0.699  18.468
  777TIP3    H226527   5.808   0.594  18.361
  778TIP3   OH226528   5.651   0.273  17.567
  778TIP3    H126529   5.643   0.301  17.659
  778TIP3    H226530   5.745   0.275  17.550
  779TIP3   OH226531   5.235   0.389  17.460
  779TIP3    H126532   5.258   0.482  17.453
  779TIP3    H226533   5.302   0.345  17.407
  780TIP3   OH226534   6.381   0.514  18.396
  780TIP3    H126535   6.289   0.525  18.421
  780TIP3    H226536   6.385   0.426  18.359
  781TIP3   OH226537   6.206   0.897  17.887
  781TIP3    H126538   6.146   0.832  17.925
  781TIP3    H226539   6.292   0.872  17.919
  782TIP3   OH226540   4.992   1.394  17.111
  782TIP3    H126541   5.080   1.360  17.093
  782TIP3    H226542   4.933   1.324  17.084
  783TIP3   OH226543   4.760   0.739  16.931
  783TIP3    H126544   4.772   0.827  16.896
  783TIP3    H226545   4.775   0.681  16.855
  784TIP3   OH226546   6.459   2.026  18.059
  784TIP3    H126547   6.464   2.007  17.966
  784TIP3    H226548   6.542   1.994  18.095
  785TIP3   OH226549   4.900   0.167  17.860
  785TIP3    H126550   4.910   0.152  17.766
  785TIP3    H226551   4.908   0.080  17.899
  786TIP3   OH226552   4.682   1.696  17.333
  786TIP3    H126553   4.770   1.695  17.368
  786TIP3    H226554   4.652   1.786  17.343
  787TIP3   OH226555   4.687   2.271  18.726
  787TIP3    H126556   4.746   2.250  18.799
  787TIP3    H226557   4.656   2.186  18.695
  788TIP3   OH226558   5.040   2.018  18.796
  788TIP3    H126559   5.134   2.009  18.812
  788TIP3    H226560   5.024   1.970  18.715
  789TIP3   OH226561   6.023   1.759  18.844
  789TIP3    H126562   6.000   1.672  18.877
  789TIP3    H226563   6.100   1.785  18.894
  790TIP3   OH226564   4.538   1.454  18.788
  790TIP3    H126565   4.465   1.424  18.842
  790TIP3    H226566   4.497   1.485  18.707
  791TIP3   OH226567   5.348   1.335  18.651
  791TIP3    H126568   5.383   1.394  18.584
  791TIP3    H226569   5.414   1.266  18.659
  792TIP3   OH226570   6.204   1.362  18.570
  792TIP3    H126571   6.245   1.448  18.569
  792TIP3    H226572   6.112   1.379  18.547
  793TIP3   OH226573   4.925   1.008  18.792
  793TIP3    H126574   4.890   0.931  18.838
  793TIP3    H226575   4.889   1.083  18.839
  794TIP3   OH226576   5.547   0.841  17.202
  794TIP3    H126577   5.471   0.787  17.183
  794TIP3    H226578   5.516   0.904  17.267
  795TIP3   OH226579   5.317   0.876  18.507
  795TIP3    H126580   5.240   0.931  18.523
  795TIP3    H226581   5.346   0.900  18.419
  796TIP3   OH226582   5.945   1.244  18.934
  796TIP3    H126583   6.030   1.204  18.918
  796TIP3    H226584   5.883   1.172  18.928
  797TIP3   OH226585   5.344   0.610  18.579
  797TIP3    H126586   5.322   0.551  18.507
  797TIP3    H226587   5.335   0.697  18.542
  798TIP3   OH226588   5.290   0.435  18.359
  798TIP3    H126589   5.303   0.513  18.306
  798TIP3    H226590   5.205   0.400  18.331
  799TIP3   OH226591   5.404   0.933  18.250
  799TIP3    H126592   5.490   0.928  18.208
  799TIP3    H226593   5.373   1.021  18.229
  800TIP3   OH226594   5.956   0.788  18.791
  800TIP3    H126595   5.986   0.697  18.786
  800TIP3    H226596   6.034   0.840  18.772
  801TIP3   OH226597   6.305   1.121  18.655
  801TIP3    H126598   6.272   1.205  18.624
  801TIP3    H226599   6.400   1.131  18.655
  802TIP3   OH226600   5.266   0.659  18.840
  802TIP3    H126601   5.193   0.719  18.821
  802TIP3    H226602   5.302   0.637  18.754
  803TIP3   OH226603   5.445   0.205  18.400
  803TIP3    H126604   5.409   0.293  18.402
  803TIP3    H226605   5.396   0.160  18.331
  804TIP3   OH226606   5.587   0.532  18.685
  804TIP3    H126607   5.564   0.454  18.735
  804TIP3    H226608   5.505   0.561  18.646
  805TIP3   OH226609   6.037   0.521  18.753
  805TIP3    H126610   5.955   0.478  18.777
  805TIP3    H226611   6.104   0.473  18.801
  806TIP3   OH226612   6.187   0.348  18.923
  806TIP3    H126613   6.176   0.253  18.925
  806TIP3    H226614   6.120   0.381  18.983
  807TIP3   OH226615   4.697   0.371  18.851
  807TIP3    H126616   4.708   0.310  18.779
  807TIP3    H226617   4.782   0.372  18.896
  808TIP3   OH226618   5.436   0.088  18.656
  808TIP3    H126619   5.447   9.211  18.640
  808TIP3    H226620   5.443   0.128  18.569
  809TIP3   OH226621   5.481   0.311  18.820
  809TIP3    H126622   5.469   0.231  18.771
  809TIP3    H226623   5.395   0.328  18.860
  810TIP3   OH226624   4.798   2.096  17.878
  810TIP3    H126625   4.705   2.087  17.897
  810TIP3    H226626   4.840   2.025  17.926
  811TIP3   OH226627   6.701   1.942  18.164
  811TIP3    H126628   6.678   1.905  18.249
  811TIP3    H226629   6.736   2.029  18.184
  812TIP3   OH226630   6.621   1.855  18.412
  812TIP3    H126631   6.546   1.798  18.394
  812TIP3    H226632   6.586   1.926  18.464
  813TIP3   OH226633   6.527   1.469  18.930
  813TIP3    H126634   6.435   1.486  18.954
  813TIP3    H226635   6.573   1.549  18.954
  814TIP3   OH226636   6.732   1.429  18.022
  814TIP3    H126637   6.812   1.379  18.036
  814TIP3    H226638   6.759   1.521  18.031
  815TIP3   OH226639   6.374   1.726  18.351
  815TIP3    H126640   6.338   1.798  18.402
  815TIP3    H226641   6.309   1.710  18.282
  816TIP3   OH226642   6.462   0.973  17.307
  816TIP3    H126643   6.432   1.002  17.221
  816TIP3    H226644   6.431   1.040  17.368
  817TIP3   OH226645   4.601   1.091  18.053
  817TIP3    H126646   4.604   1.065  17.960
  817TIP3    H226647   4.689   1.071  18.086
  818TIP3   OH226648   6.581   1.080  18.661
  818TIP3    H126649   6.582   0.989  18.691
  818TIP3    H226650   6.650   1.084  18.595
  819TIP3   OH226651   6.757   0.773  18.545
  819TIP3    H126652   6.664   0.747  18.548
  819TIP3    H226653   6.804   0.695  18.574
  820TIP3   OH226654   6.278   0.609  17.468
  820TIP3    H126655   6.314   0.521  17.477
  820TIP3    H226656   6.354   0.667  17.473
  821TIP3   OH226657   6.457   0.847  17.988
  821TIP3    H126658   6.538   0.801  17.965
  821TIP3    H226659   6.463   0.858  18.083
  822TIP3   OH226660   6.506   0.882  18.259
  822TIP3    H126661   6.445   0.899  18.331
  822TIP3    H226662   6.556   0.964  18.251
  823TIP3   OH226663   4.530   0.546  18.685
  823TIP3    H126664   4.594   0.519  18.751
  823TIP3    H226665   4.482   0.466  18.664
  824TIP3   OH226666   6.776   0.118  18.813
  824TIP3    H126667   6.867   0.103  18.786
  824TIP3    H226668   6.743   0.183  18.752
  825TIP3   OH226669   6.378   0.364  17.525
  825TIP3    H126670   6.445   0.345  17.590
  825TIP3    H226671   6.364   0.281  17.480
  826TIP3   OH226672   4.768   0.391  17.947
  826TIP3    H126673   4.813   0.312  17.916
  826TIP3    H226674   4.837   0.442  17.991
  827TIP3   OH226675   4.488   0.692  17.943
  827TIP3    H126676   4.570   0.705  17.895
  827TIP3    H226677   4.489   0.757  18.013
  828TIP3   OH226678   6.649   0.325  18.678
  828TIP3    H126679   6.578   0.362  18.731
  828TIP3    H226680   6.605   0.274  18.611
  829TIP3   OH226681   6.868   0.158  17.235
  829TIP3    H126682   6.896   0.068  17.221
  829TIP3    H226683   6.937   0.211  17.195
  830TIP3   OH226684   4.542   0.122  18.334
  830TIP3    H126685   4.471   0.129  18.397
  830TIP3    H226686   4.512   0.173  18.259
  831TIP3   OH226687   4.768   1.723  18.525
  831TIP3    H126688   4.678   1.745  18.546
  831TIP3    H226689   4.784   1.641  18.572
  832TIP3   OH226690   5.123   1.799  18.318
  832TIP3    H126691   5.128   1.806  18.223
  832TIP3    H226692   5.210   1.768  18.345
  833TIP3   OH226693   5.712   2.142  18.666
  833TIP3    H126694   5.718   2.067  18.724
  833TIP3    H226695   5.802   2.158  18.637
  834TIP3   OH226696   5.980   2.136  18.587
  834TIP3    H126697   5.991   2.041  18.585
  834TIP3    H226698   6.045   2.167  18.649
  835TIP3   OH226699   6.536   0.156  18.490
  835TIP3    H126700   6.486   0.192  18.417
  835TIP3    H226701   6.509   0.065  18.495
  836TIP3   OH226702   4.934   2.330  18.332
  836TIP3    H126703   4.858   2.276  18.310
  836TIP3    H226704   4.915   2.362  18.420
  837TIP3   OH226705   5.178   2.382  18.216
  837TIP3    H126706   5.097   2.354  18.258
  837TIP3    H226707   5.174   2.477  18.217
  838TIP3   OH226708   5.809   2.167  18.109
  838TIP3    H126709   5.714   2.181  18.108
  838TIP3    H226710   5.836   2.196  18.196
  839TIP3   OH226711   6.028   1.966  18.123
  839TIP3    H126712   5.958   2.031  18.118
  839TIP3    H226713   6.103   2.014  18.158
  840TIP3   OH226714   6.250   2.098  18.221
  840TIP3    H126715   6.256   2.193  18.214
  840TIP3    H226716   6.321   2.065  18.166
  841TIP3   OH226717   4.904   1.896  18.033
  841TIP3    H126718   4.865   1.846  18.105
  841TIP3    H226719   4.991   1.857  18.022
  842TIP3   OH226720   5.146   1.758  18.044
  842TIP3    H126721   5.123   1.665  18.051
  842TIP3    H226722   5.232   1.758  18.002
  843TIP3   OH226723   5.664   0.316  17.840
  843TIP3    H126724   5.610   0.264  17.899
  843TIP3    H226725   5.753   0.283  17.852
  844TIP3   OH226726   6.397   0.212  17.881
  844TIP3    H126727   6.466   0.235  17.820
  844TIP3    H226728   6.340   0.289  17.884
  845TIP3   OH226729   6.588   0.285  17.692
  845TIP3    H126730   6.629   0.213  17.645
  845TIP3    H226731   6.659   0.346  17.709
  846TIP3   OH226732   4.939   0.077  17.593
  846TIP3    H126733   4.963   0.070  17.501
  846TIP3    H226734   4.911   9.206  17.618
  847TIP3   OH226735   5.486   0.066  17.697
  847TIP3    H126736   5.532   0.122  17.636
  847TIP3    H226737   5.491   0.112  17.781
  848TIP3   OH226738   5.926   0.212  17.821
  848TIP3    H126739   5.931   0.239  17.730
  848TIP3    H226740   5.971   0.128  17.824
  849TIP3   OH226741   6.378   0.116  17.405
  849TIP3    H126742   6.452   0.116  17.344
  849TIP3    H226743   6.340   0.029  17.397
  850TIP3   OH226744   4.658   1.975  17.378
  850TIP3    H126745   4.600   2.049  17.364
  850TIP3    H226746   4.685   1.982  17.469
  851TIP3   OH226747   5.583   0.445  17.349
  851TIP3    H126748   5.599   0.371  17.407
  851TIP3    H226749   5.575   0.520  17.408
  852TIP3   OH226750   4.765   0.180  18.660
  852TIP3    H126751   4.779   0.204  18.569
  852TIP3    H226752   4.850   0.146  18.689
  853TIP3   OH226753   5.012   0.090  18.752
  853TIP3    H126754   5.103   0.097  18.724
  853TIP3    H226755   5.001   9.214  18.774
  854TIP3   OH226756   4.790   1.949  17.134
  854TIP3    H126757   4.740   1.956  17.215
  854TIP3    H226758   4.854   2.020  17.139
  855TIP3   OH226759   6.127   0.072  18.948
  855TIP3    H126760   6.033   0.066  18.964
  855TIP3    H226761   6.147   9.213  18.893
  856TIP3   OH226762   6.495   2.070  18.538
  856TIP3    H126763   6.409   2.034  18.519
  856TIP3    H226764   6.484   2.116  18.622
  857TIP3   OH226765   8.361   1.199  17.591
  857TIP3    H126766   8.335   1.288  17.613
  857TIP3    H226767   8.348   1.194  17.496
  858TIP3   OH226768   8.111   0.843  18.000
  858TIP3    H126769   8.071   0.841  18.087
  858TIP3    H226770   8.130   0.935  17.984
  859TIP3   OH226771   7.151   1.128  18.162
  859TIP3    H126772   7.162   1.061  18.230
  859TIP3    H226773   7.232   1.123  18.111
  860TIP3   OH226774   8.667   1.683  17.861
  860TIP3    H126775   8.708   1.606  17.900
  860TIP3    H226776   8.634   1.734  17.935
  861TIP3   OH226777   7.382   1.577  18.069
  861TIP3    H126778   7.365   1.504  18.009
  861TIP3    H226779   7.477   1.591  18.064
  862TIP3   OH226780   6.836   0.669  17.566
  862TIP3    H126781   6.803   0.593  17.615
  862TIP3    H226782   6.758   0.706  17.525
  863TIP3   OH226783   6.861   0.989  17.917
  863TIP3    H126784   6.916   0.913  17.937
  863TIP3    H226785   6.794   0.955  17.858
  864TIP3   OH226786   8.374   2.087  17.878
  864TIP3    H126787   8.375   2.036  17.797
  864TIP3    H226788   8.353   2.023  17.947
  865TIP3   OH226789   7.793   1.391  18.070
  865TIP3    H126790   7.844   1.363  17.994
  865TIP3    H226791   7.859   1.412  18.136
  866TIP3   OH226792   8.957   0.336  18.137
  866TIP3    H126793   8.932   0.415  18.184
  866TIP3    H226794   8.979   0.367  18.049
  867TIP3   OH226795   7.344   0.528  17.814
  867TIP3    H126796   7.371   0.609  17.772
  867TIP3    H226797   7.302   0.477  17.744
  868TIP3   OH226798   6.981   0.736  17.938
  868TIP3    H126799   7.048   0.699  17.995
  868TIP3    H226800   7.012   0.717  17.849
  869TIP3   OH226801   7.481   0.987  17.775
  869TIP3    H126802   7.565   0.941  17.786
  869TIP3    H226803   7.422   0.920  17.741
  870TIP3   OH226804   8.906   0.574  18.272
  870TIP3    H126805   8.880   0.661  18.241
  870TIP3    H226806   8.981   0.591  18.330
  871TIP3   OH226807   7.322   0.417  18.242
  871TIP3    H126808   7.277   0.477  18.182
  871TIP3    H226809   7.258   0.400  18.311
  872TIP3   OH226810   8.276   1.461  17.613
  872TIP3    H126811   8.215   1.502  17.551
  872TIP3    H226812   8.293   1.529  17.678
  873TIP3   OH226813   7.589   1.221  18.171
  873TIP3    H126814   7.531   1.278  18.221
  873TIP3    H226815   7.656   1.280  18.135
  874TIP3   OH226816   7.205   0.583  18.041
  874TIP3    H126817   7.241   0.668  18.067
  874TIP3    H226818   7.260   0.556  17.967
  875TIP3   OH226819   7.415   1.406  18.294
  875TIP3    H126820   7.380   1.464  18.227
  875TIP3    H226821   7.338   1.377  18.344
  876TIP3   OH226822   7.212   1.596  17.263
  876TIP3    H126823   7.216   1.599  17.167
  876TIP3    H226824   7.179   1.682  17.288
  877TIP3   OH226825   8.580   1.839  18.070
  877TIP3    H126826   8.486   1.857  18.074
  877TIP3    H226827   8.621   1.925  18.061
  878TIP3   OH226828   8.776   0.119  18.133
  878TIP3    H126829   8.746   0.100  18.044
  878TIP3    H226830   8.834   0.195  18.123
  879TIP3   OH226831   7.634   0.088  17.959
  879TIP3    H126832   7.637   0.007  18.010
  879TIP3    H226833   7.564   0.139  17.998
  880TIP3   OH226834   8.393   1.950  17.634
  880TIP3    H126835   8.476   1.903  17.620
  880TIP3    H226836   8.383   2.005  17.556
  881TIP3   OH226837   8.637   1.810  17.620
  881TIP3    H126838   8.664   1.742  17.558
  881TIP3    H226839   8.645   1.769  17.706
  882TIP3   OH226840   8.762   1.521  18.445
  882TIP3    H126841   8.781   1.456  18.379
  882TIP3    H226842   8.730   1.597  18.396
  883TIP3   OH226843   8.961   1.093  18.228
  883TIP3    H126844   8.908   1.173  18.237
  883TIP3    H226845   9.022   1.113  18.156
  884TIP3   OH226846   8.453   0.998  17.757
  884TIP3    H126847   8.420   1.068  17.701
  884TIP3    H226848   8.536   0.972  17.717
  885TIP3   OH226849   8.512   0.903  18.500
  885TIP3    H126850   8.529   0.982  18.550
  885TIP3    H226851   8.477   0.933  18.417
  886TIP3   OH226852   7.454   1.246  17.662
  886TIP3    H126853   7.416   1.235  17.576
  886TIP3    H226854   7.466   1.156  17.695
  887TIP3   OH226855   7.648   1.623  18.009
  887TIP3    H126856   7.645   1.628  17.913
  887TIP3    H226857   7.700   1.545  18.028
  888TIP3   OH226858   7.391   1.092  18.020
  888TIP3    H126859   7.428   1.062  17.937
  888TIP3    H226860   7.466   1.128  18.068
  889TIP3   OH226861   8.314   1.914  18.095
  889TIP3    H126862   8.293   1.958  18.177
  889TIP3    H226863   8.241   1.852  18.082
  890TIP3   OH226864   7.567   1.575  18.456
  890TIP3    H126865   7.505   1.645  18.474
  890TIP3    H226866   7.521   1.516  18.397
  891TIP3   OH226867   7.315   1.018  18.567
  891TIP3    H126868   7.295   1.112  18.570
  891TIP3    H226869   7.274   0.982  18.645
  892TIP3   OH226870   8.243   1.724  17.711
  892TIP3    H126871   8.289   1.805  17.688
  892TIP3    H226872   8.182   1.710  17.638
  893TIP3   OH226873   7.405   1.788  18.514
  893TIP3    H126874   7.414   1.866  18.459
  893TIP3    H226875   7.312   1.767  18.511
  894TIP3   OH226876   8.760   0.225  17.375
  894TIP3    H126877   8.669   0.252  17.385
  894TIP3    H226878   8.799   0.291  17.318
  895TIP3   OH226879   7.320   1.212  17.415
  895TIP3    H126880   7.331   1.257  17.332
  895TIP3    H226881   7.234   1.239  17.446
  896TIP3   OH226882   6.923   1.265  18.385
  896TIP3    H126883   6.917   1.246  18.291
  896TIP3    H226884   6.884   1.188  18.427
  897TIP3   OH226885   6.800   1.694  18.067
  897TIP3    H126886   6.890   1.706  18.100
  897TIP3    H226887   6.758   1.778  18.084
  898TIP3   OH226888   8.826   1.736  18.634
  898TIP3    H126889   8.804   1.651  18.594
  898TIP3    H226890   8.742   1.780  18.645
  899TIP3   OH226891   7.788   1.744  18.476
  899TIP3    H126892   7.778   1.759  18.570
  899TIP3    H226893   7.716   1.684  18.454
  900TIP3   OH226894   8.093   2.218  17.442
  900TIP3    H126895   8.033   2.145  17.429
  900TIP3    H226896   8.044   2.281  17.494
  901TIP3   OH226897   7.314   1.982  17.716
  901TIP3    H126898   7.329   1.932  17.796
  901TIP3    H226899   7.231   1.948  17.682
  902TIP3   OH226900   8.379   2.183  17.138
  902TIP3    H126901   8.467   2.215  17.118
  902TIP3    H226902   8.357   2.126  17.064
  903TIP3   OH226903   8.352   2.130  17.414
  903TIP3    H126904   8.262   2.157  17.432
  903TIP3    H226905   8.359   2.132  17.318
  904TIP3   OH226906   8.769   0.791  18.509
  904TIP3    H126907   8.680   0.827  18.515
  904TIP3    H226908   8.759   0.698  18.531
  905TIP3   OH226909   7.194   1.338  18.451
  905TIP3    H126910   7.176   1.393  18.527
  905TIP3    H226911   7.107   1.311  18.420
  906TIP3   OH226912   7.404   0.208  18.074
  906TIP3    H126913   7.335   0.220  18.009
  906TIP3    H226914   7.390   0.279  18.137
  907TIP3   OH226915   7.977   0.211  18.461
  907TIP3    H126916   7.995   0.118  18.450
  907TIP3    H226917   7.882   0.218  18.454
  908TIP3   OH226918   8.505   0.626  18.533
  908TIP3    H126919   8.434   0.595  18.589
  908TIP3    H226920   8.490   0.720  18.524
  909TIP3   OH226921   7.292   0.834  18.099
  909TIP3    H126922   7.262   0.856  18.188
  909TIP3    H226923   7.327   0.916  18.065
  910TIP3   OH226924   7.339   0.773  17.663
  910TIP3    H126925   7.247   0.757  17.684
  910TIP3    H226926   7.351   0.736  17.576
  911TIP3   OH226927   7.954   0.770  18.680
  911TIP3    H126928   7.912   0.691  18.716
  911TIP3    H226929   8.037   0.776  18.727
  912TIP3   OH226930   7.192   0.918  18.342
  912TIP3    H126931   7.242   0.950  18.417
  912TIP3    H226932   7.123   0.864  18.381
  913TIP3   OH226933   7.468   0.555  17.167
  913TIP3    H126934   7.433   0.466  17.173
  913TIP3    H226935   7.562   0.542  17.152
  914TIP3   OH226936   6.828   0.421  17.709
  914TIP3    H126937   6.889   0.421  17.783
  914TIP3    H226938   6.869   0.364  17.644
  915TIP3   OH226939   7.087   0.422  17.351
  915TIP3    H126940   7.110   0.358  17.284
  915TIP3    H226941   7.067   0.502  17.302
  916TIP3   OH226942   8.013   0.879  18.260
  916TIP3    H126943   8.063   0.928  18.326
  916TIP3    H226944   7.991   0.797  18.304
  917TIP3   OH226945   7.084   0.669  17.683
  917TIP3    H126946   7.001   0.679  17.637
  917TIP3    H226947   7.107   0.577  17.672
  918TIP3   OH226948   8.653   2.168  18.680
  918TIP3    H126949   8.692   2.204  18.601
  918TIP3    H226950   8.723   2.170  18.745
  919TIP3   OH226951   7.127   1.492  18.676
  919TIP3    H126952   7.174   1.499  18.759
  919TIP3    H226953   7.038   1.470  18.701
  920TIP3   OH226954   7.192   0.415  17.608
  920TIP3    H126955   7.182   0.322  17.629
  920TIP3    H226956   7.167   0.422  17.516
  921TIP3   OH226957   7.701   0.685  18.306
  921TIP3    H126958   7.689   0.779  18.292
  921TIP3    H226959   7.789   0.677  18.342
  922TIP3   OH226960   7.856   1.483  17.474
  922TIP3    H126961   7.885   1.392  17.473
  922TIP3    H226962   7.782   1.484  17.535
  923TIP3   OH226963   8.832   1.353  18.233
  923TIP3    H126964   8.911   1.373  18.182
  923TIP3    H226965   8.763   1.345  18.168
  924TIP3   OH226966   8.020   1.589  18.474
  924TIP3    H126967   8.005   1.554  18.562
  924TIP3    H226968   7.952   1.655  18.462
  925TIP3   OH226969   7.371   1.358  17.906
  925TIP3    H126970   7.395   1.334  17.816
  925TIP3    H226971   7.349   1.275  17.948
  926TIP3   OH226972   8.093   1.637  17.487
  926TIP3    H126973   8.094   1.687  17.406
  926TIP3    H226974   8.007   1.593  17.487
  927TIP3   OH226975   6.778   1.039  18.468
  927TIP3    H126976   6.784   0.946  18.488
  927TIP3    H226977   6.730   1.043  18.385
  928TIP3   OH226978   7.754   0.958  18.711
  928TIP3    H126979   7.685   0.934  18.649
  928TIP3    H226980   7.825   0.897  18.693
  929TIP3   OH226981   8.300   1.588  18.547
  929TIP3    H126982   8.216   1.590  18.501
  929TIP3    H226983   8.282   1.631  18.631
  930TIP3   OH226984   9.001   0.782  17.245
  930TIP3    H126985   8.941   0.730  17.191
  930TIP3    H226986   9.026   0.855  17.190
  931TIP3   OH226987   8.982   1.391  18.576
  931TIP3    H126988   8.908   1.443  18.545
  931TIP3    H226989   9.042   1.386  18.502
  932TIP3   OH226990   8.832   1.777  17.316
  932TIP3    H126991   8.785   1.715  17.371
  932TIP3    H226992   8.872   1.724  17.247
  933TIP3   OH226993   8.643   1.322  18.037
  933TIP3    H126994   8.573   1.360  17.984
  933TIP3    H226995   8.629   1.227  18.029
  934TIP3   OH226996   7.555   1.699  17.750
  934TIP3    H126997   7.578   1.774  17.695
  934TIP3    H226998   7.480   1.730  17.802
  935TIP3   OH226999   7.645   1.456  17.644
  935TIP3    H127000   7.605   1.536  17.679
  935TIP3    H227001   7.577   1.390  17.654
  936TIP3   OH227002   7.721   1.955  18.303
  936TIP3    H127003   7.766   2.033  18.337
  936TIP3    H227004   7.751   1.884  18.359
  937TIP3   OH227005   7.568   1.946  17.609
  937TIP3    H127006   7.476   1.961  17.631
  937TIP3    H227007   7.613   2.026  17.637
  938TIP3   OH227008   8.006   1.441  18.237
  938TIP3    H127009   8.003   1.493  18.317
  938TIP3    H227010   8.098   1.415  18.229
  939TIP3   OH227011   8.512   1.954  18.414
  939TIP3    H127012   8.417   1.958  18.404
  939TIP3    H227013   8.544   2.034  18.373
  940TIP3   OH227014   7.123   0.377  18.431
  940TIP3    H127015   7.122   0.373  18.526
  940TIP3    H227016   7.032   0.359  18.405
  941TIP3   OH227017   8.699   1.578  17.461
  941TIP3    H127018   8.609   1.546  17.456
  941TIP3    H227019   8.752   1.498  17.467
  942TIP3   OH227020   7.036   1.765  18.198
  942TIP3    H127021   7.123   1.744  18.233
  942TIP3    H227022   6.979   1.770  18.275
  943TIP3   OH227023   7.818   1.647  17.255
  943TIP3    H127024   7.823   1.583  17.326
  943TIP3    H227025   7.766   1.719  17.291
  944TIP3   OH227026   7.302   1.352  17.178
  944TIP3    H127027   7.276   1.425  17.233
  944TIP3    H227028   7.296   1.386  17.088
  945TIP3   OH227029   8.122   0.442  18.490
  945TIP3    H127030   8.185   0.417  18.422
  945TIP3    H227031   8.063   0.367  18.497
  946TIP3   OH227032   7.940   2.000  17.347
  946TIP3    H127033   7.854   1.960  17.359
  946TIP3    H227034   7.995   1.929  17.313
  947TIP3   OH227035   7.957   0.667  18.425
  947TIP3    H127036   7.948   0.706  18.512
  947TIP3    H227037   8.005   0.586  18.440
  948TIP3   OH227038   7.685   1.867  17.370
  948TIP3    H127039   7.605   1.862  17.318
  948TIP3    H227040   7.656   1.889  17.458
  949TIP3   OH227041   7.422   0.272  17.201
  949TIP3    H127042   7.473   0.257  17.280
  949TIP3    H227043   7.428   0.190  17.153
  950TIP3   OH227044   8.742   0.495  18.491
  950TIP3    H127045   8.652   0.528  18.493
  950TIP3    H227046   8.773   0.515  18.403
  951TIP3   OH227047   8.586   1.058  17.992
  951TIP3    H127048   8.527   1.038  17.920
  951TIP3    H227049   8.650   0.987  17.991
  952TIP3   OH227050   8.693   2.091  18.063
  952TIP3    H127051   8.710   2.140  17.982
  952TIP3    H227052   8.774   2.100  18.114
  953TIP3   OH227053   7.179   0.182  17.907
  953TIP3    H127054   7.172   0.179  17.812
  953TIP3    H227055   7.162   0.092  17.935
  954TIP3   OH227056   7.116   1.848  17.368
  954TIP3    H127057   7.113   1.842  17.464
  954TIP3    H227058   7.049   1.913  17.346
  955TIP3   OH227059   6.937   2.236  18.688
  955TIP3    H127060   6.989   2.203  18.761
  955TIP3    H227061   6.912   2.158  18.638
  956TIP3   OH227062   7.529   1.907  18.737
  956TIP3    H127063   7.606   1.853  18.749
  956TIP3    H227064   7.482   1.867  18.664
  957TIP3   OH227065   8.063   1.764  17.237
  957TIP3    H127066   7.978   1.720  17.225
  957TIP3    H227067   8.117   1.729  17.166
  958TIP3   OH227068   8.219   1.709  18.791
  958TIP3    H127069   8.218   1.634  18.850
  958TIP3    H227070   8.295   1.761  18.820
  959TIP3   OH227071   6.867   1.444  18.755
  959TIP3    H127072   6.810   1.373  18.785
  959TIP3    H227073   6.835   1.465  18.667
  960TIP3   OH227074   7.664   1.470  18.690
  960TIP3    H127075   7.626   1.499  18.607
  960TIP3    H227076   7.692   1.381  18.673
  961TIP3   OH227077   8.513   1.400  18.541
  961TIP3    H127078   8.590   1.452  18.516
  961TIP3    H227079   8.441   1.463  18.543
  962TIP3   OH227080   7.182   0.915  18.786
  962TIP3    H127081   7.135   0.833  18.798
  962TIP3    H227082   7.147   0.973  18.853
  963TIP3   OH227083   7.560   0.890  18.523
  963TIP3    H127084   7.476   0.935  18.534
  963TIP3    H227085   7.593   0.921  18.438
  964TIP3   OH227086   8.257   1.235  18.947
  964TIP3    H127087   8.342   1.198  18.925
  964TIP3    H227088   8.202   1.159  18.965
  965TIP3   OH227089   7.574   0.626  18.615
  965TIP3    H127090   7.563   0.565  18.542
  965TIP3    H227091   7.572   0.713  18.574
  966TIP3   OH227092   7.560   0.464  18.384
  966TIP3    H127093   7.605   0.537  18.342
  966TIP3    H227094   7.480   0.452  18.333
  967TIP3   OH227095   7.685   0.976  18.285
  967TIP3    H127096   7.778   0.984  18.267
  967TIP3    H227097   7.646   1.055  18.248
  968TIP3   OH227098   8.207   0.786  18.796
  968TIP3    H127099   8.233   0.697  18.772
  968TIP3    H227100   8.287   0.838  18.786
  969TIP3   OH227101   8.575   1.142  18.614
  969TIP3    H127102   8.546   1.230  18.588
  969TIP3    H227103   8.670   1.152  18.626
  970TIP3   OH227104   7.479   0.660  18.871
  970TIP3    H127105   7.397   0.707  18.854
  970TIP3    H227106   7.518   0.646  18.785
  971TIP3   OH227107   7.697   0.226  18.426
  971TIP3    H127108   7.657   0.312  18.428
  971TIP3    H227109   7.668   0.188  18.343
  972TIP3   OH227110   7.809   0.549  18.741
  972TIP3    H127111   7.793   0.462  18.779
  972TIP3    H227112   7.726   0.572  18.699
  973TIP3   OH227113   8.292   0.541  18.694
  973TIP3    H127114   8.225   0.503  18.637
  973TIP3    H227115   8.318   0.470  18.752
  974TIP3   OH227116   8.377   0.336  18.869
  974TIP3    H127117   8.356   0.245  18.851
  974TIP3    H227118   8.334   0.355  18.952
  975TIP3   OH227119   7.060   0.333  18.707
  975TIP3    H127120   7.040   0.240  18.698
  975TIP3    H227121   7.117   0.338  18.783
  976TIP3   OH227122   7.674   0.086  18.667
  976TIP3    H127123   7.705   9.215  18.642
  976TIP3    H227124   7.680   0.137  18.586
  977TIP3   OH227125   7.728   0.303  18.846
  977TIP3    H127126   7.715   0.224  18.792
  977TIP3    H227127   7.643   0.319  18.886
  978TIP3   OH227128   7.060   1.884  17.656
  978TIP3    H127129   6.969   1.906  17.639
  978TIP3    H227130   7.063   1.863  17.749
  979TIP3   OH227131   8.900   2.105  18.252
  979TIP3    H127132   8.905   2.022  18.300
  979TIP3    H227133   8.991   2.130  18.240
  980TIP3   OH227134   8.902   1.876  18.400
  980TIP3    H127135   8.831   1.825  18.360
  980TIP3    H227136   8.911   1.840  18.488
  981TIP3   OH227137   8.762   1.514  18.918
  981TIP3    H127138   8.673   1.530  18.950
  981TIP3    H227139   8.802   1.601  18.917
  982TIP3   OH227140   8.821   1.324  17.450
  982TIP3    H127141   8.869   1.301  17.370
  982TIP3    H227142   8.830   1.247  17.506
  983TIP3   OH227143   8.873   1.083  17.594
  983TIP3    H127144   8.806   1.020  17.620
  983TIP3    H227145   8.924   1.098  17.674
  984TIP3   OH227146   9.077   1.367  18.106
  984TIP3    H127147   9.116   1.293  18.060
  984TIP3    H227148   9.126   1.443  18.075
  985TIP3   OH227149   8.671   1.748  18.315
  985TIP3    H127150   8.611   1.807  18.361
  985TIP3    H227151   8.648   1.758  18.223
  986TIP3   OH227152   8.808   0.672  17.064
  986TIP3    H127153   8.766   0.757  17.081
  986TIP3    H227154   8.848   0.682  16.978
  987TIP3   OH227155   8.703   0.891  17.701
  987TIP3    H127156   8.717   0.808  17.656
  987TIP3    H227157   8.725   0.873  17.793
  988TIP3   OH227158   6.892   1.185  18.107
  988TIP3    H127159   6.874   1.126  18.034
  988TIP3    H227160   6.986   1.176  18.123
  989TIP3   OH227161   8.849   1.163  18.661
  989TIP3    H127162   8.905   1.087  18.647
  989TIP3    H227163   8.902   1.238  18.631
  990TIP3   OH227164   8.992   0.926  18.602
  990TIP3    H127165   8.913   0.881  18.571
  990TIP3    H227166   9.045   0.857  18.642
  991TIP3   OH227167   8.737   0.645  17.589
  991TIP3    H127168   8.704   0.559  17.615
  991TIP3    H227169   8.816   0.626  17.538
  992TIP3   OH227170   8.773   0.851  17.972
  992TIP3    H127171   8.859   0.834  17.933
  992TIP3    H227172   8.786   0.839  18.066
  993TIP3   OH227173   8.843   0.843  18.244
  993TIP3    H127174   8.814   0.837  18.335
  993TIP3    H227175   8.884   0.929  18.237
  994TIP3   OH227176   6.852   0.517  18.632
  994TIP3    H127177   6.929   0.469  18.660
  994TIP3    H227178   6.779   0.456  18.645
  995TIP3   OH227179   8.944   0.121  18.782
  995TIP3    H127180   9.031   0.155  18.758
  995TIP3    H227181   8.884   0.165  18.722
  996TIP3   OH227182   8.636   0.395  17.644
  996TIP3    H127183   8.708   0.334  17.661
  996TIP3    H227184   8.589   0.357  17.570
  997TIP3   OH227185   7.016   0.407  17.915
  997TIP3    H127186   7.067   0.327  17.920
  997TIP3    H227187   7.066   0.471  17.965
  998TIP3   OH227188   6.701   0.717  17.986
  998TIP3    H127189   6.796   0.714  17.973
  998TIP3    H227190   6.688   0.673  18.070
  999TIP3   OH227191   8.780   0.249  18.606
  999TIP3    H127192   8.771   0.335  18.565
  999TIP3    H227193   8.780   0.187  18.533
 1000TIP3   OH227194   8.853   0.433  17.203
 1000TIP3    H127195   8.906   0.388  17.138
 1000TIP3    H227196   8.820   0.511  17.158
 1001TIP3   OH227197   6.914   0.261  17.494
 1001TIP3    H127198   6.872   0.215  17.421
 1001TIP3    H227199   6.969   0.327  17.452
 1002TIP3   OH227200   8.719   2.076  17.603
 1002TIP3    H127201   8.697   1.983  17.607
 1002TIP3    H227202   8.708   2.107  17.693
 1003TIP3   OH227203   6.766   0.135  18.332
 1003TIP3    H127204   6.699   0.143  18.400
 1003TIP3    H227205   6.753   0.212  18.277
 1004TIP3   OH227206   7.142   1.710  18.501
 1004TIP3    H127207   7.051   1.732  18.484
 1004TIP3    H227208   7.138   1.634  18.558
 1005TIP3   OH227209   7.450   2.007  18.358
 1005TIP3    H127210   7.430   2.098  18.335
 1005TIP3    H227211   7.541   1.995  18.331
 1006TIP3   OH227212   7.942   2.128  18.653
 1006TIP3    H127213   7.951   2.043  18.695
 1006TIP3    H227214   8.032   2.155  18.634
 1007TIP3   OH227215   8.200   2.185  18.589
 1007TIP3    H127216   8.242   2.144  18.513
 1007TIP3    H227217   8.273   2.213  18.644
 1008TIP3   OH227218   8.818   0.056  18.397
 1008TIP3    H127219   8.790   0.076  18.308
 1008TIP3    H227220   8.787   9.184  18.413
 1009TIP3   OH227221   7.127   2.323  18.309
 1009TIP3    H127222   7.034   2.320  18.288
 1009TIP3    H227223   7.131   2.360  18.398
 1010TIP3   OH227224   7.401   2.276  18.295
 1010TIP3    H127225   7.307   2.278  18.308
 1010TIP3    H227226   7.418   2.337  18.223
 1011TIP3   OH227227   8.042   2.163  18.224
 1011TIP3    H127228   7.992   2.139  18.146
 1011TIP3    H227229   7.976   2.178  18.291
 1012TIP3   OH227230   8.280   2.079  18.327
 1012TIP3    H127231   8.198   2.116  18.293
 1012TIP3    H227232   8.348   2.139  18.294
 1013TIP3   OH227233   8.526   2.193  18.256
 1013TIP3    H127234   8.566   2.280  18.264
 1013TIP3    H227235   8.569   2.154  18.181
 1014TIP3   OH227236   7.091   1.851  17.929
 1014TIP3    H127237   7.056   1.832  18.016
 1014TIP3    H227238   7.186   1.847  17.940
 1015TIP3   OH227239   7.369   1.822  17.939
 1015TIP3    H127240   7.357   1.741  17.988
 1015TIP3    H227241   7.442   1.866  17.983
 1016TIP3   OH227242   7.604   1.893  18.061
 1016TIP3    H127243   7.633   1.803  18.050
 1016TIP3    H227244   7.644   1.921  18.144
 1017TIP3   OH227245   8.708   0.088  17.856
 1017TIP3    H127246   8.768   0.128  17.792
 1017TIP3    H227247   8.622   0.094  17.814
 1018TIP3   OH227248   8.851   0.222  17.649
 1018TIP3    H127249   8.839   0.201  17.556
 1018TIP3    H227250   8.933   0.270  17.651
 1019TIP3   OH227251   7.118   0.143  17.641
 1019TIP3    H127252   7.039   0.168  17.594
 1019TIP3    H227253   7.118   0.047  17.638
 1020TIP3   OH227254   6.995   9.132  17.191
 1020TIP3    H127255   7.053   9.161  17.120
 1020TIP3    H227256   7.054   9.121  17.266
 1021TIP3   OH227257   7.667   9.179  17.717
 1021TIP3    H127258   7.733   0.009  17.666
 1021TIP3    H227259   7.656   0.014  17.796
 1022TIP3   OH227260   8.471   0.062  17.715
 1022TIP3    H127261   8.447   0.082  17.624
 1022TIP3    H227262   8.434   9.192  17.731
 1023TIP3   OH227263   8.499   0.305  17.422
 1023TIP3    H127264   8.432   0.355  17.375
 1023TIP3    H227265   8.461   0.218  17.433
 1024TIP3   OH227266   6.943   2.057  17.304
 1024TIP3    H127267   6.848   2.068  17.303
 1024TIP3    H227268   6.978   2.146  17.298
 1025TIP3   OH227269   7.144   0.234  17.160
 1025TIP3    H127270   7.142   0.158  17.101
 1025TIP3    H227271   7.237   0.251  17.172
 1026TIP3   OH227272   8.848   2.051  17.292
 1026TIP3    H127273   8.839   1.957  17.309
 1026TIP3    H227274   8.843   2.057  17.196
 1027TIP3   OH227275   7.033   0.055  18.718
 1027TIP3    H127276   7.007   9.181  18.702
 1027TIP3    H227277   7.127   0.051  18.732
 1028TIP3   OH227278   7.312   0.039  18.760
 1028TIP3    H127279   7.399   0.059  18.724
 1028TIP3    H227280   7.313   9.161  18.773
 1029TIP3   OH227281   8.300   0.074  18.825
 1029TIP3    H127282   8.206   0.062  18.831
 1029TIP3    H227283   8.334   9.204  18.800
 1030TIP3   OH227284   8.602   1.894  18.667
 1030TIP3    H127285   8.561   1.899  18.581
 1030TIP3    H227286   8.624   1.984  18.689
 1031TIP3   OH227287   9.058   0.874  17.501
 1031TIP3    H127288   9.000   0.949  17.514
 1031TIP3    H227289   9.043   0.848  17.410
 1032TIP3   OH227290   9.157   1.345  18.372
 1032TIP3    H127291   9.130   1.354  18.280
 1032TIP3    H227292   9.161   1.251  18.387
 1033TIP3   OH227293   0.007   1.595  18.058
 1033TIP3    H127294   0.089   1.626  18.018
 1033TIP3    H227295   9.208   1.656  18.130
 1034TIP3   OH227296   9.071   0.393  17.615
 1034TIP3    H127297   9.166   0.405  17.609
 1034TIP3    H227298   9.035   0.457  17.554
 1035TIP3   OH227299   9.149   1.073  18.430
 1035TIP3    H127300   9.106   1.025  18.501
 1035TIP3    H227301   9.090   1.063  18.356
 1036TIP3   OH227302   9.188   1.398  18.768
 1036TIP3    H127303   9.134   1.406  18.847
 1036TIP3    H227304   9.124   1.396  18.696
 1037TIP3   OH227305   9.020   2.146  17.522
 1037TIP3    H127306   9.014   2.083  17.451
 1037TIP3    H227307   9.089   2.111  17.579
 1038TIP3   OH227308   9.216   2.007  17.679
 1038TIP3    H127309   9.177   1.920  17.688
 1038TIP3    H227310   0.087   1.998  17.716
 1039TIP3   OH227311   9.175   1.114  18.040
 1039TIP3    H127312   9.157   1.024  18.011
 1039TIP3    H227313   0.054   1.121  18.040
 1040TIP3   OH227314   9.129   0.706  18.698
 1040TIP3    H127315   0.008   0.693  18.703
 1040TIP3    H227316   9.094   0.645  18.763
 1041TIP3   OH227317   9.016   0.814  17.855
 1041TIP3    H127318   9.043   0.791  17.766
 1041TIP3    H227319   9.099   0.818  17.904
 1042TIP3   OH227320   8.954   0.565  17.428
 1042TIP3    H127321   8.922   0.510  17.356
 1042TIP3    H227322   8.991   0.641  17.384
 1043TIP3   OH227323   9.073   0.147  18.314
 1043TIP3    H127324   8.991   0.128  18.360
 1043TIP3    H227325   9.048   0.211  18.247
 1044TIP3   OH227326   1.580   3.561  17.480
 1044TIP3    H127327   1.559   3.653  17.496
 1044TIP3    H227328   1.496   3.519  17.462
 1045TIP3   OH227329   1.069   3.055  18.216
 1045TIP3    H127330   1.150   3.039  18.265
 1045TIP3    H227331   1.088   3.026  18.127
 1046TIP3   OH227332   0.380   3.170  18.090
 1046TIP3    H127333   0.398   3.111  18.163
 1046TIP3    H227334   0.464   3.215  18.074
 1047TIP3   OH227335   1.564   3.994  17.754
 1047TIP3    H127336   1.625   3.931  17.790
 1047TIP3    H227337   1.526   4.037  17.831
 1048TIP3   OH227338   0.558   3.830  18.010
 1048TIP3    H127339   0.540   3.742  17.977
 1048TIP3    H227340   0.651   3.844  17.992
 1049TIP3   OH227341   0.111   2.959  17.590
 1049TIP3    H127342   0.148   3.034  17.637
 1049TIP3    H227343   0.031   2.992  17.550
 1050TIP3   OH227344   0.215   3.179  17.720
 1050TIP3    H127345   0.198   3.228  17.800
 1050TIP3    H227346   0.300   3.212  17.690
 1051TIP3   OH227347   1.533   4.414  17.885
 1051TIP3    H127348   1.545   4.375  17.798
 1051TIP3    H227349   1.520   4.339  17.943
 1052TIP3   OH227350   0.984   3.640  18.039
 1052TIP3    H127351   1.029   3.604  17.963
 1052TIP3    H227352   1.052   3.682  18.090
 1053TIP3   OH227353   2.297   2.592  18.274
 1053TIP3    H127354   2.225   2.654  18.284
 1053TIP3    H227355   2.337   2.614  18.190
 1054TIP3   OH227356   1.591   2.988  18.042
 1054TIP3    H127357   1.592   2.895  18.066
 1054TIP3    H227358   1.522   2.995  17.976
 1055TIP3   OH227359   0.740   2.717  17.712
 1055TIP3    H127360   0.748   2.789  17.651
 1055TIP3    H227361   0.725   2.640  17.657
 1056TIP3   OH227362   1.628   2.790  17.743
 1056TIP3    H127363   1.701   2.781  17.804
 1056TIP3    H227364   1.669   2.811  17.660
 1057TIP3   OH227365   0.311   2.803  17.861
 1057TIP3    H127366   0.396   2.791  17.903
 1057TIP3    H227367   0.332   2.839  17.775
 1058TIP3   OH227368   0.757   3.201  17.814
 1058TIP3    H127369   0.840   3.155  17.799
 1058TIP3    H227370   0.694   3.152  17.760
 1059TIP3   OH227371   2.101   2.779  18.347
 1059TIP3    H127372   2.077   2.870  18.334
 1059TIP3    H227373   2.152   2.779  18.429
 1060TIP3   OH227374   0.569   2.639  18.172
 1060TIP3    H127375   0.570   2.690  18.091
 1060TIP3    H227376   0.514   2.690  18.232
 1061TIP3   OH227377   1.492   3.831  17.525
 1061TIP3    H127378   1.406   3.848  17.486
 1061TIP3    H227379   1.492   3.884  17.605
 1062TIP3   OH227380   0.794   3.481  18.177
 1062TIP3    H127381   0.745   3.552  18.219
 1062TIP3    H227382   0.864   3.526  18.129
 1063TIP3   OH227383   1.861   2.769  17.895
 1063TIP3    H127384   1.935   2.719  17.859
 1063TIP3    H227385   1.902   2.838  17.947
 1064TIP3   OH227386   0.580   2.780  17.935
 1064TIP3    H127387   0.619   2.859  17.973
 1064TIP3    H227388   0.635   2.761  17.859
 1065TIP3   OH227389   0.654   3.720  18.258
 1065TIP3    H127390   0.617   3.765  18.182
 1065TIP3    H227391   0.578   3.704  18.315
 1066TIP3   OH227392   0.127   3.710  17.438
 1066TIP3    H127393   0.208   3.661  17.422
 1066TIP3    H227394   0.148   3.800  17.412
 1067TIP3   OH227395   1.819   4.124  18.031
 1067TIP3    H127396   1.723   4.125  18.033
 1067TIP3    H227397   1.842   4.171  17.952
 1068TIP3   OH227398   1.709   2.535  18.114
 1068TIP3    H127399   1.638   2.598  18.121
 1068TIP3    H227400   1.768   2.572  18.048
 1069TIP3   OH227401   0.881   2.301  17.840
 1069TIP3    H127402   0.900   2.248  17.918
 1069TIP3    H227403   0.928   2.383  17.855
 1070TIP3   OH227404   1.610   4.259  17.662
 1070TIP3    H127405   1.580   4.171  17.687
 1070TIP3    H227406   1.698   4.266  17.699
 1071TIP3   OH227407   1.741   3.958  17.488
 1071TIP3    H127408   1.667   3.899  17.475
 1071TIP3    H227409   1.717   4.012  17.563
 1072TIP3   OH227410   1.946   3.778  18.394
 1072TIP3    H127411   1.971   3.715  18.326
 1072TIP3    H227412   1.935   3.861  18.348
 1073TIP3   OH227413   1.339   3.430  17.425
 1073TIP3    H127414   1.275   3.501  17.428
 1073TIP3    H227415   1.287   3.351  17.412
 1074TIP3   OH227416   1.230   3.182  17.357
 1074TIP3    H127417   1.297   3.145  17.301
 1074TIP3    H227418   1.149   3.176  17.306
 1075TIP3   OH227419   2.138   3.262  18.228
 1075TIP3    H127420   2.067   3.301  18.177
 1075TIP3    H227421   2.215   3.268  18.171
 1076TIP3   OH227422   1.765   3.361  17.445
 1076TIP3    H127423   1.710   3.437  17.465
 1076TIP3    H227424   1.801   3.333  17.529
 1077TIP3   OH227425   1.788   3.127  18.473
 1077TIP3    H127426   1.767   3.212  18.511
 1077TIP3    H227427   1.709   3.102  18.425
 1078TIP3   OH227428   0.708   3.458  17.717
 1078TIP3    H127429   0.655   3.432  17.642
 1078TIP3    H227430   0.740   3.376  17.754
 1079TIP3   OH227431   0.826   3.864  17.970
 1079TIP3    H127432   0.848   3.870  17.877
 1079TIP3    H227433   0.878   3.790  18.002
 1080TIP3   OH227434   0.638   3.284  18.050
 1080TIP3    H127435   0.686   3.268  17.968
 1080TIP3    H227436   0.695   3.343  18.099
 1081TIP3   OH227437   1.520   4.094  18.341
 1081TIP3    H127438   1.437   4.142  18.342
 1081TIP3    H227439   1.540   4.081  18.248
 1082TIP3   OH227440   0.800   3.868  18.450
 1082TIP3    H127441   0.734   3.931  18.479
 1082TIP3    H227442   0.758   3.822  18.377
 1083TIP3   OH227443   1.539   3.216  17.374
 1083TIP3    H127444   1.622   3.259  17.396
 1083TIP3    H227445   1.473   3.285  17.386
 1084TIP3   OH227446   0.436   3.302  18.589
 1084TIP3    H127447   0.459   3.393  18.611
 1084TIP3    H227448   0.347   3.307  18.554
 1085TIP3   OH227449   1.116   4.006  17.651
 1085TIP3    H127450   1.182   4.062  17.692
 1085TIP3    H227451   1.160   3.966  17.576
 1086TIP3   OH227452   0.609   4.055  18.537
 1086TIP3    H127453   0.599   4.108  18.458
 1086TIP3    H227454   0.524   4.011  18.547
 1087TIP3   OH227455   2.022   2.251  17.300
 1087TIP3    H127456   1.930   2.275  17.310
 1087TIP3    H227457   2.068   2.335  17.296
 1088TIP3   OH227458   0.569   3.315  17.526
 1088TIP3    H127459   0.572   3.307  17.431
 1088TIP3    H227460   0.571   3.224  17.558
 1089TIP3   OH227461   0.202   3.553  18.407
 1089TIP3    H127462   0.113   3.573  18.380
 1089TIP3    H227463   0.195   3.473  18.458
 1090TIP3   OH227464   0.132   4.041  18.173
 1090TIP3    H127465   0.199   3.973  18.169
 1090TIP3    H227466   0.179   4.120  18.201
 1091TIP3   OH227467   2.155   4.069  18.606
 1091TIP3    H127468   2.160   3.974  18.593
 1091TIP3    H227469   2.069   4.084  18.645
 1092TIP3   OH227470   1.049   3.954  18.529
 1092TIP3    H127471   1.056   4.045  18.500
 1092TIP3    H227472   0.966   3.923  18.493
 1093TIP3   OH227473   1.276   4.396  17.376
 1093TIP3    H127474   1.259   4.332  17.307
 1093TIP3    H227475   1.221   4.472  17.353
 1094TIP3   OH227476   0.499   4.232  17.694
 1094TIP3    H127477   0.518   4.183  17.774
 1094TIP3    H227478   0.405   4.248  17.697
 1095TIP3   OH227479   1.535   4.451  17.471
 1095TIP3    H127480   1.446   4.429  17.445
 1095TIP3    H227481   1.559   4.383  17.534
 1096TIP3   OH227482   1.950   2.961  18.630
 1096TIP3    H127483   1.888   3.015  18.582
 1096TIP3    H227484   1.934   2.872  18.600
 1097TIP3   OH227485   0.442   3.676  18.426
 1097TIP3    H127486   0.470   3.631  18.506
 1097TIP3    H227487   0.358   3.636  18.405
 1098TIP3   OH227488   1.271   2.449  18.486
 1098TIP3    H127489   1.318   2.391  18.545
 1098TIP3    H227490   1.179   2.439  18.510
 1099TIP3   OH227491   1.621   2.791  18.474
 1099TIP3    H127492   1.571   2.805  18.555
 1099TIP3    H227493   1.610   2.872  18.425
 1100TIP3   OH227494   1.235   2.579  17.279
 1100TIP3    H127495   1.310   2.561  17.221
 1100TIP3    H227496   1.168   2.615  17.221
 1101TIP3   OH227497   0.665   2.995  18.091
 1101TIP3    H127498   0.594   2.989  18.155
 1101TIP3    H227499   0.672   3.089  18.071
 1102TIP3   OH227500   0.588   3.060  17.640
 1102TIP3    H127501   0.511   3.003  17.637
 1102TIP3    H227502   0.656   3.010  17.595
 1103TIP3   OH227503   1.294   3.030  17.591
 1103TIP3    H127504   1.267   3.097  17.528
 1103TIP3    H227505   1.373   2.992  17.553
 1104TIP3   OH227506   1.193   3.019  18.606
 1104TIP3    H127507   1.175   2.938  18.652
 1104TIP3    H227508   1.267   3.057  18.652
 1105TIP3   OH227509   1.400   2.930  17.835
 1105TIP3    H127510   1.362   2.974  17.759
 1105TIP3    H227511   1.472   2.878  17.799
 1106TIP3   OH227512   0.466   2.985  18.279
 1106TIP3    H127513   0.511   3.030  18.350
 1106TIP3    H227514   0.435   2.904  18.317
 1107TIP3   OH227515   0.825   2.571  17.235
 1107TIP3    H127516   0.733   2.572  17.263
 1107TIP3    H227517   0.833   2.646  17.176
 1108TIP3   OH227518   0.093   2.705  17.703
 1108TIP3    H127519   0.155   2.722  17.774
 1108TIP3    H227520   0.093   2.786  17.652
 1109TIP3   OH227521   1.569   3.025  18.326
 1109TIP3    H127522   1.585   3.027  18.231
 1109TIP3    H227523   1.474   3.020  18.333
 1110TIP3   OH227524   1.004   2.749  17.816
 1110TIP3    H127525   0.910   2.740  17.798
 1110TIP3    H227526   1.039   2.662  17.797
 1111TIP3   OH227527   0.384   2.876  17.607
 1111TIP3    H127528   0.301   2.895  17.565
 1111TIP3    H227529   0.415   2.796  17.564
 1112TIP3   OH227530   0.788   2.916  17.523
 1112TIP3    H127531   0.876   2.937  17.555
 1112TIP3    H227532   0.796   2.913  17.428
 1113TIP3   OH227533   1.501   2.726  18.115
 1113TIP3    H127534   1.456   2.715  18.198
 1113TIP3    H227535   1.431   2.731  18.050
 1114TIP3   OH227536   1.964   4.444  18.719
 1114TIP3    H127537   1.985   4.448  18.625
 1114TIP3    H227538   2.028   4.501  18.761
 1115TIP3   OH227539   0.482   3.561  18.673
 1115TIP3    H127540   0.562   3.575  18.725
 1115TIP3    H227541   0.413   3.606  18.722
 1116TIP3   OH227542   1.148   2.934  17.977
 1116TIP3    H127543   1.233   2.936  17.933
 1116TIP3    H227544   1.098   2.869  17.929
 1117TIP3   OH227545   0.853   2.891  18.274
 1117TIP3    H127546   0.794   2.922  18.206
 1117TIP3    H227547   0.933   2.943  18.263
 1118TIP3   OH227548   1.121   3.616  17.429
 1118TIP3    H127549   1.060   3.595  17.358
 1118TIP3    H227550   1.067   3.610  17.508
 1119TIP3   OH227551   2.040   3.595  18.210
 1119TIP3    H127552   2.131   3.587  18.183
 1119TIP3    H227553   1.996   3.522  18.166
 1120TIP3   OH227554   1.257   3.793  18.424
 1120TIP3    H127555   1.343   3.806  18.463
 1120TIP3    H227556   1.198   3.848  18.476
 1121TIP3   OH227557   1.528   2.955  17.475
 1121TIP3    H127558   1.605   2.901  17.458
 1121TIP3    H227559   1.544   3.037  17.429
 1122TIP3   OH227560   0.556   3.563  17.929
 1122TIP3    H127561   0.606   3.544  17.849
 1122TIP3    H227562   0.571   3.488  17.986
 1123TIP3   OH227563   1.227   3.882  17.430
 1123TIP3    H127564   1.179   3.933  17.366
 1123TIP3    H227565   1.194   3.793  17.420
 1124TIP3   OH227566   0.156   3.316  18.544
 1124TIP3    H127567   0.135   3.293  18.635
 1124TIP3    H227568   0.075   3.298  18.496
 1125TIP3   OH227569   0.981   3.206  18.633
 1125TIP3    H127570   0.939   3.226  18.549
 1125TIP3    H227571   1.048   3.141  18.611
 1126TIP3   OH227572   1.516   3.867  18.517
 1126TIP3    H127573   1.526   3.942  18.458
 1126TIP3    H227574   1.507   3.907  18.604
 1127TIP3   OH227575   2.291   3.046  17.217
 1127TIP3    H127576   2.230   3.009  17.153
 1127TIP3    H227577   2.286   3.141  17.203
 1128TIP3   OH227578   2.183   3.795  18.538
 1128TIP3    H127579   2.095   3.787  18.501
 1128TIP3    H227580   2.238   3.737  18.486
 1129TIP3   OH227581   1.957   4.066  17.355
 1129TIP3    H127582   1.882   4.022  17.397
 1129TIP3    H227583   2.029   4.003  17.363
 1130TIP3   OH227584   1.910   3.364  18.103
 1130TIP3    H127585   1.828   3.393  18.143
 1130TIP3    H227586   1.883   3.298  18.039
 1131TIP3   OH227587   0.881   3.875  17.698
 1131TIP3    H127588   0.964   3.923  17.688
 1131TIP3    H227589   0.828   3.905  17.625
 1132TIP3   OH227590   0.936   3.608  17.636
 1132TIP3    H127591   0.916   3.698  17.664
 1132TIP3    H227592   0.859   3.558  17.662
 1133TIP3   OH227593   1.016   4.206  18.178
 1133TIP3    H127594   1.041   4.298  18.172
 1133TIP3    H227595   1.099   4.159  18.188
 1134TIP3   OH227596   0.743   4.312  17.588
 1134TIP3    H127597   0.659   4.283  17.622
 1134TIP3    H227598   0.777   4.371  17.655
 1135TIP3   OH227599   1.195   3.764  18.159
 1135TIP3    H127600   1.211   3.763  18.253
 1135TIP3    H227601   1.264   3.821  18.124
 1136TIP3   OH227602   1.761   4.190  18.445
 1136TIP3    H127603   1.675   4.156  18.419
 1136TIP3    H227604   1.768   4.274  18.399
 1137TIP3   OH227605   2.093   4.361  17.160
 1137TIP3    H127606   2.170   4.413  17.140
 1137TIP3    H227607   2.046   4.410  17.227
 1138TIP3   OH227608   0.387   2.730  18.372
 1138TIP3    H127609   0.355   2.749  18.460
 1138TIP3    H227610   0.372   2.636  18.360
 1139TIP3   OH227611   0.306   4.248  18.246
 1139TIP3    H127612   0.391   4.211  18.268
 1139TIP3    H227613   0.303   4.330  18.295
 1140TIP3   OH227614   0.892   3.938  17.072
 1140TIP3    H127615   0.949   3.889  17.013
 1140TIP3    H227616   0.816   3.961  17.019
 1141TIP3   OH227617   0.748   3.930  17.316
 1141TIP3    H127618   0.793   3.909  17.235
 1141TIP3    H227619   0.775   4.020  17.337
 1142TIP3   OH227620   1.381   2.683  18.365
 1142TIP3    H127621   1.465   2.691  18.410
 1142TIP3    H227622   1.339   2.607  18.405
 1143TIP3   OH227623   1.529   2.577  17.587
 1143TIP3    H127624   1.570   2.614  17.509
 1143TIP3    H227625   1.550   2.639  17.657
 1144TIP3   OH227626   1.066   4.058  17.261
 1144TIP3    H127627   1.010   4.020  17.193
 1144TIP3    H227628   1.117   4.124  17.216
 1145TIP3   OH227629   1.030   2.959  17.636
 1145TIP3    H127630   1.121   2.984  17.622
 1145TIP3    H227631   1.035   2.889  17.701
 1146TIP3   OH227632   1.299   2.958  18.357
 1146TIP3    H127633   1.257   2.978  18.441
 1146TIP3    H227634   1.309   2.862  18.358
 1147TIP3   OH227635   1.266   2.510  17.538
 1147TIP3    H127636   1.254   2.546  17.450
 1147TIP3    H227637   1.357   2.532  17.561
 1148TIP3   OH227638   0.829   4.194  17.355
 1148TIP3    H127639   0.921   4.167  17.349
 1148TIP3    H227640   0.821   4.230  17.443
 1149TIP3   OH227641   1.885   2.710  18.518
 1149TIP3    H127642   1.793   2.723  18.495
 1149TIP3    H227643   1.933   2.721  18.435
 1150TIP3   OH227644   1.812   3.151  17.947
 1150TIP3    H127645   1.731   3.108  17.973
 1150TIP3    H227646   1.881   3.087  17.969
 1151TIP3   OH227647   0.396   3.733  17.094
 1151TIP3    H127648   0.459   3.786  17.144
 1151TIP3    H227649   0.450   3.687  17.029
 1152TIP3   OH227650   1.980   4.424  18.103
 1152TIP3    H127651   1.958   4.461  18.017
 1152TIP3    H227652   2.066   4.385  18.091
 1153TIP3   OH227653   0.184   3.969  17.350
 1153TIP3    H127654   0.123   4.040  17.332
 1153TIP3    H227655   0.250   4.007  17.408
 1154TIP3   OH227656   0.256   4.421  18.733
 1154TIP3    H127657   0.331   4.397  18.787
 1154TIP3    H227658   0.226   4.339  18.695
 1155TIP3   OH227659   0.633   4.144  18.806
 1155TIP3    H127660   0.699   4.088  18.847
 1155TIP3    H227661   0.630   4.116  18.715
 1156TIP3   OH227662   1.480   3.973  18.775
 1156TIP3    H127663   1.464   3.898  18.832
 1156TIP3    H227664   1.557   4.016  18.812
 1157TIP3   OH227665   0.250   3.663  18.800
 1157TIP3    H127666   0.256   3.588  18.859
 1157TIP3    H227667   0.160   3.661  18.767
 1158TIP3   OH227668   0.585   3.621  16.931
 1158TIP3    H127669   0.657   3.682  16.914
 1158TIP3    H227670   0.621   3.535  16.913
 1159TIP3   OH227671   0.899   3.686  18.632
 1159TIP3    H127672   0.863   3.746  18.568
 1159TIP3    H227673   0.989   3.671  18.604
 1160TIP3   OH227674   1.718   3.648  18.518
 1160TIP3    H127675   1.793   3.695  18.483
 1160TIP3    H227676   1.646   3.711  18.517
 1161TIP3   OH227677   0.345   3.213  18.842
 1161TIP3    H127678   0.389   3.230  18.759
 1161TIP3    H227679   0.340   3.298  18.885
 1162TIP3   OH227680   0.619   3.139  18.450
 1162TIP3    H127681   0.567   3.202  18.501
 1162TIP3    H227682   0.697   3.189  18.425
 1163TIP3   OH227683   1.417   3.486  18.943
 1163TIP3    H127684   1.497   3.447  18.911
 1163TIP3    H227685   1.349   3.421  18.925
 1164TIP3   OH227686   0.746   2.911  18.535
 1164TIP3    H127687   0.792   2.886  18.455
 1164TIP3    H227688   0.700   2.991  18.513
 1165TIP3   OH227689   0.825   2.613  18.281
 1165TIP3    H127690   0.856   2.704  18.286
 1165TIP3    H227691   0.738   2.620  18.242
 1166TIP3   OH227692   0.870   3.243  18.355
 1166TIP3    H127693   0.935   3.192  18.306
 1166TIP3    H227694   0.860   3.324  18.305
 1167TIP3   OH227695   1.427   3.077  18.746
 1167TIP3    H127696   1.449   2.984  18.737
 1167TIP3    H227697   1.509   3.123  18.729
 1168TIP3   OH227698   1.752   3.383  18.609
 1168TIP3    H127699   1.726   3.469  18.575
 1168TIP3    H227700   1.846   3.393  18.627
 1169TIP3   OH227701   0.738   2.893  18.808
 1169TIP3    H127702   0.643   2.889  18.818
 1169TIP3    H227703   0.752   2.904  18.714
 1170TIP3   OH227704   0.829   2.354  18.375
 1170TIP3    H127705   0.846   2.445  18.348
 1170TIP3    H227706   0.742   2.335  18.342
 1171TIP3   OH227707   1.177   2.771  18.727
 1171TIP3    H127708   1.171   2.742  18.818
 1171TIP3    H227709   1.109   2.721  18.682
 1172TIP3   OH227710   1.455   2.803  18.699
 1172TIP3    H127711   1.361   2.787  18.700
 1172TIP3    H227712   1.493   2.730  18.748
 1173TIP3   OH227713   1.534   2.584  18.847
 1173TIP3    H127714   1.552   2.491  18.841
 1173TIP3    H227715   1.505   2.597  18.937
 1174TIP3   OH227716   0.478   2.760  18.841
 1174TIP3    H127717   0.533   2.710  18.781
 1174TIP3    H227718   0.472   2.706  18.919
 1175TIP3   OH227719   1.019   2.361  18.582
 1175TIP3    H127720   1.047   2.273  18.606
 1175TIP3    H227721   0.955   2.347  18.512
 1176TIP3   OH227722   0.861   2.389  18.813
 1176TIP3    H127723   0.913   2.388  18.733
 1176TIP3    H227724   0.860   2.482  18.839
 1177TIP3   OH227725   0.133   3.800  17.135
 1177TIP3    H127726   0.157   3.868  17.199
 1177TIP3    H227727   0.217   3.765  17.104
 1178TIP3   OH227728   0.065   4.358  17.522
 1178TIP3    H127729   9.203   4.398  17.558
 1178TIP3    H227730   0.124   4.349  17.597
 1179TIP3   OH227731   0.221   4.284  17.753
 1179TIP3    H127732   0.148   4.229  17.780
 1179TIP3    H227733   0.263   4.311  17.835
 1180TIP3   OH227734   2.262   4.329  18.156
 1180TIP3    H127735   2.217   4.275  18.220
 1180TIP3    H227736   2.265   4.416  18.195
 1181TIP3   OH227737   2.134   4.192  18.359
 1181TIP3    H127738   2.068   4.134  18.321
 1181TIP3    H227739   2.155   4.152  18.444
 1182TIP3   OH227740   2.029   3.729  19.001
 1182TIP3    H127741   1.936   3.749  18.991
 1182TIP3    H227742   2.072   3.814  19.007
 1183TIP3   OH227743   2.109   3.506  17.305
 1183TIP3    H127744   2.183   3.567  17.307
 1183TIP3    H227745   2.099   3.478  17.396
 1184TIP3   OH227746   2.079   3.408  17.560
 1184TIP3    H127747   2.008   3.362  17.604
 1184TIP3    H227748   2.154   3.401  17.619
 1185TIP3   OH227749   2.306   3.551  18.136
 1185TIP3    H127750   2.333   3.460  18.121
 1185TIP3    H227751   2.349   3.600  18.065
 1186TIP3   OH227752   1.922   4.034  18.275
 1186TIP3    H127753   1.860   4.080  18.332
 1186TIP3    H227754   1.892   4.056  18.186
 1187TIP3   OH227755   2.252   3.316  17.155
 1187TIP3    H127756   2.307   3.365  17.094
 1187TIP3    H227757   2.213   3.384  17.212
 1188TIP3   OH227758   1.881   3.247  17.681
 1188TIP3    H127759   1.904   3.157  17.660
 1188TIP3    H227760   1.846   3.242  17.771
 1189TIP3   OH227761   0.199   3.332  17.959
 1189TIP3    H127762   0.236   3.420  17.968
 1189TIP3    H227763   0.258   3.277  18.010
 1190TIP3   OH227764   2.025   3.393  18.653
 1190TIP3    H127765   2.056   3.304  18.671
 1190TIP3    H227766   2.076   3.421  18.577
 1191TIP3   OH227767   2.158   3.147  18.648
 1191TIP3    H127768   2.091   3.080  18.631
 1191TIP3    H227769   2.216   3.107  18.712
 1192TIP3   OH227770   1.757   2.777  17.485
 1192TIP3    H127771   1.791   2.690  17.505
 1192TIP3    H227772   1.812   2.810  17.414
 1193TIP3   OH227773   2.003   2.969  18.032
 1193TIP3    H127774   2.094   2.987  18.009
 1193TIP3    H227775   2.001   2.974  18.128
 1194TIP3   OH227776   2.003   3.035  18.309
 1194TIP3    H127777   1.930   3.067  18.362
 1194TIP3    H227778   2.056   3.113  18.290
 1195TIP3   OH227779   0.292   2.708  18.633
 1195TIP3    H127780   0.332   2.748  18.710
 1195TIP3    H227781   0.302   2.614  18.647
 1196TIP3   OH227782   2.259   2.425  18.767
 1196TIP3    H127783   2.317   2.361  18.724
 1196TIP3    H227784   2.190   2.442  18.702
 1197TIP3   OH227785   1.865   2.527  17.516
 1197TIP3    H127786   1.934   2.491  17.571
 1197TIP3    H227787   1.828   2.451  17.470
 1198TIP3   OH227788   0.162   2.998  18.011
 1198TIP3    H127789   0.200   2.928  17.960
 1198TIP3    H227790   0.236   3.052  18.038
 1199TIP3   OH227791   2.052   2.501  18.597
 1199TIP3    H127792   1.986   2.568  18.583
 1199TIP3    H227793   2.025   2.429  18.539
 1200TIP3   OH227794   2.278   2.397  17.024
 1200TIP3    H127795   2.369   2.384  17.050
 1200TIP3    H227796   2.249   2.472  17.076
 1201TIP3   OH227797   1.864   4.281  17.770
 1201TIP3    H127798   1.918   4.275  17.691
 1201TIP3    H227799   1.883   4.368  17.806
 1202TIP3   OH227800   0.092   2.342  18.393
 1202TIP3    H127801   0.090   2.264  18.449
 1202TIP3    H227802   9.216   2.365  18.381
 1203TIP3   OH227803   0.376   3.913  18.551
 1203TIP3    H127804   0.397   3.837  18.497
 1203TIP3    H227805   0.307   3.883  18.610
 1204TIP3   OH227806   0.577   4.188  18.294
 1204TIP3    H127807   0.578   4.283  18.288
 1204TIP3    H227808   0.644   4.159  18.232
 1205TIP3   OH227809   1.186   4.411  18.649
 1205TIP3    H127810   1.206   4.325  18.687
 1205TIP3    H227811   1.249   4.420  18.577
 1206TIP3   OH227812   1.365   4.441  18.440
 1206TIP3    H127813   1.347   4.378  18.371
 1206TIP3    H227814   1.460   4.436  18.454
 1207TIP3   OH227815   1.953   2.287  18.444
 1207TIP3    H127816   1.884   2.299  18.378
 1207TIP3    H227817   2.023   2.241  18.398
 1208TIP3   OH227818   0.291   4.578  18.362
 1208TIP3    H127819   0.204   4.617  18.355
 1208TIP3    H227820   0.322   4.605  18.448
 1209TIP3   OH227821   0.526   4.457  18.270
 1209TIP3    H127822   0.450   4.508  18.299
 1209TIP3    H227823   0.575   4.516  18.213
 1210TIP3   OH227824   1.126   4.465  18.154
 1210TIP3    H127825   1.049   4.497  18.107
 1210TIP3    H227826   1.167   4.545  18.190
 1211TIP3   OH227827   1.316   4.272  18.231
 1211TIP3    H127828   1.259   4.334  18.186
 1211TIP3    H227829   1.369   4.233  18.161
 1212TIP3   OH227830   1.796   4.427  18.305
 1212TIP3    H127831   1.741   4.501  18.281
 1212TIP3    H227832   1.852   4.413  18.228
 1213TIP3   OH227833   0.366   4.326  17.984
 1213TIP3    H127834   0.335   4.311  18.073
 1213TIP3    H227835   0.432   4.259  17.970
 1214TIP3   OH227836   0.538   4.110  17.947
 1214TIP3    H127837   0.520   4.017  17.961
 1214TIP3    H227838   0.620   4.126  17.993
 1215TIP3   OH227839   0.769   4.106  18.103
 1215TIP3    H127840   0.795   4.022  18.066
 1215TIP3    H227841   0.852   4.147  18.130
 1216TIP3   OH227842   1.072   2.492  17.733
 1216TIP3    H127843   1.031   2.415  17.693
 1216TIP3    H227844   1.147   2.510  17.676
 1217TIP3   OH227845   1.862   2.239  17.761
 1217TIP3    H127846   1.923   2.308  17.736
 1217TIP3    H227847   1.777   2.271  17.731
 1218TIP3   OH227848   2.066   2.413  17.681
 1218TIP3    H127849   2.109   2.329  17.663
 1218TIP3    H227850   2.128   2.460  17.736
 1219TIP3   OH227851   0.834   2.157  17.604
 1219TIP3    H127852   0.847   2.228  17.542
 1219TIP3    H227853   0.845   2.198  17.690
 1220TIP3   OH227854   1.622   2.320  17.660
 1220TIP3    H127855   1.585   2.405  17.634
 1220TIP3    H227856   1.557   2.256  17.629
 1221TIP3   OH227857   1.757   2.327  17.336
 1221TIP3    H127858   1.701   2.378  17.277
 1221TIP3    H227859   1.708   2.247  17.353
 1222TIP3   OH227860   0.023   4.182  17.313
 1222TIP3    H127861   9.169   4.217  17.259
 1222TIP3    H227862   0.036   4.248  17.381
 1223TIP3   OH227863   0.876   2.379  17.428
 1223TIP3    H127864   0.810   2.424  17.482
 1223TIP3    H227865   0.887   2.435  17.352
 1224TIP3   OH227866   1.218   4.258  17.138
 1224TIP3    H127867   1.302   4.230  17.102
 1224TIP3    H227868   1.193   4.333  17.085
 1225TIP3   OH227869   1.995   4.291  17.520
 1225TIP3    H127870   1.988   4.213  17.464
 1225TIP3    H227871   1.978   4.364  17.460
 1226TIP3   OH227872   0.370   2.439  18.676
 1226TIP3    H127873   0.326   2.355  18.686
 1226TIP3    H227874   0.448   2.432  18.731
 1227TIP3   OH227875   0.585   2.374  18.848
 1227TIP3    H127876   0.679   2.374  18.831
 1227TIP3    H227877   0.563   2.281  18.860
 1228TIP3   OH227878   1.599   2.303  18.813
 1228TIP3    H127879   1.588   2.230  18.874
 1228TIP3    H227880   1.685   2.287  18.772
 1229TIP3   OH227881   1.897   4.167  18.692
 1229TIP3    H127882   1.848   4.169  18.610
 1229TIP3    H227883   1.917   4.259  18.711
 1230TIP3   OH227884   3.839   3.568  17.560
 1230TIP3    H127885   3.775   3.638  17.542
 1230TIP3    H227886   3.789   3.487  17.548
 1231TIP3   OH227887   3.330   3.281  18.159
 1231TIP3    H127888   3.417   3.243  18.175
 1231TIP3    H227889   3.301   3.240  18.078
 1232TIP3   OH227890   2.630   3.238  18.211
 1232TIP3    H127891   2.658   3.148  18.226
 1232TIP3    H227892   2.696   3.275  18.153
 1233TIP3   OH227893   2.833   3.802  18.078
 1233TIP3    H127894   2.816   3.728  18.019
 1233TIP3    H227895   2.909   3.845  18.041
 1234TIP3   OH227896   2.470   2.996  17.438
 1234TIP3    H127897   2.517   3.078  17.420
 1234TIP3    H227898   2.400   2.994  17.373
 1235TIP3   OH227899   2.497   3.255  17.847
 1235TIP3    H127900   2.505   3.160  17.841
 1235TIP3    H227901   2.559   3.288  17.782
 1236TIP3   OH227902   3.648   4.430  17.585
 1236TIP3    H127903   3.715   4.363  17.572
 1236TIP3    H227904   3.567   4.381  17.599
 1237TIP3   OH227905   3.271   3.551  18.193
 1237TIP3    H127906   3.299   3.462  18.173
 1237TIP3    H227907   3.350   3.595  18.222
 1238TIP3   OH227908   4.332   2.587  18.281
 1238TIP3    H127909   4.376   2.672  18.286
 1238TIP3    H227910   4.242   2.608  18.254
 1239TIP3   OH227911   3.798   3.024  18.104
 1239TIP3    H127912   3.804   2.928  18.107
 1239TIP3    H227913   3.824   3.046  18.015
 1240TIP3   OH227914   2.890   2.804  17.929
 1240TIP3    H127915   2.900   2.852  17.847
 1240TIP3    H227916   2.913   2.714  17.907
 1241TIP3   OH227917   3.925   2.810  17.850
 1241TIP3    H127918   4.003   2.769  17.888
 1241TIP3    H227919   3.859   2.740  17.850
 1242TIP3   OH227920   2.514   2.979  17.859
 1242TIP3    H127921   2.557   2.929  17.929
 1242TIP3    H227922   2.550   2.943  17.778
 1243TIP3   OH227923   2.975   3.194  17.855
 1243TIP3    H127924   3.067   3.178  17.875
 1243TIP3    H227925   2.948   3.118  17.805
 1244TIP3   OH227926   4.437   2.848  18.313
 1244TIP3    H127927   4.380   2.925  18.314
 1244TIP3    H227928   4.470   2.841  18.403
 1245TIP3   OH227929   2.741   2.641  18.243
 1245TIP3    H127930   2.698   2.696  18.178
 1245TIP3    H227931   2.673   2.623  18.308
 1246TIP3   OH227932   3.007   3.489  18.220
 1246TIP3    H127933   2.959   3.563  18.256
 1246TIP3    H227934   3.093   3.524  18.198
 1247TIP3   OH227935   4.168   2.743  17.972
 1247TIP3    H127936   4.245   2.708  17.926
 1247TIP3    H227937   4.189   2.834  17.989
 1248TIP3   OH227938   2.653   2.839  18.061
 1248TIP3    H127939   2.678   2.904  18.126
 1248TIP3    H227940   2.733   2.824  18.010
 1249TIP3   OH227941   2.862   3.704  18.328
 1249TIP3    H127942   2.845   3.743  18.242
 1249TIP3    H227943   2.776   3.677  18.359
 1250TIP3   OH227944   2.327   3.673  17.295
 1250TIP3    H127945   2.352   3.672  17.203
 1250TIP3    H227946   2.300   3.763  17.312
 1251TIP3   OH227947   4.053   2.674  18.212
 1251TIP3    H127948   3.960   2.690  18.197
 1251TIP3    H227949   4.095   2.693  18.128
 1252TIP3   OH227950   3.152   2.287  17.989
 1252TIP3    H127951   3.145   2.242  17.905
 1252TIP3    H227952   3.095   2.363  17.980
 1253TIP3   OH227953   4.222   3.770  18.407
 1253TIP3    H127954   4.222   3.702  18.339
 1253TIP3    H227955   4.198   3.850  18.360
 1254TIP3   OH227956   3.697   3.335  17.496
 1254TIP3    H127957   3.605   3.355  17.514
 1254TIP3    H227958   3.696   3.293  17.410
 1255TIP3   OH227959   3.518   3.226  17.097
 1255TIP3    H127960   3.594   3.218  17.155
 1255TIP3    H227961   3.443   3.213  17.155
 1256TIP3   OH227962   4.364   3.330  18.260
 1256TIP3    H127963   4.311   3.409  18.253
 1256TIP3    H227964   4.425   3.336  18.187
 1257TIP3   OH227965   4.068   3.453  17.453
 1257TIP3    H127966   3.999   3.498  17.501
 1257TIP3    H227967   4.107   3.394  17.518
 1258TIP3   OH227968   4.025   3.131  18.440
 1258TIP3    H127969   4.020   3.212  18.492
 1258TIP3    H227970   3.959   3.142  18.372
 1259TIP3   OH227971   2.932   3.440  17.711
 1259TIP3    H127972   2.868   3.431  17.640
 1259TIP3    H227973   2.941   3.351  17.747
 1260TIP3   OH227974   3.066   3.905  17.962
 1260TIP3    H127975   3.041   3.940  17.877
 1260TIP3    H227976   3.131   3.837  17.942
 1261TIP3   OH227977   2.841   3.332  18.060
 1261TIP3    H127978   2.889   3.284  17.992
 1261TIP3    H227979   2.909   3.376  18.111
 1262TIP3   OH227980   3.931   4.022  18.124
 1262TIP3    H127981   3.892   4.106  18.150
 1262TIP3    H227982   3.858   3.960  18.126
 1263TIP3   OH227983   3.061   3.813  18.484
 1263TIP3    H127984   2.999   3.878  18.517
 1263TIP3    H227985   3.011   3.763  18.419
 1264TIP3   OH227986   3.749   3.205  17.253
 1264TIP3    H127987   3.799   3.126  17.276
 1264TIP3    H227988   3.816   3.273  17.241
 1265TIP3   OH227989   2.697   3.364  18.456
 1265TIP3    H127990   2.679   3.457  18.444
 1265TIP3    H227991   2.660   3.322  18.378
 1266TIP3   OH227992   2.848   3.985  18.553
 1266TIP3    H127993   2.883   4.075  18.548
 1266TIP3    H227994   2.808   3.971  18.467
 1267TIP3   OH227995   2.752   3.433  17.499
 1267TIP3    H127996   2.697   3.508  17.476
 1267TIP3    H227997   2.775   3.393  17.415
 1268TIP3   OH227998   4.683   4.002  17.179
 1268TIP3    H127999   4.612   3.972  17.123
 1268TIP3    H228000   4.731   4.065  17.125
 1269TIP3   OH228001   2.341   3.603  18.407
 1269TIP3    H128002   2.327   3.596  18.312
 1269TIP3    H228003   2.309   3.520  18.442
 1270TIP3   OH228004   2.531   4.174  17.853
 1270TIP3    H128005   2.552   4.082  17.841
 1270TIP3    H228006   2.538   4.189  17.948
 1271TIP3   OH228007   4.272   3.917  18.648
 1271TIP3    H128008   4.239   3.879  18.566
 1271TIP3    H228009   4.247   4.009  18.643
 1272TIP3   OH228010   3.302   3.953  18.496
 1272TIP3    H128011   3.301   3.960  18.592
 1272TIP3    H228012   3.227   3.897  18.475
 1273TIP3   OH228013   3.317   4.476  17.440
 1273TIP3    H128014   3.379   4.411  17.407
 1273TIP3    H228015   3.369   4.557  17.446
 1274TIP3   OH228016   2.735   4.316  17.716
 1274TIP3    H128017   2.791   4.290  17.789
 1274TIP3    H228018   2.649   4.279  17.738
 1275TIP3   OH228019   4.161   2.949  18.599
 1275TIP3    H128020   4.108   3.008  18.545
 1275TIP3    H228021   4.150   2.863  18.559
 1276TIP3   OH228022   2.617   3.634  18.442
 1276TIP3    H128023   2.621   3.666  18.532
 1276TIP3    H228024   2.523   3.628  18.423
 1277TIP3   OH228025   2.779   2.407  18.099
 1277TIP3    H128026   2.839   2.425  18.026
 1277TIP3    H228027   2.782   2.486  18.153
 1278TIP3   OH228028   3.538   2.451  18.478
 1278TIP3    H128029   3.578   2.389  18.539
 1278TIP3    H228030   3.453   2.412  18.455
 1279TIP3   OH228031   3.827   2.762  18.543
 1279TIP3    H128032   3.788   2.750  18.629
 1279TIP3    H228033   3.820   2.856  18.526
 1280TIP3   OH228034   3.045   2.898  18.133
 1280TIP3    H128035   3.039   2.991  18.112
 1280TIP3    H228036   2.999   2.855  18.061
 1281TIP3   OH228037   2.897   2.969  17.704
 1281TIP3    H128038   2.812   2.943  17.670
 1281TIP3    H228039   2.959   2.945  17.635
 1282TIP3   OH228040   3.904   3.152  17.568
 1282TIP3    H128041   3.832   3.213  17.548
 1282TIP3    H228042   3.905   3.092  17.493
 1283TIP3   OH228043   3.437   3.032  18.604
 1283TIP3    H128044   3.364   2.993  18.652
 1283TIP3    H228045   3.509   3.033  18.668
 1284TIP3   OH228046   3.887   3.075  17.837
 1284TIP3    H128047   3.880   3.102  17.746
 1284TIP3    H228048   3.898   2.980  17.834
 1285TIP3   OH228049   2.764   2.997  18.273
 1285TIP3    H128050   2.808   3.063  18.326
 1285TIP3    H228051   2.805   2.914  18.300
 1286TIP3   OH228052   2.276   2.505  17.847
 1286TIP3    H128053   2.296   2.574  17.909
 1286TIP3    H228054   2.360   2.462  17.831
 1287TIP3   OH228055   2.421   2.803  17.152
 1287TIP3    H128056   2.492   2.818  17.090
 1287TIP3    H228057   2.387   2.890  17.172
 1288TIP3   OH228058   3.571   3.151  18.205
 1288TIP3    H128059   3.651   3.119  18.164
 1288TIP3    H228060   3.537   3.075  18.253
 1289TIP3   OH228061   3.246   2.589  17.766
 1289TIP3    H128062   3.153   2.572  17.782
 1289TIP3    H228063   3.288   2.571  17.850
 1290TIP3   OH228064   2.639   2.870  17.635
 1290TIP3    H128065   2.583   2.893  17.561
 1290TIP3    H228066   2.649   2.775  17.628
 1291TIP3   OH228067   3.077   2.891  17.509
 1291TIP3    H128068   3.164   2.864  17.540
 1291TIP3    H228069   3.070   2.851  17.422
 1292TIP3   OH228070   3.785   2.732  18.130
 1292TIP3    H128071   3.715   2.717  18.195
 1292TIP3    H228072   3.748   2.701  18.048
 1293TIP3   OH228073   4.282   4.444  18.695
 1293TIP3    H128074   4.301   4.471  18.605
 1293TIP3    H228075   4.339   4.498  18.749
 1294TIP3   OH228076   2.625   3.716  18.714
 1294TIP3    H128077   2.645   3.623  18.728
 1294TIP3    H228078   2.530   3.722  18.728
 1295TIP3   OH228079   3.241   3.132  17.928
 1295TIP3    H128080   3.297   3.126  17.851
 1295TIP3    H228081   3.272   3.061  17.985
 1296TIP3   OH228082   2.710   2.574  17.679
 1296TIP3    H128083   2.678   2.484  17.677
 1296TIP3    H228084   2.791   2.570  17.730
 1297TIP3   OH228085   3.319   2.947  18.111
 1297TIP3    H128086   3.237   2.904  18.135
 1297TIP3    H228087   3.375   2.937  18.189
 1298TIP3   OH228088   3.430   3.398  17.512
 1298TIP3    H128089   3.365   3.374  17.446
 1298TIP3    H228090   3.381   3.451  17.576
 1299TIP3   OH228091   4.233   3.579  18.208
 1299TIP3    H128092   4.302   3.601  18.146
 1299TIP3    H228093   4.166   3.536  18.155
 1300TIP3   OH228094   3.546   3.814  18.509
 1300TIP3    H128095   3.528   3.790  18.600
 1300TIP3    H228096   3.474   3.873  18.486
 1301TIP3   OH228097   3.920   2.997  17.325
 1301TIP3    H128098   4.015   2.988  17.321
 1301TIP3    H228099   3.887   2.914  17.289
 1302TIP3   OH228100   2.813   3.577  17.923
 1302TIP3    H128101   2.856   3.550  17.842
 1302TIP3    H228102   2.804   3.496  17.973
 1303TIP3   OH228103   2.232   3.356  18.468
 1303TIP3    H128104   2.230   3.280  18.526
 1303TIP3    H228105   2.200   3.323  18.384
 1304TIP3   OH228106   3.223   3.256  18.624
 1304TIP3    H128107   3.191   3.272  18.535
 1304TIP3    H228108   3.294   3.193  18.613
 1305TIP3   OH228109   3.821   3.826  18.572
 1305TIP3    H128110   3.736   3.818  18.528
 1305TIP3    H228111   3.804   3.883  18.646
 1306TIP3   OH228112   4.464   2.825  17.386
 1306TIP3    H128113   4.520   2.767  17.439
 1306TIP3    H228114   4.471   2.790  17.297
 1307TIP3   OH228115   4.464   3.694  18.547
 1307TIP3    H128116   4.392   3.710  18.486
 1307TIP3    H228117   4.530   3.649  18.494
 1308TIP3   OH228118   4.061   3.436  18.050
 1308TIP3    H128119   3.966   3.432  18.037
 1308TIP3    H228120   4.096   3.360  18.003
 1309TIP3   OH228121   2.965   4.013  17.726
 1309TIP3    H128122   2.980   4.087  17.667
 1309TIP3    H228123   2.934   3.943  17.669
 1310TIP3   OH228124   3.184   3.507  17.601
 1310TIP3    H128125   3.171   3.469  17.514
 1310TIP3    H228126   3.100   3.494  17.645
 1311TIP3   OH228127   3.195   4.169  18.363
 1311TIP3    H128128   3.261   4.238  18.354
 1311TIP3    H228129   3.242   4.096  18.402
 1312TIP3   OH228130   2.965   4.242  17.569
 1312TIP3    H128131   2.877   4.268  17.595
 1312TIP3    H228132   3.020   4.317  17.593
 1313TIP3   OH228133   3.512   3.642  18.292
 1313TIP3    H128134   3.530   3.703  18.363
 1313TIP3    H228135   3.587   3.582  18.292
 1314TIP3   OH228136   4.012   4.231  18.434
 1314TIP3    H128137   3.923   4.211  18.407
 1314TIP3    H228138   4.040   4.301  18.376
 1315TIP3   OH228139   4.550   4.460  17.292
 1315TIP3    H128140   4.572   4.381  17.342
 1315TIP3    H228141   4.620   4.468  17.227
 1316TIP3   OH228142   2.541   2.594  18.421
 1316TIP3    H128143   2.450   2.601  18.390
 1316TIP3    H228144   2.533   2.599  18.517
 1317TIP3   OH228145   3.928   3.410  17.220
 1317TIP3    H128146   3.989   3.409  17.294
 1317TIP3    H228147   3.908   3.502  17.207
 1318TIP3   OH228148   2.515   4.225  18.125
 1318TIP3    H128149   2.524   4.168  18.201
 1318TIP3    H228150   2.429   4.266  18.135
 1319TIP3   OH228151   2.883   4.034  17.188
 1319TIP3    H128152   2.918   4.020  17.100
 1319TIP3    H228153   2.953   4.078  17.235
 1320TIP3   OH228154   2.597   3.632  17.385
 1320TIP3    H128155   2.504   3.634  17.361
 1320TIP3    H228156   2.636   3.705  17.336
 1321TIP3   OH228157   3.624   2.689  18.365
 1321TIP3    H128158   3.702   2.701  18.420
 1321TIP3    H228159   3.586   2.607  18.395
 1322TIP3   OH228160   3.721   2.629  17.354
 1322TIP3    H128161   3.772   2.685  17.296
 1322TIP3    H228162   3.737   2.540  17.322
 1323TIP3   OH228163   3.322   2.787  17.592
 1323TIP3    H128164   3.417   2.774  17.588
 1323TIP3    H228165   3.291   2.719  17.651
 1324TIP3   OH228166   3.474   2.929  18.343
 1324TIP3    H128167   3.459   2.960  18.432
 1324TIP3    H228168   3.520   2.845  18.354
 1325TIP3   OH228169   3.586   2.653  17.598
 1325TIP3    H128170   3.534   2.575  17.580
 1325TIP3    H228171   3.642   2.663  17.521
 1326TIP3   OH228172   3.083   4.168  17.328
 1326TIP3    H128173   3.172   4.146  17.354
 1326TIP3    H228174   3.038   4.189  17.410
 1327TIP3   OH228175   4.096   2.704  18.486
 1327TIP3    H128176   4.004   2.705  18.512
 1327TIP3    H228177   4.094   2.690  18.391
 1328TIP3   OH228178   4.115   3.203  17.915
 1328TIP3    H128179   4.032   3.160  17.895
 1328TIP3    H228180   4.169   3.134  17.955
 1329TIP3   OH228181   2.674   3.851  17.232
 1329TIP3    H128182   2.743   3.916  17.223
 1329TIP3    H228183   2.629   3.852  17.148
 1330TIP3   OH228184   2.626   2.864  16.966
 1330TIP3    H128185   2.684   2.793  16.994
 1330TIP3    H228186   2.684   2.940  16.958
 1331TIP3   OH228187   4.263   4.423  18.053
 1331TIP3    H128188   4.249   4.442  17.960
 1331TIP3    H228189   4.349   4.380  18.056
 1332TIP3   OH228190   2.550   2.413  17.940
 1332TIP3    H128191   2.580   2.369  17.861
 1332TIP3    H228192   2.621   2.401  18.003
 1333TIP3   OH228193   2.207   3.923  17.363
 1333TIP3    H128194   2.247   3.928  17.450
 1333TIP3    H228195   2.232   4.005  17.321
 1334TIP3   OH228196   2.416   4.458  18.726
 1334TIP3    H128197   2.472   4.405  18.782
 1334TIP3    H228198   2.363   4.394  18.678
 1335TIP3   OH228199   2.894   4.319  18.828
 1335TIP3    H128200   2.974   4.344  18.875
 1335TIP3    H228201   2.923   4.303  18.738
 1336TIP3   OH228202   3.738   3.979  18.797
 1336TIP3    H128203   3.731   3.904  18.857
 1336TIP3    H228204   3.816   4.026  18.827
 1337TIP3   OH228205   2.350   3.728  18.750
 1337TIP3    H128206   2.300   3.654  18.784
 1337TIP3    H228207   2.297   3.763  18.678
 1338TIP3   OH228208   3.191   3.682  18.686
 1338TIP3    H128209   3.153   3.713  18.604
 1338TIP3    H228210   3.220   3.593  18.666
 1339TIP3   OH228211   4.024   3.631  18.560
 1339TIP3    H128212   4.090   3.679  18.510
 1339TIP3    H228213   3.951   3.694  18.569
 1340TIP3   OH228214   2.656   3.448  18.730
 1340TIP3    H128215   2.673   3.396  18.651
 1340TIP3    H228216   2.614   3.386  18.790
 1341TIP3   OH228217   3.202   3.352  17.353
 1341TIP3    H128218   3.149   3.273  17.356
 1341TIP3    H228219   3.211   3.371  17.260
 1342TIP3   OH228220   2.900   3.170  18.441
 1342TIP3    H128221   2.842   3.244  18.459
 1342TIP3    H228222   2.983   3.211  18.416
 1343TIP3   OH228223   3.235   3.365  17.078
 1343TIP3    H128224   3.172   3.389  17.011
 1343TIP3    H228225   3.318   3.354  17.031
 1344TIP3   OH228226   3.741   3.491  18.935
 1344TIP3    H128227   3.826   3.453  18.912
 1344TIP3    H228228   3.682   3.416  18.940
 1345TIP3   OH228229   2.973   2.943  18.585
 1345TIP3    H128230   2.969   2.880  18.513
 1345TIP3    H228231   2.950   3.027  18.545
 1346TIP3   OH228232   2.939   2.790  18.360
 1346TIP3    H128233   2.994   2.817  18.286
 1346TIP3    H228234   2.886   2.718  18.327
 1347TIP3   OH228235   3.137   3.291  18.361
 1347TIP3    H128236   3.211   3.273  18.303
 1347TIP3    H228237   3.090   3.363  18.318
 1348TIP3   OH228238   3.667   3.016  18.777
 1348TIP3    H128239   3.678   2.923  18.794
 1348TIP3    H228240   3.751   3.044  18.741
 1349TIP3   OH228241   4.040   3.359  18.601
 1349TIP3    H128242   4.024   3.451  18.582
 1349TIP3    H228243   4.135   3.353  18.615
 1350TIP3   OH228244   2.867   2.877  18.827
 1350TIP3    H128245   2.808   2.802  18.818
 1350TIP3    H228246   2.894   2.898  18.738
 1351TIP3   OH228247   3.288   2.344  18.399
 1351TIP3    H128248   3.230   2.408  18.358
 1351TIP3    H228249   3.289   2.269  18.339
 1352TIP3   OH228250   3.215   2.941  18.733
 1352TIP3    H128251   3.189   2.892  18.810
 1352TIP3    H228252   3.136   2.946  18.679
 1353TIP3   OH228253   3.717   2.740  18.799
 1353TIP3    H128254   3.636   2.704  18.836
 1353TIP3    H228255   3.786   2.681  18.829
 1354TIP3   OH228256   3.896   2.541  18.898
 1354TIP3    H128257   3.890   2.448  18.876
 1354TIP3    H228258   3.849   2.550  18.981
 1355TIP3   OH228259   2.552   2.634  18.956
 1355TIP3    H128260   2.551   2.614  18.863
 1355TIP3    H228261   2.644   2.629  18.981
 1356TIP3   OH228262   3.261   2.308  18.673
 1356TIP3    H128263   3.321   2.236  18.691
 1356TIP3    H228264   3.260   2.316  18.578
 1357TIP3   OH228265   3.265   2.517  18.844
 1357TIP3    H128266   3.265   2.438  18.791
 1357TIP3    H228267   3.238   2.587  18.784
 1358TIP3   OH228268   2.167   4.458  17.670
 1358TIP3    H128269   2.119   4.393  17.619
 1358TIP3    H228270   2.211   4.408  17.739
 1359TIP3   OH228271   2.286   4.316  17.871
 1359TIP3    H128272   2.367   4.268  17.855
 1359TIP3    H228273   2.278   4.317  17.966
 1360TIP3   OH228274   4.509   4.319  18.173
 1360TIP3    H128275   4.459   4.284  18.248
 1360TIP3    H228276   4.549   4.399  18.206
 1361TIP3   OH228277   4.337   4.217  18.373
 1361TIP3    H128278   4.292   4.148  18.325
 1361TIP3    H228279   4.320   4.197  18.465
 1362TIP3   OH228280   4.276   3.724  18.926
 1362TIP3    H128281   4.190   3.765  18.931
 1362TIP3    H228282   4.303   3.711  19.017
 1363TIP3   OH228283   4.640   3.396  17.511
 1363TIP3    H128284   4.613   3.482  17.544
 1363TIP3    H228285   4.568   3.337  17.536
 1364TIP3   OH228286   4.430   3.241  17.609
 1364TIP3    H128287   4.334   3.247  17.610
 1364TIP3    H228288   4.454   3.224  17.700
 1365TIP3   OH228289   4.447   3.617  18.044
 1365TIP3    H128290   4.487   3.530  18.045
 1365TIP3    H228291   4.518   3.676  18.020
 1366TIP3   OH228292   4.142   4.018  18.306
 1366TIP3    H128293   4.096   4.079  18.364
 1366TIP3    H228294   4.083   4.008  18.231
 1367TIP3   OH228295   4.150   3.262  17.645
 1367TIP3    H128296   4.074   3.214  17.612
 1367TIP3    H228297   4.146   3.253  17.740
 1368TIP3   OH228298   2.384   3.288  18.090
 1368TIP3    H128299   2.418   3.287  18.001
 1368TIP3    H228300   2.460   3.269  18.146
 1369TIP3   OH228301   4.310   3.330  18.664
 1369TIP3    H128302   4.330   3.237  18.670
 1369TIP3    H228303   4.377   3.365  18.606
 1370TIP3   OH228304   4.410   3.071  18.614
 1370TIP3    H128305   4.322   3.033  18.605
 1370TIP3    H228306   4.469   2.996  18.612
 1371TIP3   OH228307   4.192   2.934  17.286
 1371TIP3    H128308   4.170   2.879  17.210
 1371TIP3    H228309   4.271   2.894  17.321
 1372TIP3   OH228310   4.248   2.997  18.041
 1372TIP3    H128311   4.340   2.978  18.025
 1372TIP3    H228312   4.243   3.018  18.134
 1373TIP3   OH228313   4.267   3.074  18.306
 1373TIP3    H128314   4.185   3.090  18.354
 1373TIP3    H228315   4.304   3.161  18.292
 1374TIP3   OH228316   2.232   2.717  18.584
 1374TIP3    H128317   2.286   2.712  18.663
 1374TIP3    H228318   2.179   2.637  18.587
 1375TIP3   OH228319   4.447   2.402  18.799
 1375TIP3    H128320   4.531   2.374  18.761
 1375TIP3    H228321   4.414   2.467  18.736
 1376TIP3   OH228322   2.437   2.645  18.040
 1376TIP3    H128323   2.483   2.568  18.007
 1376TIP3    H228324   2.503   2.715  18.037
 1377TIP3   OH228325   2.264   3.043  17.982
 1377TIP3    H128326   2.335   3.006  17.930
 1377TIP3    H228327   2.303   3.120  18.025
 1378TIP3   OH228328   4.316   2.616  18.654
 1378TIP3    H128329   4.262   2.627  18.732
 1378TIP3    H228330   4.256   2.629  18.581
 1379TIP3   OH228331   2.304   2.576  17.243
 1379TIP3    H128332   2.283   2.603  17.333
 1379TIP3    H228333   2.344   2.653  17.204
 1380TIP3   OH228334   2.301   2.348  18.402
 1380TIP3    H128335   2.240   2.288  18.360
 1380TIP3    H228336   2.289   2.431  18.356
 1381TIP3   OH228337   2.590   4.024  18.784
 1381TIP3    H128338   2.525   4.033  18.715
 1381TIP3    H228339   2.600   4.113  18.819
 1382TIP3   OH228340   2.960   4.239  18.500
 1382TIP3    H128341   2.937   4.323  18.461
 1382TIP3    H228342   3.040   4.212  18.455
 1383TIP3   OH228343   3.387   4.377  18.744
 1383TIP3    H128344   3.416   4.286  18.757
 1383TIP3    H228345   3.468   4.424  18.722
 1384TIP3   OH228346   3.621   4.506  18.659
 1384TIP3    H128347   3.674   4.461  18.594
 1384TIP3    H228348   3.684   4.540  18.722
 1385TIP3   OH228349   4.250   2.179  18.474
 1385TIP3    H128350   4.185   2.188  18.404
 1385TIP3    H228351   4.294   2.096  18.455
 1386TIP3   OH228352   2.708   4.577  18.402
 1386TIP3    H128353   2.636   4.575  18.338
 1386TIP3    H228354   2.667   4.610  18.482
 1387TIP3   OH228355   2.973   4.541  18.342
 1387TIP3    H128356   2.882   4.552  18.369
 1387TIP3    H228357   2.975   4.568  18.250
 1388TIP3   OH228358   3.598   4.413  18.237
 1388TIP3    H128359   3.546   4.427  18.158
 1388TIP3    H228360   3.549   4.458  18.306
 1389TIP3   OH228361   3.825   4.257  18.223
 1389TIP3    H128362   3.742   4.305  18.227
 1389TIP3    H228363   3.891   4.325  18.211
 1390TIP3   OH228364   4.055   4.419  18.235
 1390TIP3    H128365   4.072   4.512  18.253
 1390TIP3    H228366   4.116   4.397  18.165
 1391TIP3   OH228367   2.717   4.396  18.035
 1391TIP3    H128368   2.647   4.343  18.074
 1391TIP3    H228369   2.780   4.332  18.003
 1392TIP3   OH228370   2.881   4.201  17.920
 1392TIP3    H128371   2.906   4.130  17.861
 1392TIP3    H228372   2.934   4.187  17.999
 1393TIP3   OH228373   3.040   4.129  18.130
 1393TIP3    H128374   3.065   4.045  18.092
 1393TIP3    H228375   3.094   4.138  18.208
 1394TIP3   OH228376   3.714   2.628  17.854
 1394TIP3    H128377   3.723   2.534  17.839
 1394TIP3    H228378   3.666   2.661  17.778
 1395TIP3   OH228379   4.186   2.197  17.756
 1395TIP3    H128380   4.249   2.249  17.707
 1395TIP3    H228381   4.102   2.212  17.712
 1396TIP3   OH228382   4.340   2.365  17.590
 1396TIP3    H128383   4.433   2.382  17.574
 1396TIP3    H228384   4.295   2.445  17.564
 1397TIP3   OH228385   2.646   2.281  17.715
 1397TIP3    H128386   2.599   2.237  17.645
 1397TIP3    H228387   2.717   2.221  17.738
 1398TIP3   OH228388   2.514   2.404  17.172
 1398TIP3    H128389   2.593   2.449  17.201
 1398TIP3    H228390   2.442   2.455  17.210
 1399TIP3   OH228391   3.087   2.262  17.710
 1399TIP3    H128392   3.147   2.313  17.656
 1399TIP3    H228393   3.029   2.327  17.749
 1400TIP3   OH228394   2.263   4.167  17.261
 1400TIP3    H128395   2.194   4.227  17.233
 1400TIP3    H228396   2.344   4.214  17.243
 1401TIP3   OH228397   2.718   2.556  17.263
 1401TIP3    H128398   2.745   2.610  17.189
 1401TIP3    H228399   2.768   2.590  17.337
 1402TIP3   OH228400   3.259   2.521  17.143
 1402TIP3    H128401   3.322   2.572  17.195
 1402TIP3    H228402   3.181   2.576  17.139
 1403TIP3   OH228403   3.489   4.281  17.344
 1403TIP3    H128404   3.581   4.290  17.369
 1403TIP3    H228405   3.487   4.207  17.284
 1404TIP3   OH228406   4.355   4.460  17.511
 1404TIP3    H128407   4.407   4.488  17.435
 1404TIP3    H228408   4.298   4.534  17.530
 1405TIP3   OH228409   2.574   2.532  18.700
 1405TIP3    H128410   2.520   2.453  18.694
 1405TIP3    H228411   2.663   2.500  18.713
 1406TIP3   OH228412   2.795   2.377  18.780
 1406TIP3    H128413   2.866   2.341  18.727
 1406TIP3    H228414   2.747   2.301  18.813
 1407TIP3   OH228415   3.893   2.267  18.826
 1407TIP3    H128416   3.870   2.193  18.882
 1407TIP3    H228417   3.980   2.245  18.791
 1408TIP3   OH228418   4.204   4.185  18.628
 1408TIP3    H128419   4.127   4.206  18.574
 1408TIP3    H228420   4.229   4.269  18.667
 1409TIP3   OH228421   5.934   3.530  17.696
 1409TIP3    H128422   5.883   3.610  17.680
 1409TIP3    H228423   5.882   3.460  17.657
 1410TIP3   OH228424   6.017   3.274  17.986
 1410TIP3    H128425   5.979   3.208  18.043
 1410TIP3    H228426   5.942   3.322  17.951
 1411TIP3   OH228427   4.774   3.318  18.238
 1411TIP3    H128428   4.828   3.249  18.200
 1411TIP3    H228429   4.805   3.324  18.329
 1412TIP3   OH228430   6.171   3.632  17.805
 1412TIP3    H128431   6.084   3.599  17.783
 1412TIP3    H228432   6.219   3.554  17.834
 1413TIP3   OH228433   5.101   3.919  18.014
 1413TIP3    H128434   5.088   3.834  17.972
 1413TIP3    H228435   5.196   3.934  18.010
 1414TIP3   OH228436   4.577   3.068  17.441
 1414TIP3    H128437   4.515   3.119  17.494
 1414TIP3    H228438   4.528   2.989  17.418
 1415TIP3   OH228439   4.607   3.215  17.838
 1415TIP3    H128440   4.635   3.128  17.866
 1415TIP3    H228441   4.668   3.238  17.768
 1416TIP3   OH228442   5.923   4.149  18.055
 1416TIP3    H128443   5.976   4.119  17.982
 1416TIP3    H228444   5.954   4.098  18.130
 1417TIP3   OH228445   5.510   3.701  18.066
 1417TIP3    H128446   5.561   3.679  17.988
 1417TIP3    H228447   5.573   3.691  18.138
 1418TIP3   OH228448   6.744   2.562  18.149
 1418TIP3    H128449   6.728   2.642  18.200
 1418TIP3    H228450   6.815   2.586  18.089
 1419TIP3   OH228451   6.106   2.900  18.087
 1419TIP3    H128452   6.119   2.805  18.095
 1419TIP3    H228453   6.129   2.919  17.996
 1420TIP3   OH228454   5.206   2.810  17.850
 1420TIP3    H128455   5.215   2.878  17.784
 1420TIP3    H228456   5.269   2.743  17.824
 1421TIP3   OH228457   6.176   2.819  17.569
 1421TIP3    H128458   6.149   2.733  17.536
 1421TIP3    H228459   6.128   2.881  17.515
 1422TIP3   OH228460   4.736   2.971  17.884
 1422TIP3    H128461   4.827   2.958  17.910
 1422TIP3    H228462   4.732   2.941  17.793
 1423TIP3   OH228463   5.308   3.254  17.743
 1423TIP3    H128464   5.390   3.261  17.695
 1423TIP3    H228465   5.274   3.168  17.719
 1424TIP3   OH228466   6.704   2.793  18.303
 1424TIP3    H128467   6.686   2.886  18.292
 1424TIP3    H228468   6.772   2.790  18.371
 1425TIP3   OH228469   5.149   2.657  18.241
 1425TIP3    H128470   5.132   2.737  18.191
 1425TIP3    H228471   5.086   2.660  18.313
 1426TIP3   OH228472   5.811   3.775  17.623
 1426TIP3    H128473   5.806   3.764  17.528
 1426TIP3    H228474   5.895   3.817  17.639
 1427TIP3   OH228475   5.285   3.557  18.131
 1427TIP3    H128476   5.231   3.618  18.182
 1427TIP3    H228477   5.363   3.608  18.108
 1428TIP3   OH228478   5.121   2.896  18.098
 1428TIP3    H128479   5.195   2.950  18.125
 1428TIP3    H228480   5.145   2.866  18.010
 1429TIP3   OH228481   5.120   3.740  18.263
 1429TIP3    H128482   5.085   3.801  18.198
 1429TIP3    H228483   5.043   3.715  18.315
 1430TIP3   OH228484   4.800   3.865  17.394
 1430TIP3    H128485   4.757   3.910  17.321
 1430TIP3    H228486   4.803   3.931  17.463
 1431TIP3   OH228487   6.300   4.000  18.069
 1431TIP3    H128488   6.298   3.967  18.158
 1431TIP3    H228489   6.279   3.925  18.014
 1432TIP3   OH228490   6.290   2.368  18.173
 1432TIP3    H128491   6.247   2.390  18.091
 1432TIP3    H228492   6.267   2.440  18.232
 1433TIP3   OH228493   5.540   2.223  18.134
 1433TIP3    H128494   5.472   2.256  18.077
 1433TIP3    H228495   5.516   2.256  18.221
 1434TIP3   OH228496   6.073   4.183  17.509
 1434TIP3    H128497   6.114   4.107  17.551
 1434TIP3    H228498   6.145   4.241  17.487
 1435TIP3   OH228499   6.081   3.840  17.636
 1435TIP3    H128500   6.110   3.816  17.548
 1435TIP3    H228501   6.130   3.783  17.694
 1436TIP3   OH228502   6.561   3.741  18.422
 1436TIP3    H128503   6.544   3.669  18.361
 1436TIP3    H228504   6.482   3.796  18.417
 1437TIP3   OH228505   5.814   3.322  17.556
 1437TIP3    H128506   5.719   3.334  17.561
 1437TIP3    H228507   5.833   3.325  17.462
 1438TIP3   OH228508   6.681   3.304  18.240
 1438TIP3    H128509   6.624   3.381  18.239
 1438TIP3    H228510   6.721   3.303  18.153
 1439TIP3   OH228511   6.160   3.396  17.599
 1439TIP3    H128512   6.083   3.445  17.625
 1439TIP3    H228513   6.206   3.378  17.681
 1440TIP3   OH228514   6.377   3.161  18.462
 1440TIP3    H128515   6.372   3.239  18.517
 1440TIP3    H228516   6.305   3.171  18.400
 1441TIP3   OH228517   5.194   3.505  17.703
 1441TIP3    H128518   5.145   3.492  17.621
 1441TIP3    H228519   5.230   3.418  17.722
 1442TIP3   OH228520   5.384   3.925  17.958
 1442TIP3    H128521   5.432   3.913  17.876
 1442TIP3    H228522   5.420   3.859  18.017
 1443TIP3   OH228523   5.309   3.286  18.029
 1443TIP3    H128524   5.307   3.283  17.933
 1443TIP3    H228525   5.298   3.379  18.050
 1444TIP3   OH228526   6.005   4.018  18.288
 1444TIP3    H128527   5.952   3.951  18.332
 1444TIP3    H228528   6.095   3.988  18.300
 1445TIP3   OH228529   5.285   3.859  18.456
 1445TIP3    H128530   5.224   3.927  18.486
 1445TIP3    H228531   5.238   3.815  18.385
 1446TIP3   OH228532   6.154   3.241  17.372
 1446TIP3    H128533   6.159   3.272  17.462
 1446TIP3    H228534   6.163   3.320  17.318
 1447TIP3   OH228535   4.900   3.319  18.482
 1447TIP3    H128536   4.984   3.279  18.458
 1447TIP3    H228537   4.902   3.323  18.578
 1448TIP3   OH228538   5.831   4.229  17.393
 1448TIP3    H128539   5.913   4.205  17.436
 1448TIP3    H228540   5.826   4.324  17.401
 1449TIP3   OH228541   5.103   4.064  18.519
 1449TIP3    H128542   5.143   4.133  18.467
 1449TIP3    H228543   5.025   4.038  18.470
 1450TIP3   OH228544   5.045   3.435  17.470
 1450TIP3    H128545   5.013   3.509  17.417
 1450TIP3    H228546   4.965   3.392  17.502
 1451TIP3   OH228547   6.801   4.017  17.174
 1451TIP3    H128548   6.714   4.008  17.135
 1451TIP3    H228549   6.794   4.092  17.233
 1452TIP3   OH228550   4.660   3.538  18.403
 1452TIP3    H128551   4.695   3.501  18.322
 1452TIP3    H228552   4.624   3.463  18.451
 1453TIP3   OH228553   4.610   4.103  18.026
 1453TIP3    H128554   4.695   4.083  18.064
 1453TIP3    H228555   4.577   4.176  18.079
 1454TIP3   OH228556   6.694   4.172  18.694
 1454TIP3    H128557   6.709   4.079  18.715
 1454TIP3    H228558   6.602   4.186  18.712
 1455TIP3   OH228559   5.489   4.052  18.466
 1455TIP3    H128560   5.510   4.050  18.560
 1455TIP3    H228561   5.430   3.979  18.452
 1456TIP3   OH228562   5.813   4.499  17.307
 1456TIP3    H128563   5.752   4.459  17.245
 1456TIP3    H228564   5.898   4.497  17.263
 1457TIP3   OH228565   5.008   4.258  17.635
 1457TIP3    H128566   5.045   4.226  17.717
 1457TIP3    H228567   4.946   4.191  17.608
 1458TIP3   OH228568   6.551   3.008  18.618
 1458TIP3    H128569   6.490   3.066  18.573
 1458TIP3    H228570   6.545   2.925  18.572
 1459TIP3   OH228571   4.898   3.692  18.443
 1459TIP3    H128572   4.930   3.664  18.529
 1459TIP3    H228573   4.821   3.638  18.428
 1460TIP3   OH228574   5.851   2.244  18.368
 1460TIP3    H128575   5.908   2.209  18.436
 1460TIP3    H228576   5.770   2.267  18.413
 1461TIP3   OH228577   6.214   2.797  18.410
 1461TIP3    H128578   6.166   2.793  18.493
 1461TIP3    H228579   6.193   2.884  18.375
 1462TIP3   OH228580   5.306   3.075  18.202
 1462TIP3    H128581   5.254   3.117  18.270
 1462TIP3    H228582   5.319   3.143  18.136
 1463TIP3   OH228583   5.215   3.003  17.644
 1463TIP3    H128584   5.126   2.992  17.610
 1463TIP3    H228585   5.271   2.967  17.575
 1464TIP3   OH228586   5.951   3.102  17.672
 1464TIP3    H128587   5.908   3.184  17.648
 1464TIP3    H228588   5.973   3.061  17.589
 1465TIP3   OH228589   5.800   2.902  18.642
 1465TIP3    H128590   5.724   2.859  18.681
 1465TIP3    H228591   5.825   2.968  18.708
 1466TIP3   OH228592   6.157   2.962  17.813
 1466TIP3    H128593   6.088   3.022  17.784
 1466TIP3    H228594   6.169   2.902  17.739
 1467TIP3   OH228595   4.963   3.115  18.197
 1467TIP3    H128596   5.023   3.140  18.267
 1467TIP3    H228597   5.001   3.035  18.161
 1468TIP3   OH228598   5.893   3.067  18.130
 1468TIP3    H128599   5.968   3.007  18.126
 1468TIP3    H228600   5.844   3.038  18.207
 1469TIP3   OH228601   5.642   2.765  17.820
 1469TIP3    H128602   5.575   2.813  17.771
 1469TIP3    H228603   5.704   2.833  17.848
 1470TIP3   OH228604   4.728   2.906  17.619
 1470TIP3    H128605   4.690   2.964  17.553
 1470TIP3    H228606   4.704   2.818  17.589
 1471TIP3   OH228607   5.358   2.893  17.441
 1471TIP3    H128608   5.441   2.847  17.451
 1471TIP3    H228609   5.340   2.892  17.347
 1472TIP3   OH228610   6.155   2.490  17.967
 1472TIP3    H128611   6.132   2.551  18.037
 1472TIP3    H228612   6.072   2.449  17.943
 1473TIP3   OH228613   5.080   2.888  17.145
 1473TIP3    H128614   5.053   2.798  17.163
 1473TIP3    H228615   5.174   2.888  17.158
 1474TIP3   OH228616   6.459   4.508  18.744
 1474TIP3    H128617   6.496   4.517  18.657
 1474TIP3    H228618   6.525   4.545  18.802
 1475TIP3   OH228619   4.962   3.600  18.699
 1475TIP3    H128620   5.037   3.630  18.750
 1475TIP3    H228621   4.960   3.505  18.714
 1476TIP3   OH228622   5.798   2.982  17.876
 1476TIP3    H128623   5.851   3.029  17.811
 1476TIP3    H228624   5.824   3.021  17.959
 1477TIP3   OH228625   5.481   2.904  18.334
 1477TIP3    H128626   5.425   2.959  18.279
 1477TIP3    H228627   5.568   2.943  18.325
 1478TIP3   OH228628   5.545   3.378  17.555
 1478TIP3    H128629   5.471   3.369  17.495
 1478TIP3    H228630   5.526   3.459  17.603
 1479TIP3   OH228631   6.516   3.533  18.231
 1479TIP3    H128632   6.551   3.586  18.159
 1479TIP3    H228633   6.421   3.532  18.216
 1480TIP3   OH228634   5.797   3.708  18.500
 1480TIP3    H128635   5.771   3.679  18.588
 1480TIP3    H228636   5.879   3.756  18.514
 1481TIP3   OH228637   6.030   3.002  17.419
 1481TIP3    H128638   6.079   3.081  17.396
 1481TIP3    H228639   5.985   2.977  17.339
 1482TIP3   OH228640   5.121   3.662  17.920
 1482TIP3    H128641   5.135   3.615  17.838
 1482TIP3    H228642   5.167   3.609  17.986
 1483TIP3   OH228643   5.828   3.747  17.344
 1483TIP3    H128644   5.808   3.836  17.315
 1483TIP3    H228645   5.798   3.691  17.272
 1484TIP3   OH228646   4.519   3.316  18.487
 1484TIP3    H128647   4.518   3.226  18.519
 1484TIP3    H228648   4.471   3.312  18.404
 1485TIP3   OH228649   5.395   3.210  18.558
 1485TIP3    H128650   5.393   3.261  18.477
 1485TIP3    H228651   5.423   3.273  18.625
 1486TIP3   OH228652   6.032   3.847  18.539
 1486TIP3    H128653   6.115   3.873  18.499
 1486TIP3    H228654   6.018   3.912  18.608
 1487TIP3   OH228655   6.780   3.644  18.554
 1487TIP3    H128656   6.705   3.691  18.518
 1487TIP3    H228657   6.840   3.635  18.480
 1488TIP3   OH228658   6.248   3.357  17.858
 1488TIP3    H128659   6.172   3.328  17.909
 1488TIP3    H228660   6.309   3.284  17.862
 1489TIP3   OH228661   5.563   3.861  17.732
 1489TIP3    H128662   5.647   3.822  17.709
 1489TIP3    H228663   5.564   3.947  17.689
 1490TIP3   OH228664   5.462   3.600  17.693
 1490TIP3    H128665   5.480   3.693  17.706
 1490TIP3    H228666   5.366   3.593  17.702
 1491TIP3   OH228667   5.468   4.229  18.256
 1491TIP3    H128668   5.556   4.258  18.231
 1491TIP3    H228669   5.483   4.168  18.328
 1492TIP3   OH228670   5.192   4.381  17.460
 1492TIP3    H128671   5.130   4.332  17.515
 1492TIP3    H228672   5.234   4.443  17.520
 1493TIP3   OH228673   5.703   3.644  18.251
 1493TIP3    H128674   5.719   3.680  18.339
 1493TIP3    H228675   5.770   3.576  18.241
 1494TIP3   OH228676   6.106   3.765  17.365
 1494TIP3    H128677   6.011   3.758  17.357
 1494TIP3    H228678   6.131   3.828  17.298
 1495TIP3   OH228679   6.319   4.205  18.476
 1495TIP3    H128680   6.293   4.115  18.455
 1495TIP3    H228681   6.268   4.259  18.415
 1496TIP3   OH228682   6.742   4.257  17.322
 1496TIP3    H128683   6.706   4.306  17.248
 1496TIP3    H228684   6.670   4.253  17.385
 1497TIP3   OH228685   4.967   2.657  18.444
 1497TIP3    H128686   4.898   2.714  18.479
 1497TIP3    H228687   4.950   2.572  18.484
 1498TIP3   OH228688   6.218   3.511  17.348
 1498TIP3    H128689   6.213   3.487  17.441
 1498TIP3    H228690   6.187   3.601  17.344
 1499TIP3   OH228691   4.871   4.066  18.124
 1499TIP3    H128692   4.945   4.022  18.082
 1499TIP3    H228693   4.878   4.042  18.217
 1500TIP3   OH228694   4.934   3.636  17.317
 1500TIP3    H128695   4.878   3.702  17.359
 1500TIP3    H228696   4.983   3.685  17.251
 1501TIP3   OH228697   6.123   2.632  18.205
 1501TIP3    H128698   6.164   2.685  18.274
 1501TIP3    H228699   6.039   2.605  18.243
 1502TIP3   OH228700   5.780   3.995  17.254
 1502TIP3    H128701   5.802   4.073  17.305
 1502TIP3    H228702   5.793   4.021  17.163
 1503TIP3   OH228703   5.612   2.767  17.436
 1503TIP3    H128704   5.607   2.785  17.342
 1503TIP3    H228705   5.691   2.813  17.465
 1504TIP3   OH228706   5.769   2.936  18.360
 1504TIP3    H128707   5.782   2.950  18.454
 1504TIP3    H228708   5.757   2.842  18.351
 1505TIP3   OH228709   5.701   2.497  17.794
 1505TIP3    H128710   5.696   2.590  17.813
 1505TIP3    H228711   5.655   2.486  17.711
 1506TIP3   OH228712   5.213   4.309  17.190
 1506TIP3    H128713   5.293   4.350  17.157
 1506TIP3    H228714   5.207   4.339  17.281
 1507TIP3   OH228715   6.489   2.772  18.479
 1507TIP3    H128716   6.399   2.771  18.448
 1507TIP3    H228717   6.542   2.771  18.399
 1508TIP3   OH228718   6.389   3.113  17.857
 1508TIP3    H128719   6.311   3.059  17.847
 1508TIP3    H228720   6.442   3.066  17.921
 1509TIP3   OH228721   6.406   4.251  18.107
 1509TIP3    H128722   6.364   4.173  18.071
 1509TIP3    H228723   6.473   4.218  18.166
 1510TIP3   OH228724   4.786   4.098  17.566
 1510TIP3    H128725   4.730   4.125  17.638
 1510TIP3    H228726   4.759   4.152  17.492
 1511TIP3   OH228727   4.731   4.516  18.711
 1511TIP3    H128728   4.798   4.485  18.771
 1511TIP3    H228729   4.708   4.440  18.658
 1512TIP3   OH228730   5.093   4.179  18.777
 1512TIP3    H128731   5.176   4.151  18.815
 1512TIP3    H228732   5.092   4.140  18.689
 1513TIP3   OH228733   5.983   4.017  18.756
 1513TIP3    H128734   5.957   3.941  18.808
 1513TIP3    H228735   6.061   4.051  18.800
 1514TIP3   OH228736   4.608   3.647  18.829
 1514TIP3    H128737   4.575   3.577  18.887
 1514TIP3    H228738   4.673   3.603  18.774
 1515TIP3   OH228739   5.385   3.765  18.694
 1515TIP3    H128740   5.358   3.782  18.604
 1515TIP3    H228741   5.416   3.674  18.692
 1516TIP3   OH228742   6.228   3.626  18.505
 1516TIP3    H128743   6.266   3.701  18.458
 1516TIP3    H228744   6.143   3.658  18.534
 1517TIP3   OH228745   4.931   3.325  18.761
 1517TIP3    H128746   4.983   3.252  18.796
 1517TIP3    H228747   4.865   3.342  18.828
 1518TIP3   OH228748   5.306   3.340  17.418
 1518TIP3    H128749   5.218   3.374  17.432
 1518TIP3    H228750   5.292   3.253  17.381
 1519TIP3   OH228751   5.149   3.206  18.401
 1519TIP3    H128752   5.192   3.172  18.480
 1519TIP3    H228753   5.196   3.287  18.380
 1520TIP3   OH228754   5.753   3.596  18.757
 1520TIP3    H128755   5.797   3.512  18.747
 1520TIP3    H228756   5.659   3.574  18.754
 1521TIP3   OH228757   5.392   2.938  18.596
 1521TIP3    H128758   5.417   2.910  18.508
 1521TIP3    H228759   5.396   3.033  18.593
 1522TIP3   OH228760   5.414   2.630  18.326
 1522TIP3    H128761   5.445   2.721  18.331
 1522TIP3    H228762   5.323   2.638  18.296
 1523TIP3   OH228763   5.335   3.405  18.366
 1523TIP3    H128764   5.375   3.469  18.425
 1523TIP3    H228765   5.329   3.450  18.282
 1524TIP3   OH228766   6.169   2.973  18.833
 1524TIP3    H128767   6.148   2.916  18.758
 1524TIP3    H228768   6.265   2.970  18.838
 1525TIP3   OH228769   6.350   3.397  18.601
 1525TIP3    H128770   6.304   3.474  18.568
 1525TIP3    H228771   6.440   3.426  18.614
 1526TIP3   OH228772   5.189   2.868  18.774
 1526TIP3    H128773   5.124   2.811  18.733
 1526TIP3    H228774   5.252   2.887  18.704
 1527TIP3   OH228775   5.425   2.355  18.356
 1527TIP3    H128776   5.439   2.449  18.356
 1527TIP3    H228777   5.337   2.344  18.319
 1528TIP3   OH228778   5.565   2.792  18.762
 1528TIP3    H128779   5.505   2.728  18.800
 1528TIP3    H228780   5.510   2.848  18.708
 1529TIP3   OH228781   6.059   2.797  18.641
 1529TIP3    H128782   5.970   2.833  18.635
 1529TIP3    H228783   6.050   2.722  18.700
 1530TIP3   OH228784   6.210   2.570  18.896
 1530TIP3    H128785   6.166   2.485  18.893
 1530TIP3    H228786   6.150   2.627  18.943
 1531TIP3   OH228787   4.751   2.685  18.636
 1531TIP3    H128788   4.764   2.593  18.612
 1531TIP3    H228789   4.819   2.703  18.701
 1532TIP3   OH228790   5.469   2.282  18.638
 1532TIP3    H128791   5.553   2.237  18.642
 1532TIP3    H228792   5.455   2.299  18.545
 1533TIP3   OH228793   5.303   2.379  18.838
 1533TIP3    H128794   5.358   2.351  18.765
 1533TIP3    H228795   5.328   2.470  18.853
 1534TIP3   OH228796   5.449   4.389  17.069
 1534TIP3    H128797   5.532   4.352  17.099
 1534TIP3    H228798   5.474   4.450  16.999
 1535TIP3   OH228799   4.366   4.242  17.678
 1535TIP3    H128800   4.369   4.306  17.607
 1535TIP3    H228801   4.457   4.235  17.707
 1536TIP3   OH228802   4.640   4.213  17.777
 1536TIP3    H128803   4.617   4.160  17.853
 1536TIP3    H228804   4.706   4.274  17.810
 1537TIP3   OH228805   6.875   4.340  18.134
 1537TIP3    H128806   6.837   4.335  18.222
 1537TIP3    H228807   6.968   4.356  18.148
 1538TIP3   OH228808   6.719   4.285  18.436
 1538TIP3    H128809   6.668   4.225  18.383
 1538TIP3    H228810   6.730   4.240  18.520
 1539TIP3   OH228811   6.530   3.799  18.897
 1539TIP3    H128812   6.443   3.833  18.919
 1539TIP3    H228813   6.590   3.869  18.923
 1540TIP3   OH228814   6.814   3.368  17.275
 1540TIP3    H128815   6.836   3.461  17.273
 1540TIP3    H228816   6.785   3.351  17.365
 1541TIP3   OH228817   6.739   3.303  17.536
 1541TIP3    H128818   6.668   3.252  17.574
 1541TIP3    H228819   6.775   3.353  17.610
 1542TIP3   OH228820   6.621   3.676  18.026
 1542TIP3    H128821   6.714   3.654  18.027
 1542TIP3    H228822   6.606   3.712  17.938
 1543TIP3   OH228823   6.536   4.121  18.320
 1543TIP3    H128824   6.468   4.153  18.380
 1543TIP3    H228825   6.514   4.028  18.307
 1544TIP3   OH228826   6.567   3.094  17.639
 1544TIP3    H128827   6.527   3.013  17.606
 1544TIP3    H228828   6.513   3.119  17.714
 1545TIP3   OH228829   4.561   3.368  18.068
 1545TIP3    H128830   4.572   3.314  17.989
 1545TIP3    H228831   4.638   3.348  18.121
 1546TIP3   OH228832   6.616   3.446  18.660
 1546TIP3    H128833   6.665   3.364  18.652
 1546TIP3    H228834   6.672   3.511  18.617
 1547TIP3   OH228835   6.756   3.206  18.641
 1547TIP3    H128836   6.696   3.131  18.640
 1547TIP3    H228837   6.829   3.178  18.696
 1548TIP3   OH228838   6.453   2.852  17.573
 1548TIP3    H128839   6.358   2.842  17.566
 1548TIP3    H228840   6.488   2.768  17.544
 1549TIP3   OH228841   6.550   2.972  18.031
 1549TIP3    H128842   6.643   2.977  18.012
 1549TIP3    H228843   6.544   2.990  18.125
 1550TIP3   OH228844   6.581   3.053  18.298
 1550TIP3    H128845   6.511   3.080  18.357
 1550TIP3    H228846   6.628   3.134  18.277
 1551TIP3   OH228847   4.511   2.811  18.582
 1551TIP3    H128848   4.597   2.775  18.600
 1551TIP3    H228849   4.449   2.744  18.611
 1552TIP3   OH228850   6.751   2.414  18.792
 1552TIP3    H128851   6.817   2.364  18.744
 1552TIP3    H228852   6.726   2.485  18.732
 1553TIP3   OH228853   4.506   2.925  18.037
 1553TIP3    H128854   4.592   2.933  17.994
 1553TIP3    H228855   4.526   2.888  18.123
 1554TIP3   OH228856   6.650   2.640  18.662
 1554TIP3    H128857   6.592   2.650  18.738
 1554TIP3    H228858   6.598   2.675  18.589
 1555TIP3   OH228859   4.439   2.333  18.326
 1555TIP3    H128860   4.381   2.306  18.396
 1555TIP3    H228861   4.413   2.423  18.306
 1556TIP3   OH228862   4.877   3.962  18.387
 1556TIP3    H128863   4.889   3.868  18.404
 1556TIP3    H228864   4.795   3.984  18.432
 1557TIP3   OH228865   5.208   4.253  18.357
 1557TIP3    H128866   5.177   4.340  18.331
 1557TIP3    H228867   5.297   4.248  18.323
 1558TIP3   OH228868   5.606   4.410  18.691
 1558TIP3    H128869   5.633   4.321  18.713
 1558TIP3    H228870   5.666   4.437  18.622
 1559TIP3   OH228871   5.824   4.467  18.522
 1559TIP3    H128872   5.857   4.401  18.460
 1559TIP3    H228873   5.887   4.465  18.595
 1560TIP3   OH228874   6.618   2.191  18.315
 1560TIP3    H128875   6.540   2.218  18.267
 1560TIP3    H228876   6.585   2.153  18.397
 1561TIP3   OH228877   4.854   4.554  18.337
 1561TIP3    H128878   4.761   4.557  18.314
 1561TIP3    H228879   4.861   4.613  18.412
 1562TIP3   OH228880   5.121   4.502  18.279
 1562TIP3    H128881   5.028   4.511  18.301
 1562TIP3    H228882   5.131   4.550  18.197
 1563TIP3   OH228883   5.729   4.294  18.190
 1563TIP3    H128884   5.777   4.247  18.122
 1563TIP3    H228885   5.794   4.308  18.259
 1564TIP3   OH228886   5.956   4.285  18.361
 1564TIP3    H128887   5.957   4.190  18.346
 1564TIP3    H228888   6.041   4.315  18.329
 1565TIP3   OH228889   6.209   4.361  18.265
 1565TIP3    H128890   6.181   4.440  18.219
 1565TIP3    H228891   6.273   4.320  18.207
 1566TIP3   OH228892   4.860   4.312  17.952
 1566TIP3    H128893   4.841   4.258  18.028
 1566TIP3    H228894   4.944   4.279  17.919
 1567TIP3   OH228895   5.093   4.174  17.885
 1567TIP3    H128896   5.082   4.084  17.916
 1567TIP3    H228897   5.176   4.202  17.923
 1568TIP3   OH228898   5.338   4.199  18.012
 1568TIP3    H128899   5.364   4.109  17.992
 1568TIP3    H228900   5.378   4.218  18.097
 1569TIP3   OH228901   5.907   2.376  17.936
 1569TIP3    H128902   5.866   2.309  17.991
 1569TIP3    H228903   5.835   2.414  17.887
 1570TIP3   OH228904   5.391   2.617  17.777
 1570TIP3    H128905   5.430   2.583  17.696
 1570TIP3    H228906   5.466   2.625  17.837
 1571TIP3   OH228907   4.715   4.230  17.337
 1571TIP3    H128908   4.687   4.150  17.292
 1571TIP3    H228909   4.775   4.273  17.276
 1572TIP3   OH228910   5.543   2.530  17.560
 1572TIP3    H128911   5.533   2.465  17.491
 1572TIP3    H228912   5.567   2.611  17.514
 1573TIP3   OH228913   5.692   4.289  17.155
 1573TIP3    H128914   5.727   4.232  17.087
 1573TIP3    H228915   5.727   4.255  17.237
 1574TIP3   OH228916   4.871   2.428  18.590
 1574TIP3    H128917   4.799   2.374  18.623
 1574TIP3    H228918   4.938   2.424  18.659
 1575TIP3   OH228919   5.026   2.407  18.822
 1575TIP3    H128920   5.120   2.389  18.828
 1575TIP3    H228921   4.985   2.331  18.863
 1576TIP3   OH228922   6.173   2.187  18.776
 1576TIP3    H128923   6.156   2.139  18.857
 1576TIP3    H228924   6.269   2.194  18.773
 1577TIP3   OH228925   6.423   4.228  18.730
 1577TIP3    H128926   6.383   4.218  18.643
 1577TIP3    H228927   6.424   4.323  18.744
 1578TIP3   OH228928   7.115   3.383  17.901
 1578TIP3    H128929   7.071   3.316  17.953
 1578TIP3    H228930   7.081   3.466  17.935
 1579TIP3   OH228931   8.423   3.770  17.737
 1579TIP3    H128932   8.346   3.721  17.709
 1579TIP3    H228933   8.407   3.788  17.830
 1580TIP3   OH228934   7.343   3.965  18.020
 1580TIP3    H128935   7.311   3.917  17.943
 1580TIP3    H228936   7.437   3.970  18.007
 1581TIP3   OH228937   6.826   3.035  17.545
 1581TIP3    H128938   6.833   3.127  17.520
 1581TIP3    H228939   6.739   3.028  17.585
 1582TIP3   OH228940   6.867   3.425  17.753
 1582TIP3    H128941   6.960   3.405  17.753
 1582TIP3    H228942   6.858   3.501  17.810
 1583TIP3   OH228943   8.349   4.370  17.752
 1583TIP3    H128944   8.280   4.353  17.688
 1583TIP3    H228945   8.392   4.286  17.764
 1584TIP3   OH228946   7.787   3.757  18.019
 1584TIP3    H128947   7.828   3.728  17.938
 1584TIP3    H228948   7.860   3.780  18.076
 1585TIP3   OH228949   8.908   2.588  18.237
 1585TIP3    H128950   8.906   2.668  18.290
 1585TIP3    H228951   8.930   2.618  18.149
 1586TIP3   OH228952   8.340   2.877  18.167
 1586TIP3    H128953   8.395   2.870  18.089
 1586TIP3    H228954   8.325   2.787  18.195
 1587TIP3   OH228955   7.506   2.839  17.784
 1587TIP3    H128956   7.527   2.923  17.744
 1587TIP3    H228957   7.462   2.790  17.714
 1588TIP3   OH228958   8.311   2.772  17.771
 1588TIP3    H128959   8.375   2.782  17.842
 1588TIP3    H228960   8.349   2.820  17.698
 1589TIP3   OH228961   7.066   2.872  17.951
 1589TIP3    H128962   7.160   2.876  17.971
 1589TIP3    H228963   7.061   2.883  17.856
 1590TIP3   OH228964   7.730   3.188  17.851
 1590TIP3    H128965   7.677   3.220  17.924
 1590TIP3    H228966   7.668   3.145  17.793
 1591TIP3   OH228967   8.899   2.823  18.379
 1591TIP3    H128968   8.862   2.903  18.342
 1591TIP3    H228969   8.973   2.853  18.432
 1592TIP3   OH228970   7.339   2.697  18.229
 1592TIP3    H128971   7.334   2.753  18.152
 1592TIP3    H228972   7.284   2.740  18.294
 1593TIP3   OH228973   7.600   3.578  18.158
 1593TIP3    H128974   7.531   3.637  18.189
 1593TIP3    H228975   7.660   3.634  18.109
 1594TIP3   OH228976   8.519   2.806  17.965
 1594TIP3    H128977   8.531   2.715  17.992
 1594TIP3    H228978   8.603   2.848  17.984
 1595TIP3   OH228979   7.346   2.872  18.013
 1595TIP3    H128980   7.391   2.942  18.060
 1595TIP3    H228981   7.399   2.856  17.935
 1596TIP3   OH228982   7.402   3.776  18.256
 1596TIP3    H128983   7.367   3.834  18.188
 1596TIP3    H228984   7.325   3.748  18.306
 1597TIP3   OH228985   6.915   3.633  17.273
 1597TIP3    H128986   6.934   3.684  17.194
 1597TIP3    H228987   6.869   3.695  17.330
 1598TIP3   OH228988   8.500   3.973  18.014
 1598TIP3    H128989   8.409   3.980  18.043
 1598TIP3    H228990   8.504   4.026  17.934
 1599TIP3   OH228991   8.678   2.433  18.256
 1599TIP3    H128992   8.621   2.474  18.191
 1599TIP3    H228993   8.759   2.482  18.252
 1600TIP3   OH228994   7.590   2.313  17.942
 1600TIP3    H128995   7.582   2.233  17.994
 1600TIP3    H228996   7.526   2.373  17.981
 1601TIP3   OH228997   8.508   4.127  17.770
 1601TIP3    H128998   8.509   4.068  17.695
 1601TIP3    H228999   8.587   4.180  17.760
 1602TIP3   OH229000   8.516   3.943  17.548
 1602TIP3    H129001   8.446   3.930  17.485
 1602TIP3    H229002   8.499   3.877  17.616
 1603TIP3   OH229003   8.763   3.714  18.367
 1603TIP3    H129004   8.777   3.646  18.300
 1603TIP3    H229005   8.730   3.789  18.318
 1604TIP3   OH229006   8.961   3.258  18.207
 1604TIP3    H129007   8.917   3.341  18.188
 1604TIP3    H229008   9.023   3.246  18.135
 1605TIP3   OH229009   8.433   3.172  17.618
 1605TIP3    H129010   8.384   3.255  17.615
 1605TIP3    H229011   8.523   3.197  17.599
 1606TIP3   OH229012   8.595   3.128  18.480
 1606TIP3    H129013   8.580   3.217  18.512
 1606TIP3    H229014   8.508   3.097  18.455
 1607TIP3   OH229015   7.443   3.303  17.578
 1607TIP3    H129016   7.391   3.297  17.498
 1607TIP3    H229017   7.483   3.390  17.573
 1608TIP3   OH229018   7.610   3.977  17.954
 1608TIP3    H129019   7.615   3.989  17.859
 1608TIP3    H229020   7.670   3.905  17.973
 1609TIP3   OH229021   7.557   3.296  18.052
 1609TIP3    H129022   7.490   3.303  17.985
 1609TIP3    H229023   7.569   3.385  18.085
 1610TIP3   OH229024   8.243   4.002  18.114
 1610TIP3    H129025   8.251   4.083  18.164
 1610TIP3    H229026   8.149   3.987  18.106
 1611TIP3   OH229027   7.541   3.902  18.467
 1611TIP3    H129028   7.485   3.972  18.499
 1611TIP3    H229029   7.494   3.866  18.392
 1612TIP3   OH229030   7.134   3.292  18.547
 1612TIP3    H129031   7.158   3.379  18.578
 1612TIP3    H229032   7.055   3.306  18.495
 1613TIP3   OH229033   8.144   4.318  17.565
 1613TIP3    H129034   8.124   4.226  17.546
 1613TIP3    H229035   8.065   4.365  17.539
 1614TIP3   OH229036   7.393   4.120  18.571
 1614TIP3    H129037   7.431   4.186  18.514
 1614TIP3    H229038   7.317   4.087  18.523
 1615TIP3   OH229039   8.789   2.383  17.253
 1615TIP3    H129040   8.728   2.342  17.192
 1615TIP3    H229041   8.841   2.442  17.198
 1616TIP3   OH229042   7.325   3.321  17.330
 1616TIP3    H129043   7.292   3.410  17.322
 1616TIP3    H229044   7.257   3.266  17.291
 1617TIP3   OH229045   6.950   3.587  18.338
 1617TIP3    H129046   6.939   3.594  18.244
 1617TIP3    H229047   6.933   3.494  18.357
 1618TIP3   OH229048   6.920   3.917  18.050
 1618TIP3    H129049   6.940   3.827  18.027
 1618TIP3    H229050   6.835   3.912  18.095
 1619TIP3   OH229051   8.821   4.008  18.585
 1619TIP3    H129052   8.794   3.916  18.584
 1619TIP3    H229053   8.741   4.057  18.600
 1620TIP3   OH229054   7.799   4.001  18.476
 1620TIP3    H129055   7.803   4.006  18.571
 1620TIP3    H229056   7.713   3.965  18.456
 1621TIP3   OH229057   7.922   4.444  17.456
 1621TIP3    H129058   7.876   4.425  17.375
 1621TIP3    H229059   7.855   4.478  17.515
 1622TIP3   OH229060   7.335   4.368  17.730
 1622TIP3    H129061   7.356   4.342  17.820
 1622TIP3    H229062   7.240   4.358  17.724
 1623TIP3   OH229063   8.201   4.494  17.345
 1623TIP3    H129064   8.106   4.503  17.342
 1623TIP3    H229065   8.218   4.440  17.422
 1624TIP3   OH229066   8.735   2.981  18.666
 1624TIP3    H129067   8.682   3.033  18.606
 1624TIP3    H229068   8.731   2.893  18.631
 1625TIP3   OH229069   7.179   3.714  18.422
 1625TIP3    H129070   7.190   3.666  18.504
 1625TIP3    H229071   7.099   3.679  18.384
 1626TIP3   OH229072   7.399   2.461  18.084
 1626TIP3    H129073   7.314   2.448  18.041
 1626TIP3    H229074   7.388   2.542  18.134
 1627TIP3   OH229075   7.836   2.184  18.406
 1627TIP3    H129076   7.871   2.165  18.493
 1627TIP3    H229077   7.766   2.247  18.421
 1628TIP3   OH229078   8.438   2.763  18.496
 1628TIP3    H129079   8.397   2.753  18.582
 1628TIP3    H229080   8.415   2.851  18.468
 1629TIP3   OH229081   7.477   3.057  18.185
 1629TIP3    H129082   7.419   3.085  18.256
 1629TIP3    H229083   7.506   3.139  18.144
 1630TIP3   OH229084   7.579   3.071  17.648
 1630TIP3    H129085   7.523   3.145  17.624
 1630TIP3    H229086   7.618   3.042  17.565
 1631TIP3   OH229087   7.961   3.052  18.723
 1631TIP3    H129088   7.920   2.967  18.741
 1631TIP3    H229089   8.023   3.064  18.795
 1632TIP3   OH229090   7.318   3.103  18.422
 1632TIP3    H129091   7.255   3.165  18.460
 1632TIP3    H229092   7.273   3.019  18.423
 1633TIP3   OH229093   6.953   2.839  17.395
 1633TIP3    H129094   6.999   2.890  17.328
 1633TIP3    H229095   6.899   2.904  17.441
 1634TIP3   OH229096   8.353   3.012  18.407
 1634TIP3    H129097   8.345   2.981  18.316
 1634TIP3    H229098   8.264   3.031  18.434
 1635TIP3   OH229099   7.751   2.709  17.717
 1635TIP3    H129100   7.668   2.746  17.748
 1635TIP3    H229101   7.749   2.618  17.747
 1636TIP3   OH229102   7.029   2.897  17.680
 1636TIP3    H129103   6.959   2.955  17.651
 1636TIP3    H229104   7.049   2.843  17.604
 1637TIP3   OH229105   7.719   2.997  17.415
 1637TIP3    H129106   7.779   2.924  17.431
 1637TIP3    H229107   7.774   3.066  17.378
 1638TIP3   OH229108   8.512   2.547  18.066
 1638TIP3    H129109   8.438   2.559  18.126
 1638TIP3    H229110   8.483   2.478  18.006
 1639TIP3   OH229111   8.640   4.435  18.635
 1639TIP3    H129112   8.667   4.449  18.544
 1639TIP3    H229113   8.708   4.476  18.688
 1640TIP3   OH229114   7.176   3.562  18.665
 1640TIP3    H129115   7.244   3.582  18.729
 1640TIP3    H229116   7.094   3.581  18.710
 1641TIP3   OH229117   7.408   2.716  17.560
 1641TIP3    H129118   7.337   2.660  17.528
 1641TIP3    H229119   7.447   2.752  17.481
 1642TIP3   OH229120   7.653   2.862  18.280
 1642TIP3    H129121   7.586   2.925  18.253
 1642TIP3    H229122   7.705   2.847  18.201
 1643TIP3   OH229123   8.842   3.511  18.161
 1643TIP3    H129124   8.913   3.563  18.125
 1643TIP3    H229125   8.791   3.483  18.085
 1644TIP3   OH229126   8.038   3.861  18.434
 1644TIP3    H129127   8.028   3.806  18.512
 1644TIP3    H229128   7.964   3.922  18.439
 1645TIP3   OH229129   8.413   2.906  17.557
 1645TIP3    H129130   8.501   2.887  17.523
 1645TIP3    H229131   8.415   3.001  17.574
 1646TIP3   OH229132   7.378   3.317  17.851
 1646TIP3    H129133   7.388   3.305  17.757
 1646TIP3    H229134   7.287   3.342  17.863
 1647TIP3   OH229135   6.882   3.327  18.427
 1647TIP3    H129136   6.841   3.288  18.504
 1647TIP3    H229137   6.819   3.314  18.356
 1648TIP3   OH229138   7.727   3.210  18.737
 1648TIP3    H129139   7.674   3.205  18.657
 1648TIP3    H229140   7.806   3.161  18.716
 1649TIP3   OH229141   8.318   3.841  18.527
 1649TIP3    H129142   8.243   3.856  18.471
 1649TIP3    H229143   8.297   3.885  18.609
 1650TIP3   OH229144   8.913   2.934  17.348
 1650TIP3    H129145   8.949   2.846  17.337
 1650TIP3    H229146   8.974   2.978  17.407
 1651TIP3   OH229147   8.982   3.624  18.536
 1651TIP3    H129148   8.907   3.665  18.492
 1651TIP3    H229149   9.045   3.609  18.466
 1652TIP3   OH229150   8.735   4.070  17.422
 1652TIP3    H129151   8.665   4.026  17.470
 1652TIP3    H229152   8.722   4.043  17.331
 1653TIP3   OH229153   8.711   3.403  17.940
 1653TIP3    H129154   8.641   3.451  17.897
 1653TIP3    H229155   8.694   3.311  17.919
 1654TIP3   OH229156   7.606   4.029  17.684
 1654TIP3    H129157   7.602   4.121  17.658
 1654TIP3    H229158   7.598   3.981  17.601
 1655TIP3   OH229159   7.072   3.309  17.196
 1655TIP3    H129160   7.108   3.397  17.206
 1655TIP3    H229161   6.980   3.318  17.220
 1656TIP3   OH229162   7.765   4.211  18.291
 1656TIP3    H129163   7.851   4.251  18.278
 1656TIP3    H229164   7.780   4.140  18.353
 1657TIP3   OH229165   7.579   4.304  17.603
 1657TIP3    H129166   7.493   4.325  17.639
 1657TIP3    H229167   7.631   4.383  17.615
 1658TIP3   OH229168   8.023   3.808  18.161
 1658TIP3    H129169   8.025   3.825  18.255
 1658TIP3    H229170   8.113   3.783  18.140
 1659TIP3   OH229171   8.503   4.162  18.372
 1659TIP3    H129172   8.412   4.144  18.352
 1659TIP3    H229173   8.521   4.247  18.333
 1660TIP3   OH229174   8.877   4.406  17.190
 1660TIP3    H129175   8.904   4.456  17.113
 1660TIP3    H229176   8.882   4.314  17.162
 1661TIP3   OH229177   7.180   2.844  18.425
 1661TIP3    H129178   7.090   2.852  18.395
 1661TIP3    H229179   7.175   2.787  18.502
 1662TIP3   OH229180   7.128   4.056  18.170
 1662TIP3    H129181   7.052   4.012  18.132
 1662TIP3    H229182   7.202   4.025  18.119
 1663TIP3   OH229183   7.602   3.918  17.417
 1663TIP3    H129184   7.680   3.875  17.382
 1663TIP3    H229185   7.611   4.009  17.390
 1664TIP3   OH229186   7.190   3.554  17.283
 1664TIP3    H129187   7.105   3.598  17.285
 1664TIP3    H229188   7.254   3.624  17.296
 1665TIP3   OH229189   8.340   2.617  18.277
 1665TIP3    H129190   8.384   2.658  18.352
 1665TIP3    H229191   8.270   2.565  18.316
 1666TIP3   OH229192   8.134   2.680  17.577
 1666TIP3    H129193   8.199   2.710  17.512
 1666TIP3    H229194   8.175   2.699  17.661
 1667TIP3   OH229195   7.890   2.799  17.502
 1667TIP3    H129196   7.975   2.757  17.519
 1667TIP3    H229197   7.833   2.766  17.571
 1668TIP3   OH229198   8.087   3.042  18.474
 1668TIP3    H129199   8.049   3.054  18.561
 1668TIP3    H229200   8.011   3.027  18.417
 1669TIP3   OH229201   7.974   2.440  17.572
 1669TIP3    H129202   7.907   2.449  17.640
 1669TIP3    H229203   8.026   2.520  17.578
 1670TIP3   OH229204   7.661   4.180  17.366
 1670TIP3    H129205   7.705   4.243  17.309
 1670TIP3    H229206   7.633   4.231  17.442
 1671TIP3   OH229207   7.514   2.822  17.332
 1671TIP3    H129208   7.507   2.826  17.236
 1671TIP3    H229209   7.582   2.887  17.353
 1672TIP3   OH229210   8.710   2.726  18.558
 1672TIP3    H129211   8.620   2.727  18.524
 1672TIP3    H229212   8.764   2.745  18.482
 1673TIP3   OH229213   8.640   3.135  17.871
 1673TIP3    H129214   8.547   3.113  17.870
 1673TIP3    H229215   8.679   3.071  17.930
 1674TIP3   OH229216   7.410   3.719  17.329
 1674TIP3    H129217   7.455   3.795  17.366
 1674TIP3    H229218   7.478   3.673  17.278
 1675TIP3   OH229219   8.730   4.417  18.110
 1675TIP3    H129220   8.720   4.457  18.024
 1675TIP3    H229221   8.804   4.357  18.100
 1676TIP3   OH229222   7.146   2.410  17.981
 1676TIP3    H129223   7.163   2.351  17.908
 1676TIP3    H229224   7.112   2.353  18.050
 1677TIP3   OH229225   7.059   4.367  17.754
 1677TIP3    H129226   7.021   4.294  17.804
 1677TIP3    H229227   7.011   4.366  17.671
 1678TIP3   OH229228   6.838   4.394  18.788
 1678TIP3    H129229   6.932   4.377  18.792
 1678TIP3    H229230   6.802   4.321  18.737
 1679TIP3   OH229231   7.330   4.175  18.833
 1679TIP3    H129232   7.418   4.177  18.871
 1679TIP3    H229233   7.344   4.153  18.741
 1680TIP3   OH229234   8.236   3.963  18.771
 1680TIP3    H129235   8.233   3.890  18.832
 1680TIP3    H229236   8.309   4.018  18.803
 1681TIP3   OH229237   6.925   3.619  18.788
 1681TIP3    H129238   6.875   3.558  18.842
 1681TIP3    H229239   6.872   3.631  18.709
 1682TIP3   OH229240   7.595   3.569  17.186
 1682TIP3    H129241   7.604   3.479  17.216
 1682TIP3    H229242   7.590   3.562  17.090
 1683TIP3   OH229243   7.616   3.738  18.673
 1683TIP3    H129244   7.585   3.796  18.603
 1683TIP3    H229245   7.641   3.657  18.627
 1684TIP3   OH229246   8.525   3.644  18.517
 1684TIP3    H129247   8.597   3.683  18.467
 1684TIP3    H229248   8.457   3.711  18.518
 1685TIP3   OH229249   7.004   3.169  18.771
 1685TIP3    H129250   7.057   3.195  18.695
 1685TIP3    H229251   7.025   3.234  18.838
 1686TIP3   OH229252   7.592   3.302  17.265
 1686TIP3    H129253   7.499   3.312  17.285
 1686TIP3    H229254   7.607   3.207  17.264
 1687TIP3   OH229255   7.579   3.177  18.502
 1687TIP3    H129256   7.488   3.161  18.476
 1687TIP3    H229257   7.606   3.252  18.448
 1688TIP3   OH229258   7.864   3.209  17.320
 1688TIP3    H129259   7.808   3.279  17.288
 1688TIP3    H229260   7.949   3.225  17.279
 1689TIP3   OH229261   8.228   3.481  18.927
 1689TIP3    H129262   8.316   3.479  18.890
 1689TIP3    H229263   8.190   3.397  18.902
 1690TIP3   OH229264   7.667   2.922  18.552
 1690TIP3    H129265   7.666   2.882  18.465
 1690TIP3    H229266   7.643   3.014  18.537
 1691TIP3   OH229267   7.567   2.608  18.367
 1691TIP3    H129268   7.612   2.690  18.347
 1691TIP3    H229269   7.479   2.619  18.329
 1692TIP3   OH229270   7.674   3.387  18.349
 1692TIP3    H129271   7.764   3.376  18.316
 1692TIP3    H229272   7.636   3.453  18.291
 1693TIP3   OH229273   8.383   2.916  18.948
 1693TIP3    H129274   8.358   2.864  18.871
 1693TIP3    H229275   8.477   2.930  18.938
 1694TIP3   OH229276   8.584   3.385  18.585
 1694TIP3    H129277   8.556   3.471  18.553
 1694TIP3    H229278   8.677   3.396  18.606
 1695TIP3   OH229279   7.516   2.907  18.786
 1695TIP3    H129280   7.425   2.922  18.760
 1695TIP3    H229281   7.565   2.913  18.704
 1696TIP3   OH229282   7.622   2.353  18.462
 1696TIP3    H129283   7.615   2.445  18.440
 1696TIP3    H229284   7.545   2.312  18.423
 1697TIP3   OH229285   7.827   2.808  18.752
 1697TIP3    H129286   7.766   2.757  18.805
 1697TIP3    H229287   7.776   2.835  18.676
 1698TIP3   OH229288   8.321   2.733  18.748
 1698TIP3    H129289   8.228   2.730  18.770
 1698TIP3    H229290   8.356   2.650  18.781
 1699TIP3   OH229291   8.408   2.506  18.881
 1699TIP3    H129292   8.404   2.419  18.840
 1699TIP3    H229293   8.343   2.502  18.951
 1700TIP3   OH229294   7.121   2.666  18.637
 1700TIP3    H129295   7.125   2.577  18.600
 1700TIP3    H229296   7.150   2.655  18.728
 1701TIP3   OH229297   7.757   2.327  18.720
 1701TIP3    H129298   7.817   2.255  18.700
 1701TIP3    H229299   7.705   2.337  18.640
 1702TIP3   OH229300   7.792   2.461  18.956
 1702TIP3    H129301   7.786   2.408  18.877
 1702TIP3    H229302   7.730   2.533  18.941
 1703TIP3   OH229303   7.779   4.396  17.219
 1703TIP3    H129304   7.829   4.386  17.139
 1703TIP3    H229305   7.708   4.456  17.196
 1704TIP3   OH229306   6.977   3.819  17.084
 1704TIP3    H129307   7.020   3.844  17.002
 1704TIP3    H229308   6.922   3.894  17.107
 1705TIP3   OH229309   6.929   4.179  17.913
 1705TIP3    H129310   6.925   4.087  17.939
 1705TIP3    H229311   6.902   4.227  17.991
 1706TIP3   OH229312   8.953   4.246  18.123
 1706TIP3    H129313   8.929   4.174  18.181
 1706TIP3    H229314   9.043   4.267  18.147
 1707TIP3   OH229315   8.905   4.043  18.308
 1707TIP3    H129316   8.821   4.007  18.280
 1707TIP3    H229317   8.901   4.042  18.404
 1708TIP3   OH229318   8.764   3.795  18.894
 1708TIP3    H129319   8.677   3.805  18.932
 1708TIP3    H229320   8.798   3.884  18.889
 1709TIP3   OH229321   9.083   3.644  17.449
 1709TIP3    H129322   9.177   3.656  17.460
 1709TIP3    H229323   9.046   3.676  17.532
 1710TIP3   OH229324   8.909   3.289  17.517
 1710TIP3    H129325   8.837   3.228  17.534
 1710TIP3    H229326   8.895   3.361  17.579
 1711TIP3   OH229327   9.072   3.644  18.086
 1711TIP3    H129328   9.116   3.648  18.001
 1711TIP3    H229329   9.079   3.732  18.121
 1712TIP3   OH229330   8.652   3.948  18.248
 1712TIP3    H129331   8.599   4.012  18.297
 1712TIP3    H229332   8.611   3.945  18.161
 1713TIP3   OH229333   8.991   3.433  17.291
 1713TIP3    H129334   8.960   3.364  17.349
 1713TIP3    H229335   9.029   3.499  17.349
 1714TIP3   OH229336   8.717   3.118  17.604
 1714TIP3    H129337   8.701   3.028  17.576
 1714TIP3    H229338   8.697   3.117  17.698
 1715TIP3   OH229339   6.838   3.298  18.007
 1715TIP3    H129340   6.815   3.304  17.914
 1715TIP3    H229341   6.865   3.387  18.031
 1716TIP3   OH229342   8.853   3.409  18.656
 1716TIP3    H129343   8.902   3.328  18.643
 1716TIP3    H229344   8.906   3.477  18.614
 1717TIP3   OH229345   8.961   3.140  18.610
 1717TIP3    H129346   8.880   3.103  18.644
 1717TIP3    H229347   9.017   3.064  18.592
 1718TIP3   OH229348   8.682   2.860  17.484
 1718TIP3    H129349   8.690   2.765  17.482
 1718TIP3    H229350   8.752   2.892  17.428
 1719TIP3   OH229351   8.753   2.944  18.037
 1719TIP3    H129352   8.845   2.939  18.013
 1719TIP3    H229353   8.753   2.976  18.128
 1720TIP3   OH229354   8.787   3.056  18.290
 1720TIP3    H129355   8.721   3.090  18.351
 1720TIP3    H229356   8.841   3.132  18.269
 1721TIP3   OH229357   6.875   2.754  18.524
 1721TIP3    H129358   6.956   2.728  18.568
 1721TIP3    H229359   6.806   2.716  18.578
 1722TIP3   OH229360   8.910   2.302  18.751
 1722TIP3    H129361   8.940   2.284  18.662
 1722TIP3    H229362   8.868   2.388  18.746
 1723TIP3   OH229363   8.744   2.580  17.451
 1723TIP3    H129364   8.770   2.525  17.525
 1723TIP3    H229365   8.734   2.519  17.378
 1724TIP3   OH229366   6.948   2.617  17.976
 1724TIP3    H129367   7.023   2.556  17.972
 1724TIP3    H229368   6.988   2.704  17.968
 1725TIP3   OH229369   6.821   3.008  18.009
 1725TIP3    H129370   6.904   2.963  17.996
 1725TIP3    H229371   6.844   3.101  18.016
 1726TIP3   OH229372   8.802   2.558  18.759
 1726TIP3    H129373   8.738   2.588  18.823
 1726TIP3    H229374   8.783   2.609  18.680
 1727TIP3   OH229375   6.886   2.580  17.319
 1727TIP3    H129376   6.791   2.582  17.326
 1727TIP3    H229377   6.914   2.667  17.347
 1728TIP3   OH229378   8.724   4.295  17.724
 1728TIP3    H129379   8.750   4.313  17.633
 1728TIP3    H229380   8.706   4.381  17.761
 1729TIP3   OH229381   6.854   2.331  18.261
 1729TIP3    H129382   6.777   2.280  18.286
 1729TIP3    H229383   6.819   2.412  18.225
 1730TIP3   OH229384   7.200   3.994  18.429
 1730TIP3    H129385   7.182   3.900  18.433
 1730TIP3    H229386   7.164   4.022  18.345
 1731TIP3   OH229387   7.515   4.294  18.400
 1731TIP3    H129388   7.491   4.382  18.369
 1731TIP3    H229389   7.600   4.277  18.360
 1732TIP3   OH229390   7.944   4.390  18.629
 1732TIP3    H129391   7.952   4.300  18.661
 1732TIP3    H229392   8.034   4.424  18.632
 1733TIP3   OH229393   8.209   4.465  18.625
 1733TIP3    H129394   8.262   4.424  18.557
 1733TIP3    H229395   8.272   4.501  18.687
 1734TIP3   OH229396   8.788   2.265  18.450
 1734TIP3    H129397   8.735   2.327  18.400
 1734TIP3    H229398   8.812   2.197  18.387
 1735TIP3   OH229399   7.147   4.549  18.363
 1735TIP3    H129400   7.053   4.565  18.373
 1735TIP3    H229401   7.153   4.475  18.303
 1736TIP3   OH229402   7.431   4.550  18.317
 1736TIP3    H129403   7.339   4.557  18.343
 1736TIP3    H229404   7.430   4.572  18.224
 1737TIP3   OH229405   8.005   4.352  18.217
 1737TIP3    H129406   7.975   4.380  18.131
 1737TIP3    H229407   7.971   4.419  18.277
 1738TIP3   OH229408   8.258   4.240  18.254
 1738TIP3    H129409   8.171   4.280  18.247
 1738TIP3    H229410   8.319   4.312  18.237
 1739TIP3   OH229411   8.484   4.416  18.242
 1739TIP3    H129412   8.488   4.509  18.266
 1739TIP3    H229413   8.556   4.404  18.180
 1740TIP3   OH229414   7.152   4.336  18.178
 1740TIP3    H129415   7.141   4.242  18.194
 1740TIP3    H229416   7.220   4.341  18.111
 1741TIP3   OH229417   7.354   4.263  17.992
 1741TIP3    H129418   7.336   4.169  17.993
 1741TIP3    H229419   7.446   4.270  18.019
 1742TIP3   OH229420   7.623   4.243  18.051
 1742TIP3    H129421   7.629   4.155  18.013
 1742TIP3    H229422   7.668   4.237  18.135
 1743TIP3   OH229423   7.794   2.442  17.803
 1743TIP3    H129424   7.717   2.405  17.846
 1743TIP3    H229425   7.862   2.440  17.871
 1744TIP3   OH229426   8.712   2.249  17.832
 1744TIP3    H129427   8.760   2.308  17.774
 1744TIP3    H229428   8.627   2.292  17.845
 1745TIP3   OH229429   8.892   2.377  17.602
 1745TIP3    H129430   8.949   2.300  17.599
 1745TIP3    H229431   8.951   2.451  17.607
 1746TIP3   OH229432   7.208   2.239  17.773
 1746TIP3    H129433   7.179   2.260  17.684
 1746TIP3    H229434   7.254   2.156  17.764
 1747TIP3   OH229435   6.969   2.327  17.244
 1747TIP3    H129436   6.967   2.419  17.268
 1747TIP3    H229437   6.878   2.299  17.247
 1748TIP3   OH229438   7.660   2.190  17.695
 1748TIP3    H129439   7.725   2.258  17.673
 1748TIP3    H229440   7.618   2.223  17.774
 1749TIP3   OH229441   8.449   2.348  17.879
 1749TIP3    H129442   8.393   2.379  17.808
 1749TIP3    H229443   8.424   2.256  17.891
 1750TIP3   OH229444   8.569   2.298  17.441
 1750TIP3    H129445   8.523   2.371  17.399
 1750TIP3    H229446   8.502   2.230  17.449
 1751TIP3   OH229447   6.921   4.378  17.512
 1751TIP3    H129448   6.872   4.327  17.448
 1751TIP3    H229449   6.986   4.426  17.460
 1752TIP3   OH229450   8.842   4.320  17.462
 1752TIP3    H129451   8.811   4.230  17.450
 1752TIP3    H229452   8.850   4.354  17.373
 1753TIP3   OH229453   7.135   2.398  18.579
 1753TIP3    H129454   7.059   2.348  18.609
 1753TIP3    H229455   7.207   2.365  18.632
 1754TIP3   OH229456   7.311   2.298  18.772
 1754TIP3    H129457   7.389   2.244  18.756
 1754TIP3    H229458   7.250   2.239  18.817
 1755TIP3   OH229459   7.126   4.517  17.381
 1755TIP3    H129460   7.128   4.604  17.342
 1755TIP3    H229461   7.168   4.460  17.317
 1756TIP3   OH229462   8.404   2.249  18.774
 1756TIP3    H129463   8.379   2.182  18.838
 1756TIP3    H229464   8.489   2.220  18.741
 1757TIP3   OH229465   8.594   4.157  18.636
 1757TIP3    H129466   8.554   4.150  18.549
 1757TIP3    H229467   8.610   4.251  18.647
 1758TIP3   OH229468   9.069   3.061  17.540
 1758TIP3    H129469   9.034   3.149  17.523
 1758TIP3    H229470   9.048   3.044  17.631
 1759TIP3   OH229471   9.152   3.545  18.337
 1759TIP3    H129472   9.124   3.564  18.247
 1759TIP3    H229473   9.139   3.451  18.346
 1760TIP3   OH229474   9.107   3.899  18.171
 1760TIP3    H129475   9.186   3.953  18.172
 1760TIP3    H229476   9.043   3.950  18.221
 1761TIP3   OH229477   9.078   2.579  17.588
 1761TIP3    H129478   9.156   2.617  17.629
 1761TIP3    H229479   9.076   2.617  17.500
 1762TIP3   OH229480   9.120   3.275  18.429
 1762TIP3    H129481   9.067   3.238  18.500
 1762TIP3    H229482   9.070   3.257  18.349
 1763TIP3   OH229483   9.191   3.652  18.736
 1763TIP3    H129484   9.137   3.695  18.802
 1763TIP3    H229485   9.132   3.640  18.661
 1764TIP3   OH229486   9.031   4.433  17.629
 1764TIP3    H129487   8.971   4.394  17.566
 1764TIP3    H229488   9.023   4.379  17.707
 1765TIP3   OH229489   8.974   4.269  17.843
 1765TIP3    H129490   8.885   4.255  17.809
 1765TIP3    H229491   8.967   4.253  17.937
 1766TIP3   OH229492   9.179   3.191  18.032
 1766TIP3    H129493   0.024   3.118  18.036
 1766TIP3    H229494   0.015   3.265  18.001
 1767TIP3   OH229495   9.115   2.914  18.538
 1767TIP3    H129496   9.195   2.932  18.489
 1767TIP3    H229497   9.142   2.854  18.608
 1768TIP3   OH229498   9.025   2.959  17.992
 1768TIP3    H129499   9.103   2.905  17.979
 1768TIP3    H229500   9.059   3.047  18.006
 1769TIP3   OH229501   8.979   2.665  17.329
 1769TIP3    H129502   8.898   2.637  17.373
 1769TIP3    H229503   8.973   2.627  17.241
 1770TIP3   OH229504   9.034   2.380  18.374
 1770TIP3    H129505   8.955   2.340  18.410
 1770TIP3    H229506   9.003   2.454  18.323
 1771TIP3   OH229507   1.515   5.786  17.543
 1771TIP3    H129508   1.462   5.864  17.561
 1771TIP3    H229509   1.461   5.734  17.483
 1772TIP3   OH229510   1.167   5.476  18.105
 1772TIP3    H129511   1.250   5.466  18.151
 1772TIP3    H229512   1.176   5.422  18.027
 1773TIP3   OH229513   0.432   5.614  18.134
 1773TIP3    H129514   0.517   5.571  18.124
 1773TIP3    H229515   0.420   5.622  18.229
 1774TIP3   OH229516   1.862   5.962  17.888
 1774TIP3    H129517   1.825   5.875  17.900
 1774TIP3    H229518   1.811   6.018  17.948
 1775TIP3   OH229519   0.410   6.132  18.053
 1775TIP3    H129520   0.435   6.044  18.081
 1775TIP3    H229521   0.459   6.147  17.972
 1776TIP3   OH229522   0.090   5.284  17.562
 1776TIP3    H129523   0.028   5.328  17.504
 1776TIP3    H229524   0.108   5.200  17.520
 1777TIP3   OH229525   0.179   5.497  17.726
 1777TIP3    H129526   0.148   5.422  17.675
 1777TIP3    H229527   0.137   5.572  17.684
 1778TIP3   OH229528   1.547   6.490  17.868
 1778TIP3    H129529   1.621   6.434  17.845
 1778TIP3    H229530   1.471   6.444  17.834
 1779TIP3   OH229531   1.048   5.734  18.176
 1779TIP3    H129532   1.101   5.664  18.136
 1779TIP3    H229533   1.111   5.805  18.192
 1780TIP3   OH229534   2.206   4.824  18.218
 1780TIP3    H129535   2.172   4.905  18.255
 1780TIP3    H229536   2.226   4.846  18.126
 1781TIP3   OH229537   1.574   5.274  18.005
 1781TIP3    H129538   1.558   5.184  18.034
 1781TIP3    H229539   1.533   5.279  17.918
 1782TIP3   OH229540   1.712   5.152  17.637
 1782TIP3    H129541   1.793   5.151  17.687
 1782TIP3    H229542   1.722   5.225  17.576
 1783TIP3   OH229543   2.115   5.063  18.329
 1783TIP3    H129544   2.089   5.153  18.306
 1783TIP3    H229545   2.173   5.074  18.404
 1784TIP3   OH229546   0.580   4.896  18.159
 1784TIP3    H129547   0.577   4.937  18.072
 1784TIP3    H229548   0.499   4.924  18.202
 1785TIP3   OH229549   1.348   6.021  17.577
 1785TIP3    H129550   1.311   6.063  17.499
 1785TIP3    H229551   1.399   6.090  17.619
 1786TIP3   OH229552   0.783   5.812  18.154
 1786TIP3    H129553   0.780   5.898  18.195
 1786TIP3    H229554   0.876   5.790  18.152
 1787TIP3   OH229555   1.965   5.139  17.757
 1787TIP3    H129556   1.999   5.051  17.776
 1787TIP3    H229557   1.977   5.187  17.839
 1788TIP3   OH229558   0.552   5.001  17.898
 1788TIP3    H129559   0.612   5.075  17.911
 1788TIP3    H229560   0.559   4.980  17.805
 1789TIP3   OH229561   0.707   6.069  18.254
 1789TIP3    H129562   0.716   6.151  18.204
 1789TIP3    H229563   0.618   6.040  18.234
 1790TIP3   OH229564   0.316   6.126  17.272
 1790TIP3    H129565   0.241   6.123  17.211
 1790TIP3    H229566   0.295   6.198  17.332
 1791TIP3   OH229567   1.714   6.160  18.033
 1791TIP3    H129568   1.629   6.180  18.072
 1791TIP3    H229569   1.718   6.214  17.954
 1792TIP3   OH229570   1.686   4.669  18.208
 1792TIP3    H129571   1.767   4.720  18.217
 1792TIP3    H229572   1.676   4.655  18.114
 1793TIP3   OH229573   0.894   4.545  18.029
 1793TIP3    H129574   0.879   4.521  17.937
 1793TIP3    H229575   0.809   4.575  18.060
 1794TIP3   OH229576   1.746   6.300  17.782
 1794TIP3    H129577   1.794   6.232  17.734
 1794TIP3    H229578   1.805   6.375  17.784
 1795TIP3   OH229579   1.884   6.096  17.642
 1795TIP3    H129580   1.877   6.031  17.572
 1795TIP3    H229581   1.887   6.043  17.722
 1796TIP3   OH229582   1.979   6.006  18.402
 1796TIP3    H129583   1.997   5.949  18.328
 1796TIP3    H229584   1.931   6.080  18.364
 1797TIP3   OH229585   1.367   5.622  17.367
 1797TIP3    H129586   1.277   5.654  17.364
 1797TIP3    H229587   1.400   5.634  17.278
 1798TIP3   OH229588   2.147   5.563  18.219
 1798TIP3    H129589   2.102   5.646  18.205
 1798TIP3    H229590   2.219   5.563  18.156
 1799TIP3   OH229591   1.743   5.642  17.484
 1799TIP3    H129592   1.668   5.694  17.514
 1799TIP3    H229593   1.797   5.631  17.563
 1800TIP3   OH229594   1.801   5.398  18.445
 1800TIP3    H129595   1.790   5.476  18.499
 1800TIP3    H229596   1.720   5.394  18.393
 1801TIP3   OH229597   0.910   6.227  17.890
 1801TIP3    H129598   0.930   6.258  17.802
 1801TIP3    H229599   0.953   6.141  17.895
 1802TIP3   OH229600   0.708   5.540  18.115
 1802TIP3    H129601   0.782   5.509  18.167
 1802TIP3    H229602   0.720   5.635  18.110
 1803TIP3   OH229603   1.485   6.248  18.162
 1803TIP3    H129604   1.484   6.343  18.166
 1803TIP3    H229605   1.417   6.221  18.223
 1804TIP3   OH229606   0.807   6.109  18.513
 1804TIP3    H129607   0.734   6.164  18.542
 1804TIP3    H229608   0.782   6.082  18.424
 1805TIP3   OH229609   0.434   5.648  18.409
 1805TIP3    H129610   0.465   5.710  18.474
 1805TIP3    H229611   0.346   5.624  18.439
 1806TIP3   OH229612   1.496   6.245  17.661
 1806TIP3    H129613   1.582   6.251  17.703
 1806TIP3    H229614   1.505   6.298  17.582
 1807TIP3   OH229615   0.583   6.263  18.569
 1807TIP3    H129616   0.589   6.327  18.498
 1807TIP3    H229617   0.515   6.202  18.540
 1808TIP3   OH229618   1.955   4.513  17.352
 1808TIP3    H129619   1.866   4.546  17.365
 1808TIP3    H229620   2.011   4.584  17.383
 1809TIP3   OH229621   0.193   5.891  18.471
 1809TIP3    H129622   0.103   5.898  18.438
 1809TIP3    H229623   0.202   5.800  18.498
 1810TIP3   OH229624   0.129   6.187  18.068
 1810TIP3    H129625   0.213   6.144  18.050
 1810TIP3    H229626   0.153   6.266  18.117
 1811TIP3   OH229627   2.318   6.323  18.582
 1811TIP3    H129628   2.282   6.235  18.570
 1811TIP3    H229629   2.255   6.381  18.538
 1812TIP3   OH229630   1.053   6.240  18.502
 1812TIP3    H129631   1.071   6.254  18.595
 1812TIP3    H229632   0.974   6.186  18.500
 1813TIP3   OH229633   1.226   6.764  17.469
 1813TIP3    H129634   1.207   6.713  17.390
 1813TIP3    H229635   1.141   6.794  17.499
 1814TIP3   OH229636   1.498   6.759  17.516
 1814TIP3    H129637   1.402   6.767  17.511
 1814TIP3    H229638   1.524   6.729  17.429
 1815TIP3   OH229639   1.949   5.236  18.618
 1815TIP3    H129640   1.890   5.289  18.563
 1815TIP3    H229641   1.935   5.146  18.588
 1816TIP3   OH229642   0.409   6.055  18.510
 1816TIP3    H129643   0.459   5.977  18.535
 1816TIP3    H229644   0.326   6.022  18.476
 1817TIP3   OH229645   0.636   4.635  18.088
 1817TIP3    H129646   0.567   4.624  18.023
 1817TIP3    H229647   0.625   4.726  18.119
 1818TIP3   OH229648   1.247   4.668  18.326
 1818TIP3    H129649   1.283   4.595  18.377
 1818TIP3    H229650   1.161   4.683  18.364
 1819TIP3   OH229651   1.644   4.966  18.472
 1819TIP3    H129652   1.593   4.981  18.552
 1819TIP3    H229653   1.582   4.926  18.411
 1820TIP3   OH229654   0.658   5.269  18.051
 1820TIP3    H129655   0.587   5.247  18.112
 1820TIP3    H229656   0.675   5.362  18.066
 1821TIP3   OH229657   1.457   5.388  17.491
 1821TIP3    H129658   1.420   5.468  17.456
 1821TIP3    H229659   1.550   5.392  17.469
 1822TIP3   OH229660   1.187   5.197  18.640
 1822TIP3    H129661   1.184   5.106  18.670
 1822TIP3    H229662   1.265   5.233  18.682
 1823TIP3   OH229663   1.471   5.263  17.745
 1823TIP3    H129664   1.454   5.318  17.668
 1823TIP3    H229665   1.539   5.202  17.716
 1824TIP3   OH229666   0.481   5.214  18.247
 1824TIP3    H129667   0.500   5.229  18.339
 1824TIP3    H229668   0.418   5.141  18.246
 1825TIP3   OH229669   0.154   4.934  17.757
 1825TIP3    H129670   0.203   4.904  17.833
 1825TIP3    H229671   0.213   4.918  17.683
 1826TIP3   OH229672   0.095   5.102  17.178
 1826TIP3    H129673   0.183   5.110  17.141
 1826TIP3    H229674   0.109   5.092  17.272
 1827TIP3   OH229675   1.410   5.398  18.208
 1827TIP3    H129676   1.471   5.357  18.147
 1827TIP3    H229677   1.391   5.329  18.272
 1828TIP3   OH229678   1.491   5.016  18.067
 1828TIP3    H129679   1.485   4.965  18.147
 1828TIP3    H229680   1.483   4.952  17.997
 1829TIP3   OH229681   1.881   6.773  18.706
 1829TIP3    H129682   1.923   6.805  18.626
 1829TIP3    H229683   1.948   6.781  18.773
 1830TIP3   OH229684   0.483   5.813  18.632
 1830TIP3    H129685   0.542   5.819  18.707
 1830TIP3    H229686   0.395   5.807  18.671
 1831TIP3   OH229687   1.247   5.282  17.917
 1831TIP3    H129688   1.314   5.285  17.849
 1831TIP3    H229689   1.264   5.201  17.965
 1832TIP3   OH229690   0.803   5.166  18.290
 1832TIP3    H129691   0.759   5.183  18.206
 1832TIP3    H229692   0.877   5.227  18.290
 1833TIP3   OH229693   0.977   5.992  17.359
 1833TIP3    H129694   0.934   5.912  17.330
 1833TIP3    H229695   0.995   5.978  17.452
 1834TIP3   OH229696   2.055   5.838  18.178
 1834TIP3    H129697   2.147   5.852  18.155
 1834TIP3    H229698   2.007   5.863  18.099
 1835TIP3   OH229699   1.654   5.121  17.312
 1835TIP3    H129700   1.562   5.115  17.338
 1835TIP3    H229701   1.681   5.209  17.337
 1836TIP3   OH229702   1.296   6.162  18.361
 1836TIP3    H129703   1.366   6.162  18.426
 1836TIP3    H229704   1.219   6.196  18.408
 1837TIP3   OH229705   1.734   5.369  17.434
 1837TIP3    H129706   1.825   5.346  17.450
 1837TIP3    H229707   1.733   5.465  17.432
 1838TIP3   OH229708   0.515   5.888  18.119
 1838TIP3    H129709   0.605   5.855  18.118
 1838TIP3    H229710   0.461   5.810  18.124
 1839TIP3   OH229711   1.208   6.154  17.381
 1839TIP3    H129712   1.175   6.244  17.374
 1839TIP3    H229713   1.134   6.099  17.353
 1840TIP3   OH229714   0.186   5.612  18.527
 1840TIP3    H129715   0.206   5.554  18.601
 1840TIP3    H229716   0.095   5.592  18.505
 1841TIP3   OH229717   0.985   5.391  18.714
 1841TIP3    H129718   0.922   5.406  18.644
 1841TIP3    H229719   1.044   5.325  18.679
 1842TIP3   OH229720   1.512   6.176  18.535
 1842TIP3    H129721   1.591   6.218  18.500
 1842TIP3    H229722   1.514   6.195  18.628
 1843TIP3   OH229723   2.193   5.308  17.337
 1843TIP3    H129724   2.259   5.251  17.297
 1843TIP3    H229725   2.177   5.375  17.271
 1844TIP3   OH229726   2.220   6.055  18.542
 1844TIP3    H129727   2.131   6.046  18.508
 1844TIP3    H229728   2.272   5.992  18.492
 1845TIP3   OH229729   2.027   6.281  17.484
 1845TIP3    H129730   1.986   6.226  17.551
 1845TIP3    H229731   2.005   6.238  17.401
 1846TIP3   OH229732   1.754   5.709  17.924
 1846TIP3    H129733   1.659   5.705  17.911
 1846TIP3    H229734   1.782   5.617  17.928
 1847TIP3   OH229735   0.975   6.277  17.618
 1847TIP3    H129736   1.043   6.319  17.566
 1847TIP3    H229737   0.893   6.305  17.578
 1848TIP3   OH229738   0.174   5.753  17.254
 1848TIP3    H129739   0.262   5.788  17.243
 1848TIP3    H229740   0.127   5.781  17.176
 1849TIP3   OH229741   1.061   6.006  17.623
 1849TIP3    H129742   1.041   6.099  17.628
 1849TIP3    H229743   1.157   6.002  17.624
 1850TIP3   OH229744   0.914   6.410  18.318
 1850TIP3    H129745   0.963   6.492  18.316
 1850TIP3    H229746   0.967   6.352  18.374
 1851TIP3   OH229747   1.239   5.932  18.213
 1851TIP3    H129748   1.246   6.010  18.267
 1851TIP3    H229749   1.321   5.928  18.164
 1852TIP3   OH229750   1.974   6.131  17.254
 1852TIP3    H129751   1.953   6.053  17.305
 1852TIP3    H229752   1.901   6.141  17.193
 1853TIP3   OH229753   1.730   6.485  18.329
 1853TIP3    H129754   1.652   6.491  18.274
 1853TIP3    H229755   1.780   6.564  18.309
 1854TIP3   OH229756   0.322   4.987  18.232
 1854TIP3    H129757   0.250   4.983  18.294
 1854TIP3    H229758   0.289   4.945  18.153
 1855TIP3   OH229759   1.887   5.914  17.414
 1855TIP3    H129760   1.811   5.856  17.417
 1855TIP3    H229761   1.961   5.855  17.397
 1856TIP3   OH229762   0.323   6.368  18.172
 1856TIP3    H129763   0.362   6.287  18.139
 1856TIP3    H229764   0.385   6.399  18.238
 1857TIP3   OH229765   0.814   6.185  17.251
 1857TIP3    H129766   0.877   6.121  17.283
 1857TIP3    H229767   0.813   6.254  17.318
 1858TIP3   OH229768   0.430   5.880  17.234
 1858TIP3    H129769   0.388   5.963  17.256
 1858TIP3    H229770   0.513   5.905  17.193
 1859TIP3   OH229771   1.472   4.835  18.287
 1859TIP3    H129772   1.538   4.769  18.265
 1859TIP3    H229773   1.391   4.785  18.298
 1860TIP3   OH229774   1.714   4.910  17.486
 1860TIP3    H129775   1.703   4.963  17.408
 1860TIP3    H229776   1.720   4.973  17.558
 1861TIP3   OH229777   1.080   6.401  17.383
 1861TIP3    H129778   0.986   6.419  17.381
 1861TIP3    H229779   1.120   6.476  17.338
 1862TIP3   OH229780   1.397   5.127  17.426
 1862TIP3    H129781   1.405   5.218  17.454
 1862TIP3    H229782   1.310   5.122  17.386
 1863TIP3   OH229783   1.334   5.204  18.393
 1863TIP3    H129784   1.273   5.210  18.466
 1863TIP3    H229785   1.349   5.110  18.382
 1864TIP3   OH229786   1.457   4.920  17.610
 1864TIP3    H129787   1.424   4.992  17.556
 1864TIP3    H229788   1.537   4.891  17.566
 1865TIP3   OH229789   0.801   6.416  17.422
 1865TIP3    H129790   0.731   6.437  17.360
 1865TIP3    H229791   0.805   6.491  17.480
 1866TIP3   OH229792   1.916   4.982  18.514
 1866TIP3    H129793   1.823   4.970  18.494
 1866TIP3    H229794   1.958   4.991  18.428
 1867TIP3   OH229795   1.800   5.428  17.915
 1867TIP3    H129796   1.723   5.382  17.950
 1867TIP3    H229797   1.875   5.377  17.948
 1868TIP3   OH229798   0.674   5.977  17.124
 1868TIP3    H129799   0.706   6.055  17.169
 1868TIP3    H229800   0.675   6.001  17.031
 1869TIP3   OH229801   1.984   6.630  18.053
 1869TIP3    H129802   1.954   6.698  17.994
 1869TIP3    H229803   1.997   6.553  17.997
 1870TIP3   OH229804   0.419   4.595  17.918
 1870TIP3    H129805   0.422   4.586  17.823
 1870TIP3    H229806   0.397   4.507  17.950
 1871TIP3   OH229807   0.291   6.343  17.446
 1871TIP3    H129808   0.276   6.435  17.422
 1871TIP3    H229809   0.368   6.345  17.503
 1872TIP3   OH229810   0.280   6.733  18.716
 1872TIP3    H129811   0.344   6.696  18.777
 1872TIP3    H229812   0.223   6.660  18.693
 1873TIP3   OH229813   0.619   6.413  18.797
 1873TIP3    H129814   0.707   6.449  18.788
 1873TIP3    H229815   0.603   6.367  18.714
 1874TIP3   OH229816   1.511   6.243  18.808
 1874TIP3    H129817   1.500   6.162  18.858
 1874TIP3    H229818   1.579   6.291  18.855
 1875TIP3   OH229819   0.249   5.812  18.785
 1875TIP3    H129820   0.263   5.733  18.838
 1875TIP3    H229821   0.154   5.823  18.783
 1876TIP3   OH229822   0.908   6.012  18.751
 1876TIP3    H129823   0.867   6.043  18.670
 1876TIP3    H229824   0.965   5.941  18.724
 1877TIP3   OH229825   1.763   5.883  18.536
 1877TIP3    H129826   1.842   5.925  18.501
 1877TIP3    H229827   1.694   5.949  18.528
 1878TIP3   OH229828   0.262   5.442  18.735
 1878TIP3    H129829   0.321   5.370  18.715
 1878TIP3    H229830   0.301   5.484  18.812
 1879TIP3   OH229831   0.817   5.787  17.261
 1879TIP3    H129832   0.767   5.851  17.211
 1879TIP3    H229833   0.762   5.709  17.262
 1880TIP3   OH229834   0.797   5.453  18.502
 1880TIP3    H129835   0.736   5.526  18.497
 1880TIP3    H229836   0.851   5.460  18.424
 1881TIP3   OH229837   1.452   5.724  18.963
 1881TIP3    H129838   1.542   5.704  18.938
 1881TIP3    H229839   1.401   5.649  18.932
 1882TIP3   OH229840   0.618   5.234  18.499
 1882TIP3    H129841   0.673   5.180  18.442
 1882TIP3    H229842   0.672   5.311  18.517
 1883TIP3   OH229843   0.810   4.887  18.322
 1883TIP3    H129844   0.822   4.981  18.324
 1883TIP3    H229845   0.730   4.875  18.270
 1884TIP3   OH229846   0.939   5.494  18.265
 1884TIP3    H129847   1.012   5.455  18.217
 1884TIP3    H229848   0.958   5.588  18.266
 1885TIP3   OH229849   1.436   5.274  18.742
 1885TIP3    H129850   1.465   5.183  18.742
 1885TIP3    H229851   1.496   5.319  18.683
 1886TIP3   OH229852   1.782   5.620  18.611
 1886TIP3    H129853   1.763   5.709  18.582
 1886TIP3    H229854   1.877   5.620  18.626
 1887TIP3   OH229855   0.403   5.200  18.680
 1887TIP3    H129856   0.374   5.113  18.657
 1887TIP3    H229857   0.480   5.216  18.625
 1888TIP3   OH229858   0.979   4.686  18.410
 1888TIP3    H129859   0.927   4.762  18.386
 1888TIP3    H229860   0.933   4.611  18.371
 1889TIP3   OH229861   1.220   4.927  18.739
 1889TIP3    H129862   1.205   4.917  18.833
 1889TIP3    H229863   1.179   4.850  18.699
 1890TIP3   OH229864   1.496   5.002  18.715
 1890TIP3    H129865   1.408   4.963  18.722
 1890TIP3    H229866   1.550   4.947  18.772
 1891TIP3   OH229867   1.642   4.834  18.897
 1891TIP3    H129868   1.647   4.738  18.896
 1891TIP3    H229869   1.582   4.854  18.969
 1892TIP3   OH229870   0.337   4.924  18.652
 1892TIP3    H129871   0.337   4.833  18.623
 1892TIP3    H229872   0.391   4.924  18.731
 1893TIP3   OH229873   1.078   4.664  18.674
 1893TIP3    H129874   1.115   4.576  18.672
 1893TIP3    H229875   1.036   4.675  18.589
 1894TIP3   OH229876   1.011   4.652  18.946
 1894TIP3    H129877   1.029   4.650  18.852
 1894TIP3    H229878   0.927   4.698  18.953
 1895TIP3   OH229879   0.115   6.097  17.084
 1895TIP3    H129880   0.076   6.132  17.004
 1895TIP3    H229881   0.096   6.003  17.080
 1896TIP3   OH229882   0.080   6.771  17.517
 1896TIP3    H129883   9.206   6.797  17.502
 1896TIP3    H229884   0.079   6.728  17.602
 1897TIP3   OH229885   0.122   6.580  17.733
 1897TIP3    H129886   0.176   6.545  17.662
 1897TIP3    H229887   0.177   6.573  17.811
 1898TIP3   OH229888   2.405   6.716  18.123
 1898TIP3    H129889   2.496   6.688  18.114
 1898TIP3    H229890   2.361   6.680  18.046
 1899TIP3   OH229891   2.168   6.543  18.478
 1899TIP3    H129892   2.161   6.549  18.383
 1899TIP3    H229893   2.078   6.532  18.508
 1900TIP3   OH229894   1.980   6.020  18.871
 1900TIP3    H129895   1.898   6.050  18.912
 1900TIP3    H229896   2.044   6.087  18.894
 1901TIP3   OH229897   2.091   5.741  17.360
 1901TIP3    H129898   2.158   5.755  17.294
 1901TIP3    H229899   2.138   5.705  17.435
 1902TIP3   OH229900   2.166   5.627  17.606
 1902TIP3    H129901   2.077   5.598  17.627
 1902TIP3    H229902   2.194   5.676  17.684
 1903TIP3   OH229903   2.328   5.824  18.129
 1903TIP3    H129904   2.353   5.736  18.101
 1903TIP3    H229905   2.390   5.882  18.083
 1904TIP3   OH229906   1.824   6.210  18.291
 1904TIP3    H129907   1.799   6.301  18.306
 1904TIP3    H229908   1.791   6.190  18.204
 1905TIP3   OH229909   2.105   5.527  17.173
 1905TIP3    H129910   2.170   5.588  17.138
 1905TIP3    H229911   2.059   5.576  17.241
 1906TIP3   OH229912   1.950   5.394  16.986
 1906TIP3    H129913   1.933   5.454  16.914
 1906TIP3    H229914   1.998   5.446  17.051
 1907TIP3   OH229915   1.917   5.523  17.676
 1907TIP3    H129916   1.935   5.442  17.630
 1907TIP3    H229917   1.875   5.496  17.758
 1908TIP3   OH229918   0.172   5.571  18.007
 1908TIP3    H129919   0.190   5.542  17.917
 1908TIP3    H229920   0.258   5.585  18.046
 1909TIP3   OH229921   2.055   5.607  18.656
 1909TIP3    H129922   2.081   5.520  18.686
 1909TIP3    H229923   2.121   5.630  18.590
 1910TIP3   OH229924   2.205   5.335  18.587
 1910TIP3    H129925   2.114   5.306  18.600
 1910TIP3    H229926   2.255   5.253  18.581
 1911TIP3   OH229927   1.982   5.298  17.523
 1911TIP3    H129928   2.001   5.233  17.592
 1911TIP3    H229929   2.058   5.293  17.465
 1912TIP3   OH229930   2.014   5.269  17.999
 1912TIP3    H129931   2.109   5.274  17.987
 1912TIP3    H229932   2.002   5.270  18.094
 1913TIP3   OH229933   2.015   5.322  18.276
 1913TIP3    H129934   1.943   5.347  18.334
 1913TIP3    H229935   2.063   5.403  18.260
 1914TIP3   OH229936   0.130   4.965  18.450
 1914TIP3    H129937   0.194   4.956  18.520
 1914TIP3    H229938   0.102   4.875  18.432
 1915TIP3   OH229939   2.187   4.619  18.798
 1915TIP3    H129940   2.270   4.589  18.762
 1915TIP3    H229941   2.167   4.699  18.748
 1916TIP3   OH229942   2.024   4.767  17.470
 1916TIP3    H129943   2.059   4.754  17.557
 1916TIP3    H229944   1.936   4.802  17.484
 1917TIP3   OH229945   0.322   4.857  17.968
 1917TIP3    H129946   0.349   4.766  17.960
 1917TIP3    H229947   0.400   4.907  17.943
 1918TIP3   OH229948   0.022   5.178  17.810
 1918TIP3    H129949   0.058   5.090  17.801
 1918TIP3    H229950   0.036   5.219  17.725
 1919TIP3   OH229951   2.096   4.872  18.695
 1919TIP3    H129952   2.046   4.887  18.775
 1919TIP3    H229953   2.035   4.895  18.624
 1920TIP3   OH229954   0.104   5.030  17.446
 1920TIP3    H129955   0.030   4.970  17.443
 1920TIP3    H229956   0.178   4.978  17.477
 1921TIP3   OH229957   1.906   6.523  17.781
 1921TIP3    H129958   1.963   6.530  17.704
 1921TIP3    H229959   1.884   6.613  17.803
 1922TIP3   OH229960   0.034   4.718  18.349
 1922TIP3    H129961   9.163   4.698  18.380
 1922TIP3    H229962   0.027   4.719  18.254
 1923TIP3   OH229963   0.332   6.073  18.781
 1923TIP3    H129964   0.346   6.095  18.689
 1923TIP3    H229965   0.298   5.983  18.779
 1924TIP3   OH229966   0.637   6.447  18.377
 1924TIP3    H129967   0.619   6.539  18.358
 1924TIP3    H229968   0.729   6.436  18.354
 1925TIP3   OH229969   1.200   6.638  18.598
 1925TIP3    H129970   1.223   6.552  18.634
 1925TIP3    H229971   1.283   6.687  18.599
 1926TIP3   OH229972   1.445   6.775  18.590
 1926TIP3    H129973   1.514   6.737  18.535
 1926TIP3    H229974   1.490   6.804  18.669
 1927TIP3   OH229975   2.034   4.438  18.450
 1927TIP3    H129976   1.950   4.444  18.404
 1927TIP3    H229977   2.072   4.355  18.419
 1928TIP3   OH229978   0.388   6.908  18.362
 1928TIP3    H129979   0.293   6.912  18.353
 1928TIP3    H229980   0.405   6.928  18.455
 1929TIP3   OH229981   0.583   6.706  18.289
 1929TIP3    H129982   0.516   6.773  18.306
 1929TIP3    H229983   0.563   6.676  18.200
 1930TIP3   OH229984   1.344   6.750  18.165
 1930TIP3    H129985   1.308   6.799  18.091
 1930TIP3    H229986   1.323   6.804  18.241
 1931TIP3   OH229987   1.514   6.528  18.149
 1931TIP3    H129988   1.456   6.602  18.162
 1931TIP3    H229989   1.532   6.528  18.055
 1932TIP3   OH229990   1.870   6.723  18.282
 1932TIP3    H129991   1.810   6.786  18.242
 1932TIP3    H229992   1.920   6.687  18.208
 1933TIP3   OH229993   0.306   6.537  17.947
 1933TIP3    H129994   0.284   6.480  18.020
 1933TIP3    H229995   0.398   6.557  17.960
 1934TIP3   OH229996   0.586   6.538  18.043
 1934TIP3    H129997   0.643   6.561  17.969
 1934TIP3    H229998   0.624   6.457  18.078
 1935TIP3   OH229999   0.756   6.309  18.106
 1935TIP3    H130000   0.809   6.284  18.030
 1935TIP3    H230001   0.820   6.343  18.170
 1936TIP3   OH230002   1.456   4.823  17.866
 1936TIP3    H130003   1.381   4.763  17.864
 1936TIP3    H230004   1.457   4.863  17.779
 1937TIP3   OH230005   1.912   4.542  17.862
 1937TIP3    H130006   1.967   4.607  17.818
 1937TIP3    H230007   1.830   4.589  17.881
 1938TIP3   OH230008   2.111   4.718  17.732
 1938TIP3    H130009   2.141   4.629  17.711
 1938TIP3    H230010   2.183   4.756  17.782
 1939TIP3   OH230011   0.522   4.544  17.336
 1939TIP3    H130012   0.436   4.560  17.375
 1939TIP3    H230013   0.569   4.627  17.349
 1940TIP3   OH230014   0.867   4.514  17.747
 1940TIP3    H130015   0.957   4.497  17.719
 1940TIP3    H230016   0.845   4.598  17.708
 1941TIP3   OH230017   1.663   4.647  17.935
 1941TIP3    H130018   1.600   4.714  17.907
 1941TIP3    H230019   1.618   4.564  17.918
 1942TIP3   OH230020   1.714   4.640  17.384
 1942TIP3    H130021   1.700   4.723  17.429
 1942TIP3    H230022   1.649   4.580  17.422
 1943TIP3   OH230023   0.280   6.611  17.400
 1943TIP3    H130024   0.218   6.680  17.424
 1943TIP3    H230025   0.329   6.647  17.326
 1944TIP3   OH230026   2.065   6.545  17.553
 1944TIP3    H130027   2.058   6.454  17.524
 1944TIP3    H230028   2.046   6.597  17.475
 1945TIP3   OH230029   0.359   4.649  18.621
 1945TIP3    H130030   0.305   4.579  18.657
 1945TIP3    H230031   0.444   4.639  18.664
 1946TIP3   OH230032   0.569   4.596  18.800
 1946TIP3    H130033   0.664   4.587  18.799
 1946TIP3    H230034   0.537   4.512  18.832
 1947TIP3   OH230035   1.684   4.553  18.898
 1947TIP3    H130036   1.634   4.472  18.911
 1947TIP3    H230037   1.755   4.528  18.839
 1948TIP3   OH230038   1.907   6.524  18.552
 1948TIP3    H130039   1.837   6.501  18.491
 1948TIP3    H230040   1.870   6.594  18.606
 1949TIP3   OH230041   3.768   5.771  17.747
 1949TIP3    H130042   3.708   5.843  17.765
 1949TIP3    H230043   3.720   5.712  17.690
 1950TIP3   OH230044   3.625   5.733  18.071
 1950TIP3    H130045   3.606   5.643  18.097
 1950TIP3    H230046   3.602   5.736  17.978
 1951TIP3   OH230047   2.631   5.479  18.145
 1951TIP3    H130048   2.656   5.406  18.203
 1951TIP3    H230049   2.714   5.510  18.109
 1952TIP3   OH230050   4.129   5.948  18.003
 1952TIP3    H130051   4.050   5.893  18.001
 1952TIP3    H230052   4.099   6.033  18.034
 1953TIP3   OH230053   2.805   6.162  18.025
 1953TIP3    H130054   2.783   6.077  17.988
 1953TIP3    H230055   2.899   6.171  18.011
 1954TIP3   OH230056   2.341   5.423  17.541
 1954TIP3    H130057   2.284   5.498  17.558
 1954TIP3    H230058   2.298   5.375  17.470
 1955TIP3   OH230059   2.441   5.486  17.799
 1955TIP3    H130060   2.484   5.403  17.820
 1955TIP3    H230061   2.412   5.476  17.709
 1956TIP3   OH230062   3.745   6.310  17.887
 1956TIP3    H130063   3.835   6.302  17.856
 1956TIP3    H230064   3.750   6.295  17.981
 1957TIP3   OH230065   3.210   5.926  18.024
 1957TIP3    H130066   3.244   5.906  17.937
 1957TIP3    H230067   3.288   5.929  18.080
 1958TIP3   OH230068   4.454   4.810  18.197
 1958TIP3    H130069   4.442   4.891  18.247
 1958TIP3    H230070   4.494   4.839  18.114
 1959TIP3   OH230071   3.621   5.220  18.027
 1959TIP3    H130072   3.674   5.141  18.039
 1959TIP3    H230073   3.534   5.188  18.005
 1960TIP3   OH230074   2.958   5.033  17.750
 1960TIP3    H130075   2.918   5.107  17.703
 1960TIP3    H230076   2.932   4.956  17.699
 1961TIP3   OH230077   2.523   5.221  17.839
 1961TIP3    H130078   2.594   5.173  17.881
 1961TIP3    H230079   2.540   5.212  17.745
 1962TIP3   OH230080   2.935   5.511  17.769
 1962TIP3    H130081   3.024   5.491  17.740
 1962TIP3    H230082   2.883   5.437  17.739
 1963TIP3   OH230083   4.429   5.048  18.342
 1963TIP3    H130084   4.432   5.139  18.315
 1963TIP3    H230085   4.498   5.040  18.408
 1964TIP3   OH230086   2.866   4.923  18.216
 1964TIP3    H130087   2.849   4.968  18.134
 1964TIP3    H230088   2.789   4.942  18.270
 1965TIP3   OH230089   3.553   5.935  17.778
 1965TIP3    H130090   3.494   5.906  17.708
 1965TIP3    H230091   3.547   6.031  17.776
 1966TIP3   OH230092   3.026   5.765  18.170
 1966TIP3    H130093   2.970   5.831  18.211
 1966TIP3    H230094   3.091   5.815  18.121
 1967TIP3   OH230095   2.811   5.064  17.981
 1967TIP3    H130096   2.851   5.145  18.015
 1967TIP3    H230097   2.863   5.043  17.904
 1968TIP3   OH230098   2.856   5.977  18.266
 1968TIP3    H130099   2.829   6.039  18.199
 1968TIP3    H230100   2.775   5.957  18.314
 1969TIP3   OH230101   2.408   6.179  17.377
 1969TIP3    H130102   2.483   6.123  17.354
 1969TIP3    H230103   2.387   6.156  17.468
 1970TIP3   OH230104   4.030   6.199  18.080
 1970TIP3    H130105   3.940   6.213  18.109
 1970TIP3    H230106   4.033   6.236  17.992
 1971TIP3   OH230107   4.237   4.638  18.224
 1971TIP3    H130108   4.248   4.579  18.149
 1971TIP3    H230109   4.301   4.707  18.211
 1972TIP3   OH230110   3.136   4.604  17.894
 1972TIP3    H130111   3.113   4.511  17.894
 1972TIP3    H230112   3.083   4.641  17.965
 1973TIP3   OH230113   4.014   6.283  17.816
 1973TIP3    H130114   4.053   6.203  17.780
 1973TIP3    H230115   4.043   6.352  17.757
 1974TIP3   OH230116   4.141   6.056  17.730
 1974TIP3    H130117   4.164   6.000  17.657
 1974TIP3    H230118   4.152   6.001  17.808
 1975TIP3   OH230119   4.230   6.007  18.422
 1975TIP3    H130120   4.248   5.955  18.344
 1975TIP3    H230121   4.207   6.094  18.389
 1976TIP3   OH230122   3.592   5.663  17.565
 1976TIP3    H130123   3.514   5.718  17.564
 1976TIP3    H230124   3.634   5.680  17.480
 1977TIP3   OH230125   4.448   5.597  18.213
 1977TIP3    H130126   4.387   5.670  18.208
 1977TIP3    H230127   4.518   5.619  18.151
 1978TIP3   OH230128   3.947   5.764  17.528
 1978TIP3    H130129   3.903   5.775  17.612
 1978TIP3    H230130   4.033   5.804  17.541
 1979TIP3   OH230131   3.967   5.375  18.560
 1979TIP3    H130132   3.988   5.461  18.596
 1979TIP3    H230133   3.960   5.390  18.465
 1980TIP3   OH230134   2.897   5.789  17.710
 1980TIP3    H130135   2.842   5.799  17.633
 1980TIP3    H230136   2.905   5.694  17.722
 1981TIP3   OH230137   3.073   6.168  17.953
 1981TIP3    H130138   3.084   6.172  17.858
 1981TIP3    H230139   3.121   6.090  17.980
 1982TIP3   OH230140   2.886   5.552  18.045
 1982TIP3    H130141   2.906   5.554  17.951
 1982TIP3    H230142   2.939   5.623  18.082
 1983TIP3   OH230143   3.775   6.266  18.162
 1983TIP3    H130144   3.762   6.349  18.208
 1983TIP3    H230145   3.720   6.204  18.210
 1984TIP3   OH230146   3.021   6.090  18.463
 1984TIP3    H130147   2.963   6.159  18.496
 1984TIP3    H230148   2.971   6.049  18.392
 1985TIP3   OH230149   3.746   5.733  17.344
 1985TIP3    H130150   3.820   5.739  17.404
 1985TIP3    H230151   3.775   5.777  17.264
 1986TIP3   OH230152   2.766   5.498  18.605
 1986TIP3    H130153   2.707   5.548  18.549
 1986TIP3    H230154   2.745   5.528  18.694
 1987TIP3   OH230155   3.531   6.209  17.751
 1987TIP3    H130156   3.607   6.243  17.798
 1987TIP3    H230157   3.489   6.286  17.714
 1988TIP3   OH230158   2.862   6.302  18.552
 1988TIP3    H130159   2.892   6.370  18.491
 1988TIP3    H230160   2.767   6.299  18.538
 1989TIP3   OH230161   2.734   5.815  17.487
 1989TIP3    H130162   2.700   5.896  17.448
 1989TIP3    H230163   2.704   5.746  17.428
 1990TIP3   OH230164   4.502   6.193  17.131
 1990TIP3    H130165   4.451   6.256  17.182
 1990TIP3    H230166   4.539   6.134  17.197
 1991TIP3   OH230167   2.354   5.847  18.408
 1991TIP3    H130168   2.338   5.840  18.314
 1991TIP3    H230169   2.330   5.760  18.442
 1992TIP3   OH230170   2.515   6.355  18.058
 1992TIP3    H130171   2.568   6.280  18.033
 1992TIP3    H230172   2.556   6.388  18.138
 1993TIP3   OH230173   4.362   6.360  18.645
 1993TIP3    H130174   4.365   6.276  18.691
 1993TIP3    H230175   4.273   6.392  18.659
 1994TIP3   OH230176   3.274   6.205  18.460
 1994TIP3    H130177   3.281   6.224  18.554
 1994TIP3    H230178   3.191   6.159  18.451
 1995TIP3   OH230179   2.635   6.569  17.758
 1995TIP3    H130180   2.701   6.522  17.809
 1995TIP3    H230181   2.616   6.510  17.685
 1996TIP3   OH230182   4.221   5.260  18.662
 1996TIP3    H130183   4.137   5.299  18.636
 1996TIP3    H230184   4.222   5.174  18.619
 1997TIP3   OH230185   2.624   5.937  18.414
 1997TIP3    H130186   2.626   5.972  18.503
 1997TIP3    H230187   2.534   5.903  18.405
 1998TIP3   OH230188   2.956   4.685  18.096
 1998TIP3    H130189   2.878   4.671  18.043
 1998TIP3    H230190   2.938   4.765  18.145
 1999TIP3   OH230191   3.449   4.547  18.424
 1999TIP3    H130192   3.483   4.556  18.513
 1999TIP3    H230193   3.366   4.596  18.426
 2000TIP3   OH230194   3.915   5.099  18.536
 2000TIP3    H130195   3.861   5.076  18.612
 2000TIP3    H230196   3.935   5.191  18.549
 2001TIP3   OH230197   3.380   5.143  17.274
 2001TIP3    H130198   3.417   5.071  17.223
 2001TIP3    H230199   3.365   5.213  17.210
 2002TIP3   OH230200   2.933   5.284  18.107
 2002TIP3    H130201   2.867   5.277  18.176
 2002TIP3    H230202   2.927   5.375  18.077
 2003TIP3   OH230203   2.824   5.277  17.651
 2003TIP3    H130204   2.735   5.269  17.619
 2003TIP3    H230205   2.879   5.273  17.573
 2004TIP3   OH230206   3.410   5.306  18.610
 2004TIP3    H130207   3.376   5.233  18.662
 2004TIP3    H230208   3.499   5.319  18.642
 2005TIP3   OH230209   2.740   5.268  18.300
 2005TIP3    H130210   2.800   5.286  18.372
 2005TIP3    H230211   2.700   5.184  18.322
 2006TIP3   OH230212   2.325   4.863  17.864
 2006TIP3    H130213   2.408   4.855  17.911
 2006TIP3    H230214   2.336   4.941  17.809
 2007TIP3   OH230215   3.554   5.470  18.134
 2007TIP3    H130216   3.587   5.392  18.090
 2007TIP3    H230217   3.489   5.437  18.196
 2008TIP3   OH230218   3.239   5.021  17.758
 2008TIP3    H130219   3.143   5.023  17.761
 2008TIP3    H230220   3.261   4.929  17.753
 2009TIP3   OH230221   2.558   5.243  17.561
 2009TIP3    H130222   2.490   5.310  17.550
 2009TIP3    H230223   2.553   5.191  17.481
 2010TIP3   OH230224   2.991   5.249  17.439
 2010TIP3    H130225   3.062   5.187  17.457
 2010TIP3    H230226   3.006   5.278  17.349
 2011TIP3   OH230227   3.767   4.984  18.053
 2011TIP3    H130228   3.793   4.983  18.146
 2011TIP3    H230229   3.728   4.898  18.039
 2012TIP3   OH230230   3.065   5.297  17.173
 2012TIP3    H130231   3.045   5.215  17.126
 2012TIP3    H230232   3.158   5.312  17.156
 2013TIP3   OH230233   4.178   6.740  18.709
 2013TIP3    H130234   4.204   6.740  18.616
 2013TIP3    H230235   4.253   6.776  18.755
 2014TIP3   OH230236   2.585   6.042  18.670
 2014TIP3    H130237   2.637   6.050  18.751
 2014TIP3    H230238   2.503   6.003  18.698
 2015TIP3   OH230239   3.371   5.117  17.986
 2015TIP3    H130240   3.330   5.091  17.904
 2015TIP3    H230241   3.298   5.122  18.049
 2016TIP3   OH230242   2.885   4.807  17.613
 2016TIP3    H130243   2.834   4.732  17.643
 2016TIP3    H230244   2.904   4.788  17.521
 2017TIP3   OH230245   3.175   5.165  18.187
 2017TIP3    H130246   3.094   5.205  18.154
 2017TIP3    H230247   3.220   5.237  18.231
 2018TIP3   OH230248   3.379   5.854  17.575
 2018TIP3    H130249   3.369   5.901  17.493
 2018TIP3    H230250   3.297   5.870  17.622
 2019TIP3   OH230251   4.313   5.857  18.192
 2019TIP3    H130252   4.396   5.889  18.157
 2019TIP3    H230253   4.248   5.879  18.124
 2020TIP3   OH230254   3.520   6.073  18.411
 2020TIP3    H130255   3.500   6.008  18.478
 2020TIP3    H230256   3.446   6.133  18.412
 2021TIP3   OH230257   2.783   5.904  17.937
 2021TIP3    H130258   2.822   5.875  17.854
 2021TIP3    H230259   2.785   5.825  17.992
 2022TIP3   OH230260   2.260   5.586  18.470
 2022TIP3    H130261   2.264   5.499  18.510
 2022TIP3    H230262   2.223   5.570  18.383
 2023TIP3   OH230263   3.214   5.509  18.641
 2023TIP3    H130264   3.179   5.528  18.554
 2023TIP3    H230265   3.280   5.442  18.626
 2024TIP3   OH230266   3.783   6.083  18.537
 2024TIP3    H130267   3.703   6.087  18.484
 2024TIP3    H230268   3.763   6.135  18.615
 2025TIP3   OH230269   4.450   5.916  18.571
 2025TIP3    H130270   4.370   5.957  18.538
 2025TIP3    H230271   4.514   5.928  18.500
 2026TIP3   OH230272   4.332   6.374  17.268
 2026TIP3    H130273   4.292   6.333  17.345
 2026TIP3    H230274   4.262   6.374  17.203
 2027TIP3   OH230275   3.892   5.811  17.992
 2027TIP3    H130276   3.815   5.792  18.046
 2027TIP3    H230277   3.862   5.793  17.902
 2028TIP3   OH230278   3.052   6.199  17.669
 2028TIP3    H130279   3.086   6.275  17.622
 2028TIP3    H230280   2.957   6.201  17.652
 2029TIP3   OH230281   2.543   5.801  17.160
 2029TIP3    H130282   2.463   5.760  17.193
 2029TIP3    H230283   2.524   5.819  17.068
 2030TIP3   OH230284   3.143   5.931  17.697
 2030TIP3    H130285   3.116   6.022  17.682
 2030TIP3    H230286   3.060   5.883  17.704
 2031TIP3   OH230287   3.207   6.416  18.287
 2031TIP3    H130288   3.290   6.462  18.275
 2031TIP3    H230289   3.228   6.340  18.342
 2032TIP3   OH230290   3.076   6.443  17.518
 2032TIP3    H130291   3.059   6.479  17.431
 2032TIP3    H230292   3.082   6.520  17.575
 2033TIP3   OH230293   3.441   5.918  18.177
 2033TIP3    H130294   3.482   5.971  18.245
 2033TIP3    H230295   3.511   5.860  18.146
 2034TIP3   OH230296   3.996   6.491  18.398
 2034TIP3    H130297   3.902   6.480  18.381
 2034TIP3    H230298   4.020   6.569  18.349
 2035TIP3   OH230299   2.631   5.012  18.345
 2035TIP3    H130300   2.560   4.989  18.284
 2035TIP3    H230301   2.599   4.984  18.430
 2036TIP3   OH230302   4.198   5.897  17.500
 2036TIP3    H130303   4.157   5.921  17.417
 2036TIP3    H230304   4.284   5.865  17.476
 2037TIP3   OH230305   2.669   6.427  18.285
 2037TIP3    H130306   2.762   6.437  18.303
 2037TIP3    H230307   2.635   6.378  18.360
 2038TIP3   OH230308   3.027   6.317  17.194
 2038TIP3    H130309   3.123   6.310  17.200
 2038TIP3    H230310   3.008   6.408  17.217
 2039TIP3   OH230311   2.620   6.013  17.317
 2039TIP3    H130312   2.596   5.942  17.257
 2039TIP3    H230313   2.697   6.053  17.278
 2040TIP3   OH230314   3.814   4.954  18.322
 2040TIP3    H130315   3.854   5.013  18.386
 2040TIP3    H230316   3.782   4.881  18.374
 2041TIP3   OH230317   3.303   6.366  17.174
 2041TIP3    H130318   3.287   6.458  17.153
 2041TIP3    H230319   3.371   6.368  17.241
 2042TIP3   OH230320   3.208   5.083  17.480
 2042TIP3    H130321   3.280   5.114  17.425
 2042TIP3    H230322   3.245   5.081  17.569
 2043TIP3   OH230323   3.371   5.325  18.327
 2043TIP3    H130324   3.379   5.328  18.422
 2043TIP3    H230325   3.424   5.249  18.301
 2044TIP3   OH230326   3.423   4.731  17.496
 2044TIP3    H130327   3.389   4.744  17.585
 2044TIP3    H230328   3.518   4.730  17.507
 2045TIP3   OH230329   2.940   4.762  17.343
 2045TIP3    H130330   2.897   4.827  17.287
 2045TIP3    H230331   3.033   4.786  17.341
 2046TIP3   OH230332   4.214   5.021  18.521
 2046TIP3    H130333   4.124   5.013  18.489
 2046TIP3    H230334   4.268   5.023  18.442
 2047TIP3   OH230335   2.848   6.109  17.200
 2047TIP3    H130336   2.898   6.190  17.205
 2047TIP3    H230337   2.908   6.046  17.160
 2048TIP3   OH230338   4.177   6.729  17.999
 2048TIP3    H130339   4.170   6.725  17.904
 2048TIP3    H230340   4.255   6.677  18.020
 2049TIP3   OH230341   2.727   4.652  17.945
 2049TIP3    H130342   2.728   4.639  17.851
 2049TIP3    H230343   2.714   4.565  17.981
 2050TIP3   OH230344   2.544   6.414  17.548
 2050TIP3    H130345   2.453   6.432  17.525
 2050TIP3    H230346   2.579   6.366  17.474
 2051TIP3   OH230347   2.415   6.570  18.679
 2051TIP3    H130348   2.487   6.554  18.740
 2051TIP3    H230349   2.386   6.483  18.652
 2052TIP3   OH230350   2.844   6.357  18.827
 2052TIP3    H130351   2.932   6.359  18.865
 2052TIP3    H230352   2.858   6.335  18.735
 2053TIP3   OH230353   3.720   6.228  18.775
 2053TIP3    H130354   3.717   6.159  18.841
 2053TIP3    H230355   3.796   6.281  18.799
 2054TIP3   OH230356   4.119   6.334  17.101
 2054TIP3    H130357   4.117   6.266  17.034
 2054TIP3    H230358   4.027   6.358  17.113
 2055TIP3   OH230359   2.343   5.947  18.775
 2055TIP3    H130360   2.295   5.881  18.825
 2055TIP3    H230361   2.282   5.974  18.707
 2056TIP3   OH230362   3.130   5.967  18.682
 2056TIP3    H130363   3.089   6.005  18.604
 2056TIP3    H230364   3.155   5.878  18.655
 2057TIP3   OH230365   3.992   5.891  18.542
 2057TIP3    H130366   4.068   5.937  18.508
 2057TIP3    H230367   3.921   5.956  18.540
 2058TIP3   OH230368   2.685   5.612  18.843
 2058TIP3    H130369   2.726   5.695  18.867
 2058TIP3    H230370   2.605   5.609  18.895
 2059TIP3   OH230371   2.951   5.352  18.468
 2059TIP3    H130372   2.892   5.403  18.523
 2059TIP3    H230373   3.010   5.416  18.429
 2060TIP3   OH230374   3.758   5.767  18.959
 2060TIP3    H130375   3.850   5.746  18.941
 2060TIP3    H230376   3.710   5.688  18.934
 2061TIP3   OH230377   4.250   5.769  16.967
 2061TIP3    H130378   4.217   5.745  16.881
 2061TIP3    H230379   4.181   5.824  17.005
 2062TIP3   OH230380   3.087   5.131  18.566
 2062TIP3    H130381   3.091   5.061  18.500
 2062TIP3    H230382   3.044   5.203  18.521
 2063TIP3   OH230383   3.106   4.947  18.352
 2063TIP3    H130384   3.147   5.009  18.292
 2063TIP3    H230385   3.021   4.927  18.312
 2064TIP3   OH230386   3.130   5.543  18.364
 2064TIP3    H130387   3.209   5.514  18.319
 2064TIP3    H230388   3.096   5.615  18.311
 2065TIP3   OH230389   3.682   5.317  18.708
 2065TIP3    H130390   3.705   5.227  18.730
 2065TIP3    H230391   3.757   5.349  18.658
 2066TIP3   OH230392   4.044   5.633  18.621
 2066TIP3    H130393   4.009   5.717  18.590
 2066TIP3    H230394   4.139   5.643  18.615
 2067TIP3   OH230395   2.986   5.203  18.817
 2067TIP3    H130396   2.915   5.264  18.798
 2067TIP3    H230397   3.023   5.181  18.731
 2068TIP3   OH230398   3.197   4.676  18.437
 2068TIP3    H130399   3.177   4.767  18.415
 2068TIP3    H230400   3.123   4.626  18.404
 2069TIP3   OH230401   3.287   5.080  18.753
 2069TIP3    H130402   3.234   5.032  18.817
 2069TIP3    H230403   3.228   5.095  18.679
 2070TIP3   OH230404   3.748   5.048  18.760
 2070TIP3    H130405   3.665   5.028  18.801
 2070TIP3    H230406   3.809   4.983  18.796
 2071TIP3   OH230407   3.896   4.840  18.886
 2071TIP3    H130408   3.870   4.749  18.873
 2071TIP3    H230409   3.847   4.868  18.964
 2072TIP3   OH230410   2.527   4.925  18.590
 2072TIP3    H130411   2.540   4.830  18.596
 2072TIP3    H230412   2.561   4.959  18.673
 2073TIP3   OH230413   3.198   4.570  18.694
 2073TIP3    H130414   3.264   4.501  18.696
 2073TIP3    H230415   3.201   4.604  18.605
 2074TIP3   OH230416   3.043   4.683  18.883
 2074TIP3    H130417   3.101   4.653  18.813
 2074TIP3    H230418   3.064   4.776  18.892
 2075TIP3   OH230419   2.205   6.702  17.736
 2075TIP3    H130420   2.166   6.642  17.672
 2075TIP3    H230421   2.259   6.647  17.792
 2076TIP3   OH230422   2.390   6.550  17.892
 2076TIP3    H130423   2.410   6.476  17.950
 2076TIP3    H230424   2.471   6.564  17.843
 2077TIP3   OH230425   4.399   6.594  18.145
 2077TIP3    H130426   4.379   6.540  18.221
 2077TIP3    H230427   4.430   6.677  18.181
 2078TIP3   OH230428   4.346   6.451  18.383
 2078TIP3    H130429   4.288   6.382  18.350
 2078TIP3    H230430   4.372   6.420  18.470
 2079TIP3   OH230431   4.271   6.048  18.887
 2079TIP3    H130432   4.183   6.067  18.919
 2079TIP3    H230433   4.326   6.118  18.923
 2080TIP3   OH230434   4.454   5.821  17.409
 2080TIP3    H130435   4.509   5.895  17.384
 2080TIP3    H230436   4.503   5.777  17.479
 2081TIP3   OH230437   4.571   5.695  17.641
 2081TIP3    H130438   4.493   5.665  17.689
 2081TIP3    H230439   4.645   5.665  17.694
 2082TIP3   OH230440   4.569   5.910  18.101
 2082TIP3    H130441   4.613   5.828  18.080
 2082TIP3    H230442   4.596   5.970  18.032
 2083TIP3   OH230443   4.153   6.262  18.320
 2083TIP3    H130444   4.089   6.325  18.354
 2083TIP3    H230445   4.118   6.237  18.234
 2084TIP3   OH230446   4.450   5.663  17.135
 2084TIP3    H130447   4.380   5.696  17.079
 2084TIP3    H230448   4.440   5.711  17.217
 2085TIP3   OH230449   2.385   5.562  18.056
 2085TIP3    H130450   2.401   5.551  17.962
 2085TIP3    H230451   2.467   5.536  18.097
 2086TIP3   OH230452   4.317   5.674  18.613
 2086TIP3    H130453   4.362   5.597  18.576
 2086TIP3    H230454   4.370   5.748  18.584
 2087TIP3   OH230455   4.429   5.418  18.557
 2087TIP3    H130456   4.364   5.365  18.605
 2087TIP3    H230457   4.506   5.419  18.614
 2088TIP3   OH230458   4.315   5.225  18.021
 2088TIP3    H130459   4.395   5.232  17.970
 2088TIP3    H230460   4.340   5.252  18.110
 2089TIP3   OH230461   4.414   5.328  18.291
 2089TIP3    H130462   4.414   5.352  18.384
 2089TIP3    H230463   4.421   5.411  18.244
 2090TIP3   OH230464   2.274   5.056  18.564
 2090TIP3    H130465   2.360   5.013  18.564
 2090TIP3    H230466   2.219   4.998  18.617
 2091TIP3   OH230467   4.484   4.623  18.803
 2091TIP3    H130468   4.572   4.602  18.774
 2091TIP3    H230469   4.461   4.702  18.754
 2092TIP3   OH230470   2.587   4.890  17.972
 2092TIP3    H130471   2.629   4.804  17.967
 2092TIP3    H230472   2.659   4.952  17.976
 2093TIP3   OH230473   2.287   5.288  17.984
 2093TIP3    H130474   2.361   5.252  17.936
 2093TIP3    H230475   2.319   5.371  18.019
 2094TIP3   OH230476   4.378   4.872  18.695
 2094TIP3    H130477   4.334   4.891  18.778
 2094TIP3    H230478   4.321   4.910  18.628
 2095TIP3   OH230479   2.169   4.739  17.230
 2095TIP3    H130480   2.134   4.764  17.315
 2095TIP3    H230481   2.218   4.816  17.200
 2096TIP3   OH230482   2.245   4.561  18.300
 2096TIP3    H130483   2.172   4.544  18.359
 2096TIP3    H230484   2.235   4.652  18.273
 2097TIP3   OH230485   2.587   6.278  18.518
 2097TIP3    H130486   2.497   6.307  18.531
 2097TIP3    H230487   2.593   6.193  18.560
 2098TIP3   OH230488   2.937   6.482  18.356
 2098TIP3    H130489   2.929   6.576  18.345
 2098TIP3    H230490   3.027   6.462  18.330
 2099TIP3   OH230491   3.439   6.651  18.666
 2099TIP3    H130492   3.445   6.559  18.692
 2099TIP3    H230493   3.527   6.685  18.679
 2100TIP3   OH230494   3.703   6.712  18.719
 2100TIP3    H130495   3.739   6.652  18.784
 2100TIP3    H230496   3.763   6.787  18.720
 2101TIP3   OH230497   4.339   4.490  18.431
 2101TIP3    H130498   4.292   4.543  18.367
 2101TIP3    H230499   4.331   4.401  18.399
 2102TIP3   OH230500   2.635   6.813  18.360
 2102TIP3    H130501   2.567   6.830  18.295
 2102TIP3    H230502   2.591   6.821  18.444
 2103TIP3   OH230503   2.901   6.754  18.317
 2103TIP3    H130504   2.810   6.770  18.341
 2103TIP3    H230505   2.915   6.809  18.240
 2104TIP3   OH230506   3.454   6.555  18.242
 2104TIP3    H130507   3.436   6.593  18.156
 2104TIP3    H230508   3.423   6.621  18.304
 2105TIP3   OH230509   3.728   6.508  18.289
 2105TIP3    H130510   3.632   6.506  18.289
 2105TIP3    H230511   3.750   6.599  18.268
 2106TIP3   OH230512   4.067   6.731  18.255
 2106TIP3    H130513   4.074   6.825  18.269
 2106TIP3    H230514   4.094   6.718  18.164
 2107TIP3   OH230515   2.666   6.633  18.089
 2107TIP3    H130516   2.668   6.587  18.173
 2107TIP3    H230517   2.709   6.573  18.028
 2108TIP3   OH230518   2.807   6.439  17.945
 2108TIP3    H130519   2.790   6.349  17.971
 2108TIP3    H230520   2.898   6.454  17.970
 2109TIP3   OH230521   3.067   6.432  18.043
 2109TIP3    H130522   3.080   6.344  18.009
 2109TIP3    H230523   3.114   6.432  18.126
 2110TIP3   OH230524   3.323   4.753  17.759
 2110TIP3    H130525   3.252   4.705  17.802
 2110TIP3    H230526   3.401   4.731  17.810
 2111TIP3   OH230527   4.226   4.479  17.789
 2111TIP3    H130528   4.272   4.414  17.735
 2111TIP3    H230529   4.205   4.549  17.727
 2112TIP3   OH230530   2.721   4.588  17.675
 2112TIP3    H130531   2.646   4.596  17.616
 2112TIP3    H230532   2.735   4.494  17.684
 2113TIP3   OH230533   2.309   4.523  17.138
 2113TIP3    H130534   2.397   4.554  17.118
 2113TIP3    H230535   2.264   4.600  17.173
 2114TIP3   OH230536   3.115   4.463  17.626
 2114TIP3    H130537   3.187   4.467  17.563
 2114TIP3    H230538   3.118   4.546  17.672
 2115TIP3   OH230539   3.695   4.703  17.559
 2115TIP3    H130540   3.788   4.719  17.546
 2115TIP3    H230541   3.688   4.608  17.568
 2116TIP3   OH230542   2.183   6.523  17.176
 2116TIP3    H130543   2.217   6.592  17.119
 2116TIP3    H230544   2.114   6.566  17.227
 2117TIP3   OH230545   3.203   4.835  17.352
 2117TIP3    H130546   3.281   4.794  17.389
 2117TIP3    H230547   3.200   4.922  17.394
 2118TIP3   OH230548   4.466   6.603  17.385
 2118TIP3    H130549   4.411   6.538  17.342
 2118TIP3    H230550   4.424   6.687  17.363
 2119TIP3   OH230551   2.589   4.659  18.643
 2119TIP3    H130552   2.523   4.595  18.668
 2119TIP3    H230553   2.663   4.641  18.701
 2120TIP3   OH230554   2.797   4.585  18.814
 2120TIP3    H130555   2.882   4.625  18.828
 2120TIP3    H230556   2.813   4.491  18.816
 2121TIP3   OH230557   3.848   4.558  18.827
 2121TIP3    H130558   3.836   4.482  18.883
 2121TIP3    H230559   3.938   4.550  18.794
 2122TIP3   OH230560   4.107   6.468  18.664
 2122TIP3    H130561   4.064   6.470  18.578
 2122TIP3    H230562   4.119   6.560  18.686
 2123TIP3   OH230563   4.898   5.592  18.245
 2123TIP3    H130564   4.912   5.497  18.240
 2123TIP3    H230565   4.884   5.610  18.338
 2124TIP3   OH230566   6.148   6.002  17.949
 2124TIP3    H130567   6.163   5.922  17.999
 2124TIP3    H230568   6.177   6.073  18.008
 2125TIP3   OH230569   5.112   6.032  18.059
 2125TIP3    H130570   5.086   5.947  18.023
 2125TIP3    H230571   5.110   6.091  17.984
 2126TIP3   OH230572   4.719   5.239  17.564
 2126TIP3    H130573   4.661   5.308  17.595
 2126TIP3    H230574   4.693   5.162  17.613
 2127TIP3   OH230575   4.788   5.579  17.821
 2127TIP3    H130576   4.798   5.486  17.841
 2127TIP3    H230577   4.864   5.600  17.766
 2128TIP3   OH230578   6.073   6.554  17.909
 2128TIP3    H130579   6.139   6.485  17.902
 2128TIP3    H230580   6.086   6.608  17.832
 2129TIP3   OH230581   6.580   4.934  17.996
 2129TIP3    H130582   6.619   5.002  18.050
 2129TIP3    H230583   6.650   4.910  17.935
 2130TIP3   OH230584   6.014   5.234  18.128
 2130TIP3    H130585   6.074   5.161  18.139
 2130TIP3    H230586   5.943   5.200  18.075
 2131TIP3   OH230587   5.109   4.989  17.724
 2131TIP3    H130588   5.200   5.000  17.698
 2131TIP3    H230589   5.089   4.898  17.702
 2132TIP3   OH230590   6.090   5.183  17.576
 2132TIP3    H130591   6.037   5.113  17.540
 2132TIP3    H230592   6.118   5.234  17.500
 2133TIP3   OH230593   4.838   5.310  17.879
 2133TIP3    H130594   4.864   5.246  17.945
 2133TIP3    H230595   4.890   5.288  17.802
 2134TIP3   OH230596   5.345   5.538  17.825
 2134TIP3    H130597   5.434   5.537  17.789
 2134TIP3    H230598   5.300   5.468  17.778
 2135TIP3   OH230599   6.705   5.132  18.140
 2135TIP3    H130600   6.659   5.216  18.147
 2135TIP3    H230601   6.731   5.112  18.230
 2136TIP3   OH230602   5.039   4.885  18.202
 2136TIP3    H130603   5.018   4.944  18.130
 2136TIP3    H230604   4.964   4.891  18.261
 2137TIP3   OH230605   5.161   5.708  18.258
 2137TIP3    H130606   5.068   5.686  18.248
 2137TIP3    H230607   5.161   5.801  18.281
 2138TIP3   OH230608   5.005   5.050  17.975
 2138TIP3    H130609   5.061   5.120  18.008
 2138TIP3    H230610   5.042   5.028  17.889
 2139TIP3   OH230611   5.142   5.982  18.326
 2139TIP3    H130612   5.137   6.010  18.235
 2139TIP3    H230613   5.053   5.997  18.360
 2140TIP3   OH230614   4.624   6.038  17.333
 2140TIP3    H130615   4.709   5.999  17.311
 2140TIP3    H230616   4.645   6.116  17.383
 2141TIP3   OH230617   6.237   6.229  18.096
 2141TIP3    H130618   6.166   6.280  18.135
 2141TIP3    H230619   6.264   6.280  18.020
 2142TIP3   OH230620   6.369   4.953  18.190
 2142TIP3    H130621   6.281   4.952  18.152
 2142TIP3    H230622   6.427   4.936  18.116
 2143TIP3   OH230623   5.347   4.559  17.923
 2143TIP3    H130624   5.353   4.471  17.960
 2143TIP3    H230625   5.272   4.599  17.967
 2144TIP3   OH230626   6.277   6.377  17.866
 2144TIP3    H130627   6.264   6.306  17.803
 2144TIP3    H230628   6.343   6.433  17.826
 2145TIP3   OH230629   6.221   6.148  17.724
 2145TIP3    H130630   6.259   6.091  17.657
 2145TIP3    H230631   6.193   6.088  17.794
 2146TIP3   OH230632   6.551   5.996  18.422
 2146TIP3    H130633   6.563   5.938  18.347
 2146TIP3    H230634   6.514   6.076  18.385
 2147TIP3   OH230635   5.728   5.545  17.337
 2147TIP3    H130636   5.643   5.558  17.379
 2147TIP3    H230637   5.732   5.613  17.270
 2148TIP3   OH230638   5.781   5.250  17.076
 2148TIP3    H130639   5.813   5.269  17.165
 2148TIP3    H230640   5.805   5.159  17.061
 2149TIP3   OH230641   6.726   5.604  18.202
 2149TIP3    H130642   6.676   5.685  18.197
 2149TIP3    H230643   6.805   5.622  18.152
 2150TIP3   OH230644   6.263   5.386  18.517
 2150TIP3    H130645   6.280   5.472  18.555
 2150TIP3    H230646   6.194   5.401  18.453
 2151TIP3   OH230647   5.128   5.683  17.712
 2151TIP3    H130648   5.148   5.690  17.619
 2151TIP3    H230649   5.202   5.634  17.748
 2152TIP3   OH230650   5.270   5.505  18.093
 2152TIP3    H130651   5.298   5.527  18.004
 2152TIP3    H230652   5.236   5.587  18.128
 2153TIP3   OH230653   6.010   6.364  18.210
 2153TIP3    H130654   6.026   6.369  18.304
 2153TIP3    H230655   5.967   6.280  18.197
 2154TIP3   OH230656   5.300   6.145  18.492
 2154TIP3    H130657   5.232   6.205  18.522
 2154TIP3    H230658   5.253   6.083  18.436
 2155TIP3   OH230659   4.903   5.612  18.528
 2155TIP3    H130660   4.912   5.699  18.567
 2155TIP3    H230661   4.824   5.576  18.568
 2156TIP3   OH230662   5.100   6.339  18.545
 2156TIP3    H130663   5.139   6.402  18.484
 2156TIP3    H230664   5.012   6.323  18.509
 2157TIP3   OH230665   5.204   5.668  17.436
 2157TIP3    H130666   5.186   5.731  17.367
 2157TIP3    H230667   5.156   5.589  17.409
 2158TIP3   OH230668   6.502   6.303  17.199
 2158TIP3    H130669   6.515   6.351  17.117
 2158TIP3    H230670   6.492   6.212  17.171
 2159TIP3   OH230671   4.643   5.910  18.369
 2159TIP3    H130672   4.612   5.916  18.279
 2159TIP3    H230673   4.638   5.817  18.390
 2160TIP3   OH230674   4.607   6.445  18.032
 2160TIP3    H130675   4.667   6.448  18.107
 2160TIP3    H230676   4.529   6.490  18.063
 2161TIP3   OH230677   6.700   6.277  18.577
 2161TIP3    H130678   6.713   6.188  18.610
 2161TIP3    H230679   6.624   6.308  18.626
 2162TIP3   OH230680   5.531   6.286  18.449
 2162TIP3    H130681   5.537   6.310  18.541
 2162TIP3    H230682   5.453   6.231  18.443
 2163TIP3   OH230683   5.841   6.684  17.345
 2163TIP3    H130684   5.858   6.601  17.301
 2163TIP3    H230685   5.752   6.674  17.381
 2164TIP3   OH230686   4.980   6.564  17.725
 2164TIP3    H130687   5.027   6.532  17.802
 2164TIP3    H230688   4.890   6.533  17.738
 2165TIP3   OH230689   6.325   6.623  17.262
 2165TIP3    H130690   6.289   6.546  17.218
 2165TIP3    H230691   6.252   6.659  17.312
 2166TIP3   OH230692   6.108   6.712  17.417
 2166TIP3    H130693   6.015   6.699  17.395
 2166TIP3    H230694   6.117   6.676  17.505
 2167TIP3   OH230695   6.516   5.290  18.447
 2167TIP3    H130696   6.431   5.327  18.473
 2167TIP3    H230697   6.500   5.196  18.444
 2168TIP3   OH230698   4.888   6.013  18.434
 2168TIP3    H130699   4.903   5.963  18.515
 2168TIP3    H230700   4.803   5.982  18.403
 2169TIP3   OH230701   5.123   4.663  18.052
 2169TIP3    H130702   5.045   4.643  18.000
 2169TIP3    H230703   5.099   4.740  18.103
 2170TIP3   OH230704   5.717   4.699  18.402
 2170TIP3    H130705   5.749   4.617  18.440
 2170TIP3    H230706   5.622   4.696  18.414
 2171TIP3   OH230707   6.251   5.127  18.616
 2171TIP3    H130708   6.166   5.115  18.657
 2171TIP3    H230709   6.252   5.218  18.588
 2172TIP3   OH230710   5.142   5.260  18.096
 2172TIP3    H130711   5.071   5.281  18.157
 2172TIP3    H230712   5.188   5.343  18.084
 2173TIP3   OH230713   5.230   5.358  17.662
 2173TIP3    H130714   5.145   5.315  17.654
 2173TIP3    H230715   5.279   5.331  17.585
 2174TIP3   OH230716   5.874   5.309  17.338
 2174TIP3    H130717   5.832   5.395  17.338
 2174TIP3    H230718   5.968   5.328  17.339
 2175TIP3   OH230719   5.640   5.372  18.697
 2175TIP3    H130720   5.595   5.289  18.716
 2175TIP3    H230721   5.717   5.370  18.753
 2176TIP3   OH230722   4.947   5.315  18.283
 2176TIP3    H130723   4.998   5.337  18.362
 2176TIP3    H230724   4.891   5.243  18.310
 2177TIP3   OH230725   4.645   5.031  17.728
 2177TIP3    H130726   4.689   4.962  17.776
 2177TIP3    H230727   4.603   4.985  17.654
 2178TIP3   OH230728   4.585   5.189  17.317
 2178TIP3    H130729   4.585   5.265  17.258
 2178TIP3    H230730   4.648   5.213  17.386
 2179TIP3   OH230731   6.048   5.405  18.343
 2179TIP3    H130732   6.037   5.344  18.271
 2179TIP3    H230733   5.972   5.388  18.400
 2180TIP3   OH230734   5.703   4.950  17.778
 2180TIP3    H130735   5.723   4.916  17.691
 2180TIP3    H230736   5.645   4.884  17.816
 2181TIP3   OH230737   4.983   5.228  17.657
 2181TIP3    H130738   4.904   5.222  17.603
 2181TIP3    H230739   5.011   5.137  17.667
 2182TIP3   OH230740   5.408   5.308  17.451
 2182TIP3    H130741   5.494   5.276  17.477
 2182TIP3    H230742   5.382   5.250  17.379
 2183TIP3   OH230743   6.099   4.963  18.110
 2183TIP3    H130744   6.046   4.918  18.175
 2183TIP3    H230745   6.039   4.977  18.036
 2184TIP3   OH230746   6.490   6.694  18.685
 2184TIP3    H130747   6.502   6.739  18.601
 2184TIP3    H230748   6.556   6.734  18.742
 2185TIP3   OH230749   4.899   5.857  18.663
 2185TIP3    H130750   4.967   5.868  18.728
 2185TIP3    H230751   4.818   5.879  18.708
 2186TIP3   OH230752   5.848   5.046  17.993
 2186TIP3    H130753   5.808   5.028  17.908
 2186TIP3    H230754   5.801   4.991  18.055
 2187TIP3   OH230755   5.097   4.726  17.656
 2187TIP3    H130756   5.025   4.662  17.648
 2187TIP3    H230757   5.176   4.674  17.644
 2188TIP3   OH230758   5.350   5.110  18.201
 2188TIP3    H130759   5.276   5.158  18.164
 2188TIP3    H230760   5.414   5.106  18.130
 2189TIP3   OH230761   6.601   5.859  18.184
 2189TIP3    H130762   6.693   5.885  18.178
 2189TIP3    H230763   6.562   5.890  18.103
 2190TIP3   OH230764   5.995   4.913  17.170
 2190TIP3    H130765   5.931   4.947  17.107
 2190TIP3    H230766   6.002   4.820  17.148
 2191TIP3   OH230767   5.788   6.184  18.460
 2191TIP3    H130768   5.779   6.133  18.540
 2191TIP3    H230769   5.702   6.222  18.445
 2192TIP3   OH230770   6.159   5.306  17.333
 2192TIP3    H130771   6.180   5.236  17.272
 2192TIP3    H230772   6.235   5.365  17.329
 2193TIP3   OH230773   5.036   5.796  17.945
 2193TIP3    H130774   5.068   5.767  17.859
 2193TIP3    H230775   4.981   5.724  17.975
 2194TIP3   OH230776   4.604   5.648  18.437
 2194TIP3    H130777   4.611   5.581  18.505
 2194TIP3    H230778   4.546   5.611  18.371
 2195TIP3   OH230779   5.441   5.564  18.639
 2195TIP3    H130780   5.405   5.544  18.552
 2195TIP3    H230781   5.514   5.503  18.650
 2196TIP3   OH230782   6.012   6.350  18.496
 2196TIP3    H130783   5.934   6.298  18.473
 2196TIP3    H230784   6.030   6.327  18.587
 2197TIP3   OH230785   6.742   5.146  17.363
 2197TIP3    H130786   6.695   5.098  17.295
 2197TIP3    H230787   6.683   5.217  17.388
 2198TIP3   OH230788   6.769   5.990  18.598
 2198TIP3    H130789   6.687   5.988  18.547
 2198TIP3    H230790   6.835   5.955  18.538
 2199TIP3   OH230791   6.563   6.506  17.372
 2199TIP3    H130792   6.476   6.544  17.366
 2199TIP3    H230793   6.556   6.423  17.323
 2200TIP3   OH230794   6.054   5.571  18.113
 2200TIP3    H130795   6.062   5.545  18.205
 2200TIP3    H230796   6.043   5.488  18.065
 2201TIP3   OH230797   5.457   6.476  18.259
 2201TIP3    H130798   5.512   6.551  18.280
 2201TIP3    H230799   5.489   6.406  18.316
 2202TIP3   OH230800   5.575   6.612  17.867
 2202TIP3    H130801   5.588   6.559  17.788
 2202TIP3    H230802   5.546   6.697  17.834
 2203TIP3   OH230803   5.899   6.115  18.217
 2203TIP3    H130804   5.854   6.129  18.300
 2203TIP3    H230805   5.927   6.024  18.220
 2204TIP3   OH230806   6.301   6.410  18.449
 2204TIP3    H130807   6.207   6.405  18.468
 2204TIP3    H230808   6.315   6.498  18.414
 2205TIP3   OH230809   4.834   4.906  18.391
 2205TIP3    H130810   4.750   4.935  18.426
 2205TIP3    H230811   4.861   4.836  18.451
 2206TIP3   OH230812   4.803   6.496  18.235
 2206TIP3    H130813   4.828   6.423  18.292
 2206TIP3    H230814   4.822   6.574  18.287
 2207TIP3   OH230815   5.131   5.815  17.213
 2207TIP3    H130816   5.065   5.795  17.147
 2207TIP3    H230817   5.169   5.898  17.185
 2208TIP3   OH230818   5.925   4.852  18.298
 2208TIP3    H130819   5.971   4.852  18.382
 2208TIP3    H230820   5.846   4.801  18.313
 2209TIP3   OH230821   5.924   5.036  17.403
 2209TIP3    H130822   5.957   4.990  17.326
 2209TIP3    H230823   5.899   5.123  17.369
 2210TIP3   OH230824   5.668   5.221  17.517
 2210TIP3    H130825   5.736   5.253  17.458
 2210TIP3    H230826   5.716   5.193  17.595
 2211TIP3   OH230827   5.833   5.322  18.500
 2211TIP3    H130828   5.758   5.355  18.549
 2211TIP3    H230829   5.803   5.239  18.463
 2212TIP3   OH230830   5.759   4.848  17.522
 2212TIP3    H130831   5.783   4.762  17.487
 2212TIP3    H230832   5.822   4.908  17.483
 2213TIP3   OH230833   5.581   6.610  17.383
 2213TIP3    H130834   5.532   6.643  17.308
 2213TIP3    H230835   5.580   6.515  17.373
 2214TIP3   OH230836   5.363   5.110  17.259
 2214TIP3    H130837   5.327   5.044  17.200
 2214TIP3    H230838   5.424   5.062  17.314
 2215TIP3   OH230839   6.448   5.021  18.444
 2215TIP3    H130840   6.366   5.039  18.490
 2215TIP3    H230841   6.420   4.993  18.357
 2216TIP3   OH230842   6.509   6.636  18.111
 2216TIP3    H130843   6.500   6.695  18.036
 2216TIP3    H230844   6.598   6.602  18.103
 2217TIP3   OH230845   4.893   4.594  17.910
 2217TIP3    H130846   4.900   4.579  17.816
 2217TIP3    H230847   4.869   4.509  17.947
 2218TIP3   OH230848   4.699   6.273  17.455
 2218TIP3    H130849   4.644   6.346  17.483
 2218TIP3    H230850   4.788   6.299  17.479
 2219TIP3   OH230851   4.650   6.692  18.728
 2219TIP3    H130852   4.721   6.664  18.787
 2219TIP3    H230853   4.619   6.610  18.687
 2220TIP3   OH230854   5.073   6.413  18.815
 2220TIP3    H130855   5.156   6.388  18.854
 2220TIP3    H230856   5.080   6.386  18.723
 2221TIP3   OH230857   5.842   6.430  17.247
 2221TIP3    H130858   5.757   6.402  17.283
 2221TIP3    H230859   5.872   6.355  17.196
 2222TIP3   OH230860   6.004   6.279  18.763
 2222TIP3    H130861   5.978   6.197  18.805
 2222TIP3    H230862   6.088   6.301  18.802
 2223TIP3   OH230863   4.643   5.901  18.773
 2223TIP3    H130864   4.629   5.815  18.813
 2223TIP3    H230865   4.572   5.910  18.709
 2224TIP3   OH230866   5.295   5.808  18.642
 2224TIP3    H130867   5.326   5.854  18.564
 2224TIP3    H230868   5.348   5.728  18.645
 2225TIP3   OH230869   6.397   5.900  18.630
 2225TIP3    H130870   6.445   5.935  18.555
 2225TIP3    H230871   6.423   5.956  18.703
 2226TIP3   OH230872   4.678   5.505  18.679
 2226TIP3    H130873   4.711   5.430  18.728
 2226TIP3    H230874   4.665   5.573  18.745
 2227TIP3   OH230875   5.474   5.580  17.457
 2227TIP3    H130876   5.391   5.626  17.449
 2227TIP3    H230877   5.451   5.487  17.455
 2228TIP3   OH230878   5.092   5.408  18.494
 2228TIP3    H130879   5.036   5.482  18.520
 2228TIP3    H230880   5.177   5.448  18.475
 2229TIP3   OH230881   6.040   5.794  18.928
 2229TIP3    H130882   6.131   5.763  18.919
 2229TIP3    H230883   5.989   5.715  18.943
 2230TIP3   OH230884   5.303   5.096  18.563
 2230TIP3    H130885   5.294   5.013  18.516
 2230TIP3    H230886   5.288   5.164  18.497
 2231TIP3   OH230887   5.273   4.901  18.361
 2231TIP3    H130888   5.312   4.968  18.304
 2231TIP3    H230889   5.191   4.878  18.318
 2232TIP3   OH230890   5.323   5.527  18.388
 2232TIP3    H130891   5.348   5.478  18.309
 2232TIP3    H230892   5.272   5.600  18.355
 2233TIP3   OH230893   5.916   5.335  18.777
 2233TIP3    H130894   5.959   5.252  18.795
 2233TIP3    H230895   5.921   5.346  18.682
 2234TIP3   OH230896   6.344   5.631  18.621
 2234TIP3    H130897   6.337   5.726  18.614
 2234TIP3    H230898   6.438   5.614  18.621
 2235TIP3   OH230899   5.206   5.158  18.816
 2235TIP3    H130900   5.113   5.173  18.805
 2235TIP3    H230901   5.239   5.142  18.728
 2236TIP3   OH230902   5.428   4.679  18.435
 2236TIP3    H130903   5.379   4.758  18.414
 2236TIP3    H230904   5.386   4.610  18.383
 2237TIP3   OH230905   5.521   5.129  18.740
 2237TIP3    H130906   5.505   5.066  18.811
 2237TIP3    H230907   5.453   5.109  18.675
 2238TIP3   OH230908   6.024   5.068  18.772
 2238TIP3    H130909   5.939   5.025  18.773
 2238TIP3    H230910   6.082   5.009  18.819
 2239TIP3   OH230911   6.181   4.870  18.904
 2239TIP3    H130912   6.192   4.775  18.899
 2239TIP3    H230913   6.119   4.883  18.976
 2240TIP3   OH230914   4.807   4.920  18.732
 2240TIP3    H130915   4.839   4.851  18.673
 2240TIP3    H230916   4.850   4.901  18.816
 2241TIP3   OH230917   5.386   4.582  18.697
 2241TIP3    H130918   5.449   4.510  18.701
 2241TIP3    H230919   5.399   4.621  18.611
 2242TIP3   OH230920   5.511   4.716  18.909
 2242TIP3    H130921   5.470   4.668  18.837
 2242TIP3    H230922   5.460   4.797  18.916
 2243TIP3   OH230923   5.464   6.714  17.148
 2243TIP3    H130924   5.409   6.652  17.100
 2243TIP3    H230925   5.468   6.791  17.092
 2244TIP3   OH230926   4.689   6.670  17.540
 2244TIP3    H130927   4.607   6.649  17.496
 2244TIP3    H230928   4.681   6.626  17.625
 2245TIP3   OH230929   4.706   6.549  17.795
 2245TIP3    H130930   4.655   6.490  17.850
 2245TIP3    H230931   4.748   6.609  17.856
 2246TIP3   OH230932   6.771   6.521  18.132
 2246TIP3    H130933   6.741   6.443  18.179
 2246TIP3    H230934   6.839   6.559  18.189
 2247TIP3   OH230935   6.705   6.306  18.299
 2247TIP3    H130936   6.615   6.276  18.285
 2247TIP3    H230937   6.716   6.304  18.394
 2248TIP3   OH230938   6.508   6.035  18.848
 2248TIP3    H130939   6.447   6.058  18.918
 2248TIP3    H230940   6.585   6.090  18.863
 2249TIP3   OH230941   6.864   5.907  18.165
 2249TIP3    H130942   6.922   5.850  18.114
 2249TIP3    H230943   6.901   5.995  18.153
 2250TIP3   OH230944   6.438   6.219  18.297
 2250TIP3    H130945   6.395   6.282  18.357
 2250TIP3    H230946   6.377   6.212  18.223
 2251TIP3   OH230947   6.587   5.019  17.181
 2251TIP3    H130948   6.528   5.072  17.127
 2251TIP3    H230949   6.563   4.929  17.161
 2252TIP3   OH230950   4.687   5.665  18.069
 2252TIP3    H130951   4.716   5.634  17.983
 2252TIP3    H230952   4.757   5.641  18.129
 2253TIP3   OH230953   6.619   5.609  18.641
 2253TIP3    H130954   6.649   5.520  18.656
 2253TIP3    H230955   6.681   5.646  18.578
 2254TIP3   OH230956   6.741   5.357  18.593
 2254TIP3    H130957   6.665   5.330  18.541
 2254TIP3    H230958   6.771   5.277  18.636
 2255TIP3   OH230959   6.581   5.370  18.187
 2255TIP3    H130960   6.552   5.357  18.277
 2255TIP3    H230961   6.630   5.452  18.188
 2256TIP3   OH230962   4.603   4.978  18.555
 2256TIP3    H130963   4.673   4.979  18.620
 2256TIP3    H230964   4.529   4.938  18.601
 2257TIP3   OH230965   6.696   4.630  18.836
 2257TIP3    H130966   6.750   4.554  18.815
 2257TIP3    H230967   6.703   4.686  18.758
 2258TIP3   OH230968   4.794   4.863  17.891
 2258TIP3    H130969   4.823   4.772  17.902
 2258TIP3    H230970   4.865   4.915  17.928
 2259TIP3   OH230971   4.560   5.240  17.885
 2259TIP3    H130972   4.574   5.160  17.834
 2259TIP3    H230973   4.647   5.279  17.894
 2260TIP3   OH230974   6.611   4.915  18.644
 2260TIP3    H130975   6.545   4.929  18.712
 2260TIP3    H230976   6.566   4.938  18.562
 2261TIP3   OH230977   4.528   4.969  17.485
 2261TIP3    H130978   4.453   4.918  17.455
 2261TIP3    H230979   4.541   5.035  17.416
 2262TIP3   OH230980   6.436   6.583  17.755
 2262TIP3    H130981   6.521   6.583  17.711
 2262TIP3    H230982   6.441   6.656  17.816
 2263TIP3   OH230983   4.573   4.572  18.300
 2263TIP3    H130984   4.505   4.553  18.365
 2263TIP3    H230985   4.546   4.654  18.260
 2264TIP3   OH230986   4.850   6.287  18.426
 2264TIP3    H130987   4.871   6.195  18.417
 2264TIP3    H230988   4.764   6.287  18.469
 2265TIP3   OH230989   5.197   6.508  18.354
 2265TIP3    H130990   5.174   6.599  18.331
 2265TIP3    H230991   5.284   6.496  18.318
 2266TIP3   OH230992   5.712   6.652  18.564
 2266TIP3    H130993   5.709   6.575  18.620
 2266TIP3    H230994   5.806   6.668  18.551
 2267TIP3   OH230995   5.988   6.628  18.532
 2267TIP3    H130996   5.989   6.533  18.530
 2267TIP3    H230997   6.059   6.652  18.592
 2268TIP3   OH230998   6.611   4.526  18.504
 2268TIP3    H130999   6.551   4.544  18.431
 2268TIP3    H231000   6.649   4.441  18.484
 2269TIP3   OH231001   4.843   6.750  18.346
 2269TIP3    H131002   4.771   6.791  18.298
 2269TIP3    H231003   4.840   6.790  18.433
 2270TIP3   OH231004   5.121   6.769  18.292
 2270TIP3    H131005   5.030   6.755  18.319
 2270TIP3    H231006   5.115   6.831  18.219
 2271TIP3   OH231007   5.748   6.633  18.088
 2271TIP3    H131008   5.686   6.622  18.016
 2271TIP3    H231009   5.695   6.664  18.162
 2272TIP3   OH231010   6.087   6.668  18.279
 2272TIP3    H131011   6.049   6.676  18.366
 2272TIP3    H231012   6.181   6.676  18.292
 2273TIP3   OH231013   6.358   6.658  18.335
 2273TIP3    H131014   6.417   6.715  18.385
 2273TIP3    H231015   6.405   6.642  18.253
 2274TIP3   OH231016   4.856   6.656  18.007
 2274TIP3    H131017   4.819   6.608  18.081
 2274TIP3    H231018   4.941   6.616  17.992
 2275TIP3   OH231019   5.083   6.501  17.981
 2275TIP3    H131020   5.071   6.438  18.051
 2275TIP3    H231021   5.175   6.527  17.986
 2276TIP3   OH231022   5.346   6.565  18.025
 2276TIP3    H131023   5.422   6.572  17.967
 2276TIP3    H231024   5.381   6.527  18.105
 2277TIP3   OH231025   5.564   4.739  17.898
 2277TIP3    H131026   5.481   4.691  17.901
 2277TIP3    H231027   5.627   4.680  17.940
 2278TIP3   OH231028   4.912   4.518  17.643
 2278TIP3    H131029   4.847   4.518  17.573
 2278TIP3    H231030   4.950   4.430  17.642
 2279TIP3   OH231031   5.317   4.555  17.645
 2279TIP3    H131032   5.407   4.566  17.612
 2279TIP3    H231033   5.328   4.551  17.740
 2280TIP3   OH231034   5.535   4.993  17.434
 2280TIP3    H131035   5.593   4.920  17.456
 2280TIP3    H231036   5.582   5.071  17.465
 2281TIP3   OH231037   4.888   4.702  18.580
 2281TIP3    H131038   4.827   4.642  18.623
 2281TIP3    H231039   4.974   4.679  18.617
 2282TIP3   OH231040   5.096   4.616  18.753
 2282TIP3    H131041   5.189   4.600  18.736
 2282TIP3    H231042   5.062   4.532  18.783
 2283TIP3   OH231043   6.229   4.588  18.891
 2283TIP3    H131044   6.173   4.510  18.897
 2283TIP3    H231045   6.299   4.563  18.831
 2284TIP3   OH231046   6.458   6.410  18.682
 2284TIP3    H131047   6.407   6.404  18.602
 2284TIP3    H231048   6.478   6.503  18.692
 2285TIP3   OH231049   8.479   5.756  17.528
 2285TIP3    H131050   8.508   5.817  17.596
 2285TIP3    H231051   8.389   5.782  17.509
 2286TIP3   OH231052   7.845   5.470  18.140
 2286TIP3    H131053   7.930   5.428  18.157
 2286TIP3    H231054   7.816   5.431  18.057
 2287TIP3   OH231055   7.188   5.576  18.222
 2287TIP3    H131056   7.263   5.553  18.168
 2287TIP3    H231057   7.212   5.550  18.310
 2288TIP3   OH231058   8.545   5.957  17.939
 2288TIP3    H131059   8.583   5.886  17.992
 2288TIP3    H231060   8.560   6.036  17.992
 2289TIP3   OH231061   7.372   6.119  18.031
 2289TIP3    H131062   7.357   6.039  17.981
 2289TIP3    H231063   7.465   6.139  18.017
 2290TIP3   OH231064   7.023   5.496  17.861
 2290TIP3    H131065   7.043   5.403  17.873
 2290TIP3    H231066   7.017   5.507  17.766
 2291TIP3   OH231067   7.812   5.751  18.173
 2291TIP3    H131068   7.839   5.661  18.156
 2291TIP3    H231069   7.891   5.794  18.206
 2292TIP3   OH231070   8.790   4.850  18.251
 2292TIP3    H131071   8.812   4.933  18.294
 2292TIP3    H231072   8.797   4.868  18.158
 2293TIP3   OH231073   8.281   5.218  18.031
 2293TIP3    H131074   8.293   5.123  18.027
 2293TIP3    H231075   8.326   5.252  17.953
 2294TIP3   OH231076   7.495   5.006  17.765
 2294TIP3    H131077   7.496   5.095  17.730
 2294TIP3    H231078   7.440   4.957  17.703
 2295TIP3   OH231079   8.398   5.078  17.644
 2295TIP3    H131080   8.428   5.012  17.706
 2295TIP3    H231081   8.455   5.067  17.567
 2296TIP3   OH231082   7.082   5.219  17.848
 2296TIP3    H131083   7.136   5.166  17.907
 2296TIP3    H231084   7.114   5.198  17.761
 2297TIP3   OH231085   7.536   5.483  17.827
 2297TIP3    H131086   7.619   5.443  17.853
 2297TIP3    H231087   7.493   5.416  17.775
 2298TIP3   OH231088   8.856   5.085  18.378
 2298TIP3    H131089   8.839   5.175  18.350
 2298TIP3    H231090   8.940   5.089  18.423
 2299TIP3   OH231091   7.341   4.880  18.188
 2299TIP3    H131092   7.324   4.941  18.115
 2299TIP3    H231093   7.281   4.908  18.257
 2300TIP3   OH231094   8.219   5.848  17.517
 2300TIP3    H131095   8.167   5.906  17.461
 2300TIP3    H231096   8.162   5.829  17.591
 2301TIP3   OH231097   7.547   5.730  18.228
 2301TIP3    H131098   7.506   5.815  18.244
 2301TIP3    H231099   7.637   5.752  18.203
 2302TIP3   OH231100   8.486   4.895  17.824
 2302TIP3    H131101   8.438   4.917  17.903
 2302TIP3    H231102   8.479   4.800  17.816
 2303TIP3   OH231103   7.295   5.045  17.961
 2303TIP3    H131104   7.334   5.122  18.001
 2303TIP3    H231105   7.358   5.018  17.894
 2304TIP3   OH231106   7.413   5.976  18.278
 2304TIP3    H131107   7.380   6.026  18.204
 2304TIP3    H231108   7.334   5.946  18.323
 2305TIP3   OH231109   8.561   6.210  18.075
 2305TIP3    H131110   8.471   6.230  18.101
 2305TIP3    H231111   8.579   6.271  18.004
 2306TIP3   OH231112   8.562   4.689  18.301
 2306TIP3    H131113   8.485   4.745  18.298
 2306TIP3    H231114   8.635   4.747  18.279
 2307TIP3   OH231115   7.614   4.510  17.902
 2307TIP3    H131116   7.621   4.426  17.947
 2307TIP3    H231117   7.548   4.558  17.951
 2308TIP3   OH231118   8.766   6.040  18.461
 2308TIP3    H131119   8.777   5.964  18.404
 2308TIP3    H231120   8.746   6.112  18.401
 2309TIP3   OH231121   8.939   5.582  18.279
 2309TIP3    H131122   8.888   5.663  18.285
 2309TIP3    H231123   8.990   5.592  18.199
 2310TIP3   OH231124   8.494   5.480  17.583
 2310TIP3    H131125   8.482   5.573  17.561
 2310TIP3    H231126   8.584   5.475  17.615
 2311TIP3   OH231127   8.592   5.407  18.498
 2311TIP3    H131128   8.588   5.496  18.532
 2311TIP3    H231129   8.505   5.392  18.459
 2312TIP3   OH231130   7.480   5.726  17.695
 2312TIP3    H131131   7.458   5.693  17.608
 2312TIP3    H231132   7.507   5.649  17.744
 2313TIP3   OH231133   7.632   6.182  17.954
 2313TIP3    H131134   7.606   6.183  17.862
 2313TIP3    H231135   7.696   6.111  17.960
 2314TIP3   OH231136   7.423   5.532  18.078
 2314TIP3    H131137   7.460   5.531  17.989
 2314TIP3    H231138   7.471   5.601  18.123
 2315TIP3   OH231139   8.304   6.284  18.157
 2315TIP3    H131140   8.265   6.359  18.112
 2315TIP3    H231141   8.230   6.223  18.168
 2316TIP3   OH231142   7.532   6.110  18.490
 2316TIP3    H131143   7.465   6.172  18.521
 2316TIP3    H231144   7.492   6.068  18.414
 2317TIP3   OH231145   7.298   5.611  18.496
 2317TIP3    H131146   7.297   5.684  18.435
 2317TIP3    H231147   7.267   5.647  18.579
 2318TIP3   OH231148   7.347   6.300  18.571
 2318TIP3    H131149   7.351   6.366  18.501
 2318TIP3    H231150   7.255   6.295  18.594
 2319TIP3   OH231151   8.835   4.675  17.274
 2319TIP3    H131152   8.847   4.581  17.267
 2319TIP3    H231153   8.805   4.702  17.188
 2320TIP3   OH231154   7.430   5.610  17.448
 2320TIP3    H131155   7.484   5.599  17.370
 2320TIP3    H231156   7.381   5.528  17.453
 2321TIP3   OH231157   8.757   6.380  17.209
 2321TIP3    H131158   8.698   6.381  17.285
 2321TIP3    H231159   8.831   6.433  17.236
 2322TIP3   OH231160   6.931   5.849  18.426
 2322TIP3    H131161   6.904   5.865  18.336
 2322TIP3    H231162   6.907   5.758  18.442
 2323TIP3   OH231163   6.925   6.177  18.178
 2323TIP3    H131164   6.994   6.241  18.189
 2323TIP3    H231165   6.848   6.218  18.217
 2324TIP3   OH231166   8.783   6.258  18.639
 2324TIP3    H131167   8.785   6.182  18.581
 2324TIP3    H231168   8.694   6.294  18.630
 2325TIP3   OH231169   7.780   6.228  18.499
 2325TIP3    H131170   7.795   6.228  18.594
 2325TIP3    H231171   7.695   6.184  18.489
 2326TIP3   OH231172   7.314   6.499  17.694
 2326TIP3    H131173   7.314   6.462  17.782
 2326TIP3    H231174   7.222   6.501  17.669
 2327TIP3   OH231175   8.735   5.254  18.681
 2327TIP3    H131176   8.688   5.318  18.626
 2327TIP3    H231177   8.710   5.169  18.645
 2328TIP3   OH231178   7.207   5.881  18.435
 2328TIP3    H131179   7.216   5.867  18.529
 2328TIP3    H231180   7.113   5.879  18.419
 2329TIP3   OH231181   7.400   4.639  18.053
 2329TIP3    H131182   7.325   4.629  17.994
 2329TIP3    H231183   7.386   4.725  18.093
 2330TIP3   OH231184   7.885   4.523  18.389
 2330TIP3    H131185   7.900   4.480  18.474
 2330TIP3    H231186   7.809   4.578  18.403
 2331TIP3   OH231187   8.356   5.064  18.489
 2331TIP3    H131188   8.340   5.053  18.583
 2331TIP3    H231189   8.282   5.116  18.458
 2332TIP3   OH231190   8.565   5.721  17.030
 2332TIP3    H131191   8.474   5.697  17.012
 2332TIP3    H231192   8.572   5.719  17.125
 2333TIP3   OH231193   7.924   5.068  17.115
 2333TIP3    H131194   7.851   5.045  17.172
 2333TIP3    H231195   7.913   5.011  17.039
 2334TIP3   OH231196   7.427   5.251  18.086
 2334TIP3    H131197   7.382   5.236  18.169
 2334TIP3    H231198   7.426   5.347  18.075
 2335TIP3   OH231199   7.438   5.274  17.669
 2335TIP3    H131200   7.352   5.241  17.641
 2335TIP3    H231201   7.499   5.244  17.601
 2336TIP3   OH231202   8.166   5.382  17.343
 2336TIP3    H131203   8.152   5.438  17.420
 2336TIP3    H231204   8.252   5.342  17.358
 2337TIP3   OH231205   7.957   5.265  18.650
 2337TIP3    H131206   7.895   5.196  18.676
 2337TIP3    H231207   7.986   5.303  18.733
 2338TIP3   OH231208   8.424   5.309  17.800
 2338TIP3    H131209   8.427   5.376  17.732
 2338TIP3    H231210   8.413   5.227  17.752
 2339TIP3   OH231211   7.307   5.198  18.320
 2339TIP3    H131212   7.347   5.251  18.389
 2339TIP3    H231213   7.271   5.122  18.366
 2340TIP3   OH231214   7.475   5.113  17.122
 2340TIP3    H131215   7.552   5.073  17.162
 2340TIP3    H231216   7.462   5.064  17.040
 2341TIP3   OH231217   6.799   4.892  17.831
 2341TIP3    H131218   6.887   4.888  17.866
 2341TIP3    H231219   6.809   4.931  17.744
 2342TIP3   OH231220   7.018   5.156  17.400
 2342TIP3    H131221   7.057   5.189  17.319
 2342TIP3    H231222   6.924   5.159  17.385
 2343TIP3   OH231223   8.087   5.340  18.187
 2343TIP3    H131224   8.150   5.305  18.124
 2343TIP3    H231225   8.116   5.306  18.272
 2344TIP3   OH231226   7.747   5.049  17.882
 2344TIP3    H131227   7.663   5.021  17.845
 2344TIP3    H231228   7.807   4.977  17.861
 2345TIP3   OH231229   7.199   5.138  17.608
 2345TIP3    H131230   7.140   5.150  17.534
 2345TIP3    H231231   7.231   5.048  17.599
 2346TIP3   OH231232   7.634   5.148  17.525
 2346TIP3    H131233   7.721   5.174  17.555
 2346TIP3    H231234   7.650   5.097  17.445
 2347TIP3   OH231235   8.311   4.935  18.034
 2347TIP3    H131236   8.321   4.903  18.124
 2347TIP3    H231237   8.250   4.874  17.994
 2348TIP3   OH231238   7.357   5.350  17.198
 2348TIP3    H131239   7.264   5.328  17.189
 2348TIP3    H231240   7.403   5.270  17.174
 2349TIP3   OH231241   8.607   6.657  18.678
 2349TIP3    H131242   8.654   6.699  18.606
 2349TIP3    H231243   8.667   6.662  18.753
 2350TIP3   OH231244   7.208   5.795  18.700
 2350TIP3    H131245   7.270   5.834  18.761
 2350TIP3    H231246   7.122   5.818  18.735
 2351TIP3   OH231247   7.768   5.337  17.892
 2351TIP3    H131248   7.816   5.335  17.809
 2351TIP3    H231249   7.752   5.245  17.912
 2352TIP3   OH231250   7.324   4.887  17.583
 2352TIP3    H131251   7.301   4.795  17.594
 2352TIP3    H231252   7.343   4.895  17.490
 2353TIP3   OH231253   7.648   5.089  18.146
 2353TIP3    H131254   7.578   5.151  18.124
 2353TIP3    H231255   7.692   5.072  18.063
 2354TIP3   OH231256   7.774   5.895  17.361
 2354TIP3    H131257   7.753   5.803  17.346
 2354TIP3    H231258   7.714   5.922  17.430
 2355TIP3   OH231259   8.796   5.833  18.272
 2355TIP3    H131260   8.872   5.851  18.218
 2355TIP3    H231261   8.729   5.802  18.211
 2356TIP3   OH231262   8.100   4.988  17.322
 2356TIP3    H131263   8.036   5.018  17.258
 2356TIP3    H231264   8.098   4.893  17.315
 2357TIP3   OH231265   8.015   6.072  18.486
 2357TIP3    H131266   7.991   6.044  18.575
 2357TIP3    H231267   7.948   6.136  18.463
 2358TIP3   OH231268   8.420   5.288  17.396
 2358TIP3    H131269   8.477   5.213  17.411
 2358TIP3    H231270   8.449   5.354  17.459
 2359TIP3   OH231271   7.360   5.879  17.896
 2359TIP3    H131272   7.404   5.836  17.823
 2359TIP3    H231273   7.306   5.809  17.935
 2360TIP3   OH231274   8.025   6.010  17.403
 2360TIP3    H131275   8.015   6.101  17.375
 2360TIP3    H231276   7.940   5.970  17.384
 2361TIP3   OH231277   6.829   5.593  18.458
 2361TIP3    H131278   6.823   5.507  18.498
 2361TIP3    H231279   6.797   5.581  18.369
 2362TIP3   OH231280   7.753   5.471  18.625
 2362TIP3    H131281   7.721   5.490  18.537
 2362TIP3    H231282   7.820   5.403  18.612
 2363TIP3   OH231283   8.292   6.091  18.549
 2363TIP3    H131284   8.205   6.085  18.511
 2363TIP3    H231285   8.282   6.153  18.621
 2364TIP3   OH231286   8.999   5.890  18.617
 2364TIP3    H131287   8.932   5.955  18.597
 2364TIP3    H231288   9.055   5.888  18.539
 2365TIP3   OH231289   8.610   5.724  18.092
 2365TIP3    H131290   8.520   5.717  18.125
 2365TIP3    H231291   8.621   5.646  18.037
 2366TIP3   OH231292   7.532   6.188  17.696
 2366TIP3    H131293   7.561   6.272  17.661
 2366TIP3    H231294   7.436   6.191  17.689
 2367TIP3   OH231295   7.596   5.947  17.563
 2367TIP3    H131296   7.578   6.027  17.612
 2367TIP3    H231297   7.558   5.877  17.616
 2368TIP3   OH231298   7.673   6.437  18.342
 2368TIP3    H131299   7.722   6.514  18.370
 2368TIP3    H231300   7.713   6.364  18.389
 2369TIP3   OH231301   7.582   6.451  17.624
 2369TIP3    H131302   7.491   6.479  17.638
 2369TIP3    H231303   7.634   6.515  17.673
 2370TIP3   OH231304   8.034   5.879  18.284
 2370TIP3    H131305   8.022   5.947  18.350
 2370TIP3    H231306   8.127   5.855  18.290
 2371TIP3   OH231307   8.453   6.410  18.358
 2371TIP3    H131308   8.395   6.352  18.309
 2371TIP3    H231309   8.449   6.493  18.311
 2372TIP3   OH231310   7.183   4.963  18.406
 2372TIP3    H131311   7.090   4.982  18.399
 2372TIP3    H231312   7.189   4.891  18.468
 2373TIP3   OH231313   8.638   5.737  17.292
 2373TIP3    H131314   8.584   5.744  17.371
 2373TIP3    H231315   8.726   5.720  17.324
 2374TIP3   OH231316   7.125   6.521  18.271
 2374TIP3    H131317   7.207   6.484  18.305
 2374TIP3    H231318   7.111   6.600  18.324
 2375TIP3   OH231319   7.951   6.296  16.849
 2375TIP3    H131320   7.999   6.262  16.773
 2375TIP3    H231321   7.859   6.283  16.825
 2376TIP3   OH231322   8.337   4.855  18.305
 2376TIP3    H131323   8.351   4.930  18.362
 2376TIP3    H231324   8.260   4.811  18.341
 2377TIP3   OH231325   8.116   5.065  17.588
 2377TIP3    H131326   8.115   5.047  17.494
 2377TIP3    H231327   8.209   5.077  17.608
 2378TIP3   OH231328   7.983   6.275  17.331
 2378TIP3    H131329   7.907   6.326  17.359
 2378TIP3    H231330   8.005   6.312  17.245
 2379TIP3   OH231331   7.878   5.196  17.664
 2379TIP3    H131332   7.964   5.168  17.631
 2379TIP3    H231333   7.857   5.134  17.733
 2380TIP3   OH231334   8.110   5.187  18.432
 2380TIP3    H131335   8.064   5.224  18.507
 2380TIP3    H231336   8.042   5.145  18.380
 2381TIP3   OH231337   7.953   4.897  17.739
 2381TIP3    H131338   7.888   4.862  17.678
 2381TIP3    H231339   8.011   4.950  17.685
 2382TIP3   OH231340   7.788   6.444  17.434
 2382TIP3    H131341   7.789   6.536  17.407
 2382TIP3    H231342   7.710   6.435  17.488
 2383TIP3   OH231343   8.638   5.031  18.547
 2383TIP3    H131344   8.550   5.040  18.510
 2383TIP3    H231345   8.696   5.041  18.472
 2384TIP3   OH231346   8.601   5.477  17.957
 2384TIP3    H131347   8.531   5.418  17.928
 2384TIP3    H231348   8.666   5.418  17.995
 2385TIP3   OH231349   7.099   5.251  17.149
 2385TIP3    H131350   7.025   5.298  17.110
 2385TIP3    H231351   7.120   5.182  17.085
 2386TIP3   OH231352   8.638   6.609  18.011
 2386TIP3    H131353   8.628   6.667  17.936
 2386TIP3    H231354   8.727   6.575  18.005
 2387TIP3   OH231355   7.179   4.618  17.871
 2387TIP3    H131356   7.211   4.634  17.782
 2387TIP3    H231357   7.134   4.534  17.866
 2388TIP3   OH231358   7.032   6.565  17.638
 2388TIP3    H131359   6.981   6.557  17.719
 2388TIP3    H231360   6.966   6.565  17.568
 2389TIP3   OH231361   6.976   6.729  18.707
 2389TIP3    H131362   6.991   6.658  18.769
 2389TIP3    H231363   6.955   6.685  18.624
 2390TIP3   OH231364   7.312   6.538  18.783
 2390TIP3    H131365   7.360   6.621  18.780
 2390TIP3    H231366   7.364   6.478  18.729
 2391TIP3   OH231367   8.061   6.393  17.087
 2391TIP3    H131368   8.020   6.362  17.006
 2391TIP3    H231369   8.154   6.372  17.076
 2392TIP3   OH231370   8.225   6.241  18.778
 2392TIP3    H131371   8.188   6.170  18.830
 2392TIP3    H231372   8.303   6.269  18.827
 2393TIP3   OH231373   6.944   5.866  18.788
 2393TIP3    H131374   6.891   5.811  18.845
 2393TIP3    H231375   6.882   5.903  18.725
 2394TIP3   OH231376   7.638   5.946  18.678
 2394TIP3    H131377   7.598   6.002  18.611
 2394TIP3    H231378   7.652   5.862  18.634
 2395TIP3   OH231379   8.515   5.918  18.550
 2395TIP3    H131380   8.591   5.973  18.531
 2395TIP3    H231381   8.441   5.978  18.548
 2396TIP3   OH231382   7.100   5.416  18.859
 2396TIP3    H131383   7.094   5.463  18.776
 2396TIP3    H231384   7.089   5.483  18.926
 2397TIP3   OH231385   7.548   5.546  17.208
 2397TIP3    H131386   7.481   5.478  17.202
 2397TIP3    H231387   7.619   5.515  17.151
 2398TIP3   OH231388   7.452   5.371  18.481
 2398TIP3    H131389   7.396   5.446  18.499
 2398TIP3    H231390   7.529   5.407  18.437
 2399TIP3   OH231391   7.723   5.439  17.023
 2399TIP3    H131392   7.685   5.366  16.975
 2399TIP3    H231393   7.799   5.465  16.971
 2400TIP3   OH231394   8.147   5.780  18.810
 2400TIP3    H131395   8.220   5.783  18.748
 2400TIP3    H231396   8.150   5.692  18.847
 2401TIP3   OH231397   7.542   5.120  18.588
 2401TIP3    H131398   7.544   5.059  18.514
 2401TIP3    H231399   7.516   5.204  18.549
 2402TIP3   OH231400   7.561   4.939  18.361
 2402TIP3    H131401   7.610   4.991  18.298
 2402TIP3    H231402   7.485   4.906  18.312
 2403TIP3   OH231403   7.664   5.506  18.358
 2403TIP3    H131404   7.727   5.483  18.289
 2403TIP3    H231405   7.618   5.583  18.323
 2404TIP3   OH231406   8.348   5.278  18.879
 2404TIP3    H131407   8.330   5.200  18.827
 2404TIP3    H231408   8.437   5.304  18.853
 2405TIP3   OH231409   8.590   5.659  18.602
 2405TIP3    H131410   8.559   5.747  18.580
 2405TIP3    H231411   8.685   5.667  18.606
 2406TIP3   OH231412   7.472   5.122  18.858
 2406TIP3    H131413   7.377   5.135  18.867
 2406TIP3    H231414   7.488   5.126  18.764
 2407TIP3   OH231415   7.650   4.669  18.446
 2407TIP3    H131416   7.635   4.762  18.430
 2407TIP3    H231417   7.576   4.625  18.405
 2408TIP3   OH231418   7.777   5.080  18.738
 2408TIP3    H131419   7.753   5.017  18.806
 2408TIP3    H231420   7.697   5.089  18.686
 2409TIP3   OH231421   8.295   5.028  18.760
 2409TIP3    H131422   8.203   5.004  18.774
 2409TIP3    H231423   8.344   4.952  18.792
 2410TIP3   OH231424   8.411   4.801  18.875
 2410TIP3    H131425   8.412   4.710  18.845
 2410TIP3    H231426   8.351   4.801  18.949
 2411TIP3   OH231427   7.037   4.948  18.738
 2411TIP3    H131428   7.069   4.888  18.671
 2411TIP3    H231429   7.046   4.899  18.820
 2412TIP3   OH231430   7.737   4.567  18.697
 2412TIP3    H131431   7.800   4.500  18.672
 2412TIP3    H231432   7.703   4.601  18.614
 2413TIP3   OH231433   7.791   4.673  18.941
 2413TIP3    H131434   7.772   4.632  18.857
 2413TIP3    H231435   7.735   4.750  18.944
 2414TIP3   OH231436   7.826   6.707  17.356
 2414TIP3    H131437   7.899   6.690  17.296
 2414TIP3    H231438   7.785   6.787  17.322
 2415TIP3   OH231439   6.708   6.686  17.711
 2415TIP3    H131440   6.742   6.661  17.625
 2415TIP3    H231441   6.771   6.651  17.774
 2416TIP3   OH231442   6.894   6.574  17.884
 2416TIP3    H131443   6.839   6.545  17.957
 2416TIP3    H231444   6.981   6.587  17.923
 2417TIP3   OH231445   8.904   6.536  17.972
 2417TIP3    H131446   8.978   6.540  18.033
 2417TIP3    H231447   8.944   6.539  17.885
 2418TIP3   OH231448   8.829   6.478  18.455
 2418TIP3    H131449   8.797   6.423  18.384
 2418TIP3    H231450   8.844   6.417  18.528
 2419TIP3   OH231451   8.775   6.049  18.835
 2419TIP3    H131452   8.728   6.082  18.912
 2419TIP3    H231453   8.793   6.128  18.783
 2420TIP3   OH231454   8.911   5.694  17.357
 2420TIP3    H131455   8.992   5.745  17.360
 2420TIP3    H231456   8.915   5.640  17.436
 2421TIP3   OH231457   8.945   5.540  17.581
 2421TIP3    H131458   8.866   5.499  17.617
 2421TIP3    H231459   8.998   5.563  17.658
 2422TIP3   OH231460   9.035   5.837  18.139
 2422TIP3    H131461   9.070   5.764  18.089
 2422TIP3    H231462   9.061   5.915  18.090
 2423TIP3   OH231463   8.687   6.265  18.318
 2423TIP3    H131464   8.610   6.315  18.345
 2423TIP3    H231465   8.667   6.238  18.228
 2424TIP3   OH231466   9.012   5.511  17.165
 2424TIP3    H131467   9.041   5.565  17.092
 2424TIP3    H231468   8.960   5.570  17.219
 2425TIP3   OH231469   8.734   5.430  17.717
 2425TIP3    H131470   8.743   5.336  17.733
 2425TIP3    H231471   8.699   5.466  17.798
 2426TIP3   OH231472   6.970   5.660  18.077
 2426TIP3    H131473   6.982   5.608  17.997
 2426TIP3    H231474   7.043   5.634  18.133
 2427TIP3   OH231475   8.864   5.650  18.638
 2427TIP3    H131476   8.918   5.571  18.627
 2427TIP3    H231477   8.925   5.722  18.620
 2428TIP3   OH231478   8.988   5.364  18.605
 2428TIP3    H131479   8.907   5.332  18.644
 2428TIP3    H231480   9.031   5.284  18.573
 2429TIP3   OH231481   8.585   5.044  17.435
 2429TIP3    H131482   8.656   4.991  17.470
 2429TIP3    H231483   8.576   5.016  17.344
 2430TIP3   OH231484   8.812   5.326  18.043
 2430TIP3    H131485   8.905   5.316  18.022
 2430TIP3    H231486   8.808   5.322  18.138
 2431TIP3   OH231487   8.802   5.347  18.322
 2431TIP3    H131488   8.729   5.370  18.380
 2431TIP3    H231489   8.853   5.428  18.315
 2432TIP3   OH231490   6.803   5.101  18.704
 2432TIP3    H131491   6.888   5.057  18.716
 2432TIP3    H231492   6.744   5.033  18.674
 2433TIP3   OH231493   8.850   4.591  18.747
 2433TIP3    H131494   8.924   4.586  18.687
 2433TIP3    H231495   8.808   4.675  18.726
 2434TIP3   OH231496   8.796   4.850  17.483
 2434TIP3    H131497   8.805   4.796  17.561
 2434TIP3    H231498   8.797   4.787  17.410
 2435TIP3   OH231499   7.064   4.872  17.919
 2435TIP3    H131500   7.101   4.785  17.909
 2435TIP3    H231501   7.139   4.930  17.933
 2436TIP3   OH231502   6.804   5.243  17.898
 2436TIP3    H131503   6.897   5.230  17.878
 2436TIP3    H231504   6.790   5.197  17.980
 2437TIP3   OH231505   8.744   4.841  18.721
 2437TIP3    H131506   8.708   4.880  18.801
 2437TIP3    H231507   8.710   4.896  18.651
 2438TIP3   OH231508   6.838   5.001  17.580
 2438TIP3    H131509   6.785   5.037  17.509
 2438TIP3    H231510   6.928   5.021  17.556
 2439TIP3   OH231511   6.878   4.607  18.396
 2439TIP3    H131512   6.808   4.576  18.453
 2439TIP3    H231513   6.835   4.668  18.336
 2440TIP3   OH231514   7.078   6.310  18.634
 2440TIP3    H131515   6.991   6.280  18.609
 2440TIP3    H231516   7.063   6.371  18.706
 2441TIP3   OH231517   7.393   6.482  18.368
 2441TIP3    H131518   7.394   6.578  18.360
 2441TIP3    H231519   7.484   6.456  18.356
 2442TIP3   OH231520   7.889   6.605  18.644
 2442TIP3    H131521   7.915   6.535  18.704
 2442TIP3    H231522   7.972   6.640  18.611
 2443TIP3   OH231523   8.130   6.696  18.544
 2443TIP3    H131524   8.181   6.650  18.478
 2443TIP3    H231525   8.190   6.706  18.618
 2444TIP3   OH231526   8.748   4.504  18.382
 2444TIP3    H131527   8.682   4.571  18.366
 2444TIP3    H231528   8.755   4.457  18.298
 2445TIP3   OH231529   7.098   6.761  18.403
 2445TIP3    H131530   7.015   6.807  18.390
 2445TIP3    H231531   7.136   6.802  18.481
 2446TIP3   OH231532   7.387   6.753  18.323
 2446TIP3    H131533   7.295   6.776  18.339
 2446TIP3    H231534   7.406   6.790  18.236
 2447TIP3   OH231535   7.959   6.661  18.085
 2447TIP3    H131536   7.869   6.671  18.054
 2447TIP3    H231537   7.959   6.699  18.173
 2448TIP3   OH231538   8.196   6.514  18.047
 2448TIP3    H131539   8.115   6.563  18.059
 2448TIP3    H231540   8.263   6.567  18.091
 2449TIP3   OH231541   8.425   6.628  18.181
 2449TIP3    H131542   8.428   6.722  18.198
 2449TIP3    H231543   8.497   6.611  18.121
 2450TIP3   OH231544   7.142   6.590  18.007
 2450TIP3    H131545   7.129   6.572  18.100
 2450TIP3    H231546   7.207   6.525  17.979
 2451TIP3   OH231547   7.333   6.394  17.954
 2451TIP3    H131548   7.320   6.303  17.981
 2451TIP3    H231549   7.415   6.420  17.996
 2452TIP3   OH231550   7.584   6.431  18.076
 2452TIP3    H131551   7.612   6.348  18.038
 2452TIP3    H231552   7.614   6.427  18.167
 2453TIP3   OH231553   8.150   4.754  17.889
 2453TIP3    H131554   8.098   4.675  17.903
 2453TIP3    H231555   8.093   4.811  17.838
 2454TIP3   OH231556   8.691   4.540  17.853
 2454TIP3    H131557   8.748   4.600  17.804
 2454TIP3    H231558   8.604   4.579  17.846
 2455TIP3   OH231559   8.890   4.672  17.693
 2455TIP3    H131560   8.937   4.592  17.667
 2455TIP3    H231561   8.960   4.734  17.714
 2456TIP3   OH231562   7.266   4.614  17.607
 2456TIP3    H131563   7.212   4.584  17.534
 2456TIP3    H231564   7.313   4.535  17.636
 2457TIP3   OH231565   7.164   4.760  17.265
 2457TIP3    H131566   7.245   4.809  17.282
 2457TIP3    H231567   7.113   4.817  17.207
 2458TIP3   OH231568   7.721   4.546  17.641
 2458TIP3    H131569   7.723   4.639  17.619
 2458TIP3    H231570   7.691   4.543  17.732
 2459TIP3   OH231571   8.415   4.626  17.831
 2459TIP3    H131572   8.328   4.663  17.846
 2459TIP3    H231573   8.398   4.536  17.802
 2460TIP3   OH231574   6.804   6.602  17.467
 2460TIP3    H131575   6.727   6.550  17.443
 2460TIP3    H231576   6.812   6.667  17.397
 2461TIP3   OH231577   7.733   4.830  17.576
 2461TIP3    H131578   7.740   4.847  17.482
 2461TIP3    H231579   7.657   4.881  17.604
 2462TIP3   OH231580   8.035   6.648  17.189
 2462TIP3    H131581   8.088   6.699  17.127
 2462TIP3    H231582   8.038   6.559  17.154
 2463TIP3   OH231583   7.152   4.744  18.572
 2463TIP3    H131584   7.148   4.683  18.498
 2463TIP3    H231585   7.178   4.690  18.646
 2464TIP3   OH231586   7.226   4.575  18.782
 2464TIP3    H131587   7.313   4.543  18.759
 2464TIP3    H231588   7.177   4.497  18.805
 2465TIP3   OH231589   8.422   4.532  18.795
 2465TIP3    H131590   8.400   4.462  18.857
 2465TIP3    H231591   8.496   4.497  18.744
 2466TIP3   OH231592   8.543   6.392  18.626
 2466TIP3    H131593   8.497   6.391  18.541
 2466TIP3    H231594   8.560   6.485  18.642
 2467TIP3   OH231595   9.115   5.398  17.404
 2467TIP3    H131596   9.048   5.443  17.456
 2467TIP3    H231597   9.098   5.426  17.314
 2468TIP3   OH231598   9.148   5.835  18.394
 2468TIP3    H131599   9.113   5.842  18.305
 2468TIP3    H231600   9.152   5.741  18.411
 2469TIP3   OH231601   9.109   6.063  18.009
 2469TIP3    H131602   9.194   6.101  18.033
 2469TIP3    H231603   9.065   6.132  17.958
 2470TIP3   OH231604   9.112   4.838  17.700
 2470TIP3    H131605   9.198   4.868  17.729
 2470TIP3    H231606   9.111   4.856  17.606
 2471TIP3   OH231607   9.132   5.561  18.472
 2471TIP3    H131608   9.103   5.492  18.532
 2471TIP3    H231609   9.069   5.558  18.400
 2472TIP3   OH231610   9.194   5.840  18.821
 2472TIP3    H131611   9.142   5.820  18.899
 2472TIP3    H231612   9.129   5.863  18.755
 2473TIP3   OH231613   8.886   6.728  17.612
 2473TIP3    H131614   8.804   6.687  17.584
 2473TIP3    H231615   8.935   6.659  17.656
 2474TIP3   OH231616   9.060   6.535  17.738
 2474TIP3    H131617   9.059   6.461  17.677
 2474TIP3    H231618   9.152   6.559  17.744
 2475TIP3   OH231619   9.118   5.582  18.058
 2475TIP3    H131620   9.096   5.494  18.029
 2475TIP3    H231621   9.213   5.589  18.048
 2476TIP3   OH231622   9.100   5.108  18.522
 2476TIP3    H131623   9.182   5.084  18.479
 2476TIP3    H231624   9.099   5.057  18.603
 2477TIP3   OH231625   9.092   5.308  18.005
 2477TIP3    H131626   9.130   5.266  17.928
 2477TIP3    H231627   9.147   5.280  18.078
 2478TIP3   OH231628   9.073   4.874  17.422
 2478TIP3    H131629   8.982   4.893  17.445
 2478TIP3    H231630   9.068   4.792  17.372
 2479TIP3   OH231631   8.974   4.675  18.383
 2479TIP3    H131632   8.916   4.600  18.392
 2479TIP3    H231633   8.920   4.742  18.340
 2480TIP3   OH231634   1.619   8.116  17.534
 2480TIP3    H131635   1.631   8.200  17.490
 2480TIP3    H231636   1.525   8.100  17.530
 2481TIP3   OH231637   1.226   7.800  18.103
 2481TIP3    H131638   1.283   7.732  18.140
 2481TIP3    H231639   1.207   7.769  18.014
 2482TIP3   OH231640   0.453   7.896  18.123
 2482TIP3    H131641   0.531   7.847  18.096
 2482TIP3    H231642   0.456   7.894  18.219
 2483TIP3   OH231643   0.503   8.394  18.033
 2483TIP3    H131644   0.516   8.304  18.003
 2483TIP3    H231645   0.547   8.398  18.117
 2484TIP3   OH231646   0.037   7.593  17.609
 2484TIP3    H131647   9.196   7.577  17.534
 2484TIP3    H231648   0.084   7.511  17.622
 2485TIP3   OH231649   0.192   7.763  17.772
 2485TIP3    H131650   0.243   7.686  17.797
 2485TIP3    H231651   0.127   7.731  17.710
 2486TIP3   OH231652   1.099   8.006  18.237
 2486TIP3    H131653   1.149   7.941  18.187
 2486TIP3    H231654   1.162   8.074  18.257
 2487TIP3   OH231655   2.133   7.032  18.301
 2487TIP3    H131656   2.141   7.126  18.319
 2487TIP3    H231657   2.104   7.028  18.210
 2488TIP3   OH231658   1.608   7.551  17.987
 2488TIP3    H131659   1.666   7.475  17.975
 2488TIP3    H231660   1.561   7.558  17.904
 2489TIP3   OH231661   1.693   7.403  17.691
 2489TIP3    H131662   1.732   7.385  17.777
 2489TIP3    H231663   1.767   7.419  17.634
 2490TIP3   OH231664   0.296   7.520  17.847
 2490TIP3    H131665   0.378   7.480  17.878
 2490TIP3    H231666   0.265   7.462  17.778
 2491TIP3   OH231667   0.808   7.779  17.787
 2491TIP3    H131668   0.902   7.795  17.779
 2491TIP3    H231669   0.793   7.698  17.738
 2492TIP3   OH231670   2.143   7.311  18.341
 2492TIP3    H131671   2.135   7.403  18.317
 2492TIP3    H231672   2.217   7.309  18.403
 2493TIP3   OH231673   0.499   7.128  18.223
 2493TIP3    H131674   0.435   7.199  18.222
 2493TIP3    H231675   0.454   7.057  18.270
 2494TIP3   OH231676   0.828   7.991  18.189
 2494TIP3    H131677   0.788   8.077  18.179
 2494TIP3    H231678   0.922   8.009  18.196
 2495TIP3   OH231679   1.811   7.363  17.938
 2495TIP3    H131680   1.835   7.273  17.958
 2495TIP3    H231681   1.886   7.415  17.968
 2496TIP3   OH231682   0.503   7.389  17.998
 2496TIP3    H131683   0.439   7.369  18.066
 2496TIP3    H231684   0.570   7.440  18.042
 2497TIP3   OH231685   0.612   8.420  18.293
 2497TIP3    H131686   0.623   8.515  18.299
 2497TIP3    H231687   0.527   8.403  18.335
 2498TIP3   OH231688   0.345   8.326  17.197
 2498TIP3    H131689   0.315   8.370  17.118
 2498TIP3    H231690   0.323   8.386  17.269
 2499TIP3   OH231691   1.780   8.637  18.123
 2499TIP3    H131692   1.692   8.673  18.139
 2499TIP3    H231693   1.832   8.712  18.094
 2500TIP3   OH231694   1.713   6.887  18.126
 2500TIP3    H131695   1.631   6.937  18.122
 2500TIP3    H231696   1.732   6.865  18.035
 2501TIP3   OH231697   1.045   6.813  17.800
 2501TIP3    H131698   1.031   6.828  17.707
 2501TIP3    H231699   1.039   6.718  17.810
 2502TIP3   OH231700   2.019   8.255  18.420
 2502TIP3    H131701   2.026   8.199  18.343
 2502TIP3    H231702   1.986   8.338  18.385
 2503TIP3   OH231703   1.328   8.014  17.495
 2503TIP3    H131704   1.241   8.041  17.524
 2503TIP3    H231705   1.336   8.049  17.406
 2504TIP3   OH231706   2.202   7.829  18.292
 2504TIP3    H131707   2.143   7.904  18.281
 2504TIP3    H231708   2.269   7.842  18.225
 2505TIP3   OH231709   1.725   7.862  17.479
 2505TIP3    H131710   1.702   7.951  17.504
 2505TIP3    H231711   1.794   7.837  17.540
 2506TIP3   OH231712   1.865   7.640  18.481
 2506TIP3    H131713   1.837   7.724  18.518
 2506TIP3    H231714   1.786   7.586  18.481
 2507TIP3   OH231715   0.687   8.031  17.738
 2507TIP3    H131716   0.625   8.019  17.665
 2507TIP3    H231717   0.723   7.943  17.753
 2508TIP3   OH231718   0.973   8.441  17.859
 2508TIP3    H131719   0.913   8.475  17.793
 2508TIP3    H231720   0.981   8.348  17.839
 2509TIP3   OH231721   0.701   7.789  18.047
 2509TIP3    H131722   0.734   7.791  17.957
 2509TIP3    H231723   0.750   7.858  18.092
 2510TIP3   OH231724   0.826   8.423  18.484
 2510TIP3    H131725   0.767   8.477  18.537
 2510TIP3    H231726   0.775   8.401  18.407
 2511TIP3   OH231727   1.556   7.664  17.402
 2511TIP3    H131728   1.615   7.590  17.388
 2511TIP3    H231729   1.614   7.736  17.429
 2512TIP3   OH231730   0.476   7.859  18.414
 2512TIP3    H131731   0.508   7.920  18.481
 2512TIP3    H231732   0.381   7.856  18.428
 2513TIP3   OH231733   0.660   8.604  18.608
 2513TIP3    H131734   0.652   8.643  18.521
 2513TIP3    H231735   0.570   8.581  18.632
 2514TIP3   OH231736   2.004   6.690  17.321
 2514TIP3    H131737   1.912   6.712  17.307
 2514TIP3    H231738   2.052   6.766  17.288
 2515TIP3   OH231739   0.510   7.982  17.533
 2515TIP3    H131740   0.501   8.023  17.447
 2515TIP3    H231741   0.423   7.949  17.554
 2516TIP3   OH231742   0.224   8.179  18.444
 2516TIP3    H131743   0.133   8.173  18.414
 2516TIP3    H231744   0.246   8.090  18.471
 2517TIP3   OH231745   0.237   8.483  18.057
 2517TIP3    H131746   0.319   8.439  18.037
 2517TIP3    H231747   0.256   8.535  18.135
 2518TIP3   OH231748   2.066   8.680  18.520
 2518TIP3    H131749   2.029   8.606  18.472
 2518TIP3    H231750   2.016   8.682  18.602
 2519TIP3   OH231751   1.059   8.585  18.466
 2519TIP3    H131752   1.055   8.661  18.524
 2519TIP3    H231753   0.978   8.537  18.484
 2520TIP3   OH231754   1.200   8.965  17.608
 2520TIP3    H131755   1.246   8.964  17.524
 2520TIP3    H231756   1.187   9.058  17.627
 2521TIP3   OH231757   0.506   8.811  17.699
 2521TIP3    H131758   0.524   8.756  17.775
 2521TIP3    H231759   0.436   8.766  17.653
 2522TIP3   OH231760   2.038   7.511  18.650
 2522TIP3    H131761   1.983   7.570  18.599
 2522TIP3    H231762   2.019   7.424  18.614
 2523TIP3   OH231763   0.366   8.418  18.418
 2523TIP3    H131764   0.370   8.449  18.509
 2523TIP3    H231765   0.317   8.336  18.422
 2524TIP3   OH231766   1.278   6.897  18.403
 2524TIP3    H131767   1.334   6.859  18.470
 2524TIP3    H231768   1.189   6.873  18.429
 2525TIP3   OH231769   1.663   7.448  18.495
 2525TIP3    H131770   1.634   7.404  18.575
 2525TIP3    H231771   1.585   7.449  18.439
 2526TIP3   OH231772   0.675   7.542  18.165
 2526TIP3    H131773   0.661   7.571  18.255
 2526TIP3    H231774   0.685   7.623  18.115
 2527TIP3   OH231775   1.335   7.728  17.548
 2527TIP3    H131776   1.332   7.824  17.542
 2527TIP3    H231777   1.402   7.703  17.485
 2528TIP3   OH231778   1.214   7.488  18.597
 2528TIP3    H131779   1.150   7.429  18.637
 2528TIP3    H231780   1.271   7.515  18.669
 2529TIP3   OH231781   1.474   7.571  17.744
 2529TIP3    H131782   1.440   7.626  17.673
 2529TIP3    H231783   1.540   7.516  17.702
 2530TIP3   OH231784   0.306   7.345  18.185
 2530TIP3    H131785   0.250   7.419  18.162
 2530TIP3    H231786   0.261   7.302  18.257
 2531TIP3   OH231787   0.188   7.348  17.651
 2531TIP3    H131788   0.250   7.286  17.689
 2531TIP3    H231789   0.153   7.302  17.575
 2532TIP3   OH231790   0.071   7.456  17.272
 2532TIP3    H131791   9.211   7.503  17.306
 2532TIP3    H231792   0.074   7.376  17.324
 2533TIP3   OH231793   1.378   7.568  18.148
 2533TIP3    H131794   1.466   7.565  18.110
 2533TIP3    H231795   1.386   7.521  18.230
 2534TIP3   OH231796   0.844   7.551  17.623
 2534TIP3    H131797   0.939   7.552  17.622
 2534TIP3    H231798   0.818   7.568  17.532
 2535TIP3   OH231799   1.473   7.042  18.098
 2535TIP3    H131800   1.454   7.125  18.054
 2535TIP3    H231801   1.409   6.981  18.063
 2536TIP3   OH231802   0.762   7.624  17.363
 2536TIP3    H131803   0.678   7.668  17.378
 2536TIP3    H231804   0.781   7.640  17.271
 2537TIP3   OH231805   1.853   9.013  18.729
 2537TIP3    H131806   1.871   9.040  18.639
 2537TIP3    H231807   1.927   9.048  18.780
 2538TIP3   OH231808   0.534   8.024  18.629
 2538TIP3    H131809   0.604   8.053  18.688
 2538TIP3    H231810   0.455   8.062  18.667
 2539TIP3   OH231811   1.246   7.587  17.899
 2539TIP3    H131812   1.326   7.580  17.848
 2539TIP3    H231813   1.272   7.564  17.988
 2540TIP3   OH231814   0.843   7.346  18.268
 2540TIP3    H131815   0.779   7.402  18.225
 2540TIP3    H231816   0.928   7.382  18.242
 2541TIP3   OH231817   1.065   8.095  17.526
 2541TIP3    H131818   1.000   8.066  17.463
 2541TIP3    H231819   1.015   8.150  17.587
 2542TIP3   OH231820   2.056   8.064  18.217
 2542TIP3    H131821   2.127   8.087  18.157
 2542TIP3    H231822   1.987   8.028  18.161
 2543TIP3   OH231823   1.290   8.437  18.459
 2543TIP3    H131824   1.284   8.407  18.550
 2543TIP3    H231825   1.211   8.490  18.446
 2544TIP3   OH231826   1.761   7.483  17.362
 2544TIP3    H131827   1.821   7.464  17.434
 2544TIP3    H231828   1.812   7.466  17.283
 2545TIP3   OH231829   0.555   8.131  17.969
 2545TIP3    H131830   0.596   8.096  17.890
 2545TIP3    H231831   0.510   8.057  18.008
 2546TIP3   OH231832   0.206   7.883  18.495
 2546TIP3    H131833   0.221   7.834  18.576
 2546TIP3    H231834   0.114   7.868  18.475
 2547TIP3   OH231835   1.036   7.715  18.643
 2547TIP3    H131836   0.984   7.748  18.570
 2547TIP3    H231837   1.087   7.643  18.606
 2548TIP3   OH231838   1.467   8.646  18.547
 2548TIP3    H131839   1.419   8.590  18.487
 2548TIP3    H231840   1.463   8.600  18.631
 2549TIP3   OH231841   2.145   7.558  17.415
 2549TIP3    H131842   2.116   7.588  17.329
 2549TIP3    H231843   2.153   7.638  17.467
 2550TIP3   OH231844   2.241   8.149  18.559
 2550TIP3    H131845   2.168   8.196  18.520
 2550TIP3    H231846   2.303   8.136  18.487
 2551TIP3   OH231847   1.975   8.554  17.313
 2551TIP3    H131848   1.882   8.535  17.328
 2551TIP3    H231849   1.979   8.577  17.220
 2552TIP3   OH231850   1.870   7.956  18.043
 2552TIP3    H131851   1.784   7.990  18.021
 2552TIP3    H231852   1.873   7.870  18.002
 2553TIP3   OH231853   0.767   8.505  17.685
 2553TIP3    H131854   0.784   8.596  17.660
 2553TIP3    H231855   0.685   8.509  17.734
 2554TIP3   OH231856   0.371   7.827  17.190
 2554TIP3    H131857   0.418   7.855  17.111
 2554TIP3    H231858   0.375   7.903  17.248
 2555TIP3   OH231859   0.873   8.234  17.674
 2555TIP3    H131860   0.826   8.317  17.663
 2555TIP3    H231861   0.805   8.172  17.700
 2556TIP3   OH231862   0.932   8.703  18.247
 2556TIP3    H131863   0.938   8.797  18.264
 2556TIP3    H231864   0.995   8.663  18.306
 2557TIP3   OH231865   0.782   8.779  17.649
 2557TIP3    H131866   0.692   8.810  17.659
 2557TIP3    H231867   0.836   8.849  17.685
 2558TIP3   OH231868   1.289   8.200  18.306
 2558TIP3    H131869   1.283   8.287  18.345
 2558TIP3    H231870   1.383   8.178  18.311
 2559TIP3   OH231871   1.725   8.718  18.468
 2559TIP3    H131872   1.634   8.697  18.487
 2559TIP3    H231873   1.722   8.793  18.409
 2560TIP3   OH231874   0.185   7.198  18.379
 2560TIP3    H131875   0.136   7.214  18.460
 2560TIP3    H231876   0.160   7.109  18.354
 2561TIP3   OH231877   0.335   8.648  18.261
 2561TIP3    H131878   0.345   8.572  18.319
 2561TIP3    H231879   0.340   8.723  18.320
 2562TIP3   OH231880   0.785   8.511  17.216
 2562TIP3    H131881   0.761   8.418  17.208
 2562TIP3    H231882   0.825   8.518  17.303
 2563TIP3   OH231883   0.463   8.085  17.281
 2563TIP3    H131884   0.419   8.166  17.255
 2563TIP3    H231885   0.541   8.081  17.225
 2564TIP3   OH231886   1.400   7.146  18.357
 2564TIP3    H131887   1.448   7.115  18.281
 2564TIP3    H231888   1.346   7.072  18.384
 2565TIP3   OH231889   1.498   7.207  17.650
 2565TIP3    H131890   1.540   7.145  17.589
 2565TIP3    H231891   1.562   7.277  17.660
 2566TIP3   OH231892   1.125   7.569  17.649
 2566TIP3    H131893   1.188   7.625  17.603
 2566TIP3    H231894   1.150   7.575  17.741
 2567TIP3   OH231895   1.400   7.423  18.389
 2567TIP3    H131896   1.330   7.446  18.451
 2567TIP3    H231897   1.394   7.328  18.380
 2568TIP3   OH231898   1.273   7.145  17.793
 2568TIP3    H131899   1.212   7.192  17.736
 2568TIP3    H231900   1.359   7.159  17.753
 2569TIP3   OH231901   1.922   7.299  18.510
 2569TIP3    H131902   1.837   7.336  18.487
 2569TIP3    H231903   1.973   7.302  18.429
 2570TIP3   OH231904   1.839   7.704  17.926
 2570TIP3    H131905   1.756   7.667  17.954
 2570TIP3    H231906   1.905   7.645  17.963
 2571TIP3   OH231907   0.267   7.574  17.108
 2571TIP3    H131908   0.289   7.657  17.149
 2571TIP3    H231909   0.201   7.535  17.165
 2572TIP3   OH231910   1.901   8.890  18.075
 2572TIP3    H131911   1.878   8.942  17.998
 2572TIP3    H231912   1.997   8.888  18.074
 2573TIP3   OH231913   0.269   8.519  17.382
 2573TIP3    H131914   0.200   8.517  17.448
 2573TIP3    H231915   0.271   8.610  17.353
 2574TIP3   OH231916   0.285   8.804  18.684
 2574TIP3    H131917   0.314   8.848  18.764
 2574TIP3    H231918   0.191   8.823  18.679
 2575TIP3   OH231919   0.886   8.666  18.758
 2575TIP3    H131920   0.915   8.578  18.785
 2575TIP3    H231921   0.804   8.650  18.710
 2576TIP3   OH231922   1.440   8.505  18.791
 2576TIP3    H131923   1.442   8.420  18.835
 2576TIP3    H231924   1.518   8.550  18.823
 2577TIP3   OH231925   0.292   8.106  18.761
 2577TIP3    H131926   0.287   8.025  18.811
 2577TIP3    H231927   0.202   8.121  18.732
 2578TIP3   OH231928   0.950   8.235  18.640
 2578TIP3    H131929   0.907   8.297  18.582
 2578TIP3    H231930   1.000   8.178  18.582
 2579TIP3   OH231931   1.453   8.408  17.004
 2579TIP3    H131932   1.466   8.424  17.098
 2579TIP3    H231933   1.367   8.366  16.999
 2580TIP3   OH231934   1.806   8.150  18.565
 2580TIP3    H131935   1.882   8.181  18.516
 2580TIP3    H231936   1.778   8.226  18.617
 2581TIP3   OH231937   0.254   7.733  18.721
 2581TIP3    H131938   0.294   7.646  18.731
 2581TIP3    H231939   0.280   7.781  18.800
 2582TIP3   OH231940   0.681   7.660  18.420
 2582TIP3    H131941   0.608   7.721  18.424
 2582TIP3    H231942   0.759   7.716  18.422
 2583TIP3   OH231943   0.838   7.696  17.093
 2583TIP3    H131944   0.821   7.782  17.055
 2583TIP3    H231945   0.930   7.700  17.120
 2584TIP3   OH231946   1.487   8.013  18.912
 2584TIP3    H131947   1.576   7.977  18.903
 2584TIP3    H231948   1.431   7.936  18.922
 2585TIP3   OH231949   0.822   7.435  18.535
 2585TIP3    H131950   0.827   7.387  18.453
 2585TIP3    H231951   0.768   7.512  18.515
 2586TIP3   OH231952   0.765   7.074  18.275
 2586TIP3    H131953   0.802   7.162  18.281
 2586TIP3    H231954   0.673   7.088  18.255
 2587TIP3   OH231955   0.916   7.820  18.396
 2587TIP3    H131956   1.005   7.839  18.367
 2587TIP3    H231957   0.861   7.875  18.341
 2588TIP3   OH231958   1.425   7.569  18.770
 2588TIP3    H131959   1.463   7.481  18.771
 2588TIP3    H231960   1.483   7.620  18.713
 2589TIP3   OH231961   1.828   7.882  18.617
 2589TIP3    H131962   1.798   7.968  18.588
 2589TIP3    H231963   1.922   7.893  18.634
 2590TIP3   OH231964   0.355   7.466  18.736
 2590TIP3    H131965   0.339   7.372  18.740
 2590TIP3    H231966   0.415   7.477  18.662
 2591TIP3   OH231967   0.827   6.820  18.381
 2591TIP3    H131968   0.818   6.910  18.348
 2591TIP3    H231969   0.746   6.777  18.353
 2592TIP3   OH231970   1.009   7.333  18.714
 2592TIP3    H131971   0.963   7.255  18.746
 2592TIP3    H231972   0.947   7.376  18.656
 2593TIP3   OH231973   1.541   7.319  18.709
 2593TIP3    H131974   1.470   7.264  18.677
 2593TIP3    H231975   1.595   7.260  18.763
 2594TIP3   OH231976   1.648   7.107  18.867
 2594TIP3    H131977   1.625   7.016  18.852
 2594TIP3    H231978   1.583   7.139  18.929
 2595TIP3   OH231979   0.313   7.190  18.752
 2595TIP3    H131980   0.346   7.121  18.695
 2595TIP3    H231981   0.337   7.161  18.840
 2596TIP3   OH231982   0.947   6.756  18.625
 2596TIP3    H131983   1.030   6.712  18.606
 2596TIP3    H231984   0.910   6.775  18.539
 2597TIP3   OH231985   0.877   6.853  18.869
 2597TIP3    H131986   0.902   6.816  18.784
 2597TIP3    H231987   0.888   6.947  18.858
 2598TIP3   OH231988   0.069   8.349  16.872
 2598TIP3    H131989   0.137   8.399  16.917
 2598TIP3    H231990   0.109   8.321  16.790
 2599TIP3   OH231991   0.176   8.936  17.536
 2599TIP3    H131992   0.087   8.935  17.571
 2599TIP3    H231993   0.178   8.864  17.473
 2600TIP3   OH231994   0.119   8.714  17.952
 2600TIP3    H131995   0.146   8.626  17.978
 2600TIP3    H231996   0.196   8.769  17.968
 2601TIP3   OH231997   2.179   8.893  18.084
 2601TIP3    H131998   2.237   8.958  18.123
 2601TIP3    H231999   2.231   8.856  18.012
 2602TIP3   OH232000   2.117   8.902  18.369
 2602TIP3    H132001   2.122   8.867  18.280
 2602TIP3    H232002   2.109   8.826  18.425
 2603TIP3   OH232003   1.992   8.316  18.948
 2603TIP3    H132004   1.903   8.347  18.965
 2603TIP3    H232005   2.048   8.389  18.973
 2604TIP3   OH232006   2.336   7.990  17.389
 2604TIP3    H132007   2.431   7.995  17.383
 2604TIP3    H232008   2.311   7.932  17.317
 2605TIP3   OH232009   2.178   7.788  17.563
 2605TIP3    H132010   2.090   7.795  17.601
 2605TIP3    H232011   2.199   7.876  17.535
 2606TIP3   OH232012   2.275   8.097  18.058
 2606TIP3    H132013   2.336   8.026  18.075
 2606TIP3    H232014   2.316   8.149  17.988
 2607TIP3   OH232015   1.892   8.516  18.356
 2607TIP3    H132016   1.833   8.572  18.406
 2607TIP3    H232017   1.872   8.535  18.265
 2608TIP3   OH232018   2.066   7.663  17.181
 2608TIP3    H132019   2.082   7.711  17.100
 2608TIP3    H232020   2.017   7.585  17.153
 2609TIP3   OH232021   1.913   7.732  17.656
 2609TIP3    H132022   1.914   7.640  17.632
 2609TIP3    H232023   1.888   7.734  17.748
 2610TIP3   OH232024   0.188   7.831  18.042
 2610TIP3    H132025   0.194   7.829  17.946
 2610TIP3    H232026   0.274   7.865  18.070
 2611TIP3   OH232027   2.090   7.945  18.676
 2611TIP3    H132028   2.146   7.869  18.690
 2611TIP3    H232029   2.147   8.009  18.633
 2612TIP3   OH232030   2.228   7.703  18.714
 2612TIP3    H132031   2.168   7.632  18.692
 2612TIP3    H232032   2.268   7.677  18.797
 2613TIP3   OH232033   1.942   7.440  17.566
 2613TIP3    H132034   1.962   7.347  17.577
 2613TIP3    H232035   2.017   7.475  17.517
 2614TIP3   OH232036   2.017   7.521  18.034
 2614TIP3    H132037   2.105   7.527  17.995
 2614TIP3    H232038   2.031   7.535  18.127
 2615TIP3   OH232039   2.070   7.582  18.302
 2615TIP3    H132040   1.996   7.603  18.359
 2615TIP3    H232041   2.121   7.662  18.298
 2616TIP3   OH232042   0.059   7.206  18.633
 2616TIP3    H132043   0.142   7.221  18.679
 2616TIP3    H232044   0.027   7.123  18.667
 2617TIP3   OH232045   2.210   6.887  18.736
 2617TIP3    H132046   2.256   6.905  18.818
 2617TIP3    H232047   2.172   6.971  18.710
 2618TIP3   OH232048   1.994   7.167  17.564
 2618TIP3    H132049   1.997   7.086  17.614
 2618TIP3    H232050   1.972   7.139  17.475
 2619TIP3   OH232051   0.382   7.218  17.815
 2619TIP3    H132052   0.354   7.143  17.867
 2619TIP3    H232053   0.430   7.273  17.876
 2620TIP3   OH232054   0.152   7.557  18.079
 2620TIP3    H132055   0.192   7.540  17.994
 2620TIP3    H232056   0.164   7.651  18.093
 2621TIP3   OH232057   2.093   7.136  18.663
 2621TIP3    H132058   2.043   7.144  18.744
 2621TIP3    H232059   2.036   7.174  18.596
 2622TIP3   OH232060   1.968   7.100  17.300
 2622TIP3    H132061   2.020   7.028  17.266
 2622TIP3    H232062   1.933   7.143  17.222
 2623TIP3   OH232063   0.072   7.216  17.431
 2623TIP3    H132064   9.197   7.187  17.427
 2623TIP3    H232065   0.122   7.141  17.397
 2624TIP3   OH232066   1.863   8.810  17.731
 2624TIP3    H132067   1.928   8.808  17.661
 2624TIP3    H232068   1.865   8.900  17.764
 2625TIP3   OH232069   0.111   6.939  18.308
 2625TIP3    H132070   0.020   6.956  18.330
 2625TIP3    H232071   0.107   6.888  18.227
 2626TIP3   OH232072   0.396   8.545  18.665
 2626TIP3    H132073   0.348   8.627  18.679
 2626TIP3    H232074   0.373   8.490  18.740
 2627TIP3   OH232075   0.673   8.684  18.345
 2627TIP3    H132076   0.639   8.771  18.324
 2627TIP3    H232077   0.760   8.681  18.304
 2628TIP3   OH232078   1.098   8.817  18.621
 2628TIP3    H132079   1.071   8.783  18.706
 2628TIP3    H232080   1.189   8.844  18.634
 2629TIP3   OH232081   1.368   8.903  18.609
 2629TIP3    H132082   1.409   8.820  18.583
 2629TIP3    H232083   1.434   8.946  18.664
 2630TIP3   OH232084   2.033   6.831  18.478
 2630TIP3    H132085   2.064   6.909  18.432
 2630TIP3    H232086   1.977   6.786  18.415
 2631TIP3   OH232087   0.352   8.882  18.418
 2631TIP3    H132088   0.280   8.942  18.401
 2631TIP3    H232089   0.341   8.856  18.509
 2632TIP3   OH232090   0.604   8.944  18.293
 2632TIP3    H132091   0.515   8.940  18.329
 2632TIP3    H232092   0.597   9.005  18.220
 2633TIP3   OH232093   1.307   8.922  18.192
 2633TIP3    H132094   1.227   8.930  18.140
 2633TIP3    H232095   1.289   8.973  18.271
 2634TIP3   OH232096   1.540   8.774  18.165
 2634TIP3    H132097   1.452   8.811  18.167
 2634TIP3    H232098   1.594   8.835  18.214
 2635TIP3   OH232099   1.733   8.943  18.285
 2635TIP3    H132100   1.695   9.025  18.256
 2635TIP3    H232101   1.798   8.920  18.218
 2636TIP3   OH232102   0.378   8.804  18.032
 2636TIP3    H132103   0.361   8.758  18.115
 2636TIP3    H232104   0.444   8.751  17.988
 2637TIP3   OH232105   0.564   8.634  17.908
 2637TIP3    H132106   0.533   8.550  17.943
 2637TIP3    H232107   0.654   8.642  17.941
 2638TIP3   OH232108   0.817   8.619  18.009
 2638TIP3    H132109   0.880   8.558  17.970
 2638TIP3    H232110   0.860   8.649  18.090
 2639TIP3   OH232111   1.255   6.922  17.955
 2639TIP3    H132112   1.184   6.874  17.912
 2639TIP3    H232113   1.268   6.999  17.900
 2640TIP3   OH232114   1.873   6.798  17.865
 2640TIP3    H132115   1.927   6.859  17.816
 2640TIP3    H232116   1.790   6.796  17.818
 2641TIP3   OH232117   2.074   6.947  17.732
 2641TIP3    H132118   2.116   6.861  17.727
 2641TIP3    H232119   2.144   7.006  17.761
 2642TIP3   OH232120   1.631   6.744  17.758
 2642TIP3    H132121   1.583   6.755  17.675
 2642TIP3    H232122   1.592   6.666  17.797
 2643TIP3   OH232123   1.747   6.807  17.290
 2643TIP3    H132124   1.732   6.873  17.223
 2643TIP3    H232125   1.733   6.853  17.373
 2644TIP3   OH232126   0.273   8.781  17.294
 2644TIP3    H132127   0.297   8.751  17.206
 2644TIP3    H232128   0.288   8.876  17.292
 2645TIP3   OH232129   1.126   7.295  17.606
 2645TIP3    H132130   1.185   7.282  17.533
 2645TIP3    H232131   1.122   7.390  17.618
 2646TIP3   OH232132   2.044   8.773  17.508
 2646TIP3    H132133   2.021   8.686  17.474
 2646TIP3    H232134   2.051   8.827  17.429
 2647TIP3   OH232135   0.415   6.956  18.639
 2647TIP3    H132136   0.355   6.884  18.660
 2647TIP3    H232137   0.493   6.939  18.692
 2648TIP3   OH232138   0.595   6.876  18.846
 2648TIP3    H132139   0.689   6.862  18.856
 2648TIP3    H232140   0.556   6.790  18.861
 2649TIP3   OH232141   1.619   6.824  18.806
 2649TIP3    H132142   1.601   6.751  18.866
 2649TIP3    H232143   1.707   6.806  18.773
 2650TIP3   OH232144   1.856   8.731  18.711
 2650TIP3    H132145   1.810   8.727  18.627
 2650TIP3    H232146   1.863   8.825  18.729
 2651TIP3   OH232147   3.660   7.967  17.728
 2651TIP3    H132148   3.710   8.044  17.756
 2651TIP3    H232149   3.604   7.999  17.657
 2652TIP3   OH232150   3.696   7.739  17.891
 2652TIP3    H132151   3.661   7.740  17.980
 2652TIP3    H232152   3.654   7.813  17.848
 2653TIP3   OH232153   2.617   7.770  18.303
 2653TIP3    H132154   2.642   7.677  18.300
 2653TIP3    H232155   2.639   7.797  18.392
 2654TIP3   OH232156   3.861   8.139  17.826
 2654TIP3    H132157   3.898   8.053  17.846
 2654TIP3    H232158   3.870   8.189  17.907
 2655TIP3   OH232159   2.848   8.383  17.877
 2655TIP3    H132160   2.819   8.293  17.871
 2655TIP3    H232161   2.931   8.378  17.925
 2656TIP3   OH232162   2.382   7.592  17.565
 2656TIP3    H132163   2.335   7.671  17.590
 2656TIP3    H232164   2.323   7.548  17.503
 2657TIP3   OH232165   2.482   7.753  17.902
 2657TIP3    H132166   2.517   7.664  17.909
 2657TIP3    H232167   2.523   7.790  17.824
 2658TIP3   OH232168   3.761   8.869  17.901
 2658TIP3    H132169   3.831   8.805  17.907
 2658TIP3    H232170   3.723   8.871  17.989
 2659TIP3   OH232171   3.265   8.163  18.084
 2659TIP3    H132172   3.320   8.119  18.020
 2659TIP3    H232173   3.325   8.189  18.154
 2660TIP3   OH232174   4.384   7.082  18.170
 2660TIP3    H132175   4.389   7.164  18.219
 2660TIP3    H232176   4.447   7.093  18.099
 2661TIP3   OH232177   3.869   7.497  18.094
 2661TIP3    H132178   3.860   7.418  18.146
 2661TIP3    H232179   3.833   7.473  18.008
 2662TIP3   OH232180   2.885   7.269  17.769
 2662TIP3    H132181   2.873   7.349  17.718
 2662TIP3    H232182   2.837   7.202  17.721
 2663TIP3   OH232183   2.558   7.488  17.901
 2663TIP3    H132184   2.616   7.430  17.951
 2663TIP3    H232185   2.573   7.465  17.810
 2664TIP3   OH232186   3.005   7.678  17.804
 2664TIP3    H132187   3.091   7.638  17.791
 2664TIP3    H232188   2.945   7.622  17.755
 2665TIP3   OH232189   4.387   7.306  18.334
 2665TIP3    H132190   4.376   7.401  18.329
 2665TIP3    H232191   4.458   7.293  18.396
 2666TIP3   OH232192   2.789   7.162  18.251
 2666TIP3    H132193   2.766   7.210  18.172
 2666TIP3    H232194   2.722   7.188  18.315
 2667TIP3   OH232195   3.723   8.482  17.491
 2667TIP3    H132196   3.788   8.427  17.535
 2667TIP3    H232197   3.702   8.550  17.555
 2668TIP3   OH232198   3.048   8.011  18.184
 2668TIP3    H132199   2.989   8.078  18.220
 2668TIP3    H232200   3.123   8.060  18.150
 2669TIP3   OH232201   2.756   7.310  18.008
 2669TIP3    H132202   2.811   7.374  18.054
 2669TIP3    H232203   2.807   7.287  17.930
 2670TIP3   OH232204   2.882   8.217  18.278
 2670TIP3    H132205   2.849   8.280  18.214
 2670TIP3    H232206   2.809   8.202  18.338
 2671TIP3   OH232207   2.410   8.268  17.310
 2671TIP3    H132208   2.358   8.203  17.356
 2671TIP3    H232209   2.362   8.350  17.321
 2672TIP3   OH232210   4.051   8.693  18.229
 2672TIP3    H132211   3.971   8.660  18.186
 2672TIP3    H232212   4.086   8.757  18.167
 2673TIP3   OH232213   4.142   6.997  18.287
 2673TIP3    H132214   4.147   7.049  18.367
 2673TIP3    H232215   4.221   7.020  18.238
 2674TIP3   OH232216   3.063   6.798  17.921
 2674TIP3    H132217   3.069   6.713  17.965
 2674TIP3    H232218   3.012   6.853  17.981
 2675TIP3   OH232219   3.970   8.721  17.675
 2675TIP3    H132220   4.011   8.636  17.662
 2675TIP3    H232221   4.042   8.780  17.696
 2676TIP3   OH232222   3.909   8.314  17.611
 2676TIP3    H132223   3.961   8.258  17.553
 2676TIP3    H232224   3.887   8.258  17.685
 2677TIP3   OH232225   4.257   8.245  18.465
 2677TIP3    H132226   4.273   8.187  18.392
 2677TIP3    H232227   4.240   8.330  18.425
 2678TIP3   OH232228   3.540   8.077  17.504
 2678TIP3    H132229   3.478   8.132  17.457
 2678TIP3    H232230   3.615   8.070  17.445
 2679TIP3   OH232231   4.436   7.813  18.296
 2679TIP3    H132232   4.391   7.897  18.298
 2679TIP3    H232233   4.510   7.826  18.238
 2680TIP3   OH232234   3.889   7.887  17.573
 2680TIP3    H132235   3.817   7.898  17.635
 2680TIP3    H232236   3.952   7.831  17.618
 2681TIP3   OH232237   4.067   7.625  18.493
 2681TIP3    H132238   4.070   7.708  18.539
 2681TIP3    H232239   4.021   7.644  18.411
 2682TIP3   OH232240   2.872   7.918  17.706
 2682TIP3    H132241   2.857   7.912  17.612
 2682TIP3    H232242   2.923   7.839  17.727
 2683TIP3   OH232243   3.107   8.369  17.974
 2683TIP3    H132244   3.147   8.379  17.888
 2683TIP3    H232245   3.159   8.301  18.017
 2684TIP3   OH232246   3.002   7.744  18.087
 2684TIP3    H132247   3.004   7.735  17.992
 2684TIP3    H232248   3.014   7.837  18.103
 2685TIP3   OH232249   3.806   8.625  18.120
 2685TIP3    H132250   3.750   8.700  18.136
 2685TIP3    H232251   3.747   8.549  18.125
 2686TIP3   OH232252   3.056   8.328  18.471
 2686TIP3    H132253   3.020   8.416  18.480
 2686TIP3    H232254   3.008   8.291  18.397
 2687TIP3   OH232255   3.776   8.041  17.365
 2687TIP3    H132256   3.806   7.972  17.424
 2687TIP3    H232257   3.848   8.105  17.365
 2688TIP3   OH232258   2.641   7.821  18.587
 2688TIP3    H132259   2.656   7.907  18.626
 2688TIP3    H232260   2.548   7.820  18.566
 2689TIP3   OH232261   3.698   8.689  17.677
 2689TIP3    H132262   3.793   8.697  17.678
 2689TIP3    H232263   3.667   8.752  17.742
 2690TIP3   OH232264   2.926   8.571  18.520
 2690TIP3    H132265   2.900   8.633  18.452
 2690TIP3    H232266   2.844   8.529  18.547
 2691TIP3   OH232267   4.370   6.856  17.318
 2691TIP3    H132268   4.280   6.885  17.326
 2691TIP3    H232269   4.421   6.936  17.312
 2692TIP3   OH232270   2.811   7.917  17.430
 2692TIP3    H132271   2.733   7.969  17.412
 2692TIP3    H232272   2.842   7.890  17.344
 2693TIP3   OH232273   2.436   8.054  18.377
 2693TIP3    H132274   2.431   8.023  18.286
 2693TIP3    H232275   2.420   7.975  18.430
 2694TIP3   OH232276   2.467   8.595  18.051
 2694TIP3    H132277   2.523   8.517  18.043
 2694TIP3    H232278   2.505   8.643  18.124
 2695TIP3   OH232279   4.318   8.686  18.533
 2695TIP3    H132280   4.384   8.658  18.597
 2695TIP3    H232281   4.239   8.701  18.586
 2696TIP3   OH232282   3.358   8.640  18.444
 2696TIP3    H132283   3.426   8.702  18.472
 2696TIP3    H232284   3.287   8.652  18.506
 2697TIP3   OH232285   3.704   8.949  17.326
 2697TIP3    H132286   3.696   8.903  17.242
 2697TIP3    H232287   3.614   8.965  17.354
 2698TIP3   OH232288   2.743   8.793  17.659
 2698TIP3    H132289   2.760   8.751  17.743
 2698TIP3    H232290   2.710   8.722  17.603
 2699TIP3   OH232291   3.868   8.951  17.547
 2699TIP3    H132292   3.807   8.929  17.477
 2699TIP3    H232293   3.897   8.866  17.581
 2700TIP3   OH232294   4.253   7.479  18.658
 2700TIP3    H132295   4.185   7.529  18.613
 2700TIP3    H232296   4.255   7.394  18.614
 2701TIP3   OH232297   2.667   8.186  18.451
 2701TIP3    H132298   2.678   8.143  18.535
 2701TIP3    H232299   2.585   8.150  18.416
 2702TIP3   OH232300   2.902   6.938  18.105
 2702TIP3    H132301   2.820   6.925  18.057
 2702TIP3    H232302   2.886   7.015  18.159
 2703TIP3   OH232303   3.355   6.736  18.415
 2703TIP3    H132304   3.384   6.711  18.502
 2703TIP3    H232305   3.273   6.784  18.430
 2704TIP3   OH232306   3.958   7.362  18.507
 2704TIP3    H132307   3.902   7.347  18.583
 2704TIP3    H232308   3.982   7.454  18.513
 2705TIP3   OH232309   2.902   7.494  18.155
 2705TIP3    H132310   2.832   7.512  18.217
 2705TIP3    H232311   2.932   7.580  18.126
 2706TIP3   OH232312   2.859   7.511  17.633
 2706TIP3    H132313   2.764   7.500  17.624
 2706TIP3    H232314   2.890   7.524  17.543
 2707TIP3   OH232315   3.874   7.537  17.574
 2707TIP3    H132316   3.830   7.590  17.508
 2707TIP3    H232317   3.914   7.466  17.525
 2708TIP3   OH232318   3.421   7.545  18.640
 2708TIP3    H132319   3.371   7.475  18.681
 2708TIP3    H232320   3.496   7.558  18.697
 2709TIP3   OH232321   3.787   7.485  17.832
 2709TIP3    H132322   3.748   7.570  17.851
 2709TIP3    H232323   3.814   7.491  17.740
 2710TIP3   OH232324   2.715   7.513  18.354
 2710TIP3    H132325   2.766   7.544  18.430
 2710TIP3    H232326   2.673   7.433  18.385
 2711TIP3   OH232327   2.302   7.097  17.781
 2711TIP3    H132328   2.380   7.115  17.833
 2711TIP3    H232329   2.324   7.130  17.694
 2712TIP3   OH232330   2.288   7.337  17.299
 2712TIP3    H132331   2.282   7.273  17.370
 2712TIP3    H232332   2.230   7.408  17.326
 2713TIP3   OH232333   3.663   7.676  18.164
 2713TIP3    H132334   3.740   7.622  18.149
 2713TIP3    H232335   3.630   7.648  18.249
 2714TIP3   OH232336   3.156   7.251  17.711
 2714TIP3    H132337   3.064   7.253  17.740
 2714TIP3    H232338   3.184   7.161  17.729
 2715TIP3   OH232339   2.594   7.437  17.630
 2715TIP3    H132340   2.524   7.497  17.605
 2715TIP3    H232341   2.569   7.353  17.592
 2716TIP3   OH232342   2.973   7.523  17.377
 2716TIP3    H132343   3.055   7.483  17.404
 2716TIP3    H232344   2.998   7.588  17.312
 2717TIP3   OH232345   3.043   7.697  17.168
 2717TIP3    H132346   2.966   7.755  17.164
 2717TIP3    H232347   3.114   7.749  17.130
 2718TIP3   OH232348   4.178   9.007  18.740
 2718TIP3    H132349   4.186   9.049  18.655
 2718TIP3    H232350   4.266   9.012  18.777
 2719TIP3   OH232351   2.664   8.072  18.703
 2719TIP3    H132352   2.737   8.100  18.758
 2719TIP3    H232353   2.586   8.100  18.750
 2720TIP3   OH232354   3.229   7.514  17.761
 2720TIP3    H132355   3.313   7.511  17.808
 2720TIP3    H232356   3.204   7.423  17.752
 2721TIP3   OH232357   2.754   7.067  17.634
 2721TIP3    H132358   2.698   6.999  17.673
 2721TIP3    H232359   2.789   7.026  17.554
 2722TIP3   OH232360   3.090   7.374  18.321
 2722TIP3    H132361   3.021   7.404  18.262
 2722TIP3    H232362   3.171   7.387  18.272
 2723TIP3   OH232363   3.379   8.251  17.345
 2723TIP3    H132364   3.331   8.257  17.262
 2723TIP3    H232365   3.313   8.266  17.412
 2724TIP3   OH232366   4.330   8.077  18.250
 2724TIP3    H132367   4.411   8.098  18.204
 2724TIP3    H232368   4.262   8.082  18.183
 2725TIP3   OH232369   3.507   8.405  18.464
 2725TIP3    H132370   3.489   8.393  18.557
 2725TIP3    H232371   3.461   8.485  18.440
 2726TIP3   OH232372   3.985   7.333  17.439
 2726TIP3    H132373   3.988   7.243  17.469
 2726TIP3    H232374   3.986   7.327  17.343
 2727TIP3   OH232375   2.811   8.111  17.891
 2727TIP3    H132376   2.828   8.053  17.817
 2727TIP3    H232377   2.828   8.057  17.968
 2728TIP3   OH232378   3.604   8.400  17.264
 2728TIP3    H132379   3.651   8.431  17.342
 2728TIP3    H232380   3.542   8.336  17.298
 2729TIP3   OH232381   2.372   7.821  18.514
 2729TIP3    H132382   2.329   7.778  18.587
 2729TIP3    H232383   2.313   7.808  18.440
 2730TIP3   OH232384   3.204   7.738  18.632
 2730TIP3    H132385   3.169   7.753  18.544
 2730TIP3    H232386   3.277   7.677  18.618
 2731TIP3   OH232387   3.778   8.323  18.544
 2731TIP3    H132388   3.701   8.350  18.494
 2731TIP3    H232389   3.767   8.365  18.630
 2732TIP3   OH232390   4.392   7.576  17.272
 2732TIP3    H132391   4.320   7.520  17.242
 2732TIP3    H232392   4.370   7.663  17.240
 2733TIP3   OH232393   4.496   8.172  18.591
 2733TIP3    H132394   4.413   8.210  18.561
 2733TIP3    H232395   4.553   8.179  18.514
 2734TIP3   OH232396   4.438   8.793  17.273
 2734TIP3    H132397   4.385   8.714  17.267
 2734TIP3    H232398   4.488   8.795  17.191
 2735TIP3   OH232399   3.933   7.885  17.901
 2735TIP3    H132400   3.850   7.837  17.897
 2735TIP3    H232401   3.998   7.819  17.924
 2736TIP3   OH232402   3.059   8.470  17.699
 2736TIP3    H132403   3.063   8.565  17.691
 2736TIP3    H232404   2.975   8.454  17.743
 2737TIP3   OH232405   3.171   8.285  17.524
 2737TIP3    H132406   3.143   8.358  17.579
 2737TIP3    H232407   3.111   8.214  17.545
 2738TIP3   OH232408   3.154   8.709  18.265
 2738TIP3    H132409   3.160   8.803  18.285
 2738TIP3    H232410   3.228   8.670  18.310
 2739TIP3   OH232411   3.030   8.748  17.685
 2739TIP3    H132412   2.944   8.782  17.661
 2739TIP3    H232413   3.073   8.821  17.730
 2740TIP3   OH232414   3.467   8.215  18.264
 2740TIP3    H132415   3.472   8.286  18.327
 2740TIP3    H232416   3.539   8.156  18.289
 2741TIP3   OH232417   4.086   8.366  17.052
 2741TIP3    H132418   4.094   8.272  17.040
 2741TIP3    H232419   3.993   8.381  17.067
 2742TIP3   OH232420   3.961   8.839  18.453
 2742TIP3    H132421   3.983   8.767  18.394
 2742TIP3    H232422   3.981   8.918  18.404
 2743TIP3   OH232423   2.601   7.275  18.451
 2743TIP3    H132424   2.506   7.266  18.440
 2743TIP3    H232425   2.616   7.259  18.544
 2744TIP3   OH232426   4.033   8.106  17.474
 2744TIP3    H132427   3.994   8.028  17.514
 2744TIP3    H232428   4.118   8.076  17.440
 2745TIP3   OH232429   2.609   8.751  18.233
 2745TIP3    H132430   2.696   8.725  18.264
 2745TIP3    H232431   2.590   8.832  18.281
 2746TIP3   OH232432   2.600   8.064  17.309
 2746TIP3    H132433   2.553   8.147  17.308
 2746TIP3    H232434   2.642   8.059  17.223
 2747TIP3   OH232435   3.848   7.280  18.264
 2747TIP3    H132436   3.887   7.310  18.346
 2747TIP3    H232437   3.827   7.188  18.279
 2748TIP3   OH232438   3.200   7.384  17.468
 2748TIP3    H132439   3.255   7.453  17.505
 2748TIP3    H232440   3.180   7.327  17.542
 2749TIP3   OH232441   3.584   7.551  18.406
 2749TIP3    H132442   3.522   7.565  18.478
 2749TIP3    H232443   3.591   7.455  18.399
 2750TIP3   OH232444   2.879   7.303  17.234
 2750TIP3    H132445   2.885   7.382  17.288
 2750TIP3    H232446   2.969   7.283  17.210
 2751TIP3   OH232447   4.185   7.200  18.487
 2751TIP3    H132448   4.104   7.251  18.485
 2751TIP3    H232449   4.242   7.242  18.423
 2752TIP3   OH232450   4.063   7.644  17.953
 2752TIP3    H132451   3.996   7.599  18.005
 2752TIP3    H232452   4.146   7.611  17.988
 2753TIP3   OH232453   2.827   7.877  17.137
 2753TIP3    H132454   2.842   7.949  17.076
 2753TIP3    H232455   2.752   7.829  17.099
 2754TIP3   OH232456   4.158   8.935  18.074
 2754TIP3    H132457   4.136   8.989  17.998
 2754TIP3    H232458   4.253   8.929  18.072
 2755TIP3   OH232459   2.665   6.888  17.977
 2755TIP3    H132460   2.649   6.871  17.885
 2755TIP3    H232461   2.659   6.802  18.019
 2756TIP3   OH232462   2.249   8.495  17.313
 2756TIP3    H132463   2.155   8.507  17.327
 2756TIP3    H232464   2.286   8.583  17.322
 2757TIP3   OH232465   2.303   8.952  18.823
 2757TIP3    H132466   2.384   8.965  18.871
 2757TIP3    H232467   2.331   8.934  18.733
 2758TIP3   OH232468   3.156   8.690  18.624
 2758TIP3    H132469   3.183   8.633  18.696
 2758TIP3    H232470   3.073   8.653  18.594
 2759TIP3   OH232471   3.713   8.457  18.786
 2759TIP3    H132472   3.716   8.389  18.854
 2759TIP3    H232473   3.786   8.515  18.807
 2760TIP3   OH232474   4.238   8.566  16.944
 2760TIP3    H132475   4.196   8.490  16.985
 2760TIP3    H232476   4.329   8.538  16.931
 2761TIP3   OH232477   2.402   8.155  18.792
 2761TIP3    H132478   2.352   8.097  18.851
 2761TIP3    H232479   2.348   8.161  18.714
 2762TIP3   OH232480   3.127   8.245  18.717
 2762TIP3    H132481   3.103   8.273  18.628
 2762TIP3    H232482   3.187   8.172  18.704
 2763TIP3   OH232483   3.809   8.439  17.067
 2763TIP3    H132484   3.752   8.432  17.143
 2763TIP3    H232485   3.806   8.532  17.043
 2764TIP3   OH232486   3.995   8.135  18.534
 2764TIP3    H132487   4.073   8.190  18.524
 2764TIP3    H232488   3.922   8.197  18.537
 2765TIP3   OH232489   2.596   7.674  18.830
 2765TIP3    H132490   2.619   7.712  18.745
 2765TIP3    H232491   2.572   7.750  18.883
 2766TIP3   OH232492   2.871   7.659  18.534
 2766TIP3    H132493   2.802   7.720  18.564
 2766TIP3    H232494   2.933   7.714  18.487
 2767TIP3   OH232495   3.784   8.012  18.934
 2767TIP3    H132496   3.872   7.982  18.912
 2767TIP3    H232497   3.732   7.932  18.942
 2768TIP3   OH232498   3.050   7.449  18.586
 2768TIP3    H132499   3.067   7.413  18.499
 2768TIP3    H232500   2.999   7.528  18.570
 2769TIP3   OH232501   3.024   7.108  18.392
 2769TIP3    H132502   3.062   7.195  18.379
 2769TIP3    H232503   2.937   7.114  18.352
 2770TIP3   OH232504   3.059   7.787  18.372
 2770TIP3    H132505   3.051   7.739  18.289
 2770TIP3    H232506   3.064   7.879  18.345
 2771TIP3   OH232507   3.676   7.568  18.762
 2771TIP3    H132508   3.724   7.485  18.764
 2771TIP3    H232509   3.726   7.624  18.702
 2772TIP3   OH232510   4.077   7.879  18.593
 2772TIP3    H132511   4.034   7.961  18.569
 2772TIP3    H232512   4.170   7.900  18.595
 2773TIP3   OH232513   2.926   7.435  18.832
 2773TIP3    H132514   2.844   7.483  18.816
 2773TIP3    H232515   2.972   7.436  18.748
 2774TIP3   OH232516   3.109   6.856  18.475
 2774TIP3    H132517   3.092   6.948  18.457
 2774TIP3    H232518   3.039   6.809  18.430
 2775TIP3   OH232519   3.254   7.340  18.750
 2775TIP3    H132520   3.205   7.273  18.797
 2775TIP3    H232521   3.189   7.379  18.690
 2776TIP3   OH232522   3.798   7.312  18.735
 2776TIP3    H132523   3.712   7.275  18.756
 2776TIP3    H232524   3.860   7.256  18.783
 2777TIP3   OH232525   3.934   7.112  18.886
 2777TIP3    H132526   3.928   7.018  18.871
 2777TIP3    H232527   3.869   7.130  18.954
 2778TIP3   OH232528   2.516   7.263  18.748
 2778TIP3    H132529   2.542   7.184  18.795
 2778TIP3    H232530   2.511   7.331  18.816
 2779TIP3   OH232531   3.189   6.765  18.728
 2779TIP3    H132532   3.277   6.730  18.715
 2779TIP3    H232533   3.161   6.793  18.642
 2780TIP3   OH232534   2.985   6.905  18.858
 2780TIP3    H132535   3.058   6.865  18.811
 2780TIP3    H232536   3.008   6.998  18.863
 2781TIP3   OH232537   3.395   8.791  17.134
 2781TIP3    H132538   3.488   8.810  17.120
 2781TIP3    H232539   3.355   8.877  17.151
 2782TIP3   OH232540   2.312   8.839  17.617
 2782TIP3    H132541   2.219   8.822  17.603
 2782TIP3    H232542   2.326   8.822  17.710
 2783TIP3   OH232543   2.370   8.799  17.892
 2783TIP3    H132544   2.381   8.714  17.935
 2783TIP3    H232545   2.453   8.844  17.907
 2784TIP3   OH232546   4.440   8.924  18.090
 2784TIP3    H132547   4.499   8.984  18.135
 2784TIP3    H232548   4.494   8.884  18.022
 2785TIP3   OH232549   4.381   8.909  18.373
 2785TIP3    H132550   4.381   8.882  18.281
 2785TIP3    H232551   4.365   8.829  18.422
 2786TIP3   OH232552   4.268   8.347  18.896
 2786TIP3    H132553   4.181   8.360  18.934
 2786TIP3    H232554   4.322   8.414  18.938
 2787TIP3   OH232555   4.280   7.983  17.421
 2787TIP3    H132556   4.359   8.036  17.423
 2787TIP3    H232557   4.294   7.915  17.487
 2788TIP3   OH232558   4.320   7.794  17.622
 2788TIP3    H132559   4.232   7.757  17.629
 2788TIP3    H232560   4.348   7.805  17.713
 2789TIP3   OH232561   4.573   8.094  18.121
 2789TIP3    H132562   4.608   8.005  18.117
 2789TIP3    H232563   4.600   8.134  18.038
 2790TIP3   OH232564   4.214   8.496  18.356
 2790TIP3    H132565   4.258   8.558  18.414
 2790TIP3    H232566   4.152   8.550  18.305
 2791TIP3   OH232567   4.305   7.825  17.187
 2791TIP3    H132568   4.269   7.861  17.106
 2791TIP3    H232569   4.280   7.887  17.255
 2792TIP3   OH232570   4.203   7.415  17.153
 2792TIP3    H132571   4.212   7.411  17.058
 2792TIP3    H232572   4.121   7.369  17.171
 2793TIP3   OH232573   4.069   7.697  17.683
 2793TIP3    H132574   4.010   7.633  17.644
 2793TIP3    H232575   4.068   7.677  17.777
 2794TIP3   OH232576   2.434   7.885  18.138
 2794TIP3    H132577   2.446   7.842  18.053
 2794TIP3    H232578   2.501   7.846  18.194
 2795TIP3   OH232579   4.344   7.933  18.609
 2795TIP3    H132580   4.390   7.851  18.629
 2795TIP3    H232581   4.415   7.997  18.598
 2796TIP3   OH232582   4.452   7.684  18.666
 2796TIP3    H132583   4.391   7.611  18.660
 2796TIP3    H232584   4.505   7.666  18.744
 2797TIP3   OH232585   4.288   7.542  18.065
 2797TIP3    H132586   4.380   7.552  18.039
 2797TIP3    H232587   4.291   7.543  18.161
 2798TIP3   OH232588   4.312   7.573  18.343
 2798TIP3    H132589   4.240   7.598  18.401
 2798TIP3    H232590   4.363   7.653  18.331
 2799TIP3   OH232591   2.324   7.256  18.548
 2799TIP3    H132592   2.387   7.266  18.619
 2799TIP3    H232593   2.251   7.207  18.588
 2800TIP3   OH232594   4.426   6.850  18.789
 2800TIP3    H132595   4.509   6.810  18.767
 2800TIP3    H232596   4.424   6.932  18.739
 2801TIP3   OH232597   2.542   7.135  17.923
 2801TIP3    H132598   2.576   7.050  17.951
 2801TIP3    H232599   2.607   7.198  17.954
 2802TIP3   OH232600   2.276   7.558  17.949
 2802TIP3    H132601   2.350   7.497  17.941
 2802TIP3    H232602   2.314   7.643  17.929
 2803TIP3   OH232603   4.362   7.108  18.683
 2803TIP3    H132604   4.317   7.129  18.765
 2803TIP3    H232605   4.296   7.124  18.615
 2804TIP3   OH232606   4.560   7.074  17.289
 2804TIP3    H132607   4.654   7.067  17.272
 2804TIP3    H232608   4.539   7.165  17.269
 2805TIP3   OH232609   2.263   7.145  17.494
 2805TIP3    H132610   2.174   7.161  17.527
 2805TIP3    H232611   2.255   7.063  17.444
 2806TIP3   OH232612   4.170   8.901  17.715
 2806TIP3    H132613   4.239   8.918  17.650
 2806TIP3    H232614   4.156   8.985  17.758
 2807TIP3   OH232615   2.311   6.822  18.354
 2807TIP3    H132616   2.339   6.784  18.271
 2807TIP3    H232617   2.262   6.900  18.329
 2808TIP3   OH232618   2.689   8.440  18.562
 2808TIP3    H132619   2.684   8.355  18.517
 2808TIP3    H232620   2.607   8.445  18.612
 2809TIP3   OH232621   2.877   8.741  18.307
 2809TIP3    H132622   2.873   8.834  18.285
 2809TIP3    H232623   2.964   8.713  18.280
 2810TIP3   OH232624   3.533   8.799  18.578
 2810TIP3    H132625   3.522   8.750  18.659
 2810TIP3    H232626   3.610   8.854  18.593
 2811TIP3   OH232627   3.752   8.971  18.588
 2811TIP3    H132628   3.822   8.921  18.546
 2811TIP3    H232629   3.795   9.015  18.661
 2812TIP3   OH232630   4.265   6.708  18.447
 2812TIP3    H132631   4.193   6.718  18.385
 2812TIP3    H232632   4.298   6.620  18.432
 2813TIP3   OH232633   2.582   9.015  18.326
 2813TIP3    H132634   2.495   9.032  18.289
 2813TIP3    H232635   2.585   9.067  18.406
 2814TIP3   OH232636   2.851   9.011  18.243
 2814TIP3    H132637   2.759   9.019  18.266
 2814TIP3    H232638   2.865   9.076  18.174
 2815TIP3   OH232639   3.446   9.014  18.188
 2815TIP3    H132640   3.370   9.062  18.157
 2815TIP3    H232641   3.464   9.050  18.275
 2816TIP3   OH232642   3.669   8.858  18.166
 2816TIP3    H132643   3.585   8.903  18.158
 2816TIP3    H232644   3.700   8.880  18.254
 2817TIP3   OH232645   4.023   9.048  18.285
 2817TIP3    H132646   3.971   9.118  18.245
 2817TIP3    H232647   4.070   9.008  18.212
 2818TIP3   OH232648   2.632   8.860  17.979
 2818TIP3    H132649   2.617   8.834  18.070
 2818TIP3    H232650   2.688   8.792  17.943
 2819TIP3   OH232651   2.796   8.655  17.892
 2819TIP3    H132652   2.790   8.560  17.881
 2819TIP3    H232653   2.877   8.669  17.941
 2820TIP3   OH232654   3.025   8.627  18.037
 2820TIP3    H132655   3.060   8.539  18.020
 2820TIP3    H232656   3.079   8.660  18.109
 2821TIP3   OH232657   3.207   6.984  17.766
 2821TIP3    H132658   3.156   6.930  17.826
 2821TIP3    H232659   3.272   6.923  17.729
 2822TIP3   OH232660   4.159   6.746  17.718
 2822TIP3    H132661   4.227   6.710  17.660
 2822TIP3    H232662   4.088   6.770  17.659
 2823TIP3   OH232663   2.602   6.840  17.713
 2823TIP3    H132664   2.508   6.843  17.696
 2823TIP3    H232665   2.622   6.746  17.718
 2824TIP3   OH232666   3.080   6.685  17.660
 2824TIP3    H132667   3.059   6.757  17.600
 2824TIP3    H232668   3.066   6.722  17.747
 2825TIP3   OH232669   2.325   8.763  17.344
 2825TIP3    H132670   2.248   8.811  17.314
 2825TIP3    H232671   2.336   8.790  17.435
 2826TIP3   OH232672   2.664   7.160  17.152
 2826TIP3    H132673   2.685   7.074  17.187
 2826TIP3    H232674   2.739   7.215  17.177
 2827TIP3   OH232675   3.156   7.277  17.211
 2827TIP3    H132676   3.186   7.186  17.212
 2827TIP3    H232677   3.181   7.312  17.297
 2828TIP3   OH232678   4.363   8.934  17.507
 2828TIP3    H132679   4.383   8.874  17.436
 2828TIP3    H232680   4.322   9.009  17.465
 2829TIP3   OH232681   2.515   6.814  18.611
 2829TIP3    H132682   2.504   6.723  18.639
 2829TIP3    H232683   2.586   6.847  18.666
 2830TIP3   OH232684   2.723   6.830  18.801
 2830TIP3    H132685   2.816   6.848  18.814
 2830TIP3    H232686   2.715   6.736  18.815
 2831TIP3   OH232687   3.941   6.835  18.833
 2831TIP3    H132688   3.912   6.759  18.883
 2831TIP3    H232689   4.022   6.807  18.790
 2832TIP3   OH232690   4.093   8.750  18.683
 2832TIP3    H132691   4.035   8.772  18.611
 2832TIP3    H232692   4.121   8.834  18.718
 2833TIP3   OH232693   4.907   7.798  18.276
 2833TIP3    H132694   4.944   7.711  18.287
 2833TIP3    H232695   4.920   7.841  18.361
 2834TIP3   OH232696   6.198   8.252  17.930
 2834TIP3    H132697   6.248   8.175  17.957
 2834TIP3    H232698   6.209   8.314  18.001
 2835TIP3   OH232699   5.092   8.371  18.016
 2835TIP3    H132700   5.070   8.296  17.960
 2835TIP3    H232701   5.186   8.381  18.005
 2836TIP3   OH232702   4.535   7.661  17.503
 2836TIP3    H132703   4.460   7.703  17.545
 2836TIP3    H232704   4.500   7.627  17.420
 2837TIP3   OH232705   4.793   7.805  17.884
 2837TIP3    H132706   4.797   7.709  17.883
 2837TIP3    H232707   4.766   7.829  17.796
 2838TIP3   OH232708   5.994   8.900  17.833
 2838TIP3    H132709   6.032   8.817  17.804
 2838TIP3    H232710   5.970   8.886  17.924
 2839TIP3   OH232711   5.544   8.202  18.097
 2839TIP3    H132712   5.606   8.194  18.024
 2839TIP3    H232713   5.600   8.218  18.173
 2840TIP3   OH232714   6.648   7.046  18.275
 2840TIP3    H132715   6.648   7.140  18.292
 2840TIP3    H232716   6.648   7.039  18.180
 2841TIP3   OH232717   6.113   7.560  18.040
 2841TIP3    H132718   6.099   7.468  18.065
 2841TIP3    H232719   6.085   7.564  17.949
 2842TIP3   OH232720   5.114   7.295  17.721
 2842TIP3    H132721   5.066   7.339  17.651
 2842TIP3    H232722   5.108   7.202  17.700
 2843TIP3   OH232723   6.230   7.356  17.665
 2843TIP3    H132724   6.285   7.367  17.743
 2843TIP3    H232725   6.292   7.350  17.593
 2844TIP3   OH232726   4.793   7.530  17.900
 2844TIP3    H132727   4.866   7.472  17.922
 2844TIP3    H232728   4.766   7.501  17.813
 2845TIP3   OH232729   6.661   7.326  18.316
 2845TIP3    H132730   6.630   7.416  18.302
 2845TIP3    H232731   6.753   7.336  18.338
 2846TIP3   OH232732   5.043   7.206  18.200
 2846TIP3    H132733   5.032   7.266  18.126
 2846TIP3    H232734   4.989   7.243  18.269
 2847TIP3   OH232735   5.345   8.050  18.232
 2847TIP3    H132736   5.276   8.113  18.252
 2847TIP3    H232737   5.413   8.101  18.190
 2848TIP3   OH232738   6.393   7.416  17.876
 2848TIP3    H132739   6.372   7.339  17.929
 2848TIP3    H232740   6.450   7.469  17.932
 2849TIP3   OH232741   5.027   7.379  17.975
 2849TIP3    H132742   5.094   7.438  18.008
 2849TIP3    H232743   5.061   7.346  17.892
 2850TIP3   OH232744   5.148   8.251  18.271
 2850TIP3    H132745   5.116   8.299  18.195
 2850TIP3    H232746   5.071   8.241  18.327
 2851TIP3   OH232747   4.719   8.308  17.362
 2851TIP3    H132748   4.661   8.325  17.287
 2851TIP3    H232749   4.737   8.395  17.398
 2852TIP3   OH232750   6.239   8.478  18.110
 2852TIP3    H132751   6.169   8.528  18.153
 2852TIP3    H232752   6.261   8.530  18.032
 2853TIP3   OH232753   6.310   7.222  18.052
 2853TIP3    H132754   6.218   7.245  18.059
 2853TIP3    H232755   6.331   7.182  18.136
 2854TIP3   OH232756   5.301   6.840  17.972
 2854TIP3    H132757   5.298   6.750  18.004
 2854TIP3    H232758   5.225   6.882  18.012
 2855TIP3   OH232759   6.081   8.657  17.713
 2855TIP3    H132760   6.053   8.565  17.719
 2855TIP3    H232761   6.174   8.652  17.691
 2856TIP3   OH232762   6.042   8.387  17.717
 2856TIP3    H132763   5.981   8.335  17.664
 2856TIP3    H232764   6.082   8.324  17.777
 2857TIP3   OH232765   6.552   8.258  18.406
 2857TIP3    H132766   6.545   8.197  18.333
 2857TIP3    H232767   6.507   8.337  18.377
 2858TIP3   OH232768   6.710   7.827  18.231
 2858TIP3    H132769   6.656   7.905  18.227
 2858TIP3    H232770   6.766   7.832  18.154
 2859TIP3   OH232771   6.284   7.701  17.476
 2859TIP3    H132772   6.316   7.787  17.448
 2859TIP3    H232773   6.330   7.685  17.559
 2860TIP3   OH232774   6.372   7.675  18.478
 2860TIP3    H132775   6.355   7.760  18.520
 2860TIP3    H232776   6.291   7.655  18.431
 2861TIP3   OH232777   5.364   8.380  17.974
 2861TIP3    H132778   5.402   8.385  17.886
 2861TIP3    H232779   5.423   8.322  18.022
 2862TIP3   OH232780   5.277   7.815  18.092
 2862TIP3    H132781   5.190   7.839  18.060
 2862TIP3    H232782   5.307   7.892  18.140
 2863TIP3   OH232783   6.054   8.654  18.229
 2863TIP3    H132784   6.021   8.731  18.182
 2863TIP3    H232785   5.976   8.614  18.267
 2864TIP3   OH232786   5.304   8.375  18.468
 2864TIP3    H132787   5.277   8.467  18.468
 2864TIP3    H232788   5.260   8.338  18.391
 2865TIP3   OH232789   4.969   7.877  18.545
 2865TIP3    H132790   4.973   7.965  18.582
 2865TIP3    H232791   4.901   7.833  18.595
 2866TIP3   OH232792   5.177   8.626  18.482
 2866TIP3    H132793   5.168   8.673  18.399
 2866TIP3    H232794   5.089   8.590  18.498
 2867TIP3   OH232795   4.712   7.851  17.624
 2867TIP3    H132796   4.733   7.918  17.558
 2867TIP3    H232797   4.662   7.785  17.575
 2868TIP3   OH232798   4.677   8.140  18.378
 2868TIP3    H132799   4.639   8.135  18.290
 2868TIP3    H232800   4.671   8.051  18.412
 2869TIP3   OH232801   4.724   8.587  18.039
 2869TIP3    H132802   4.758   8.498  18.029
 2869TIP3    H232803   4.764   8.619  18.120
 2870TIP3   OH232804   6.587   8.676  18.479
 2870TIP3    H132805   6.560   8.597  18.432
 2870TIP3    H232806   6.533   8.676  18.558
 2871TIP3   OH232807   5.585   8.613  18.519
 2871TIP3    H132808   5.637   8.684  18.557
 2871TIP3    H232809   5.525   8.587  18.589
 2872TIP3   OH232810   5.686   8.807  17.399
 2872TIP3    H132811   5.746   8.795  17.473
 2872TIP3    H232812   5.604   8.767  17.428
 2873TIP3   OH232813   5.005   8.784  17.705
 2873TIP3    H132814   5.018   8.746  17.792
 2873TIP3    H232815   4.970   8.713  17.652
 2874TIP3   OH232816   6.030   8.920  17.343
 2874TIP3    H132817   6.090   8.847  17.325
 2874TIP3    H232818   5.987   8.896  17.425
 2875TIP3   OH232819   5.909   8.825  17.573
 2875TIP3    H132820   5.901   8.880  17.651
 2875TIP3    H232821   5.956   8.747  17.603
 2876TIP3   OH232822   6.548   7.531  18.641
 2876TIP3    H132823   6.482   7.582  18.593
 2876TIP3    H232824   6.536   7.441  18.609
 2877TIP3   OH232825   4.926   8.238  18.445
 2877TIP3    H132826   4.938   8.195  18.529
 2877TIP3    H232827   4.840   8.208  18.415
 2878TIP3   OH232828   5.074   6.952  18.089
 2878TIP3    H132829   5.003   6.945  18.026
 2878TIP3    H232830   5.065   7.039  18.127
 2879TIP3   OH232831   5.598   6.704  18.314
 2879TIP3    H132832   5.640   6.693  18.400
 2879TIP3    H232833   5.529   6.769  18.330
 2880TIP3   OH232834   6.231   7.359  18.483
 2880TIP3    H132835   6.192   7.377  18.569
 2880TIP3    H232836   6.213   7.438  18.432
 2881TIP3   OH232837   5.211   7.543  18.121
 2881TIP3    H132838   5.144   7.552  18.189
 2881TIP3    H232839   5.240   7.633  18.104
 2882TIP3   OH232840   6.018   7.627  17.519
 2882TIP3    H132841   6.096   7.681  17.511
 2882TIP3    H232842   6.033   7.554  17.459
 2883TIP3   OH232843   5.733   7.601  18.685
 2883TIP3    H132844   5.698   7.513  18.699
 2883TIP3    H232845   5.788   7.617  18.761
 2884TIP3   OH232846   6.029   7.524  17.773
 2884TIP3    H132847   6.016   7.574  17.692
 2884TIP3    H232848   6.091   7.455  17.749
 2885TIP3   OH232849   5.034   7.553  18.332
 2885TIP3    H132850   5.084   7.586  18.407
 2885TIP3    H232851   4.989   7.476  18.366
 2886TIP3   OH232852   5.311   7.335  16.987
 2886TIP3    H132853   5.241   7.312  16.926
 2886TIP3    H232854   5.383   7.277  16.963
 2887TIP3   OH232855   4.469   7.185  17.782
 2887TIP3    H132856   4.541   7.162  17.841
 2887TIP3    H232857   4.512   7.219  17.703
 2888TIP3   OH232858   4.566   7.358  17.272
 2888TIP3    H132859   4.631   7.392  17.211
 2888TIP3    H232860   4.498   7.425  17.274
 2889TIP3   OH232861   6.147   7.583  18.338
 2889TIP3    H132862   6.131   7.591  18.243
 2889TIP3    H232863   6.060   7.581  18.377
 2890TIP3   OH232864   5.374   7.393  17.742
 2890TIP3    H132865   5.286   7.359  17.727
 2890TIP3    H232866   5.385   7.392  17.837
 2891TIP3   OH232867   4.695   7.474  17.651
 2891TIP3    H132868   4.647   7.541  17.603
 2891TIP3    H232869   4.663   7.391  17.615
 2892TIP3   OH232870   5.310   7.247  17.377
 2892TIP3    H132871   5.390   7.264  17.426
 2892TIP3    H232872   5.297   7.326  17.325
 2893TIP3   OH232873   6.046   7.293  18.090
 2893TIP3    H132874   6.033   7.272  18.182
 2893TIP3    H232875   5.974   7.248  18.044
 2894TIP3   OH232876   5.294   7.473  17.220
 2894TIP3    H132877   5.310   7.422  17.141
 2894TIP3    H232878   5.248   7.551  17.190
 2895TIP3   OH232879   6.430   8.992  18.724
 2895TIP3    H132880   6.441   9.038  18.641
 2895TIP3    H232881   6.513   9.004  18.770
 2896TIP3   OH232882   4.928   8.117  18.695
 2896TIP3    H132883   4.995   8.133  18.762
 2896TIP3    H232884   4.845   8.131  18.741
 2897TIP3   OH232885   5.773   7.605  17.853
 2897TIP3    H132886   5.856   7.570  17.821
 2897TIP3    H232887   5.785   7.612  17.948
 2898TIP3   OH232888   5.073   7.044  17.614
 2898TIP3    H132889   5.015   6.969  17.628
 2898TIP3    H232890   5.108   7.032  17.526
 2899TIP3   OH232891   5.387   7.386  18.275
 2899TIP3    H132892   5.322   7.434  18.225
 2899TIP3    H232893   5.471   7.419  18.243
 2900TIP3   OH232894   6.574   8.073  18.190
 2900TIP3    H132895   6.651   8.100  18.139
 2900TIP3    H232896   6.504   8.067  18.125
 2901TIP3   OH232897   6.011   7.260  17.323
 2901TIP3    H132898   5.931   7.296  17.285
 2901TIP3    H232899   6.075   7.331  17.315
 2902TIP3   OH232900   5.763   8.402  18.507
 2902TIP3    H132901   5.757   8.384  18.601
 2902TIP3    H232902   5.704   8.476  18.493
 2903TIP3   OH232903   6.203   7.464  17.356
 2903TIP3    H132904   6.272   7.404  17.384
 2903TIP3    H232905   6.231   7.549  17.391
 2904TIP3   OH232906   5.018   7.878  18.032
 2904TIP3    H132907   4.947   7.860  17.970
 2904TIP3    H232908   4.980   7.861  18.118
 2905TIP3   OH232909   4.642   7.890  18.478
 2905TIP3    H132910   4.679   7.851  18.557
 2905TIP3    H232911   4.569   7.832  18.455
 2906TIP3   OH232912   5.514   7.783  18.678
 2906TIP3    H132913   5.484   7.802  18.589
 2906TIP3    H232914   5.590   7.725  18.665
 2907TIP3   OH232915   6.042   8.356  18.534
 2907TIP3    H132916   5.952   8.369  18.503
 2907TIP3    H232917   6.044   8.395  18.621
 2908TIP3   OH232918   6.660   7.412  17.342
 2908TIP3    H132919   6.723   7.370  17.284
 2908TIP3    H232920   6.674   7.506  17.330
 2909TIP3   OH232921   6.774   8.172  18.543
 2909TIP3    H132922   6.697   8.215  18.505
 2909TIP3    H232923   6.835   8.163  18.469
 2910TIP3   OH232924   6.552   8.673  17.384
 2910TIP3    H132925   6.537   8.580  17.403
 2910TIP3    H232926   6.555   8.676  17.288
 2911TIP3   OH232927   6.334   8.018  18.046
 2911TIP3    H132928   6.284   8.010  18.127
 2911TIP3    H232929   6.332   7.930  18.008
 2912TIP3   OH232930   5.469   8.407  17.721
 2912TIP3    H132931   5.533   8.373  17.658
 2912TIP3    H232932   5.443   8.491  17.685
 2913TIP3   OH232933   4.833   7.908  17.209
 2913TIP3    H132934   4.817   7.954  17.291
 2913TIP3    H232935   4.746   7.883  17.177
 2914TIP3   OH232936   5.457   8.711  18.288
 2914TIP3    H132937   5.445   8.802  18.314
 2914TIP3    H232938   5.501   8.671  18.363
 2915TIP3   OH232939   5.281   8.828  17.656
 2915TIP3    H132940   5.187   8.823  17.672
 2915TIP3    H232941   5.309   8.906  17.704
 2916TIP3   OH232942   5.736   8.230  18.291
 2916TIP3    H132943   5.733   8.294  18.363
 2916TIP3    H232944   5.818   8.183  18.305
 2917TIP3   OH232945   6.260   8.726  18.408
 2917TIP3    H132946   6.186   8.696  18.356
 2917TIP3    H232947   6.277   8.815  18.376
 2918TIP3   OH232948   6.788   8.942  17.174
 2918TIP3    H132949   6.845   9.018  17.175
 2918TIP3    H232950   6.708   8.971  17.217
 2919TIP3   OH232951   4.884   7.320  18.404
 2919TIP3    H132952   4.793   7.345  18.389
 2919TIP3    H232953   4.880   7.261  18.480
 2920TIP3   OH232954   6.390   7.940  17.392
 2920TIP3    H132955   6.353   8.027  17.409
 2920TIP3    H232956   6.484   7.950  17.404
 2921TIP3   OH232957   4.869   8.659  18.266
 2921TIP3    H132958   4.873   8.605  18.345
 2921TIP3    H232959   4.959   8.686  18.251
 2922TIP3   OH232960   5.331   8.441  17.108
 2922TIP3    H132961   5.414   8.442  17.061
 2922TIP3    H232962   5.356   8.439  17.200
 2923TIP3   OH232963   5.455   8.455  17.357
 2923TIP3    H132964   5.521   8.408  17.408
 2923TIP3    H232965   5.452   8.542  17.396
 2924TIP3   OH232966   4.793   8.056  17.444
 2924TIP3    H132967   4.755   8.140  17.417
 2924TIP3    H232968   4.882   8.077  17.471
 2925TIP3   OH232969   6.024   7.227  18.350
 2925TIP3    H132970   6.105   7.253  18.394
 2925TIP3    H232971   5.957   7.232  18.419
 2926TIP3   OH232972   6.079   7.146  17.563
 2926TIP3    H132973   6.057   7.185  17.478
 2926TIP3    H232974   6.126   7.215  17.610
 2927TIP3   OH232975   5.538   7.321  17.534
 2927TIP3    H132976   5.621   7.355  17.567
 2927TIP3    H232977   5.475   7.340  17.604
 2928TIP3   OH232978   5.908   7.541  18.469
 2928TIP3    H132979   5.851   7.589  18.530
 2928TIP3    H232980   5.901   7.450  18.496
 2929TIP3   OH232981   5.842   7.006  17.552
 2929TIP3    H132982   5.815   6.966  17.635
 2929TIP3    H232983   5.926   7.047  17.572
 2930TIP3   OH232984   5.428   8.716  17.457
 2930TIP3    H132985   5.375   8.752  17.386
 2930TIP3    H232986   5.386   8.748  17.537
 2931TIP3   OH232987   5.201   7.039  17.225
 2931TIP3    H132988   5.234   7.111  17.279
 2931TIP3    H232989   5.274   7.017  17.167
 2932TIP3   OH232990   6.494   7.279  18.530
 2932TIP3    H132991   6.401   7.292  18.510
 2932TIP3    H232992   6.538   7.288  18.446
 2933TIP3   OH232993   6.324   7.742  17.980
 2933TIP3    H132994   6.250   7.688  18.008
 2933TIP3    H232995   6.401   7.692  18.007
 2934TIP3   OH232996   6.429   9.007  18.083
 2934TIP3    H132997   6.409   9.055  18.002
 2934TIP3    H232998   6.524   8.991  18.077
 2935TIP3   OH232999   4.861   6.913  17.911
 2935TIP3    H133000   4.877   6.897  17.818
 2935TIP3    H233001   4.849   6.826  17.948
 2936TIP3   OH233002   4.747   8.574  17.434
 2936TIP3    H133003   4.692   8.626  17.493
 2936TIP3    H233004   4.763   8.632  17.360
 2937TIP3   OH233005   4.707   8.954  18.744
 2937TIP3    H133006   4.734   8.948  18.835
 2937TIP3    H233007   4.784   8.990  18.699
 2938TIP3   OH233008   5.344   8.786  18.645
 2938TIP3    H133009   5.382   8.716  18.697
 2938TIP3    H233010   5.283   8.741  18.586
 2939TIP3   OH233011   6.009   8.469  18.789
 2939TIP3    H133012   6.008   8.396  18.851
 2939TIP3    H233013   6.086   8.520  18.814
 2940TIP3   OH233014   4.662   8.164  18.810
 2940TIP3    H133015   4.607   8.113  18.870
 2940TIP3    H233016   4.608   8.173  18.732
 2941TIP3   OH233017   5.336   8.265  18.710
 2941TIP3    H133018   5.321   8.296  18.621
 2941TIP3    H233019   5.413   8.209  18.704
 2942TIP3   OH233020   6.255   8.172  18.498
 2942TIP3    H133021   6.331   8.231  18.493
 2942TIP3    H233022   6.180   8.231  18.509
 2943TIP3   OH233023   4.765   7.786  18.706
 2943TIP3    H133024   4.724   7.703  18.733
 2943TIP3    H233025   4.764   7.840  18.785
 2944TIP3   OH233026   5.180   7.691  18.523
 2944TIP3    H133027   5.114   7.759  18.540
 2944TIP3    H233028   5.258   7.740  18.498
 2945TIP3   OH233029   5.972   8.021  18.902
 2945TIP3    H133030   6.047   7.965  18.884
 2945TIP3    H233031   5.903   7.961  18.929
 2946TIP3   OH233032   5.409   7.311  18.550
 2946TIP3    H133033   5.372   7.223  18.541
 2946TIP3    H233034   5.405   7.349  18.462
 2947TIP3   OH233035   5.289   7.129  18.329
 2947TIP3    H133036   5.333   7.210  18.303
 2947TIP3    H233037   5.201   7.137  18.291
 2948TIP3   OH233038   5.401   7.836  18.416
 2948TIP3    H133039   5.440   7.788  18.343
 2948TIP3    H233040   5.377   7.921  18.380
 2949TIP3   OH233041   5.897   7.621  18.917
 2949TIP3    H133042   5.904   7.540  18.968
 2949TIP3    H233043   5.979   7.668  18.935
 2950TIP3   OH233044   6.336   7.926  18.599
 2950TIP3    H133045   6.299   8.006  18.562
 2950TIP3    H233046   6.428   7.948  18.615
 2951TIP3   OH233047   5.321   7.471  18.759
 2951TIP3    H133048   5.275   7.545  18.719
 2951TIP3    H233049   5.355   7.422  18.684
 2952TIP3   OH233050   5.376   6.866  18.384
 2952TIP3    H133051   5.359   6.959  18.367
 2952TIP3    H233052   5.293   6.823  18.362
 2953TIP3   OH233053   5.645   7.337  18.718
 2953TIP3    H133054   5.640   7.291  18.802
 2953TIP3    H233055   5.561   7.319  18.676
 2954TIP3   OH233056   5.880   7.288  18.580
 2954TIP3    H133057   5.795   7.299  18.622
 2954TIP3    H233058   5.934   7.247  18.647
 2955TIP3   OH233059   6.030   7.176  18.780
 2955TIP3    H133060   6.072   7.090  18.785
 2955TIP3    H233061   6.003   7.194  18.869
 2956TIP3   OH233062   4.814   7.142  18.613
 2956TIP3    H133063   4.815   7.050  18.586
 2956TIP3    H233064   4.835   7.140  18.707
 2957TIP3   OH233065   5.510   6.841  18.635
 2957TIP3    H133066   5.580   6.779  18.614
 2957TIP3    H233067   5.461   6.850  18.553
 2958TIP3   OH233068   5.512   6.965  18.883
 2958TIP3    H133069   5.511   6.923  18.797
 2958TIP3    H233070   5.446   7.034  18.876
 2959TIP3   OH233071   4.607   8.923  17.653
 2959TIP3    H133072   4.515   8.927  17.627
 2959TIP3    H233073   4.605   8.886  17.741
 2960TIP3   OH233074   4.637   8.819  17.914
 2960TIP3    H133075   4.642   8.728  17.945
 2960TIP3    H233076   4.722   8.856  17.936
 2961TIP3   OH233077   6.706   8.954  18.095
 2961TIP3    H133078   6.771   9.011  18.135
 2961TIP3    H233079   6.755   8.902  18.031
 2962TIP3   OH233080   6.655   8.921  18.374
 2962TIP3    H133081   6.655   8.905  18.280
 2962TIP3    H233082   6.641   8.835  18.413
 2963TIP3   OH233083   6.575   8.313  18.954
 2963TIP3    H133084   6.481   8.326  18.960
 2963TIP3    H233085   6.613   8.397  18.978
 2964TIP3   OH233086   6.659   7.955  17.437
 2964TIP3    H133087   6.729   8.021  17.436
 2964TIP3    H233088   6.675   7.905  17.517
 2965TIP3   OH233089   6.662   7.736  17.624
 2965TIP3    H133090   6.576   7.711  17.658
 2965TIP3    H233091   6.723   7.713  17.694
 2966TIP3   OH233092   6.832   8.098  18.083
 2966TIP3    H133093   6.864   8.013  18.053
 2966TIP3    H233094   6.874   8.161  18.024
 2967TIP3   OH233095   6.406   8.488  18.338
 2967TIP3    H133096   6.360   8.563  18.377
 2967TIP3    H233097   6.359   8.470  18.257
 2968TIP3   OH233098   6.689   7.687  17.351
 2968TIP3    H133099   6.698   7.780  17.330
 2968TIP3    H233100   6.675   7.684  17.446
 2969TIP3   OH233101   6.411   7.657  17.723
 2969TIP3    H133102   6.409   7.566  17.753
 2969TIP3    H233103   6.376   7.708  17.796
 2970TIP3   OH233104   4.673   7.839  18.130
 2970TIP3    H133105   4.715   7.831  18.044
 2970TIP3    H233106   4.745   7.825  18.192
 2971TIP3   OH233107   6.604   7.972  18.642
 2971TIP3    H133108   6.652   7.889  18.643
 2971TIP3    H233109   6.664   8.034  18.602
 2972TIP3   OH233110   6.744   7.732  18.644
 2972TIP3    H133111   6.682   7.659  18.651
 2972TIP3    H233112   6.818   7.706  18.699
 2973TIP3   OH233113   6.419   7.327  17.459
 2973TIP3    H133114   6.434   7.240  17.498
 2973TIP3    H233115   6.505   7.352  17.424
 2974TIP3   OH233116   6.542   7.580  18.035
 2974TIP3    H133117   6.632   7.577  18.004
 2974TIP3    H233118   6.549   7.576  18.131
 2975TIP3   OH233119   6.579   7.593  18.308
 2975TIP3    H133120   6.510   7.619  18.369
 2975TIP3    H233121   6.630   7.672  18.294
 2976TIP3   OH233122   4.564   7.237  18.533
 2976TIP3    H133123   4.650   7.210  18.563
 2976TIP3    H233124   4.503   7.193  18.592
 2977TIP3   OH233125   6.719   6.854  18.762
 2977TIP3    H133126   6.811   6.827  18.753
 2977TIP3    H233127   6.717   6.943  18.726
 2978TIP3   OH233128   6.453   7.089  17.588
 2978TIP3    H133129   6.522   7.049  17.641
 2978TIP3    H233130   6.386   7.021  17.580
 2979TIP3   OH233131   4.676   7.118  17.954
 2979TIP3    H133132   4.731   7.041  17.939
 2979TIP3    H233133   4.738   7.188  17.977
 2980TIP3   OH233134   4.556   7.595  18.033
 2980TIP3    H133135   4.631   7.561  17.985
 2980TIP3    H233136   4.588   7.675  18.076
 2981TIP3   OH233137   6.676   7.130  18.681
 2981TIP3    H133138   6.642   7.153  18.768
 2981TIP3    H233139   6.615   7.170  18.620
 2982TIP3   OH233140   6.618   7.100  17.058
 2982TIP3    H133141   6.550   7.149  17.013
 2982TIP3    H233142   6.699   7.122  17.012
 2983TIP3   OH233143   4.583   7.248  17.529
 2983TIP3    H133144   4.574   7.157  17.501
 2983TIP3    H233145   4.573   7.298  17.448
 2984TIP3   OH233146   6.368   8.991  17.633
 2984TIP3    H133147   6.457   8.956  17.624
 2984TIP3    H233148   6.370   9.041  17.715
 2985TIP3   OH233149   4.461   6.829  18.278
 2985TIP3    H133150   4.401   6.813  18.351
 2985TIP3    H233151   4.436   6.915  18.245
 2986TIP3   OH233152   4.923   8.509  18.494
 2986TIP3    H133153   4.930   8.416  18.472
 2986TIP3    H233154   4.873   8.511  18.575
 2987TIP3   OH233155   5.125   8.748  18.241
 2987TIP3    H133156   5.135   8.843  18.234
 2987TIP3    H233157   5.192   8.712  18.182
 2988TIP3   OH233158   5.745   8.789  18.652
 2988TIP3    H133159   5.760   8.739  18.733
 2988TIP3    H233160   5.806   8.863  18.658
 2989TIP3   OH233161   5.944   8.990  18.633
 2989TIP3    H133162   6.001   8.938  18.576
 2989TIP3    H233163   6.003   9.027  18.698
 2990TIP3   OH233164   6.564   6.822  18.443
 2990TIP3    H133165   6.563   6.904  18.392
 2990TIP3    H233166   6.657   6.805  18.458
 2991TIP3   OH233167   4.854   8.957  18.270
 2991TIP3    H133168   4.772   9.005  18.275
 2991TIP3    H233169   4.836   8.873  18.313
 2992TIP3   OH233170   5.125   9.023  18.223
 2992TIP3    H133171   5.032   9.021  18.247
 2992TIP3    H233172   5.131   9.088  18.153
 2993TIP3   OH233173   5.735   9.021  18.209
 2993TIP3    H133174   5.655   9.058  18.171
 2993TIP3    H233175   5.732   9.046  18.301
 2994TIP3   OH233176   5.955   8.889  18.112
 2994TIP3    H133177   5.869   8.918  18.141
 2994TIP3    H233178   6.012   8.965  18.124
 2995TIP3   OH233179   6.280   8.988  18.307
 2995TIP3    H133180   6.219   9.060  18.290
 2995TIP3    H233181   6.334   8.984  18.228
 2996TIP3   OH233182   4.893   8.870  18.010
 2996TIP3    H133183   4.885   8.883  18.105
 2996TIP3    H233184   4.945   8.790  18.002
 2997TIP3   OH233185   5.061   8.650  17.946
 2997TIP3    H133186   5.044   8.559  17.970
 2997TIP3    H233187   5.151   8.666  17.974
 2998TIP3   OH233188   5.311   8.637  18.070
 2998TIP3    H133189   5.340   8.552  18.037
 2998TIP3    H233190   5.375   8.660  18.138
 2999TIP3   OH233191   5.754   6.908  17.794
 2999TIP3    H133192   5.660   6.899  17.783
 2999TIP3    H233193   5.774   6.861  17.874
 3000TIP3   OH233194   6.453   6.817  17.903
 3000TIP3    H133195   6.519   6.864  17.852
 3000TIP3    H233196   6.383   6.881  17.918
 3001TIP3   OH233197   6.636   6.952  17.750
 3001TIP3    H133198   6.673   6.867  17.726
 3001TIP3    H233199   6.711   7.006  17.774
 3002TIP3   OH233200   4.906   6.818  17.648
 3002TIP3    H133201   4.829   6.790  17.599
 3002TIP3    H233202   4.952   6.737  17.668
 3003TIP3   OH233203   5.484   6.856  17.775
 3003TIP3    H133204   5.436   6.874  17.694
 3003TIP3    H233205   5.419   6.863  17.844
 3004TIP3   OH233206   6.184   6.676  17.687
 3004TIP3    H133207   6.207   6.767  17.665
 3004TIP3    H233208   6.269   6.633  17.701
 3005TIP3   OH233209   6.233   6.918  17.564
 3005TIP3    H133210   6.178   6.997  17.567
 3005TIP3    H233211   6.199   6.868  17.490
 3006TIP3   OH233212   4.767   8.760  17.234
 3006TIP3    H133213   4.705   8.761  17.161
 3006TIP3    H233214   4.751   8.842  17.280
 3007TIP3   OH233215   4.955   6.952  17.128
 3007TIP3    H133216   4.955   7.014  17.055
 3007TIP3    H233217   5.037   6.970  17.174
 3008TIP3   OH233218   5.697   7.150  17.375
 3008TIP3    H133219   5.736   7.111  17.454
 3008TIP3    H233220   5.625   7.204  17.407
 3009TIP3   OH233221   6.620   8.897  17.531
 3009TIP3    H133222   6.600   8.812  17.492
 3009TIP3    H233223   6.614   8.959  17.459
 3010TIP3   OH233224   4.822   6.865  18.595
 3010TIP3    H133225   4.751   6.815  18.636
 3010TIP3    H233226   4.896   6.854  18.655
 3011TIP3   OH233227   5.007   6.820  18.796
 3011TIP3    H133228   5.100   6.796  18.796
 3011TIP3    H233229   4.962   6.742  18.830
 3012TIP3   OH233230   6.205   6.655  18.696
 3012TIP3    H133231   6.179   6.631  18.785
 3012TIP3    H233232   6.299   6.673  18.702
 3013TIP3   OH233233   6.376   8.718  18.666
 3013TIP3    H133234   6.327   8.722  18.584
 3013TIP3    H233235   6.390   8.810  18.690
 3014TIP3   OH233236   8.281   7.995  17.515
 3014TIP3    H133237   8.278   8.088  17.496
 3014TIP3    H233238   8.192   7.964  17.496
 3015TIP3   OH233239   7.933   7.718  18.219
 3015TIP3    H133240   8.001   7.766  18.267
 3015TIP3    H233241   7.974   7.636  18.193
 3016TIP3   OH233242   7.149   7.795  18.161
 3016TIP3    H133243   7.173   7.747  18.240
 3016TIP3    H233244   7.233   7.812  18.117
 3017TIP3   OH233245   8.628   8.400  17.841
 3017TIP3    H133246   8.652   8.320  17.889
 3017TIP3    H233247   8.628   8.469  17.908
 3018TIP3   OH233248   7.318   8.379  17.897
 3018TIP3    H133249   7.295   8.288  17.879
 3018TIP3    H233250   7.400   8.373  17.947
 3019TIP3   OH233251   6.907   7.455  17.494
 3019TIP3    H133252   6.896   7.538  17.447
 3019TIP3    H233253   6.830   7.404  17.470
 3020TIP3   OH233254   7.011   7.744  17.792
 3020TIP3    H133255   7.031   7.654  17.816
 3020TIP3    H233256   7.069   7.763  17.718
 3021TIP3   OH233257   8.300   8.779  17.835
 3021TIP3    H133258   8.364   8.730  17.783
 3021TIP3    H233259   8.217   8.735  17.818
 3022TIP3   OH233260   7.784   8.175  18.073
 3022TIP3    H133261   7.844   8.152  18.002
 3022TIP3    H233262   7.841   8.196  18.147
 3023TIP3   OH233263   8.920   7.189  18.192
 3023TIP3    H133264   8.940   7.271  18.237
 3023TIP3    H233265   8.938   7.207  18.100
 3024TIP3   OH233266   8.340   7.469  18.100
 3024TIP3    H133267   8.375   7.381  18.109
 3024TIP3    H233268   8.368   7.497  18.013
 3025TIP3   OH233269   7.434   7.298  17.753
 3025TIP3    H133270   7.422   7.386  17.717
 3025TIP3    H233271   7.385   7.241  17.694
 3026TIP3   OH233272   8.480   7.351  17.652
 3026TIP3    H133273   8.516   7.272  17.692
 3026TIP3    H233274   8.547   7.379  17.590
 3027TIP3   OH233275   7.057   7.479  17.872
 3027TIP3    H133276   7.109   7.430  17.935
 3027TIP3    H233277   7.083   7.444  17.786
 3028TIP3   OH233278   7.497   7.738  17.791
 3028TIP3    H133279   7.588   7.711  17.784
 3028TIP3    H233280   7.448   7.671  17.743
 3029TIP3   OH233281   8.980   7.427  18.316
 3029TIP3    H133282   8.912   7.494  18.323
 3029TIP3    H233283   9.009   7.413  18.406
 3030TIP3   OH233284   7.355   7.108  18.199
 3030TIP3    H133285   7.318   7.179  18.146
 3030TIP3    H233286   7.292   7.097  18.270
 3031TIP3   OH233287   8.227   8.250  17.413
 3031TIP3    H133288   8.143   8.247  17.367
 3031TIP3    H233289   8.227   8.335  17.456
 3032TIP3   OH233290   7.573   8.014  18.162
 3032TIP3    H133291   7.526   8.077  18.217
 3032TIP3    H233292   7.646   8.064  18.125
 3033TIP3   OH233293   8.580   7.121  17.759
 3033TIP3    H133294   8.658   7.074  17.731
 3033TIP3    H233295   8.543   7.067  17.828
 3034TIP3   OH233296   7.290   7.317  18.001
 3034TIP3    H133297   7.320   7.395  18.048
 3034TIP3    H233298   7.349   7.310  17.926
 3035TIP3   OH233299   7.441   8.233  18.300
 3035TIP3    H133300   7.414   8.291  18.229
 3035TIP3    H233301   7.360   8.214  18.347
 3036TIP3   OH233302   6.869   8.134  17.430
 3036TIP3    H133303   6.950   8.113  17.383
 3036TIP3    H233304   6.879   8.225  17.456
 3037TIP3   OH233305   8.618   8.581  18.056
 3037TIP3    H133306   8.531   8.596  18.092
 3037TIP3    H233307   8.653   8.669  18.039
 3038TIP3   OH233308   8.648   7.179  18.277
 3038TIP3    H133309   8.584   7.186  18.206
 3038TIP3    H233310   8.733   7.176  18.233
 3039TIP3   OH233311   7.672   6.690  18.016
 3039TIP3    H133312   7.634   6.606  18.041
 3039TIP3    H233313   7.608   6.755  18.044
 3040TIP3   OH233314   8.461   8.659  17.627
 3040TIP3    H133315   8.499   8.571  17.616
 3040TIP3    H233316   8.537   8.717  17.634
 3041TIP3   OH233317   8.579   8.414  17.569
 3041TIP3    H133318   8.604   8.330  17.531
 3041TIP3    H233319   8.601   8.406  17.662
 3042TIP3   OH233320   8.787   8.279  18.418
 3042TIP3    H133321   8.790   8.218  18.344
 3042TIP3    H233322   8.778   8.365  18.377
 3043TIP3   OH233323   8.030   7.959  17.392
 3043TIP3    H133324   7.938   7.971  17.413
 3043TIP3    H233325   8.052   8.035  17.337
 3044TIP3   OH233326   8.937   7.870  18.277
 3044TIP3    H133327   8.886   7.950  18.266
 3044TIP3    H233328   8.994   7.868  18.200
 3045TIP3   OH233329   8.538   7.911  17.461
 3045TIP3    H133330   8.453   7.927  17.501
 3045TIP3    H233331   8.574   7.838  17.512
 3046TIP3   OH233332   8.582   7.691  18.473
 3046TIP3    H133333   8.569   7.776  18.514
 3046TIP3    H233334   8.502   7.676  18.422
 3047TIP3   OH233335   7.416   7.960  17.641
 3047TIP3    H133336   7.406   7.922  17.554
 3047TIP3    H233337   7.449   7.888  17.695
 3048TIP3   OH233338   7.582   8.350  17.987
 3048TIP3    H133339   7.599   8.353  17.893
 3048TIP3    H233340   7.650   8.293  18.022
 3049TIP3   OH233341   7.398   7.826  18.038
 3049TIP3    H133342   7.437   7.803  17.954
 3049TIP3    H233343   7.461   7.886  18.078
 3050TIP3   OH233344   8.373   8.625  18.185
 3050TIP3    H133345   8.345   8.713  18.160
 3050TIP3    H233346   8.293   8.572  18.180
 3051TIP3   OH233347   7.595   8.390  18.488
 3051TIP3    H133348   7.531   8.456  18.515
 3051TIP3    H233349   7.553   8.345  18.415
 3052TIP3   OH233350   8.414   7.849  17.221
 3052TIP3    H133351   8.469   7.872  17.296
 3052TIP3    H233352   8.418   7.926  17.164
 3053TIP3   OH233353   7.135   7.826  18.561
 3053TIP3    H133354   7.155   7.909  18.603
 3053TIP3    H233355   7.052   7.841  18.516
 3054TIP3   OH233356   8.233   8.509  17.504
 3054TIP3    H133357   8.310   8.555  17.538
 3054TIP3    H233358   8.204   8.563  17.431
 3055TIP3   OH233359   7.404   8.575  18.565
 3055TIP3    H133360   7.390   8.627  18.486
 3055TIP3    H233361   7.322   8.526  18.576
 3056TIP3   OH233362   7.404   7.810  17.402
 3056TIP3    H133363   7.333   7.824  17.339
 3056TIP3    H233364   7.429   7.719  17.390
 3057TIP3   OH233365   6.952   8.101  18.340
 3057TIP3    H133366   6.909   8.105  18.254
 3057TIP3    H233367   6.936   8.011  18.371
 3058TIP3   OH233368   6.991   8.586  18.055
 3058TIP3    H133369   7.067   8.537  18.023
 3058TIP3    H233370   7.023   8.632  18.133
 3059TIP3   OH233371   8.856   8.585  18.644
 3059TIP3    H133372   8.848   8.491  18.626
 3059TIP3    H233373   8.765   8.615  18.656
 3060TIP3   OH233374   7.825   8.586  18.470
 3060TIP3    H133375   7.841   8.662  18.526
 3060TIP3    H233376   7.759   8.535  18.517
 3061TIP3   OH233377   8.133   8.664  17.295
 3061TIP3    H133378   8.117   8.609  17.219
 3061TIP3    H233379   8.050   8.710  17.310
 3062TIP3   OH233380   7.318   8.833  17.683
 3062TIP3    H133381   7.305   8.776  17.759
 3062TIP3    H233382   7.245   8.813  17.625
 3063TIP3   OH233383   8.507   9.034  17.349
 3063TIP3    H133384   8.560   8.980  17.291
 3063TIP3    H233385   8.449   8.973  17.393
 3064TIP3   OH233386   8.339   8.849  17.465
 3064TIP3    H133387   8.281   8.803  17.405
 3064TIP3    H233388   8.382   8.779  17.514
 3065TIP3   OH233389   8.726   7.525  18.637
 3065TIP3    H133390   8.674   7.590  18.590
 3065TIP3    H233391   8.699   7.441  18.599
 3066TIP3   OH233392   7.200   8.185  18.432
 3066TIP3    H133393   7.200   8.138  18.515
 3066TIP3    H233394   7.118   8.160  18.390
 3067TIP3   OH233395   7.450   6.871  18.081
 3067TIP3    H133396   7.377   6.861  18.019
 3067TIP3    H233397   7.438   6.959  18.118
 3068TIP3   OH233398   7.934   6.767  18.338
 3068TIP3    H133399   7.985   6.762  18.419
 3068TIP3    H233400   7.854   6.813  18.363
 3069TIP3   OH233401   8.341   7.331  18.526
 3069TIP3    H133402   8.313   7.316  18.616
 3069TIP3    H233403   8.278   7.394  18.491
 3070TIP3   OH233404   8.423   8.070  17.063
 3070TIP3    H133405   8.483   8.085  16.989
 3070TIP3    H233406   8.449   8.136  17.128
 3071TIP3   OH233407   7.371   7.552  18.141
 3071TIP3    H133408   7.321   7.575  18.220
 3071TIP3    H233409   7.390   7.636  18.100
 3072TIP3   OH233410   7.376   7.544  17.634
 3072TIP3    H133411   7.288   7.508  17.628
 3072TIP3    H233412   7.407   7.548  17.543
 3073TIP3   OH233413   8.175   7.734  17.322
 3073TIP3    H133414   8.109   7.797  17.352
 3073TIP3    H233415   8.257   7.784  17.318
 3074TIP3   OH233416   7.953   7.558  18.644
 3074TIP3    H133417   7.909   7.484  18.686
 3074TIP3    H233418   8.030   7.574  18.698
 3075TIP3   OH233419   8.407   7.540  17.839
 3075TIP3    H133420   8.340   7.586  17.789
 3075TIP3    H233421   8.434   7.469  17.782
 3076TIP3   OH233422   7.253   7.647  18.381
 3076TIP3    H133423   7.211   7.705  18.445
 3076TIP3    H233424   7.297   7.581  18.434
 3077TIP3   OH233425   6.849   7.112  17.820
 3077TIP3    H133426   6.937   7.100  17.857
 3077TIP3    H233427   6.847   7.203  17.792
 3078TIP3   OH233428   6.869   7.306  17.194
 3078TIP3    H133429   6.853   7.273  17.106
 3078TIP3    H233430   6.964   7.316  17.200
 3079TIP3   OH233431   8.357   7.633  18.327
 3079TIP3    H133432   8.362   7.583  18.245
 3079TIP3    H233433   8.282   7.596  18.373
 3080TIP3   OH233434   7.711   7.268  17.716
 3080TIP3    H133435   7.617   7.274  17.732
 3080TIP3    H233436   7.745   7.218  17.790
 3081TIP3   OH233437   7.143   7.398  17.622
 3081TIP3    H133438   7.063   7.410  17.571
 3081TIP3    H233439   7.176   7.312  17.596
 3082TIP3   OH233440   7.473   7.534  17.373
 3082TIP3    H133441   7.552   7.488  17.400
 3082TIP3    H233442   7.450   7.497  17.288
 3083TIP3   OH233443   8.408   7.198  18.116
 3083TIP3    H133444   8.373   7.167  18.199
 3083TIP3    H233445   8.340   7.175  18.052
 3084TIP3   OH233446   7.448   7.409  17.117
 3084TIP3    H133447   7.400   7.339  17.072
 3084TIP3    H233448   7.466   7.473  17.048
 3085TIP3   OH233449   8.630   8.972  18.668
 3085TIP3    H133450   8.662   8.988  18.579
 3085TIP3    H233451   8.698   9.006  18.725
 3086TIP3   OH233452   7.174   8.074  18.685
 3086TIP3    H133453   7.245   8.098  18.745
 3086TIP3    H233454   7.095   8.105  18.729
 3087TIP3   OH233455   8.072   7.481  18.169
 3087TIP3    H133456   8.164   7.484  18.143
 3087TIP3    H233457   8.037   7.404  18.125
 3088TIP3   OH233458   7.274   7.157  17.562
 3088TIP3    H133459   7.245   7.071  17.593
 3088TIP3    H233460   7.294   7.144  17.469
 3089TIP3   OH233461   7.580   7.433  18.287
 3089TIP3    H133462   7.511   7.463  18.228
 3089TIP3    H233463   7.645   7.503  18.285
 3090TIP3   OH233464   7.777   8.077  17.388
 3090TIP3    H133465   7.715   8.033  17.330
 3090TIP3    H233466   7.723   8.113  17.459
 3091TIP3   OH233467   8.814   8.110  18.197
 3091TIP3    H133468   8.899   8.127  18.156
 3091TIP3    H233469   8.764   8.063  18.130
 3092TIP3   OH233470   8.023   8.390  18.479
 3092TIP3    H133471   8.006   8.368  18.571
 3092TIP3    H233472   7.965   8.464  18.461
 3093TIP3   OH233473   7.303   8.105  17.853
 3093TIP3    H133474   7.335   8.066  17.771
 3093TIP3    H233475   7.305   8.034  17.916
 3094TIP3   OH233476   7.988   8.213  17.274
 3094TIP3    H133477   7.953   8.261  17.199
 3094TIP3    H233478   7.911   8.178  17.319
 3095TIP3   OH233479   6.885   7.852  18.442
 3095TIP3    H133480   6.840   7.813  18.517
 3095TIP3    H233481   6.828   7.832  18.367
 3096TIP3   OH233482   7.738   7.732  18.703
 3096TIP3    H133483   7.678   7.728  18.629
 3096TIP3    H233484   7.813   7.678  18.676
 3097TIP3   OH233485   8.309   8.368  18.531
 3097TIP3    H133486   8.221   8.373  18.492
 3097TIP3    H233487   8.296   8.398  18.621
 3098TIP3   OH233488   8.806   7.537  17.254
 3098TIP3    H133489   8.777   7.492  17.174
 3098TIP3    H233490   8.789   7.630  17.236
 3099TIP3   OH233491   9.000   8.159  18.562
 3099TIP3    H133492   8.926   8.207  18.526
 3099TIP3    H233493   9.062   8.153  18.490
 3100TIP3   OH233494   8.506   8.521  17.306
 3100TIP3    H133495   8.545   8.517  17.394
 3100TIP3    H233496   8.487   8.430  17.285
 3101TIP3   OH233497   8.671   7.941  18.026
 3101TIP3    H133498   8.593   7.917  18.076
 3101TIP3    H233499   8.677   7.874  17.958
 3102TIP3   OH233500   7.535   8.399  17.712
 3102TIP3    H133501   7.558   8.490  17.690
 3102TIP3    H233502   7.445   8.405  17.745
 3103TIP3   OH233503   7.219   7.847  17.203
 3103TIP3    H133504   7.237   7.921  17.144
 3103TIP3    H233505   7.193   7.776  17.144
 3104TIP3   OH233506   7.603   8.164  17.579
 3104TIP3    H133507   7.583   8.248  17.622
 3104TIP3    H233508   7.532   8.106  17.606
 3105TIP3   OH233509   7.661   8.693  18.271
 3105TIP3    H133510   7.672   8.786  18.293
 3105TIP3    H233511   7.725   8.648  18.326
 3106TIP3   OH233512   7.553   8.673  17.682
 3106TIP3    H133513   7.477   8.721  17.651
 3106TIP3    H233514   7.597   8.734  17.741
 3107TIP3   OH233515   7.979   8.216  18.264
 3107TIP3    H133516   7.983   8.281  18.334
 3107TIP3    H233517   8.058   8.163  18.276
 3108TIP3   OH233518   8.459   8.251  17.266
 3108TIP3    H133519   8.530   8.223  17.324
 3108TIP3    H233520   8.380   8.245  17.319
 3109TIP3   OH233521   8.529   8.687  18.406
 3109TIP3    H133522   8.462   8.644  18.352
 3109TIP3    H233523   8.543   8.771  18.363
 3110TIP3   OH233524   8.843   8.945  17.193
 3110TIP3    H133525   8.868   8.965  17.103
 3110TIP3    H233526   8.826   9.031  17.232
 3111TIP3   OH233527   7.182   7.069  18.415
 3111TIP3    H133528   7.098   7.104  18.445
 3111TIP3    H233529   7.212   7.014  18.486
 3112TIP3   OH233530   8.648   8.164  17.448
 3112TIP3    H133531   8.608   8.078  17.458
 3112TIP3    H233532   8.742   8.147  17.441
 3113TIP3   OH233533   7.122   8.742  18.249
 3113TIP3    H133534   7.207   8.710  18.278
 3113TIP3    H233535   7.100   8.812  18.310
 3114TIP3   OH233536   8.293   7.122  18.352
 3114TIP3    H133537   8.319   7.192  18.412
 3114TIP3    H233538   8.229   7.071  18.401
 3115TIP3   OH233539   8.228   7.249  17.585
 3115TIP3    H133540   8.254   7.200  17.507
 3115TIP3    H233541   8.309   7.291  17.614
 3116TIP3   OH233542   7.696   7.385  17.461
 3116TIP3    H133543   7.785   7.417  17.447
 3116TIP3    H233544   7.699   7.341  17.546
 3117TIP3   OH233545   8.139   7.504  18.441
 3117TIP3    H133546   8.067   7.523  18.501
 3117TIP3    H233547   8.096   7.488  18.357
 3118TIP3   OH233548   8.019   7.211  17.758
 3118TIP3    H133549   7.943   7.243  17.710
 3118TIP3    H233550   8.092   7.223  17.698
 3119TIP3   OH233551   7.327   7.098  17.296
 3119TIP3    H133552   7.298   7.077  17.207
 3119TIP3    H233553   7.417   7.129  17.285
 3120TIP3   OH233554   8.622   7.292  18.524
 3120TIP3    H133555   8.528   7.309  18.529
 3120TIP3    H233556   8.634   7.253  18.437
 3121TIP3   OH233557   8.638   7.698  17.866
 3121TIP3    H133558   8.559   7.644  17.874
 3121TIP3    H233559   8.702   7.655  17.923
 3122TIP3   OH233560   6.847   7.201  16.943
 3122TIP3    H133561   6.801   7.217  16.861
 3122TIP3    H233562   6.937   7.180  16.917
 3123TIP3   OH233563   8.721   8.840  18.038
 3123TIP3    H133564   8.707   8.900  17.965
 3123TIP3    H233565   8.813   8.850  18.060
 3124TIP3   OH233566   7.219   6.850  17.930
 3124TIP3    H133567   7.221   6.837  17.835
 3124TIP3    H233568   7.182   6.769  17.965
 3125TIP3   OH233569   7.091   8.799  17.536
 3125TIP3    H133570   7.008   8.821  17.578
 3125TIP3    H233571   7.069   8.788  17.444
 3126TIP3   OH233572   6.960   8.999  18.699
 3126TIP3    H133573   7.003   8.980  18.783
 3126TIP3    H233574   6.953   8.914  18.656
 3127TIP3   OH233575   7.440   8.747  18.782
 3127TIP3    H133576   7.500   8.701  18.840
 3127TIP3    H233577   7.430   8.688  18.707
 3128TIP3   OH233578   8.235   8.463  18.787
 3128TIP3    H133579   8.226   8.398  18.856
 3128TIP3    H233580   8.308   8.518  18.815
 3129TIP3   OH233581   6.923   8.169  18.774
 3129TIP3    H133582   6.860   8.123  18.830
 3129TIP3    H233583   6.878   8.180  18.691
 3130TIP3   OH233584   7.621   8.219  18.697
 3130TIP3    H133585   7.612   8.275  18.620
 3130TIP3    H233586   7.668   8.142  18.665
 3131TIP3   OH233587   8.529   8.185  18.518
 3131TIP3    H133588   8.607   8.234  18.492
 3131TIP3    H233589   8.459   8.250  18.519
 3132TIP3   OH233590   6.987   7.695  18.770
 3132TIP3    H133591   7.055   7.726  18.710
 3132TIP3    H233592   6.999   7.748  18.849
 3133TIP3   OH233593   7.586   7.951  17.239
 3133TIP3    H133594   7.527   7.909  17.301
 3133TIP3    H233595   7.564   7.911  17.155
 3134TIP3   OH233596   7.553   7.732  18.495
 3134TIP3    H133597   7.483   7.797  18.494
 3134TIP3    H233598   7.593   7.737  18.409
 3135TIP3   OH233599   7.487   7.847  17.003
 3135TIP3    H133600   7.408   7.901  17.010
 3135TIP3    H233601   7.514   7.856  16.911
 3136TIP3   OH233602   8.251   8.034  18.935
 3136TIP3    H133603   8.340   8.012  18.909
 3136TIP3    H233604   8.204   7.951  18.933
 3137TIP3   OH233605   7.436   7.485  18.526
 3137TIP3    H133606   7.484   7.435  18.459
 3137TIP3    H233607   7.484   7.567  18.533
 3138TIP3   OH233608   7.609   7.142  18.307
 3138TIP3    H133609   7.618   7.237  18.311
 3138TIP3    H233610   7.521   7.129  18.271
 3139TIP3   OH233611   7.661   7.757  18.247
 3139TIP3    H133612   7.755   7.747  18.232
 3139TIP3    H233613   7.641   7.844  18.213
 3140TIP3   OH233614   8.205   7.566  18.766
 3140TIP3    H133615   8.222   7.473  18.783
 3140TIP3    H233616   8.273   7.591  18.704
 3141TIP3   OH233617   8.581   7.931  18.603
 3141TIP3    H133618   8.556   8.017  18.571
 3141TIP3    H233619   8.676   7.936  18.615
 3142TIP3   OH233620   7.412   7.381  18.785
 3142TIP3    H133621   7.329   7.333  18.786
 3142TIP3    H233622   7.420   7.414  18.696
 3143TIP3   OH233623   7.680   6.884  18.395
 3143TIP3    H133624   7.671   6.977  18.371
 3143TIP3    H233625   7.595   6.846  18.374
 3144TIP3   OH233626   7.851   7.347  18.783
 3144TIP3    H133627   7.918   7.285  18.811
 3144TIP3    H233628   7.768   7.307  18.809
 3145TIP3   OH233629   8.259   7.294  18.784
 3145TIP3    H133630   8.179   7.247  18.808
 3145TIP3    H233631   8.329   7.247  18.827
 3146TIP3   OH233632   8.445   7.140  18.933
 3146TIP3    H133633   8.413   7.050  18.941
 3146TIP3    H233634   8.402   7.187  19.004
 3147TIP3   OH233635   7.136   7.128  18.748
 3147TIP3    H133636   7.176   7.049  18.712
 3147TIP3    H233637   7.143   7.118  18.843
 3148TIP3   OH233638   7.698   6.803  18.662
 3148TIP3    H133639   7.759   6.730  18.661
 3148TIP3    H233640   7.697   6.836  18.572
 3149TIP3   OH233641   7.817   7.006  18.821
 3149TIP3    H133642   7.775   6.933  18.774
 3149TIP3    H233643   7.745   7.066  18.840
 3150TIP3   OH233644   6.869   8.907  17.664
 3150TIP3    H133645   6.782   8.906  17.624
 3150TIP3    H233646   6.856   8.873  17.752
 3151TIP3   OH233647   6.879   8.810  17.928
 3151TIP3    H133648   6.883   8.720  17.960
 3151TIP3    H233649   6.967   8.845  17.943
 3152TIP3   OH233650   8.977   8.865  18.155
 3152TIP3    H133651   8.962   8.811  18.232
 3152TIP3    H233652   9.027   8.940  18.187
 3153TIP3   OH233653   8.884   8.742  18.403
 3153TIP3    H133654   8.844   8.668  18.357
 3153TIP3    H233655   8.905   8.708  18.490
 3154TIP3   OH233656   8.745   8.331  18.887
 3154TIP3    H133657   8.658   8.333  18.928
 3154TIP3    H233658   8.783   8.416  18.908
 3155TIP3   OH233659   8.906   8.059  17.446
 3155TIP3    H133660   8.984   8.090  17.493
 3155TIP3    H233661   8.907   7.964  17.459
 3156TIP3   OH233662   8.922   7.787  17.525
 3156TIP3    H133663   8.831   7.760  17.537
 3156TIP3    H233664   8.962   7.775  17.611
 3157TIP3   OH233665   9.074   8.119  18.108
 3157TIP3    H133666   9.105   8.037  18.068
 3157TIP3    H233667   9.127   8.187  18.066
 3158TIP3   OH233668   8.735   8.528  18.305
 3158TIP3    H133669   8.661   8.570  18.350
 3158TIP3    H233670   8.710   8.529  18.213
 3159TIP3   OH233671   8.705   7.456  17.010
 3159TIP3    H133672   8.618   7.481  16.977
 3159TIP3    H233673   8.727   7.378  16.958
 3160TIP3   OH233674   8.668   7.693  17.589
 3160TIP3    H133675   8.668   7.600  17.567
 3160TIP3    H233676   8.658   7.695  17.684
 3161TIP3   OH233677   6.915   7.840  18.030
 3161TIP3    H133678   6.945   7.822  17.940
 3161TIP3    H233679   6.993   7.825  18.084
 3162TIP3   OH233680   8.858   7.935  18.646
 3162TIP3    H133681   8.909   7.855  18.636
 3162TIP3    H233682   8.916   8.004  18.613
 3163TIP3   OH233683   8.980   7.650  18.605
 3163TIP3    H133684   8.889   7.624  18.622
 3163TIP3    H233685   9.028   7.567  18.602
 3164TIP3   OH233686   8.746   7.236  16.849
 3164TIP3    H133687   8.759   7.161  16.907
 3164TIP3    H233688   8.687   7.204  16.781
 3165TIP3   OH233689   8.693   7.424  17.484
 3165TIP3    H133690   8.722   7.333  17.480
 3165TIP3    H233691   8.728   7.463  17.405
 3166TIP3   OH233692   8.817   7.588  18.039
 3166TIP3    H133693   8.912   7.579  18.037
 3166TIP3    H233694   8.796   7.597  18.132
 3167TIP3   OH233695   8.799   7.634  18.313
 3167TIP3    H133696   8.722   7.649  18.367
 3167TIP3    H233697   8.845   7.718  18.311
 3168TIP3   OH233698   6.931   7.115  18.564
 3168TIP3    H133699   6.996   7.133  18.632
 3168TIP3    H233700   6.847   7.132  18.607
 3169TIP3   OH233701   8.887   6.915  18.705
 3169TIP3    H133702   8.860   6.863  18.630
 3169TIP3    H233703   8.865   7.005  18.681
 3170TIP3   OH233704   8.764   7.153  17.453
 3170TIP3    H133705   8.761   7.090  17.524
 3170TIP3    H233706   8.734   7.104  17.376
 3171TIP3   OH233707   7.106   7.111  17.920
 3171TIP3    H133708   7.147   7.025  17.933
 3171TIP3    H233709   7.171   7.173  17.954
 3172TIP3   OH233710   6.806   7.582  17.964
 3172TIP3    H133711   6.881   7.531  17.933
 3172TIP3    H233712   6.843   7.664  17.995
 3173TIP3   OH233713   8.833   7.190  18.672
 3173TIP3    H133714   8.792   7.200  18.758
 3173TIP3    H233715   8.767   7.221  18.611
 3174TIP3   OH233716   6.766   7.048  17.279
 3174TIP3    H133717   6.700   7.063  17.211
 3174TIP3    H233718   6.817   7.129  17.281
 3175TIP3   OH233719   8.672   8.831  17.638
 3175TIP3    H133720   8.748   8.850  17.583
 3175TIP3    H233721   8.681   8.892  17.712
 3176TIP3   OH233722   6.852   6.901  18.409
 3176TIP3    H133723   6.884   6.970  18.468
 3176TIP3    H233724   6.790   6.946  18.351
 3177TIP3   OH233725   7.176   8.426  18.570
 3177TIP3    H133726   7.185   8.348  18.516
 3177TIP3    H233727   7.094   8.413  18.618
 3178TIP3   OH233728   7.387   8.709  18.327
 3178TIP3    H133729   7.383   8.805  18.323
 3178TIP3    H233730   7.474   8.688  18.294
 3179TIP3   OH233731   7.920   8.822  18.613
 3179TIP3    H133732   7.946   8.754  18.675
 3179TIP3    H233733   8.000   8.872  18.597
 3180TIP3   OH233734   8.164   8.960  18.574
 3180TIP3    H133735   8.220   8.910  18.514
 3180TIP3    H233736   8.224   8.990  18.642
 3181TIP3   OH233737   8.798   6.751  18.492
 3181TIP3    H133738   8.777   6.780  18.403
 3181TIP3    H233739   8.822   6.659  18.483
 3182TIP3   OH233740   7.089   8.979  18.400
 3182TIP3    H133741   7.017   9.021  18.353
 3182TIP3    H233742   7.083   9.014  18.489
 3183TIP3   OH233743   7.355   8.982  18.314
 3183TIP3    H133744   7.267   8.987  18.352
 3183TIP3    H233745   7.354   9.044  18.241
 3184TIP3   OH233746   8.089   9.033  18.190
 3184TIP3    H133747   8.011   9.049  18.137
 3184TIP3    H233748   8.071   9.078  18.273
 3185TIP3   OH233749   8.308   8.881  18.111
 3185TIP3    H133750   8.234   8.937  18.135
 3185TIP3    H233751   8.300   8.871  18.016
 3186TIP3   OH233752   8.555   8.909  18.245
 3186TIP3    H133753   8.468   8.919  18.206
 3186TIP3    H233754   8.613   8.889  18.171
 3187TIP3   OH233755   7.141   8.861  18.000
 3187TIP3    H133756   7.133   8.831  18.090
 3187TIP3    H233757   7.198   8.797  17.958
 3188TIP3   OH233758   7.301   8.659  17.900
 3188TIP3    H133759   7.288   8.565  17.886
 3188TIP3    H233760   7.384   8.665  17.947
 3189TIP3   OH233761   7.533   8.619  18.038
 3189TIP3    H133762   7.561   8.529  18.026
 3189TIP3    H233763   7.586   8.652  18.111
 3190TIP3   OH233764   8.178   7.134  17.973
 3190TIP3    H133765   8.128   7.059  18.006
 3190TIP3    H233766   8.128   7.165  17.898
 3191TIP3   OH233767   8.633   6.774  17.790
 3191TIP3    H133768   8.693   6.844  17.765
 3191TIP3    H233769   8.628   6.718  17.712
 3192TIP3   OH233770   8.805   6.979  17.678
 3192TIP3    H133771   8.837   6.896  17.644
 3192TIP3    H233772   8.884   7.026  17.704
 3193TIP3   OH233773   7.223   6.770  17.668
 3193TIP3    H133774   7.143   6.724  17.645
 3193TIP3    H233775   7.292   6.704  17.662
 3194TIP3   OH233776   6.793   6.780  17.249
 3194TIP3    H133777   6.877   6.779  17.201
 3194TIP3    H233778   6.781   6.871  17.274
 3195TIP3   OH233779   7.739   6.640  17.753
 3195TIP3    H133780   7.744   6.728  17.714
 3195TIP3    H233781   7.720   6.656  17.846
 3196TIP3   OH233782   7.012   8.809  17.272
 3196TIP3    H133783   6.924   8.836  17.246
 3196TIP3    H233784   7.069   8.851  17.209
 3197TIP3   OH233785   7.575   7.215  17.271
 3197TIP3    H133786   7.544   7.279  17.207
 3197TIP3    H233787   7.623   7.267  17.335
 3198TIP3   OH233788   8.881   8.930  17.476
 3198TIP3    H133789   8.886   8.892  17.388
 3198TIP3    H233790   8.855   9.021  17.462
 3199TIP3   OH233791   7.205   6.879  18.634
 3199TIP3    H133792   7.135   6.832  18.681
 3199TIP3    H233793   7.286   6.846  18.673
 3200TIP3   OH233794   7.437   6.788  18.761
 3200TIP3    H133795   7.525   6.791  18.724
 3200TIP3    H233796   7.443   6.838  18.842
 3201TIP3   OH233797   8.332   6.682  18.732
 3201TIP3    H133798   8.327   6.648  18.822
 3201TIP3    H233799   8.426   6.681  18.712
 3202TIP3   OH233800   8.604   8.691  18.671
 3202TIP3    H133801   8.567   8.681  18.584
 3202TIP3    H233802   8.609   8.786  18.684
 3203TIP3   OH233803   9.058   7.574  17.391
 3203TIP3    H133804   9.025   7.656  17.428
 3203TIP3    H233805   8.984   7.536  17.344
 3204TIP3   OH233806   9.181   8.104  18.366
 3204TIP3    H133807   9.148   8.111  18.276
 3204TIP3    H233808   9.181   8.010  18.384
 3205TIP3   OH233809   0.003   8.331  18.006
 3205TIP3    H133810   0.088   8.368  18.031
 3205TIP3    H233811   9.174   8.404  17.964
 3206TIP3   OH233812   9.046   7.110  17.703
 3206TIP3    H133813   9.103   7.184  17.724
 3206TIP3    H233814   9.055   7.099  17.608
 3207TIP3   OH233815   9.141   7.836  18.458
 3207TIP3    H133816   9.111   7.772  18.523
 3207TIP3    H233817   9.070   7.840  18.394
 3208TIP3   OH233818   0.011   8.130  18.739
 3208TIP3    H133819   9.174   8.124  18.818
 3208TIP3    H233820   9.164   8.143  18.668
 3209TIP3   OH233821   9.132   8.900  17.620
 3209TIP3    H133822   9.046   8.908  17.579
 3209TIP3    H233823   9.113   8.879  17.712
 3210TIP3   OH233824   9.092   8.831  17.890
 3210TIP3    H133825   9.051   8.840  17.976
 3210TIP3    H233826   9.176   8.789  17.907
 3211TIP3   OH233827   9.130   7.843  18.077
 3211TIP3    H133828   9.108   7.750  18.071
 3211TIP3    H233829   0.009   7.846  18.069
 3212TIP3   OH233830   9.049   7.369  18.580
 3212TIP3    H133831   9.131   7.323  18.596
 3212TIP3    H233832   8.981   7.312  18.617
 3213TIP3   OH233833   9.091   7.565  18.100
 3213TIP3    H133834   9.185   7.548  18.091
 3213TIP3    H233835   9.065   7.515  18.177
 3214TIP3   OH233836   9.039   7.099  17.427
 3214TIP3    H133837   8.953   7.141  17.430
 3214TIP3    H233838   9.032   7.036  17.356
 3215TIP3   OH233839   9.062   6.997  18.341
 3215TIP3    H133840   8.998   6.976  18.410
 3215TIP3    H233841   9.016   7.060  18.285
 3216TIP3   OH233842   0.931   9.067  18.013
 3216TIP3    H133843   0.936   9.021  17.929
 3216TIP3    H233844   0.838   9.087  18.024
 3217TIP3   OH233845   2.080   8.882  17.253
 3217TIP3    H133846   2.116   8.852  17.170
 3217TIP3    H233847   2.016   8.948  17.229
 3218TIP3   OH233848   0.666   9.121  18.077
 3218TIP3    H133849   0.587   9.103  18.027
 3218TIP3    H233850   0.668   9.216  18.087
 3219TIP3   OH233851   1.238   9.069  18.421
 3219TIP3    H133852   1.292   9.021  18.485
 3219TIP3    H233853   1.152   9.075  18.462
 3220TIP3   OH233854   0.422   9.071  17.959
 3220TIP3    H133855   0.400   9.072  17.866
 3220TIP3    H233856   0.396   8.984  17.989
 3221TIP3   OH233857   0.886   8.974  18.281
 3221TIP3    H133858   0.905   9.012  18.195
 3221TIP3    H233859   0.790   8.971  18.285
 3222TIP3   OH233860   0.981   9.053  18.529
 3222TIP3    H133861   1.006   8.969  18.568
 3222TIP3    H233862   0.941   9.029  18.446
 3223TIP3   OH233863   2.083   9.123  18.829
 3223TIP3    H133864   2.157   9.063  18.832
 3223TIP3    H233865   2.123   9.210  18.831
 3224TIP3   OH233866   0.135   9.053  18.395
 3224TIP3    H133867   0.046   9.040  18.364
 3224TIP3    H233868   0.149   9.148  18.391
 3225TIP3   OH233869   1.918   9.071  18.464
 3225TIP3    H133870   1.850   9.028  18.413
 3225TIP3    H233871   1.999   9.025  18.439
 3226TIP3   OH233872   1.821   9.061  17.867
 3226TIP3    H133873   1.840   9.154  17.857
 3226TIP3    H233874   1.726   9.054  17.859
 3227TIP3   OH233875   0.376   9.064  17.686
 3227TIP3    H133876   0.298   9.035  17.639
 3227TIP3    H233877   0.437   8.990  17.679
 3228TIP3   OH233878   0.308   9.056  17.316
 3228TIP3    H133879   0.314   9.151  17.306
 3228TIP3    H233880   0.262   9.043  17.399
 3229TIP3   OH233881   0.957   8.986  17.744
 3229TIP3    H133882   1.033   8.941  17.708
 3229TIP3    H233883   0.970   9.078  17.719
 3230TIP3   OH233884   1.548   9.077  17.844
 3230TIP3    H133885   1.541   9.164  17.804
 3230TIP3    H233886   1.457   9.052  17.862
 3231TIP3   OH233887   1.685   9.129  17.287
 3231TIP3    H133888   1.607   9.086  17.251
 3231TIP3    H233889   1.757   9.094  17.235
 3232TIP3   OH233890   0.537   9.048  18.727
 3232TIP3    H133891   0.564   8.969  18.680
 3232TIP3    H233892   0.481   9.015  18.797
 3233TIP3   OH233893   1.577   8.998  18.773
 3233TIP3    H133894   1.561   8.944  18.851
 3233TIP3    H233895   1.671   8.995  18.761
 3234TIP3   OH233896   3.169   9.097  18.064
 3234TIP3    H133897   3.178   9.040  17.988
 3234TIP3    H233898   3.080   9.130  18.059
 3235TIP3   OH233899   4.234   9.126  17.362
 3235TIP3    H133900   4.139   9.123  17.359
 3235TIP3    H233901   4.257   9.208  17.318
 3236TIP3   OH233902   2.913   9.199  18.041
 3236TIP3    H133903   2.838   9.182  17.983
 3236TIP3    H233904   2.925   0.077  18.037
 3237TIP3   OH233905   3.525   9.082  18.451
 3237TIP3    H133906   3.605   9.055  18.494
 3237TIP3    H233907   3.455   9.040  18.501
 3238TIP3   OH233908   2.696   9.112  17.890
 3238TIP3    H133909   2.664   9.102  17.801
 3238TIP3    H233910   2.673   9.030  17.934
 3239TIP3   OH233911   3.118   8.980  18.312
 3239TIP3    H133912   3.154   9.019  18.232
 3239TIP3    H233913   3.024   8.995  18.306
 3240TIP3   OH233914   3.214   8.973  18.574
 3240TIP3    H133915   3.200   8.883  18.603
 3240TIP3    H233916   3.182   8.973  18.483
 3241TIP3   OH233917   4.451   9.032  18.804
 3241TIP3    H133918   4.533   8.997  18.769
 3241TIP3    H233919   4.463   9.127  18.801
 3242TIP3   OH233920   2.319   9.064  18.263
 3242TIP3    H133921   2.254   9.019  18.318
 3242TIP3    H233922   2.291   9.155  18.263
 3243TIP3   OH233923   4.212   9.098  18.480
 3243TIP3    H133924   4.140   9.087  18.418
 3243TIP3    H233925   4.280   9.038  18.449
 3244TIP3   OH233926   4.082   9.127  17.874
 3244TIP3    H133927   4.098   0.002  17.898
 3244TIP3    H233928   3.993   9.126  17.839
 3245TIP3   OH233929   2.587   9.026  17.642
 3245TIP3    H133930   2.500   8.987  17.629
 3245TIP3    H233931   2.646   8.951  17.642
 3246TIP3   OH233932   3.087   9.006  17.799
 3246TIP3    H133933   3.139   9.074  17.757
 3246TIP3    H233934   2.999   9.043  17.806
 3247TIP3   OH233935   3.821   9.106  17.769
 3247TIP3    H133936   3.838   9.065  17.684
 3247TIP3    H233937   3.788   9.035  17.824
 3248TIP3   OH233938   3.954   9.132  17.361
 3248TIP3    H133939   3.889   9.105  17.296
 3248TIP3    H233940   3.936   9.077  17.437
 3249TIP3   OH233941   2.686   9.100  18.802
 3249TIP3    H133942   2.762   9.046  18.781
 3249TIP3    H233943   2.639   9.050  18.869
 3250TIP3   OH233944   3.910   9.057  18.810
 3250TIP3    H133945   3.882   8.983  18.864
 3250TIP3    H233946   4.003   9.041  18.794
 3251TIP3   OH233947   5.448   9.102  18.063
 3251TIP3    H133948   5.468   9.051  17.985
 3251TIP3    H233949   5.356   9.128  18.051
 3252TIP3   OH233950   6.565   9.054  17.305
 3252TIP3    H133951   6.470   9.046  17.317
 3252TIP3    H233952   6.578   9.144  17.278
 3253TIP3   OH233953   5.193   9.196  18.000
 3253TIP3    H133954   5.108   9.175  17.963
 3253TIP3    H233955   5.194   0.074  18.008
 3254TIP3   OH233956   5.724   9.100  18.478
 3254TIP3    H133957   5.793   9.068  18.536
 3254TIP3    H233958   5.643   9.073  18.521
 3255TIP3   OH233959   4.950   9.116  17.908
 3255TIP3    H133960   4.925   9.097  17.818
 3255TIP3    H233961   4.928   9.036  17.956
 3256TIP3   OH233962   5.386   8.987  18.311
 3256TIP3    H133963   5.424   9.022  18.230
 3256TIP3    H233964   5.292   8.997  18.300
 3257TIP3   OH233965   5.466   9.031  18.571
 3257TIP3    H133966   5.434   8.954  18.617
 3257TIP3    H233967   5.438   9.019  18.480
 3258TIP3   OH233968   6.699   9.057  18.805
 3258TIP3    H133969   6.780   9.038  18.756
 3258TIP3    H233970   6.705   9.150  18.825
 3259TIP3   OH233971   4.598   9.068  18.283
 3259TIP3    H133972   4.532   9.026  18.338
 3259TIP3    H233973   4.587   9.162  18.299
 3260TIP3   OH233974   6.473   9.100  18.473
 3260TIP3    H133975   6.400   9.066  18.421
 3260TIP3    H233976   6.549   9.048  18.446
 3261TIP3   OH233977   6.338   9.158  17.862
 3261TIP3    H133978   6.369   0.032  17.871
 3261TIP3    H233979   6.244   9.166  17.850
 3262TIP3   OH233980   4.870   9.030  17.662
 3262TIP3    H133981   4.779   9.001  17.650
 3262TIP3    H233982   4.921   8.949  17.665
 3263TIP3   OH233983   4.653   8.961  17.379
 3263TIP3    H133984   4.569   8.931  17.343
 3263TIP3    H233985   4.640   8.960  17.473
 3264TIP3   OH233986   5.346   9.063  17.789
 3264TIP3    H133987   5.396   9.130  17.742
 3264TIP3    H233988   5.282   9.113  17.841
 3265TIP3   OH233989   6.064   9.169  17.787
 3265TIP3    H133990   6.081   9.166  17.692
 3265TIP3    H233991   6.034   9.080  17.808
 3266TIP3   OH233992   6.291   9.064  17.382
 3266TIP3    H133993   6.201   9.036  17.367
 3266TIP3    H233994   6.311   9.035  17.471
 3267TIP3   OH233995   4.991   9.039  18.813
 3267TIP3    H133996   5.061   8.974  18.815
 3267TIP3    H233997   4.935   9.016  18.887
 3268TIP3   OH233998   6.165   9.047  18.808
 3268TIP3    H133999   6.147   8.972  18.865
 3268TIP3    H234000   6.255   9.034  18.780
 3269TIP3   OH234001   7.605   9.039  18.058
 3269TIP3    H134002   7.604   8.990  17.976
 3269TIP3    H234003   7.514   9.067  18.070
 3270TIP3   OH234004   8.764   9.161  17.352
 3270TIP3    H134005   8.671   9.143  17.366
 3270TIP3    H234006   8.771   0.040  17.359
 3271TIP3   OH234007   7.361   9.155  18.102
 3271TIP3    H134008   7.290   9.144  18.038
 3271TIP3    H234009   7.376   0.033  18.105
 3272TIP3   OH234010   8.007   9.146  18.438
 3272TIP3    H134011   8.067   9.093  18.490
 3272TIP3    H234012   7.920   9.125  18.473
 3273TIP3   OH234013   7.155   9.122  17.922
 3273TIP3    H134014   7.136   9.114  17.828
 3273TIP3    H234015   7.144   9.034  17.956
 3274TIP3   OH234016   7.633   8.967  18.323
 3274TIP3    H134017   7.644   8.995  18.232
 3274TIP3    H234018   7.539   8.975  18.339
 3275TIP3   OH234019   7.770   9.053  18.549
 3275TIP3    H134020   7.805   8.972  18.586
 3275TIP3    H234021   7.718   9.025  18.474
 3276TIP3   OH234022   8.864   9.071  18.785
 3276TIP3    H134023   8.938   9.041  18.733
 3276TIP3    H234024   8.880   9.164  18.798
 3277TIP3   OH234025   6.860   9.094  18.296
 3277TIP3    H134026   6.790   9.048  18.342
 3277TIP3    H234027   6.838   9.186  18.304
 3278TIP3   OH234028   8.759   8.994  18.414
 3278TIP3    H134029   8.686   8.980  18.354
 3278TIP3    H234030   8.808   8.912  18.413
 3279TIP3   OH234031   8.655   9.024  17.841
 3279TIP3    H134032   8.685   9.114  17.852
 3279TIP3    H234033   8.567   9.033  17.803
 3280TIP3   OH234034   7.094   9.078  17.654
 3280TIP3    H134035   7.011   9.031  17.653
 3280TIP3    H234036   7.159   9.013  17.626
 3281TIP3   OH234037   7.556   8.941  17.800
 3281TIP3    H134038   7.595   9.018  17.759
 3281TIP3    H234039   7.473   8.928  17.754
 3282TIP3   OH234040   8.398   9.011  17.718
 3282TIP3    H134041   8.385   8.982  17.627
 3282TIP3    H234042   8.358   8.942  17.771
 3283TIP3   OH234043   8.394   0.055  17.447
 3283TIP3    H134044   8.425   9.192  17.404
 3283TIP3    H234045   8.302   0.062  17.420
 3284TIP3   OH234046   7.298   8.986  18.792
 3284TIP3    H134047   7.353   8.907  18.786
 3284TIP3    H234048   7.228   8.961  18.852
 3285TIP3   OH234049   8.366   9.023  18.755
 3285TIP3    H134050   8.352   8.960  18.826
 3285TIP3    H234051   8.456   9.009  18.727
 3286TIP3   OH234052   9.075   9.081  18.312
 3286TIP3    H134053   8.989   9.077  18.354
 3286TIP3    H234054   9.088   9.174  18.292
 3287TIP3   OH234055   1.572   1.160  19.396
 3287TIP3    H134056   1.579   1.254  19.415
 3287TIP3    H234057   1.579   1.118  19.482
 3288TIP3   OH234058   1.204   1.189  19.790
 3288TIP3    H134059   1.244   1.199  19.877
 3288TIP3    H234060   1.238   1.106  19.758
 3289TIP3   OH234061   1.648   1.347  19.620
 3289TIP3    H134062   1.629   1.256  19.644
 3289TIP3    H234063   1.722   1.372  19.675
 3290TIP3   OH234064   0.449   1.649  19.778
 3290TIP3    H134065   0.455   1.556  19.757
 3290TIP3    H234066   0.538   1.673  19.807
 3291TIP3   OH234067   0.001   0.667  19.405
 3291TIP3    H134068   0.008   0.706  19.493
 3291TIP3    H234069   9.135   0.701  19.371
 3292TIP3   OH234070   0.254   1.028  19.671
 3292TIP3    H134071   0.276   0.936  19.687
 3292TIP3    H234072   0.300   1.050  19.590
 3293TIP3   OH234073   1.546   2.124  19.661
 3293TIP3    H134074   1.542   2.039  19.618
 3293TIP3    H234075   1.614   2.114  19.728
 3294TIP3   OH234076   1.113   1.428  19.676
 3294TIP3    H134077   1.134   1.344  19.717
 3294TIP3    H234078   1.185   1.444  19.615
 3295TIP3   OH234079   1.432   0.641  19.883
 3295TIP3    H134080   1.461   0.662  19.972
 3295TIP3    H234081   1.397   0.723  19.849
 3296TIP3   OH234082   0.662   0.519  19.653
 3296TIP3    H134083   0.695   0.605  19.626
 3296TIP3    H234084   0.636   0.477  19.572
 3297TIP3   OH234085   1.604   0.474  19.474
 3297TIP3    H134086   1.680   0.453  19.529
 3297TIP3    H234087   1.569   0.555  19.511
 3298TIP3   OH234088   0.305   0.756  19.675
 3298TIP3    H134089   0.347   0.702  19.742
 3298TIP3    H234090   0.341   0.724  19.592
 3299TIP3   OH234091   0.736   1.028  19.612
 3299TIP3    H134092   0.831   1.019  19.607
 3299TIP3    H234093   0.702   0.944  19.582
 3300TIP3   OH234094   1.329   1.586  19.385
 3300TIP3    H134095   1.286   1.560  19.303
 3300TIP3    H234096   1.321   1.681  19.387
 3301TIP3   OH234097   1.845   0.440  19.607
 3301TIP3    H134098   1.888   0.514  19.650
 3301TIP3    H234099   1.882   0.438  19.519
 3302TIP3   OH234100   0.449   0.570  19.821
 3302TIP3    H134101   0.481   0.556  19.910
 3302TIP3    H234102   0.525   0.552  19.765
 3303TIP3   OH234103   0.333   1.680  19.198
 3303TIP3    H134104   0.320   1.695  19.104
 3303TIP3    H234105   0.333   1.767  19.237
 3304TIP3   OH234106   1.859   1.415  19.790
 3304TIP3    H134107   1.948   1.390  19.813
 3304TIP3    H234108   1.846   1.499  19.834
 3305TIP3   OH234109   0.939   0.133  19.694
 3305TIP3    H134110   0.928   0.045  19.730
 3305TIP3    H234111   0.855   0.177  19.711
 3306TIP3   OH234112   1.586   1.884  19.523
 3306TIP3    H134113   1.592   1.789  19.532
 3306TIP3    H234114   1.669   1.911  19.485
 3307TIP3   OH234115   1.570   1.606  19.527
 3307TIP3    H134116   1.488   1.589  19.479
 3307TIP3    H234117   1.597   1.520  19.558
 3308TIP3   OH234118   1.365   1.027  19.260
 3308TIP3    H134119   1.295   1.065  19.313
 3308TIP3    H234120   1.445   1.069  19.293
 3309TIP3   OH234121   1.306   1.016  18.986
 3309TIP3    H134122   1.328   1.014  19.079
 3309TIP3    H234123   1.346   0.937  18.950
 3310TIP3   OH234124   1.769   1.066  19.227
 3310TIP3    H134125   1.700   1.103  19.283
 3310TIP3    H234126   1.820   1.011  19.287
 3311TIP3   OH234127   0.649   1.282  19.507
 3311TIP3    H134128   0.603   1.255  19.428
 3311TIP3    H234129   0.684   1.201  19.544
 3312TIP3   OH234130   0.931   1.634  19.704
 3312TIP3    H134131   0.914   1.659  19.613
 3312TIP3    H234132   0.990   1.559  19.698
 3313TIP3   OH234133   0.629   1.166  19.830
 3313TIP3    H134134   0.659   1.114  19.755
 3313TIP3    H234135   0.690   1.145  19.900
 3314TIP3   OH234136   1.642   0.909  19.031
 3314TIP3    H134137   1.679   0.951  19.109
 3314TIP3    H234138   1.662   0.969  18.960
 3315TIP3   OH234139   1.342   1.862  19.394
 3315TIP3    H134140   1.421   1.869  19.448
 3315TIP3    H234141   1.341   1.943  19.344
 3316TIP3   OH234142   2.046   0.108  19.190
 3316TIP3    H134143   1.955   0.120  19.216
 3316TIP3    H234144   2.058   0.168  19.116
 3317TIP3   OH234145   0.521   1.204  19.278
 3317TIP3    H134146   0.487   1.282  19.235
 3317TIP3    H234147   0.527   1.139  19.209
 3318TIP3   OH234148   2.231   1.655  18.947
 3318TIP3    H134149   2.264   1.687  18.863
 3318TIP3    H234150   2.306   1.610  18.986
 3319TIP3   OH234151   0.225   1.796  19.840
 3319TIP3    H134152   0.294   1.739  19.806
 3319TIP3    H234153   0.240   1.797  19.934
 3320TIP3   OH234154   1.350   2.102  19.248
 3320TIP3    H134155   1.330   2.072  19.159
 3320TIP3    H234156   1.275   2.157  19.272
 3321TIP3   OH234157   0.571   2.059  19.449
 3321TIP3    H134158   0.560   2.011  19.532
 3321TIP3    H234159   0.502   2.025  19.393
 3322TIP3   OH234160   1.579   2.080  18.977
 3322TIP3    H134161   1.617   1.995  18.954
 3322TIP3    H234162   1.612   2.097  19.066
 3323TIP3   OH234163   1.622   2.168  19.256
 3323TIP3    H134164   1.531   2.138  19.264
 3323TIP3    H234165   1.672   2.107  19.310
 3324TIP3   OH234166   0.688   0.253  19.749
 3324TIP3    H134167   0.596   0.238  19.726
 3324TIP3    H234168   0.703   0.346  19.731
 3325TIP3   OH234169   1.712   1.112  18.859
 3325TIP3    H134170   1.716   1.110  18.764
 3325TIP3    H234171   1.797   1.145  18.886
 3326TIP3   OH234172   1.161   0.387  18.998
 3326TIP3    H134173   1.111   0.398  19.079
 3326TIP3    H234174   1.102   0.340  18.939
 3327TIP3   OH234175   0.669   0.775  19.510
 3327TIP3    H134176   0.582   0.744  19.486
 3327TIP3    H234177   0.722   0.760  19.432
 3328TIP3   OH234178   1.321   0.751  19.249
 3328TIP3    H134179   1.338   0.845  19.257
 3328TIP3    H234180   1.406   0.714  19.226
 3329TIP3   OH234181   1.538   0.695  19.627
 3329TIP3    H134182   1.478   0.770  19.631
 3329TIP3    H234183   1.517   0.644  19.706
 3330TIP3   OH234184   0.717   0.407  18.928
 3330TIP3    H134185   0.724   0.426  19.021
 3330TIP3    H234186   0.671   0.482  18.891
 3331TIP3   OH234187   0.077   0.404  19.475
 3331TIP3    H134188   0.135   0.411  19.551
 3331TIP3    H234189   0.051   0.494  19.456
 3332TIP3   OH234190   0.235   0.615  19.258
 3332TIP3    H134191   0.235   0.647  19.168
 3332TIP3    H234192   0.149   0.640  19.292
 3333TIP3   OH234193   1.148   0.497  19.566
 3333TIP3    H134194   1.138   0.576  19.620
 3333TIP3    H234195   1.155   0.426  19.630
 3334TIP3   OH234196   0.428   0.647  19.449
 3334TIP3    H134197   0.361   0.645  19.381
 3334TIP3    H234198   0.470   0.561  19.445
 3335TIP3   OH234199   0.824   0.727  19.284
 3335TIP3    H134200   0.915   0.706  19.307
 3335TIP3    H234201   0.832   0.792  19.215
 3336TIP3   OH234202   1.427   0.381  19.777
 3336TIP3    H134203   1.431   0.467  19.818
 3336TIP3    H234204   1.334   0.359  19.777
 3337TIP3   OH234205   0.847   0.900  19.066
 3337TIP3    H134206   0.799   0.861  18.993
 3337TIP3    H234207   0.922   0.942  19.025
 3338TIP3   OH234208   1.118   0.719  19.722
 3338TIP3    H134209   1.190   0.781  19.712
 3338TIP3    H234210   1.080   0.739  19.807
 3339TIP3   OH234211   0.572   0.410  19.417
 3339TIP3    H134212   0.529   0.324  19.411
 3339TIP3    H234213   0.624   0.416  19.337
 3340TIP3   OH234214   0.914   1.479  19.110
 3340TIP3    H134215   0.898   1.391  19.076
 3340TIP3    H234216   0.878   1.477  19.199
 3341TIP3   OH234217   1.446   0.409  19.093
 3341TIP3    H134218   1.355   0.416  19.066
 3341TIP3    H234219   1.472   0.499  19.112
 3342TIP3   OH234220   1.574   0.663  19.160
 3342TIP3    H134221   1.650   0.641  19.213
 3342TIP3    H234222   1.600   0.741  19.111
 3343TIP3   OH234223   0.496   1.380  19.721
 3343TIP3    H134224   0.540   1.368  19.637
 3343TIP3    H234225   0.537   1.315  19.778
 3344TIP3   OH234226   1.190   1.550  19.138
 3344TIP3    H134227   1.179   1.642  19.116
 3344TIP3    H234228   1.102   1.512  19.132
 3345TIP3   OH234229   2.030   0.714  19.054
 3345TIP3    H134230   2.000   0.695  18.965
 3345TIP3    H234231   2.034   0.810  19.058
 3346TIP3   OH234232   2.028   1.785  19.104
 3346TIP3    H134233   1.964   1.714  19.104
 3346TIP3    H234234   2.102   1.751  19.053
 3347TIP3   OH234235   1.610   1.066  19.651
 3347TIP3    H134236   1.530   1.031  19.690
 3347TIP3    H234237   1.673   0.995  19.658
 3348TIP3   OH234238   0.823   1.741  19.464
 3348TIP3    H134239   0.870   1.822  19.441
 3348TIP3    H234240   0.733   1.757  19.435
 3349TIP3   OH234241   0.290   1.219  18.989
 3349TIP3    H134242   0.335   1.286  19.041
 3349TIP3    H234243   0.235   1.173  19.052
 3350TIP3   OH234244   0.802   1.474  19.359
 3350TIP3    H134245   0.819   1.553  19.410
 3350TIP3    H234246   0.757   1.415  19.420
 3351TIP3   OH234247   0.842   2.030  19.380
 3351TIP3    H134248   0.751   2.050  19.402
 3351TIP3    H234249   0.891   2.107  19.409
 3352TIP3   OH234250   1.840   1.561  19.065
 3352TIP3    H134251   1.866   1.480  19.108
 3352TIP3    H234252   1.744   1.559  19.066
 3353TIP3   OH234253   2.252   2.158  19.012
 3353TIP3    H134254   2.304   2.237  19.002
 3353TIP3    H234255   2.165   2.189  19.037
 3354TIP3   OH234256   1.909   1.312  19.164
 3354TIP3    H134257   1.857   1.232  19.172
 3354TIP3    H234258   2.000   1.283  19.176
 3355TIP3   OH234259   1.002   1.688  18.762
 3355TIP3    H134260   0.983   1.596  18.746
 3355TIP3    H234261   0.953   1.709  18.841
 3356TIP3   OH234262   0.824   1.711  18.987
 3356TIP3    H134263   0.864   1.637  19.033
 3356TIP3    H234264   0.848   1.788  19.039
 3357TIP3   OH234265   0.419   1.419  19.135
 3357TIP3    H134266   0.379   1.494  19.179
 3357TIP3    H234267   0.488   1.457  19.080
 3358TIP3   OH234268   1.469   0.282  19.343
 3358TIP3    H134269   1.465   0.311  19.252
 3358TIP3    H234270   1.516   0.352  19.388
 3359TIP3   OH234271   1.134   1.809  19.074
 3359TIP3    H134272   1.054   1.856  19.097
 3359TIP3    H234273   1.199   1.877  19.058
 3360TIP3   OH234274   1.084   0.646  19.339
 3360TIP3    H134275   1.164   0.687  19.306
 3360TIP3    H234276   1.109   0.608  19.423
 3361TIP3   OH234277   1.191   0.281  19.391
 3361TIP3    H134278   1.185   0.355  19.451
 3361TIP3    H234279   1.285   0.273  19.373
 3362TIP3   OH234280   0.898   1.943  19.120
 3362TIP3    H134281   0.906   2.022  19.065
 3362TIP3    H234282   0.878   1.977  19.207
 3363TIP3   OH234283   0.743   0.471  19.201
 3363TIP3    H134284   0.755   0.563  19.227
 3363TIP3    H234285   0.830   0.432  19.208
 3364TIP3   OH234286   1.776   0.833  19.632
 3364TIP3    H134287   1.696   0.780  19.627
 3364TIP3    H234288   1.840   0.775  19.673
 3365TIP3   OH234289   0.592   1.547  18.959
 3365TIP3    H134290   0.664   1.608  18.976
 3365TIP3    H234291   0.631   1.478  18.906
 3366TIP3   OH234292   0.272   0.681  18.992
 3366TIP3    H134293   0.363   0.673  18.965
 3366TIP3    H234294   0.222   0.678  18.911
 3367TIP3   OH234295   1.784   2.102  19.803
 3367TIP3    H134296   1.815   2.154  19.729
 3367TIP3    H234297   1.860   2.051  19.830
 3368TIP3   OH234298   0.430   0.185  19.682
 3368TIP3    H134299   0.427   0.186  19.587
 3368TIP3    H234300   0.415   0.093  19.705
 3369TIP3   OH234301   0.343   1.986  19.308
 3369TIP3    H134302   0.286   2.038  19.366
 3369TIP3    H234303   0.341   2.033  19.224
 3370TIP3   OH234304   1.221   1.874  18.763
 3370TIP3    H134305   1.149   1.812  18.774
 3370TIP3    H234306   1.299   1.819  18.761
 3371TIP3   OH234307   1.681   1.835  18.887
 3371TIP3    H134308   1.750   1.779  18.923
 3371TIP3    H234309   1.720   1.872  18.807
 3372TIP3   OH234310   0.711   1.345  18.817
 3372TIP3    H134311   0.752   1.293  18.887
 3372TIP3    H234312   0.785   1.376  18.765
 3373TIP3   OH234313   1.403   1.511  18.956
 3373TIP3    H134314   1.337   1.514  19.025
 3373TIP3    H234315   1.428   1.419  18.950
 3374TIP3   OH234316   0.852   1.217  19.022
 3374TIP3    H134317   0.820   1.161  19.092
 3374TIP3    H234318   0.923   1.168  18.981
 3375TIP3   OH234319   1.036   1.041  18.919
 3375TIP3    H134320   1.035   1.024  18.825
 3375TIP3    H234321   1.129   1.039  18.942
 3376TIP3   OH234322   1.984   1.199  18.856
 3376TIP3    H134323   2.002   1.178  18.764
 3376TIP3    H234324   1.995   1.294  18.861
 3377TIP3   OH234325   0.951   2.153  18.941
 3377TIP3    H134326   1.018   2.135  18.875
 3377TIP3    H234327   0.908   2.233  18.910
 3378TIP3   OH234328   0.338   1.644  18.913
 3378TIP3    H134329   0.429   1.621  18.930
 3378TIP3    H234330   0.297   1.562  18.887
 3379TIP3   OH234331   0.216   2.179  19.473
 3379TIP3    H134332   0.168   2.262  19.475
 3379TIP3    H234333   0.189   2.133  19.552
 3380TIP3   OH234334   0.173   2.049  19.718
 3380TIP3    H134335   0.181   1.959  19.749
 3380TIP3    H234336   0.248   2.094  19.756
 3381TIP3   OH234337   2.175   1.209  19.222
 3381TIP3    H134338   2.254   1.260  19.241
 3381TIP3    H234339   2.165   1.151  19.298
 3382TIP3   OH234340   2.131   1.042  19.444
 3382TIP3    H134341   2.063   0.980  19.415
 3382TIP3    H234342   2.092   1.087  19.519
 3383TIP3   OH234343   2.339   1.502  19.677
 3383TIP3    H134344   2.359   1.411  19.697
 3383TIP3    H234345   2.244   1.503  19.662
 3384TIP3   OH234346   2.238   1.148  18.960
 3384TIP3    H134347   2.151   1.151  18.920
 3384TIP3    H234348   2.222   1.168  19.053
 3385TIP3   OH234349   1.951   0.657  18.800
 3385TIP3    H134350   1.949   0.683  18.708
 3385TIP3    H234351   1.927   0.565  18.799
 3386TIP3   OH234352   1.902   0.887  19.394
 3386TIP3    H134353   1.888   0.804  19.349
 3386TIP3    H234354   1.857   0.877  19.478
 3387TIP3   OH234355   0.236   1.288  19.774
 3387TIP3    H134356   0.253   1.196  19.753
 3387TIP3    H234357   0.320   1.332  19.761
 3388TIP3   OH234358   1.893   0.386  18.819
 3388TIP3    H134359   1.941   0.352  18.895
 3388TIP3    H234360   1.801   0.370  18.840
 3389TIP3   OH234361   1.857   0.644  19.262
 3389TIP3    H134362   1.878   0.555  19.293
 3389TIP3    H234363   1.916   0.657  19.188
 3390TIP3   OH234364   1.970   0.657  19.733
 3390TIP3    H134365   2.059   0.685  19.711
 3390TIP3    H234366   1.975   0.634  19.826
 3391TIP3   OH234367   1.923   0.382  19.346
 3391TIP3    H134368   1.992   0.329  19.386
 3391TIP3    H234369   1.862   0.319  19.309
 3392TIP3   OH234370   0.264   0.412  19.680
 3392TIP3    H134371   0.312   0.329  19.689
 3392TIP3    H234372   0.314   0.474  19.733
 3393TIP3   OH234373   0.025   0.776  19.657
 3393TIP3    H134374   0.117   0.755  19.672
 3393TIP3    H234375   0.012   0.861  19.699
 3394TIP3   OH234376   2.098   0.300  18.998
 3394TIP3    H134377   2.150   0.247  18.938
 3394TIP3    H234378   2.147   0.381  19.008
 3395TIP3   OH234379   0.245   0.336  19.265
 3395TIP3    H134380   0.176   0.336  19.332
 3395TIP3    H234381   0.260   0.428  19.246
 3396TIP3   OH234382   1.803   2.029  19.414
 3396TIP3    H134383   1.884   2.013  19.366
 3396TIP3    H234384   1.826   2.095  19.479
 3397TIP3   OH234385   0.426   2.128  19.814
 3397TIP3    H134386   0.462   2.115  19.901
 3397TIP3    H234387   0.464   2.059  19.760
 3398TIP3   OH234388   0.530   1.909  19.681
 3398TIP3    H134389   0.468   1.837  19.675
 3398TIP3    H234390   0.607   1.871  19.723
 3399TIP3   OH234391   0.708   1.750  19.821
 3399TIP3    H134392   0.764   1.690  19.773
 3399TIP3    H234393   0.767   1.797  19.879
 3400TIP3   OH234394   1.180   0.268  19.715
 3400TIP3    H134395   1.096   0.221  19.716
 3400TIP3    H234396   1.241   0.206  19.674
 3401TIP3   OH234397   1.870   0.156  19.629
 3401TIP3    H134398   1.949   0.162  19.575
 3401TIP3    H234399   1.843   0.247  19.644
 3402TIP3   OH234400   2.086   0.190  19.459
 3402TIP3    H134401   2.095   0.133  19.382
 3402TIP3    H234402   2.176   0.205  19.488
 3403TIP3   OH234403   0.415   0.173  19.410
 3403TIP3    H134404   0.354   0.220  19.354
 3403TIP3    H234405   0.388   0.081  19.403
 3404TIP3   OH234406   0.313   0.146  19.071
 3404TIP3    H134407   0.375   0.185  19.009
 3404TIP3    H234408   0.289   0.217  19.129
 3405TIP3   OH234409   1.055   0.043  19.458
 3405TIP3    H134410   1.107   0.114  19.420
 3405TIP3    H234411   1.010   0.083  19.533
 3406TIP3   OH234412   1.419   0.163  19.598
 3406TIP3    H134413   1.443   0.195  19.511
 3406TIP3    H234414   1.449   0.230  19.658
 3407TIP3   OH234415   1.779   0.147  19.269
 3407TIP3    H134416   1.695   0.172  19.307
 3407TIP3    H234417   1.772   0.052  19.258
 3408TIP3   OH234418   0.320   2.151  19.087
 3408TIP3    H134419   0.241   2.146  19.033
 3408TIP3    H234420   0.323   2.241  19.117
 3409TIP3   OH234421   0.493   0.247  18.878
 3409TIP3    H134422   0.521   0.188  18.808
 3409TIP3    H234423   0.572   0.293  18.905
 3410TIP3   OH234424   1.009   0.408  19.227
 3410TIP3    H134425   1.058   0.346  19.281
 3410TIP3    H234426   1.032   0.494  19.263
 3411TIP3   OH234427   1.308   2.015  18.989
 3411TIP3    H134428   1.399   2.039  18.972
 3411TIP3    H234429   1.277   1.978  18.906
 3412TIP3   OH234430   2.038   2.020  19.261
 3412TIP3    H134431   2.040   1.939  19.210
 3412TIP3    H234432   2.050   2.089  19.197
 3413TIP3   OH234433   0.508   2.108  18.877
 3413TIP3    H134434   0.468   2.098  18.963
 3413TIP3    H234435   0.558   2.027  18.865
 3414TIP3   OH234436   3.760   1.236  19.382
 3414TIP3    H134437   3.724   1.324  19.392
 3414TIP3    H234438   3.693   1.188  19.332
 3415TIP3   OH234439   3.654   1.071  19.828
 3415TIP3    H134440   3.675   1.040  19.916
 3415TIP3    H234441   3.617   0.995  19.784
 3416TIP3   OH234442   3.996   1.413  19.669
 3416TIP3    H134443   3.958   1.328  19.690
 3416TIP3    H234444   4.084   1.411  19.708
 3417TIP3   OH234445   2.803   1.651  19.690
 3417TIP3    H134446   2.787   1.561  19.661
 3417TIP3    H234447   2.887   1.648  19.734
 3418TIP3   OH234448   2.456   0.637  19.276
 3418TIP3    H134449   2.369   0.599  19.283
 3418TIP3    H234450   2.460   0.671  19.187
 3419TIP3   OH234451   2.356   0.986  19.625
 3419TIP3    H134452   2.420   0.915  19.615
 3419TIP3    H234453   2.310   0.989  19.542
 3420TIP3   OH234454   3.692   2.083  19.558
 3420TIP3    H134455   3.761   2.019  19.542
 3420TIP3    H234456   3.611   2.038  19.536
 3421TIP3   OH234457   3.499   1.301  19.794
 3421TIP3    H134458   3.550   1.221  19.808
 3421TIP3    H234459   3.550   1.351  19.729
 3422TIP3   OH234460   3.848   0.670  19.735
 3422TIP3    H134461   3.805   0.600  19.784
 3422TIP3    H234462   3.789   0.689  19.663
 3423TIP3   OH234463   2.918   0.495  19.618
 3423TIP3    H134464   2.939   0.582  19.584
 3423TIP3    H234465   2.884   0.447  19.543
 3424TIP3   OH234466   3.813   0.477  19.422
 3424TIP3    H134467   3.854   0.425  19.491
 3424TIP3    H234468   3.885   0.507  19.368
 3425TIP3   OH234469   2.511   0.739  19.628
 3425TIP3    H134470   2.563   0.696  19.696
 3425TIP3    H234471   2.550   0.710  19.546
 3426TIP3   OH234472   2.994   0.998  19.558
 3426TIP3    H134473   3.088   0.986  19.544
 3426TIP3    H234474   2.956   0.913  19.536
 3427TIP3   OH234475   3.659   1.499  19.388
 3427TIP3    H134476   3.615   1.498  19.303
 3427TIP3    H234477   3.630   1.580  19.429
 3428TIP3   OH234478   3.939   0.379  19.659
 3428TIP3    H134479   3.865   0.388  19.718
 3428TIP3    H234480   3.991   0.459  19.672
 3429TIP3   OH234481   2.695   0.573  19.771
 3429TIP3    H134482   2.727   0.575  19.862
 3429TIP3    H234483   2.772   0.550  19.719
 3430TIP3   OH234484   2.413   1.356  19.241
 3430TIP3    H134485   2.415   1.409  19.161
 3430TIP3    H234486   2.426   1.419  19.312
 3431TIP3   OH234487   4.238   1.550  19.758
 3431TIP3    H134488   4.207   1.601  19.833
 3431TIP3    H234489   4.195   1.591  19.682
 3432TIP3   OH234490   3.258   0.170  19.733
 3432TIP3    H134491   3.259   0.084  19.776
 3432TIP3    H234492   3.166   0.197  19.737
 3433TIP3   OH234493   3.859   1.884  19.449
 3433TIP3    H134494   3.884   1.793  19.467
 3433TIP3    H234495   3.940   1.934  19.460
 3434TIP3   OH234496   3.898   1.611  19.499
 3434TIP3    H134497   3.829   1.564  19.452
 3434TIP3    H234498   3.934   1.547  19.559
 3435TIP3   OH234499   3.660   1.025  19.194
 3435TIP3    H134500   3.651   1.040  19.100
 3435TIP3    H234501   3.753   1.006  19.206
 3436TIP3   OH234502   3.739   1.026  18.919
 3436TIP3    H134503   3.833   1.036  18.931
 3436TIP3    H234504   3.728   0.939  18.879
 3437TIP3   OH234505   4.017   1.154  19.341
 3437TIP3    H134506   3.932   1.188  19.370
 3437TIP3    H234507   4.058   1.121  19.422
 3438TIP3   OH234508   2.931   1.239  19.417
 3438TIP3    H134509   2.919   1.206  19.328
 3438TIP3    H234510   2.951   1.162  19.469
 3439TIP3   OH234511   3.086   1.645  19.754
 3439TIP3    H134512   3.087   1.662  19.660
 3439TIP3    H234513   3.152   1.576  19.767
 3440TIP3   OH234514   2.889   1.160  19.760
 3440TIP3    H134515   2.918   1.100  19.691
 3440TIP3    H234516   2.944   1.137  19.835
 3441TIP3   OH234517   3.931   0.956  19.170
 3441TIP3    H134518   3.968   1.019  19.231
 3441TIP3    H234519   3.969   0.980  19.085
 3442TIP3   OH234520   3.603   1.768  19.438
 3442TIP3    H134521   3.690   1.808  19.437
 3442TIP3    H234522   3.567   1.788  19.352
 3443TIP3   OH234523   4.360   0.078  19.179
 3443TIP3    H134524   4.266   0.085  19.163
 3443TIP3    H234525   4.399   0.145  19.121
 3444TIP3   OH234526   2.895   1.111  19.169
 3444TIP3    H134527   2.802   1.122  19.147
 3444TIP3    H234528   2.918   1.025  19.135
 3445TIP3   OH234529   4.414   1.716  18.931
 3445TIP3    H134530   4.417   1.760  18.846
 3445TIP3    H234531   4.506   1.702  18.953
 3446TIP3   OH234532   2.492   1.738  19.659
 3446TIP3    H134533   2.579   1.703  19.673
 3446TIP3    H234534   2.434   1.662  19.666
 3447TIP3   OH234535   3.539   2.187  19.286
 3447TIP3    H134536   3.479   2.166  19.214
 3447TIP3    H234537   3.525   2.280  19.302
 3448TIP3   OH234538   2.840   2.068  19.483
 3448TIP3    H134539   2.822   2.025  19.566
 3448TIP3    H234540   2.755   2.074  19.439
 3449TIP3   OH234541   3.840   2.038  18.974
 3449TIP3    H134542   3.886   1.957  18.956
 3449TIP3    H234543   3.843   2.047  19.069
 3450TIP3   OH234544   3.805   2.087  19.247
 3450TIP3    H134545   3.715   2.114  19.266
 3450TIP3    H234546   3.823   2.019  19.313
 3451TIP3   OH234547   2.981   0.237  19.719
 3451TIP3    H134548   2.888   0.214  19.722
 3451TIP3    H234549   2.981   0.330  19.693
 3452TIP3   OH234550   4.018   1.053  18.924
 3452TIP3    H134551   4.020   1.042  18.829
 3452TIP3    H234552   4.098   1.101  18.944
 3453TIP3   OH234553   3.484   0.470  18.993
 3453TIP3    H134554   3.411   0.441  19.048
 3453TIP3    H234555   3.444   0.490  18.909
 3454TIP3   OH234556   2.920   0.740  19.477
 3454TIP3    H134557   2.830   0.713  19.461
 3454TIP3    H234558   2.966   0.723  19.395
 3455TIP3   OH234559   3.565   0.777  19.286
 3455TIP3    H134560   3.569   0.870  19.268
 3455TIP3    H234561   3.637   0.739  19.237
 3456TIP3   OH234562   3.661   0.684  19.529
 3456TIP3    H134563   3.623   0.726  19.452
 3456TIP3    H234564   3.705   0.606  19.494
 3457TIP3   OH234565   3.074   0.492  18.865
 3457TIP3    H134566   3.054   0.458  18.953
 3457TIP3    H234567   3.021   0.571  18.857
 3458TIP3   OH234568   2.347   0.253  19.497
 3458TIP3    H134569   2.412   0.296  19.552
 3458TIP3    H234570   2.359   0.292  19.410
 3459TIP3   OH234571   2.242   0.536  19.067
 3459TIP3    H134572   2.313   0.588  19.031
 3459TIP3    H234573   2.167   0.595  19.069
 3460TIP3   OH234574   3.351   0.464  19.556
 3460TIP3    H134575   3.274   0.455  19.611
 3460TIP3    H234576   3.422   0.425  19.608
 3461TIP3   OH234577   2.680   0.615  19.428
 3461TIP3    H134578   2.604   0.622  19.369
 3461TIP3    H234579   2.708   0.523  19.419
 3462TIP3   OH234580   3.059   0.688  19.244
 3462TIP3    H134581   3.153   0.680  19.264
 3462TIP3    H234582   3.055   0.758  19.178
 3463TIP3   OH234583   3.724   0.437  19.829
 3463TIP3    H134584   3.721   0.401  19.917
 3463TIP3    H234585   3.647   0.402  19.785
 3464TIP3   OH234586   3.018   0.883  19.040
 3464TIP3    H134587   2.976   0.825  18.977
 3464TIP3    H234588   3.082   0.932  18.989
 3465TIP3   OH234589   3.550   0.834  19.734
 3465TIP3    H134590   3.594   0.789  19.661
 3465TIP3    H234591   3.475   0.779  19.754
 3466TIP3   OH234592   2.818   0.366  19.394
 3466TIP3    H134593   2.785   0.276  19.399
 3466TIP3    H234594   2.864   0.370  19.310
 3467TIP3   OH234595   3.246   1.468  19.129
 3467TIP3    H134596   3.211   1.390  19.086
 3467TIP3    H234597   3.197   1.474  19.211
 3468TIP3   OH234598   3.751   0.539  18.951
 3468TIP3    H134599   3.660   0.513  18.961
 3468TIP3    H234600   3.767   0.598  19.025
 3469TIP3   OH234601   3.806   0.707  19.166
 3469TIP3    H134602   3.876   0.652  19.202
 3469TIP3    H234603   3.844   0.795  19.162
 3470TIP3   OH234604   2.808   1.385  19.621
 3470TIP3    H134605   2.839   1.348  19.538
 3470TIP3    H234606   2.824   1.317  19.686
 3471TIP3   OH234607   3.519   1.536  19.150
 3471TIP3    H134608   3.509   1.630  19.160
 3471TIP3    H234609   3.429   1.503  19.139
 3472TIP3   OH234610   4.511   0.835  19.052
 3472TIP3    H134611   4.435   0.794  19.011
 3472TIP3    H234612   4.488   0.927  19.060
 3473TIP3   OH234613   4.260   1.823  19.138
 3473TIP3    H134614   4.198   1.751  19.154
 3473TIP3    H234615   4.316   1.791  19.067
 3474TIP3   OH234616   3.911   1.161  19.752
 3474TIP3    H134617   3.817   1.145  19.766
 3474TIP3    H234618   3.951   1.075  19.760
 3475TIP3   OH234619   3.033   1.712  19.493
 3475TIP3    H134620   3.068   1.795  19.462
 3475TIP3    H234621   2.939   1.728  19.505
 3476TIP3   OH234622   2.483   1.001  18.971
 3476TIP3    H134623   2.535   1.064  19.020
 3476TIP3    H234624   2.399   1.044  18.958
 3477TIP3   OH234625   3.084   1.473  19.348
 3477TIP3    H134626   3.066   1.548  19.405
 3477TIP3    H234627   3.032   1.401  19.386
 3478TIP3   OH234628   3.094   1.979  19.424
 3478TIP3    H134629   3.006   2.015  19.437
 3478TIP3    H234630   3.153   2.050  19.451
 3479TIP3   OH234631   4.017   1.541  19.004
 3479TIP3    H134632   4.049   1.478  19.070
 3479TIP3    H234633   3.923   1.524  18.999
 3480TIP3   OH234634   4.472   2.196  18.997
 3480TIP3    H134635   4.465   2.262  18.928
 3480TIP3    H234636   4.389   2.201  19.043
 3481TIP3   OH234637   4.126   1.347  19.170
 3481TIP3    H134638   4.079   1.286  19.226
 3481TIP3    H234639   4.218   1.328  19.185
 3482TIP3   OH234640   3.287   1.696  18.740
 3482TIP3    H134641   3.249   1.610  18.722
 3482TIP3    H234642   3.263   1.714  18.831
 3483TIP3   OH234643   3.216   1.716  19.002
 3483TIP3    H134644   3.223   1.632  19.047
 3483TIP3    H234645   3.217   1.781  19.073
 3484TIP3   OH234646   2.622   1.203  19.112
 3484TIP3    H134647   2.554   1.235  19.171
 3484TIP3    H234648   2.662   1.283  19.076
 3485TIP3   OH234649   3.601   0.374  19.269
 3485TIP3    H134650   3.608   0.416  19.184
 3485TIP3    H234651   3.675   0.407  19.319
 3486TIP3   OH234652   3.495   1.809  19.188
 3486TIP3    H134653   3.404   1.837  19.199
 3486TIP3    H234654   3.529   1.863  19.117
 3487TIP3   OH234655   3.326   0.629  19.325
 3487TIP3    H134656   3.404   0.681  19.309
 3487TIP3    H234657   3.344   0.583  19.407
 3488TIP3   OH234658   3.376   0.256  19.368
 3488TIP3    H134659   3.363   0.322  19.436
 3488TIP3    H234660   3.462   0.277  19.332
 3489TIP3   OH234661   3.241   1.913  19.197
 3489TIP3    H134662   3.264   2.000  19.164
 3489TIP3    H234663   3.186   1.932  19.274
 3490TIP3   OH234664   2.975   0.433  19.153
 3490TIP3    H134665   2.982   0.524  19.182
 3490TIP3    H234666   3.065   0.400  19.156
 3491TIP3   OH234667   4.008   0.897  19.765
 3491TIP3    H134668   3.947   0.824  19.757
 3491TIP3    H234669   4.083   0.860  19.813
 3492TIP3   OH234670   2.730   1.447  19.021
 3492TIP3    H134671   2.773   1.509  19.081
 3492TIP3    H234672   2.798   1.426  18.957
 3493TIP3   OH234673   2.447   0.722  19.013
 3493TIP3    H134674   2.448   0.817  19.007
 3493TIP3    H234675   2.509   0.693  18.945
 3494TIP3   OH234676   4.295   2.177  19.743
 3494TIP3    H134677   4.218   2.217  19.703
 3494TIP3    H234678   4.356   2.163  19.670
 3495TIP3   OH234679   2.721   0.155  19.685
 3495TIP3    H134680   2.713   0.144  19.590
 3495TIP3    H234681   2.697   0.069  19.721
 3496TIP3   OH234682   2.594   2.118  19.366
 3496TIP3    H134683   2.524   2.074  19.415
 3496TIP3    H234684   2.566   2.114  19.275
 3497TIP3   OH234685   3.520   1.850  18.736
 3497TIP3    H134686   3.440   1.797  18.731
 3497TIP3    H234687   3.591   1.787  18.736
 3498TIP3   OH234688   3.962   1.798  18.887
 3498TIP3    H134689   3.997   1.719  18.928
 3498TIP3    H234690   4.028   1.823  18.822
 3499TIP3   OH234691   2.948   1.389  18.866
 3499TIP3    H134692   3.005   1.340  18.925
 3499TIP3    H234693   3.006   1.426  18.800
 3500TIP3   OH234694   3.734   1.492  18.979
 3500TIP3    H134695   3.667   1.506  19.046
 3500TIP3    H234696   3.708   1.412  18.934
 3501TIP3   OH234697   3.109   1.238  19.035
 3501TIP3    H134698   3.043   1.201  19.093
 3501TIP3    H234699   3.149   1.162  18.993
 3502TIP3   OH234700   3.192   1.022  18.869
 3502TIP3    H134701   3.190   1.087  18.799
 3502TIP3    H234702   3.250   0.954  18.836
 3503TIP3   OH234703   4.270   1.184  18.899
 3503TIP3    H134704   4.287   1.154  18.810
 3503TIP3    H234705   4.267   1.279  18.892
 3504TIP3   OH234706   3.368   2.132  19.071
 3504TIP3    H134707   3.437   2.076  19.034
 3504TIP3    H234708   3.333   2.180  18.997
 3505TIP3   OH234709   2.455   1.492  19.004
 3505TIP3    H134710   2.551   1.493  19.003
 3505TIP3    H234711   2.431   1.439  18.929
 3506TIP3   OH234712   2.194   2.131  19.476
 3506TIP3    H134713   2.149   2.081  19.408
 3506TIP3    H234714   2.269   2.077  19.501
 3507TIP3   OH234715   2.429   1.994  19.558
 3507TIP3    H134716   2.440   1.903  19.585
 3507TIP3    H234717   2.475   2.044  19.626
 3508TIP3   OH234718   4.388   1.284  19.267
 3508TIP3    H134719   4.422   1.365  19.304
 3508TIP3    H234720   4.379   1.225  19.341
 3509TIP3   OH234721   4.380   1.124  19.487
 3509TIP3    H134722   4.298   1.082  19.514
 3509TIP3    H234723   4.447   1.083  19.540
 3510TIP3   OH234724   4.516   1.522  19.736
 3510TIP3    H134725   4.538   1.429  19.737
 3510TIP3    H234726   4.421   1.524  19.744
 3511TIP3   OH234727   4.483   1.120  19.064
 3511TIP3    H134728   4.412   1.134  19.001
 3511TIP3    H234729   4.459   1.172  19.140
 3512TIP3   OH234730   4.314   0.694  18.919
 3512TIP3    H134731   4.325   0.730  18.831
 3512TIP3    H234732   4.288   0.603  18.905
 3513TIP3   OH234733   4.140   0.992  19.540
 3513TIP3    H134734   4.136   0.908  19.494
 3513TIP3    H234735   4.095   0.975  19.623
 3514TIP3   OH234736   2.365   1.232  19.757
 3514TIP3    H134737   2.352   1.149  19.711
 3514TIP3    H234738   2.454   1.226  19.792
 3515TIP3   OH234739   4.244   0.421  18.876
 3515TIP3    H134740   4.291   0.367  18.939
 3515TIP3    H234741   4.151   0.406  18.894
 3516TIP3   OH234742   4.021   0.561  19.256
 3516TIP3    H134743   4.050   0.470  19.263
 3516TIP3    H234744   4.094   0.607  19.214
 3517TIP3   OH234745   4.217   0.766  19.883
 3517TIP3    H134746   4.307   0.787  19.856
 3517TIP3    H234747   4.227   0.697  19.949
 3518TIP3   OH234748   4.106   0.307  19.291
 3518TIP3    H134749   4.173   0.278  19.353
 3518TIP3    H234750   4.086   0.229  19.239
 3519TIP3   OH234751   2.546   0.370  19.646
 3519TIP3    H134752   2.604   0.299  19.673
 3519TIP3    H234753   2.583   0.448  19.689
 3520TIP3   OH234754   2.229   0.743  19.704
 3520TIP3    H134755   2.313   0.703  19.680
 3520TIP3    H234756   2.247   0.837  19.704
 3521TIP3   OH234757   4.480   0.255  18.986
 3521TIP3    H134758   4.480   0.178  18.929
 3521TIP3    H234759   4.541   0.316  18.943
 3522TIP3   OH234760   2.308   0.318  19.224
 3522TIP3    H134761   2.229   0.266  19.212
 3522TIP3    H234762   2.294   0.397  19.172
 3523TIP3   OH234763   4.069   2.055  19.470
 3523TIP3    H134764   4.145   2.045  19.413
 3523TIP3    H234765   4.081   2.139  19.514
 3524TIP3   OH234766   2.597   2.114  19.757
 3524TIP3    H134767   2.563   2.093  19.844
 3524TIP3    H234768   2.667   2.050  19.743
 3525TIP3   OH234769   2.794   1.928  19.720
 3525TIP3    H134770   2.778   1.835  19.705
 3525TIP3    H234771   2.871   1.930  19.776
 3526TIP3   OH234772   3.019   1.885  19.870
 3526TIP3    H134773   3.047   1.800  19.835
 3526TIP3    H234774   3.088   1.910  19.932
 3527TIP3   OH234775   3.508   0.301  19.718
 3527TIP3    H134776   3.429   0.248  19.731
 3527TIP3    H234777   3.576   0.237  19.699
 3528TIP3   OH234778   4.082   0.137  19.606
 3528TIP3    H134779   4.162   0.155  19.557
 3528TIP3    H234780   4.043   0.223  19.622
 3529TIP3   OH234781   4.309   0.198  19.444
 3529TIP3    H134782   4.343   0.140  19.376
 3529TIP3    H234783   4.384   0.253  19.468
 3530TIP3   OH234784   2.702   0.099  19.417
 3530TIP3    H134785   2.641   0.123  19.347
 3530TIP3    H234786   2.697   0.003  19.421
 3531TIP3   OH234787   2.540   0.171  19.206
 3531TIP3    H134788   2.596   0.222  19.148
 3531TIP3    H234789   2.460   0.222  19.213
 3532TIP3   OH234790   3.272   0.024  19.488
 3532TIP3    H134791   3.307   0.086  19.425
 3532TIP3    H234792   3.271   0.071  19.571
 3533TIP3   OH234793   3.730   0.141  19.680
 3533TIP3    H134794   3.818   0.173  19.658
 3533TIP3    H234795   3.734   0.047  19.665
 3534TIP3   OH234796   4.085   0.069  19.145
 3534TIP3    H134797   4.022   0.083  19.074
 3534TIP3    H234798   4.059   9.201  19.183
 3535TIP3   OH234799   2.514   2.138  19.100
 3535TIP3    H134800   2.430   2.097  19.079
 3535TIP3    H234801   2.502   2.230  19.077
 3536TIP3   OH234802   2.706   0.325  19.043
 3536TIP3    H134803   2.727   0.267  18.970
 3536TIP3    H234804   2.790   0.363  19.069
 3537TIP3   OH234805   3.256   0.410  19.169
 3537TIP3    H134806   3.289   0.339  19.224
 3537TIP3    H234807   3.279   0.490  19.216
 3538TIP3   OH234808   3.570   1.973  18.978
 3538TIP3    H134809   3.661   2.002  18.971
 3538TIP3    H234810   3.551   1.932  18.894
 3539TIP3   OH234811   4.281   2.051  19.292
 3539TIP3    H134812   4.280   1.969  19.242
 3539TIP3    H234813   4.266   2.119  19.226
 3540TIP3   OH234814   2.663   2.146  18.857
 3540TIP3    H134815   2.626   2.124  18.942
 3540TIP3    H234816   2.722   2.073  18.837
 3541TIP3   OH234817   6.015   1.254  19.390
 3541TIP3    H134818   5.988   1.346  19.394
 3541TIP3    H234819   5.932   1.205  19.391
 3542TIP3   OH234820   5.917   1.057  19.852
 3542TIP3    H134821   5.926   1.028  19.943
 3542TIP3    H234822   5.873   0.985  19.807
 3543TIP3   OH234823   6.260   1.386  19.666
 3543TIP3    H134824   6.210   1.306  19.676
 3543TIP3    H234825   6.336   1.374  19.723
 3544TIP3   OH234826   5.068   1.667  19.682
 3544TIP3    H134827   5.052   1.574  19.669
 3544TIP3    H234828   5.154   1.671  19.723
 3545TIP3   OH234829   4.659   0.611  19.444
 3545TIP3    H134830   4.605   0.533  19.461
 3545TIP3    H234831   4.652   0.625  19.349
 3546TIP3   OH234832   4.630   1.023  19.588
 3546TIP3    H134833   4.653   0.940  19.630
 3546TIP3    H234834   4.665   1.016  19.500
 3547TIP3   OH234835   5.932   2.028  19.606
 3547TIP3    H134836   6.008   1.982  19.571
 3547TIP3    H234837   5.861   1.964  19.603
 3548TIP3   OH234838   5.791   1.306  19.849
 3548TIP3    H134839   5.832   1.220  19.850
 3548TIP3    H234840   5.836   1.353  19.779
 3549TIP3   OH234841   6.097   0.665  19.776
 3549TIP3    H134842   6.056   0.593  19.823
 3549TIP3    H234843   6.038   0.684  19.703
 3550TIP3   OH234844   5.148   0.499  19.635
 3550TIP3    H134845   5.171   0.585  19.601
 3550TIP3    H234846   5.122   0.449  19.557
 3551TIP3   OH234847   6.096   0.496  19.451
 3551TIP3    H134848   6.148   0.453  19.520
 3551TIP3    H234849   6.162   0.529  19.389
 3552TIP3   OH234850   4.704   0.763  19.669
 3552TIP3    H134851   4.774   0.712  19.707
 3552TIP3    H234852   4.680   0.716  19.589
 3553TIP3   OH234853   5.241   1.008  19.555
 3553TIP3    H134854   5.334   0.994  19.538
 3553TIP3    H234855   5.201   0.922  19.540
 3554TIP3   OH234856   5.929   1.521  19.383
 3554TIP3    H134857   5.886   1.525  19.298
 3554TIP3    H234858   5.895   1.598  19.430
 3555TIP3   OH234859   6.212   0.408  19.692
 3555TIP3    H134860   6.133   0.392  19.743
 3555TIP3    H234861   6.241   0.495  19.719
 3556TIP3   OH234862   4.900   0.570  19.753
 3556TIP3    H134863   4.922   0.566  19.846
 3556TIP3    H234864   4.984   0.554  19.708
 3557TIP3   OH234865   4.802   1.627  19.217
 3557TIP3    H134866   4.740   1.637  19.144
 3557TIP3    H234867   4.804   1.713  19.258
 3558TIP3   OH234868   6.456   1.583  19.744
 3558TIP3    H134869   6.431   1.668  19.780
 3558TIP3    H234870   6.382   1.559  19.687
 3559TIP3   OH234871   5.499   0.138  19.708
 3559TIP3    H134872   5.491   0.048  19.741
 3559TIP3    H234873   5.410   0.174  19.714
 3560TIP3   OH234874   6.121   1.869  19.476
 3560TIP3    H134875   6.148   1.778  19.489
 3560TIP3    H234876   6.203   1.917  19.466
 3561TIP3   OH234877   6.174   1.596  19.503
 3561TIP3    H134878   6.099   1.564  19.453
 3561TIP3    H234879   6.202   1.520  19.556
 3562TIP3   OH234880   5.839   1.048  19.266
 3562TIP3    H134881   5.781   1.095  19.206
 3562TIP3    H234882   5.923   1.047  19.221
 3563TIP3   OH234883   5.830   0.981  18.959
 3563TIP3    H134884   5.898   0.965  19.025
 3563TIP3    H234885   5.845   0.914  18.893
 3564TIP3   OH234886   6.229   1.102  19.315
 3564TIP3    H134887   6.163   1.159  19.354
 3564TIP3    H234888   6.279   1.070  19.390
 3565TIP3   OH234889   5.191   1.260  19.431
 3565TIP3    H134890   5.165   1.239  19.341
 3565TIP3    H234891   5.205   1.175  19.473
 3566TIP3   OH234892   5.346   1.719  19.728
 3566TIP3    H134893   5.337   1.716  19.633
 3566TIP3    H234894   5.421   1.661  19.746
 3567TIP3   OH234895   5.134   1.157  19.765
 3567TIP3    H134896   5.167   1.105  19.692
 3567TIP3    H234897   5.163   1.110  19.843
 3568TIP3   OH234898   6.074   0.980  19.120
 3568TIP3    H134899   6.129   1.011  19.192
 3568TIP3    H234900   6.113   1.018  19.041
 3569TIP3   OH234901   5.854   1.783  19.447
 3569TIP3    H134902   5.941   1.821  19.437
 3569TIP3    H234903   5.806   1.811  19.369
 3570TIP3   OH234904   6.571   0.099  19.197
 3570TIP3    H134905   6.476   0.099  19.186
 3570TIP3    H234906   6.604   0.161  19.132
 3571TIP3   OH234907   5.110   1.195  19.172
 3571TIP3    H134908   5.043   1.262  19.158
 3571TIP3    H234909   5.070   1.114  19.138
 3572TIP3   OH234910   6.695   1.691  18.988
 3572TIP3    H134911   6.710   1.737  18.905
 3572TIP3    H234912   6.779   1.650  19.007
 3573TIP3   OH234913   4.672   1.743  19.674
 3573TIP3    H134914   4.756   1.697  19.671
 3573TIP3    H234915   4.608   1.676  19.697
 3574TIP3   OH234916   5.904   2.218  19.267
 3574TIP3    H134917   5.874   2.158  19.199
 3574TIP3    H234918   5.862   2.302  19.245
 3575TIP3   OH234919   4.999   2.047  19.413
 3575TIP3    H134920   5.005   2.013  19.503
 3575TIP3    H234921   4.932   1.992  19.372
 3576TIP3   OH234922   6.140   2.044  19.013
 3576TIP3    H134923   6.178   1.956  19.018
 3576TIP3    H234924   6.163   2.085  19.096
 3577TIP3   OH234925   6.177   2.164  19.260
 3577TIP3    H134926   6.084   2.175  19.281
 3577TIP3    H234927   6.213   2.115  19.334
 3578TIP3   OH234928   5.224   0.239  19.723
 3578TIP3    H134929   5.138   0.211  19.694
 3578TIP3    H234930   5.223   0.335  19.715
 3579TIP3   OH234931   6.191   1.115  18.911
 3579TIP3    H134932   6.229   1.112  18.823
 3579TIP3    H234933   6.254   1.165  18.963
 3580TIP3   OH234934   5.701   0.390  18.984
 3580TIP3    H134935   5.646   0.396  19.062
 3580TIP3    H234936   5.641   0.360  18.915
 3581TIP3   OH234937   5.167   0.746  19.495
 3581TIP3    H134938   5.081   0.714  19.467
 3581TIP3    H234939   5.225   0.726  19.422
 3582TIP3   OH234940   5.815   0.778  19.332
 3582TIP3    H134941   5.811   0.873  19.319
 3582TIP3    H234942   5.877   0.747  19.265
 3583TIP3   OH234943   5.922   0.678  19.562
 3583TIP3    H134944   5.882   0.720  19.486
 3583TIP3    H234945   5.974   0.606  19.525
 3584TIP3   OH234946   5.224   0.400  18.940
 3584TIP3    H134947   5.235   0.405  19.035
 3584TIP3    H234948   5.238   0.489  18.909
 3585TIP3   OH234949   4.548   0.343  19.464
 3585TIP3    H134950   4.623   0.336  19.523
 3585TIP3    H234951   4.586   0.338  19.376
 3586TIP3   OH234952   4.667   0.640  19.167
 3586TIP3    H134953   4.749   0.674  19.132
 3586TIP3    H234954   4.600   0.700  19.134
 3587TIP3   OH234955   5.630   0.435  19.588
 3587TIP3    H134956   5.545   0.406  19.621
 3587TIP3    H234957   5.693   0.395  19.648
 3588TIP3   OH234958   4.942   0.607  19.426
 3588TIP3    H134959   4.847   0.606  19.439
 3588TIP3    H234960   4.965   0.516  19.411
 3589TIP3   OH234961   5.344   0.682  19.296
 3589TIP3    H134962   5.433   0.664  19.325
 3589TIP3    H234963   5.354   0.730  19.214
 3590TIP3   OH234964   5.982   0.420  19.854
 3590TIP3    H134965   5.981   0.381  19.942
 3590TIP3    H234966   5.909   0.378  19.808
 3591TIP3   OH234967   5.385   0.801  19.055
 3591TIP3    H134968   5.357   0.752  18.978
 3591TIP3    H234969   5.435   0.875  19.020
 3592TIP3   OH234970   5.795   0.833  19.752
 3592TIP3    H134971   5.843   0.781  19.688
 3592TIP3    H234972   5.708   0.794  19.755
 3593TIP3   OH234973   5.074   0.359  19.404
 3593TIP3    H134974   5.043   0.269  19.396
 3593TIP3    H234975   5.136   0.370  19.333
 3594TIP3   OH234976   5.518   1.468  19.145
 3594TIP3    H134977   5.476   1.395  19.100
 3594TIP3    H234978   5.477   1.470  19.231
 3595TIP3   OH234979   5.962   0.448  19.052
 3595TIP3    H134980   5.871   0.431  19.027
 3595TIP3    H234981   5.963   0.540  19.079
 3596TIP3   OH234982   6.021   0.705  19.159
 3596TIP3    H134983   6.102   0.664  19.190
 3596TIP3    H234984   6.047   0.795  19.137
 3597TIP3   OH234985   5.071   1.396  19.643
 3597TIP3    H134986   5.104   1.364  19.559
 3597TIP3    H234987   5.083   1.323  19.703
 3598TIP3   OH234988   5.777   1.580  19.156
 3598TIP3    H134989   5.755   1.672  19.169
 3598TIP3    H234990   5.692   1.536  19.148
 3599TIP3   OH234991   6.739   0.773  18.990
 3599TIP3    H134992   6.663   0.750  18.935
 3599TIP3    H234993   6.734   0.868  18.999
 3600TIP3   OH234994   6.505   1.827  19.139
 3600TIP3    H134995   6.498   1.774  19.218
 3600TIP3    H234996   6.573   1.784  19.088
 3601TIP3   OH234997   6.160   1.140  19.743
 3601TIP3    H134998   6.072   1.123  19.775
 3601TIP3    H234999   6.204   1.055  19.751
 3602TIP3   OH235000   5.262   1.706  19.466
 3602TIP3    H135001   5.269   1.788  19.416
 3602TIP3    H235002   5.170   1.702  19.491
 3603TIP3   OH235003   4.769   1.137  19.024
 3603TIP3    H135004   4.801   1.217  19.065
 3603TIP3    H235005   4.674   1.140  19.035
 3604TIP3   OH235006   5.376   1.466  19.378
 3604TIP3    H135007   5.338   1.548  19.410
 3604TIP3    H235008   5.314   1.399  19.405
 3605TIP3   OH235009   5.263   1.960  19.352
 3605TIP3    H135010   5.175   1.998  19.357
 3605TIP3    H235011   5.318   2.023  19.399
 3606TIP3   OH235012   6.261   1.505  19.025
 3606TIP3    H135013   6.281   1.419  19.062
 3606TIP3    H235014   6.167   1.504  19.010
 3607TIP3   OH235015   6.743   2.205  18.984
 3607TIP3    H135016   6.752   2.271  18.915
 3607TIP3    H235017   6.668   2.234  19.036
 3608TIP3   OH235018   6.346   1.243  19.106
 3608TIP3    H135019   6.304   1.201  19.181
 3608TIP3    H235020   6.440   1.235  19.122
 3609TIP3   OH235021   5.590   1.740  18.743
 3609TIP3    H135022   5.508   1.763  18.698
 3609TIP3    H235023   5.563   1.718  18.832
 3610TIP3   OH235024   5.499   1.701  18.993
 3610TIP3    H135025   5.498   1.622  19.048
 3610TIP3    H235026   5.478   1.772  19.053
 3611TIP3   OH235027   4.893   1.372  19.125
 3611TIP3    H135028   4.863   1.440  19.185
 3611TIP3    H235029   4.919   1.420  19.046
 3612TIP3   OH235030   5.940   0.323  19.302
 3612TIP3    H135031   5.956   0.356  19.214
 3612TIP3    H235032   5.995   0.377  19.358
 3613TIP3   OH235033   5.722   1.853  19.209
 3613TIP3    H135034   5.630   1.878  19.197
 3613TIP3    H235035   5.771   1.919  19.159
 3614TIP3   OH235036   5.599   0.611  19.374
 3614TIP3    H135037   5.673   0.671  19.361
 3614TIP3    H235038   5.620   0.564  19.455
 3615TIP3   OH235039   5.693   0.250  19.386
 3615TIP3    H135040   5.683   0.313  19.457
 3615TIP3    H235041   5.783   0.262  19.356
 3616TIP3   OH235042   5.456   1.930  19.148
 3616TIP3    H135043   5.435   2.000  19.086
 3616TIP3    H235044   5.389   1.936  19.216
 3617TIP3   OH235045   5.267   0.428  19.213
 3617TIP3    H135046   5.274   0.519  19.241
 3617TIP3    H235047   5.357   0.397  19.208
 3618TIP3   OH235048   6.270   0.882  19.757
 3618TIP3    H135049   6.204   0.814  19.767
 3618TIP3    H235050   6.348   0.847  19.800
 3619TIP3   OH235051   4.960   1.532  18.903
 3619TIP3    H135052   4.998   1.618  18.922
 3619TIP3    H235053   5.035   1.476  18.886
 3620TIP3   OH235054   4.780   0.863  18.989
 3620TIP3    H135055   4.787   0.955  19.014
 3620TIP3    H235056   4.686   0.843  18.994
 3621TIP3   OH235057   6.549   1.973  19.782
 3621TIP3    H135058   6.507   2.040  19.729
 3621TIP3    H235059   6.548   2.008  19.871
 3622TIP3   OH235060   4.970   0.154  19.654
 3622TIP3    H135061   4.968   0.140  19.560
 3622TIP3    H235062   4.951   0.068  19.692
 3623TIP3   OH235063   4.780   1.903  19.306
 3623TIP3    H135064   4.723   1.923  19.380
 3623TIP3    H235065   4.751   1.961  19.236
 3624TIP3   OH235066   5.788   1.917  18.819
 3624TIP3    H135067   5.719   1.855  18.794
 3624TIP3    H235068   5.867   1.863  18.826
 3625TIP3   OH235069   6.255   1.789  19.014
 3625TIP3    H135070   6.253   1.693  19.021
 3625TIP3    H235071   6.339   1.814  19.052
 3626TIP3   OH235072   5.188   1.386  18.871
 3626TIP3    H135073   5.248   1.350  18.936
 3626TIP3    H235074   5.233   1.374  18.787
 3627TIP3   OH235075   5.984   1.515  18.980
 3627TIP3    H135076   5.915   1.539  19.041
 3627TIP3    H235077   5.964   1.425  18.956
 3628TIP3   OH235078   5.369   1.247  19.044
 3628TIP3    H135079   5.296   1.215  19.096
 3628TIP3    H235080   5.416   1.168  19.018
 3629TIP3   OH235081   5.535   1.017  18.949
 3629TIP3    H135082   5.524   0.995  18.856
 3629TIP3    H235083   5.630   1.013  18.963
 3630TIP3   OH235084   6.683   1.261  18.843
 3630TIP3    H135085   6.634   1.210  18.779
 3630TIP3    H235086   6.620   1.327  18.875
 3631TIP3   OH235087   5.399   2.130  18.952
 3631TIP3    H135088   5.463   2.130  18.881
 3631TIP3    H235089   5.351   2.211  18.942
 3632TIP3   OH235090   4.681   1.615  18.961
 3632TIP3    H135091   4.773   1.597  18.943
 3632TIP3    H235092   4.633   1.552  18.907
 3633TIP3   OH235093   4.434   2.159  19.494
 3633TIP3    H135094   4.383   2.117  19.426
 3633TIP3    H235095   4.509   2.101  19.508
 3634TIP3   OH235096   4.647   1.983  19.540
 3634TIP3    H135097   4.640   1.897  19.582
 3634TIP3    H235098   4.699   2.036  19.600
 3635TIP3   OH235099   6.612   1.200  19.202
 3635TIP3    H135100   6.662   1.280  19.216
 3635TIP3    H235101   6.610   1.158  19.287
 3636TIP3   OH235102   6.624   1.090  19.450
 3636TIP3    H135103   6.543   1.054  19.485
 3636TIP3    H235104   6.690   1.070  19.517
 3637TIP3   OH235105   6.732   1.556  19.744
 3637TIP3    H135106   6.756   1.464  19.742
 3637TIP3    H235107   6.636   1.555  19.744
 3638TIP3   OH235108   6.762   1.058  19.014
 3638TIP3    H135109   6.747   1.122  18.945
 3638TIP3    H235110   6.711   1.090  19.088
 3639TIP3   OH235111   6.532   0.679  18.835
 3639TIP3    H135112   6.516   0.694  18.742
 3639TIP3    H235113   6.504   0.588  18.850
 3640TIP3   OH235114   6.380   0.967  19.516
 3640TIP3    H135115   6.387   0.877  19.485
 3640TIP3    H235116   6.339   0.959  19.603
 3641TIP3   OH235117   4.622   1.257  19.737
 3641TIP3    H135118   4.619   1.181  19.679
 3641TIP3    H235119   4.713   1.285  19.737
 3642TIP3   OH235120   6.458   0.410  18.871
 3642TIP3    H135121   6.504   0.361  18.938
 3642TIP3    H235122   6.365   0.391  18.886
 3643TIP3   OH235123   6.263   0.589  19.240
 3643TIP3    H135124   6.289   0.497  19.248
 3643TIP3    H235125   6.337   0.632  19.197
 3644TIP3   OH235126   6.484   0.754  19.867
 3644TIP3    H135127   6.573   0.784  19.845
 3644TIP3    H235128   6.497   0.687  19.933
 3645TIP3   OH235129   6.342   0.335  19.288
 3645TIP3    H135130   6.410   0.310  19.350
 3645TIP3    H235131   6.312   0.252  19.250
 3646TIP3   OH235132   4.776   0.356  19.616
 3646TIP3    H135133   4.841   0.289  19.637
 3646TIP3    H235134   4.806   0.434  19.663
 3647TIP3   OH235135   4.481   0.815  19.834
 3647TIP3    H135136   4.559   0.795  19.783
 3647TIP3    H235137   4.494   0.906  19.863
 3648TIP3   OH235138   6.675   0.281  19.014
 3648TIP3    H135139   6.710   0.222  18.947
 3648TIP3    H235140   6.724   0.362  19.001
 3649TIP3   OH235141   4.630   0.368  19.200
 3649TIP3    H135142   4.566   0.338  19.135
 3649TIP3    H235143   4.642   0.461  19.182
 3650TIP3   OH235144   6.339   2.040  19.452
 3650TIP3    H135145   6.416   2.046  19.395
 3650TIP3    H235146   6.364   2.086  19.531
 3651TIP3   OH235147   4.810   2.094  19.736
 3651TIP3    H135148   4.775   2.057  19.817
 3651TIP3    H235149   4.886   2.040  19.715
 3652TIP3   OH235150   5.025   1.938  19.671
 3652TIP3    H135151   5.023   1.842  19.671
 3652TIP3    H235152   5.102   1.961  19.722
 3653TIP3   OH235153   5.252   1.960  19.829
 3653TIP3    H135154   5.293   1.882  19.791
 3653TIP3    H235155   5.275   1.955  19.922
 3654TIP3   OH235156   5.780   0.262  19.740
 3654TIP3    H135157   5.706   0.202  19.741
 3654TIP3    H235158   5.855   0.209  19.715
 3655TIP3   OH235159   6.324   0.167  19.609
 3655TIP3    H135160   6.404   0.184  19.558
 3655TIP3    H235161   6.298   0.254  19.641
 3656TIP3   OH235162   6.549   0.234  19.447
 3656TIP3    H135163   6.574   0.173  19.378
 3656TIP3    H235164   6.630   0.280  19.469
 3657TIP3   OH235165   4.962   0.092  19.388
 3657TIP3    H135166   4.916   0.117  19.307
 3657TIP3    H235167   4.949   9.214  19.395
 3658TIP3   OH235168   4.832   0.185  19.162
 3658TIP3    H135169   4.882   0.220  19.088
 3658TIP3    H235170   4.769   0.254  19.183
 3659TIP3   OH235171   5.575   0.014  19.466
 3659TIP3    H135172   5.620   0.084  19.417
 3659TIP3    H235173   5.545   0.057  19.546
 3660TIP3   OH235174   6.018   0.135  19.680
 3660TIP3    H135175   6.107   0.161  19.656
 3660TIP3    H235176   6.012   0.043  19.656
 3661TIP3   OH235177   6.299   0.085  19.169
 3661TIP3    H135178   6.240   0.085  19.093
 3661TIP3    H235179   6.286   9.215  19.208
 3662TIP3   OH235180   4.699   2.102  19.127
 3662TIP3    H135181   4.615   2.115  19.083
 3662TIP3    H235182   4.717   2.186  19.169
 3663TIP3   OH235183   4.960   0.292  18.937
 3663TIP3    H135184   4.973   0.221  18.875
 3663TIP3    H235185   5.045   0.336  18.941
 3664TIP3   OH235186   5.541   0.396  19.211
 3664TIP3    H135187   5.584   0.328  19.262
 3664TIP3    H235188   5.560   0.477  19.258
 3665TIP3   OH235189   5.863   2.042  19.055
 3665TIP3    H135190   5.957   2.044  19.035
 3665TIP3    H235191   5.821   2.014  18.974
 3666TIP3   OH235192   6.551   2.073  19.273
 3666TIP3    H135193   6.539   1.999  19.213
 3666TIP3    H235194   6.545   2.150  19.217
 3667TIP3   OH235195   4.869   2.191  18.919
 3667TIP3    H135196   4.825   2.145  18.991
 3667TIP3    H235197   4.928   2.126  18.881
 3668TIP3   OH235198   8.254   1.232  19.415
 3668TIP3    H135199   8.226   1.323  19.409
 3668TIP3    H235200   8.278   1.220  19.507
 3669TIP3   OH235201   8.143   1.118  19.865
 3669TIP3    H135202   8.148   1.114  19.960
 3669TIP3    H235203   8.119   1.029  19.839
 3670TIP3   OH235204   8.460   1.430  19.672
 3670TIP3    H135205   8.422   1.342  19.676
 3670TIP3    H235206   8.539   1.424  19.725
 3671TIP3   OH235207   7.383   1.648  19.707
 3671TIP3    H135208   7.350   1.560  19.686
 3671TIP3    H235209   7.461   1.632  19.760
 3672TIP3   OH235210   6.918   0.619  19.440
 3672TIP3    H135211   6.877   0.642  19.357
 3672TIP3    H235212   6.877   0.536  19.466
 3673TIP3   OH235213   6.879   1.045  19.588
 3673TIP3    H135214   6.905   0.962  19.629
 3673TIP3    H235215   6.927   1.046  19.505
 3674TIP3   OH235216   8.326   2.005  19.650
 3674TIP3    H135217   8.330   1.954  19.570
 3674TIP3    H235218   8.264   1.959  19.706
 3675TIP3   OH235219   8.027   1.370  19.807
 3675TIP3    H135220   8.058   1.281  19.826
 3675TIP3    H235221   8.087   1.402  19.740
 3676TIP3   OH235222   8.234   0.620  19.819
 3676TIP3    H135223   8.250   0.525  19.820
 3676TIP3    H235224   8.265   0.649  19.733
 3677TIP3   OH235225   7.402   0.494  19.644
 3677TIP3    H135226   7.430   0.580  19.612
 3677TIP3    H235227   7.375   0.446  19.566
 3678TIP3   OH235228   8.408   0.457  19.479
 3678TIP3    H135229   8.461   0.408  19.541
 3678TIP3    H235230   8.471   0.497  19.419
 3679TIP3   OH235231   6.966   0.781  19.662
 3679TIP3    H135232   7.036   0.731  19.703
 3679TIP3    H235233   6.944   0.731  19.583
 3680TIP3   OH235234   7.516   0.998  19.570
 3680TIP3    H135235   7.610   0.983  19.560
 3680TIP3    H235236   7.476   0.913  19.553
 3681TIP3   OH235237   8.177   1.500  19.387
 3681TIP3    H135238   8.134   1.500  19.301
 3681TIP3    H235239   8.149   1.582  19.428
 3682TIP3   OH235240   8.525   0.324  19.698
 3682TIP3    H135241   8.440   0.329  19.742
 3682TIP3    H235242   8.587   0.359  19.762
 3683TIP3   OH235243   7.157   0.584  19.757
 3683TIP3    H135244   7.178   0.580  19.850
 3683TIP3    H235245   7.239   0.562  19.713
 3684TIP3   OH235246   6.955   1.409  19.224
 3684TIP3    H135247   6.935   1.466  19.150
 3684TIP3    H235248   6.939   1.464  19.301
 3685TIP3   OH235249   8.702   1.439  19.807
 3685TIP3    H135250   8.775   1.391  19.846
 3685TIP3    H235251   8.741   1.520  19.775
 3686TIP3   OH235252   7.741   0.137  19.755
 3686TIP3    H135253   7.734   0.050  19.793
 3686TIP3    H235254   7.651   0.170  19.756
 3687TIP3   OH235255   8.389   1.878  19.407
 3687TIP3    H135256   8.405   1.785  19.422
 3687TIP3    H235257   8.473   1.920  19.425
 3688TIP3   OH235258   8.417   1.616  19.474
 3688TIP3    H135259   8.349   1.567  19.429
 3688TIP3    H235260   8.443   1.560  19.547
 3689TIP3   OH235261   8.134   1.008  19.294
 3689TIP3    H135262   8.124   1.029  19.201
 3689TIP3    H235263   8.168   1.088  19.333
 3690TIP3   OH235264   8.151   0.979  19.004
 3690TIP3    H135265   8.236   0.956  19.040
 3690TIP3    H235266   8.134   0.913  18.937
 3691TIP3   OH235267   8.461   1.132  19.263
 3691TIP3    H135268   8.390   1.167  19.316
 3691TIP3    H235269   8.517   1.086  19.325
 3692TIP3   OH235270   7.468   1.248  19.442
 3692TIP3    H135271   7.443   1.222  19.353
 3692TIP3    H235272   7.484   1.165  19.487
 3693TIP3   OH235273   7.667   1.645  19.776
 3693TIP3    H135274   7.663   1.655  19.681
 3693TIP3    H235275   7.734   1.578  19.791
 3694TIP3   OH235276   7.394   1.142  19.775
 3694TIP3    H135277   7.435   1.092  19.704
 3694TIP3    H235278   7.402   1.086  19.851
 3695TIP3   OH235279   8.411   0.932  19.079
 3695TIP3    H135280   8.428   0.993  19.151
 3695TIP3    H235281   8.453   0.972  19.003
 3696TIP3   OH235282   8.129   1.773  19.429
 3696TIP3    H135283   8.215   1.812  19.415
 3696TIP3    H235284   8.080   1.795  19.350
 3697TIP3   OH235285   8.761   0.060  19.211
 3697TIP3    H135286   8.670   0.086  19.222
 3697TIP3    H235287   8.795   0.120  19.143
 3698TIP3   OH235288   7.394   1.154  19.189
 3698TIP3    H135289   7.312   1.194  19.159
 3698TIP3    H235290   7.384   1.061  19.171
 3699TIP3   OH235291   8.834   1.798  18.905
 3699TIP3    H135292   8.837   1.894  18.905
 3699TIP3    H235293   8.851   1.774  18.814
 3700TIP3   OH235294   6.785   1.832  19.723
 3700TIP3    H135295   6.774   1.737  19.732
 3700TIP3    H235296   6.698   1.868  19.742
 3701TIP3   OH235297   8.117   2.210  19.310
 3701TIP3    H135298   8.046   2.163  19.266
 3701TIP3    H235299   8.084   2.299  19.319
 3702TIP3   OH235300   7.343   2.041  19.492
 3702TIP3    H135301   7.331   1.999  19.577
 3702TIP3    H235302   7.256   2.039  19.452
 3703TIP3   OH235303   8.338   2.059  18.963
 3703TIP3    H135304   8.377   1.974  18.942
 3703TIP3    H235305   8.361   2.073  19.055
 3704TIP3   OH235306   8.366   2.107  19.236
 3704TIP3    H135307   8.278   2.138  19.257
 3704TIP3    H235308   8.373   2.024  19.284
 3705TIP3   OH235309   7.468   0.227  19.725
 3705TIP3    H135310   7.375   0.208  19.718
 3705TIP3    H235311   7.475   0.322  19.711
 3706TIP3   OH235312   8.497   1.106  18.878
 3706TIP3    H135313   8.508   1.110  18.783
 3706TIP3    H235314   8.573   1.152  18.913
 3707TIP3   OH235315   7.963   0.371  19.010
 3707TIP3    H135316   7.906   0.379  19.086
 3707TIP3    H235317   7.905   0.346  18.938
 3708TIP3   OH235318   7.435   0.740  19.508
 3708TIP3    H135319   7.350   0.712  19.475
 3708TIP3    H235320   7.497   0.717  19.439
 3709TIP3   OH235321   8.137   0.743  19.354
 3709TIP3    H135322   8.128   0.837  19.339
 3709TIP3    H235323   8.196   0.713  19.285
 3710TIP3   OH235324   8.308   0.698  19.568
 3710TIP3    H135325   8.244   0.723  19.502
 3710TIP3    H235326   8.342   0.614  19.537
 3711TIP3   OH235327   7.476   0.392  18.963
 3711TIP3    H135328   7.491   0.398  19.058
 3711TIP3    H235329   7.478   0.483  18.933
 3712TIP3   OH235330   6.806   0.355  19.464
 3712TIP3    H135331   6.875   0.347  19.531
 3712TIP3    H235332   6.848   0.328  19.383
 3713TIP3   OH235333   6.845   0.515  19.025
 3713TIP3    H135334   6.928   0.541  18.984
 3713TIP3    H235335   6.791   0.594  19.024
 3714TIP3   OH235336   7.904   0.461  19.613
 3714TIP3    H135337   7.819   0.477  19.654
 3714TIP3    H235338   7.950   0.404  19.675
 3715TIP3   OH235339   7.204   0.614  19.429
 3715TIP3    H135340   7.109   0.615  19.434
 3715TIP3    H235341   7.227   0.523  19.414
 3716TIP3   OH235342   7.623   0.675  19.320
 3716TIP3    H135343   7.717   0.665  19.337
 3716TIP3    H235344   7.619   0.726  19.238
 3717TIP3   OH235345   8.264   0.339  19.793
 3717TIP3    H135346   8.182   0.331  19.842
 3717TIP3    H235347   8.255   0.276  19.721
 3718TIP3   OH235348   7.602   0.806  19.082
 3718TIP3    H135349   7.568   0.756  19.007
 3718TIP3    H235350   7.648   0.880  19.042
 3719TIP3   OH235351   8.089   0.856  19.807
 3719TIP3    H135352   8.048   0.830  19.725
 3719TIP3    H235353   8.138   0.779  19.835
 3720TIP3   OH235354   7.328   0.362  19.411
 3720TIP3    H135355   7.300   0.271  19.405
 3720TIP3    H235356   7.396   0.371  19.344
 3721TIP3   OH235357   7.772   1.476  19.147
 3721TIP3    H135358   7.731   1.402  19.104
 3721TIP3    H235359   7.739   1.473  19.237
 3722TIP3   OH235360   8.226   0.409  19.099
 3722TIP3    H135361   8.137   0.404  19.064
 3722TIP3    H235362   8.242   0.503  19.110
 3723TIP3   OH235363   8.334   0.673  19.170
 3723TIP3    H135364   8.414   0.638  19.209
 3723TIP3    H235365   8.361   0.755  19.130
 3724TIP3   OH235366   7.343   1.384  19.651
 3724TIP3    H135367   7.379   1.350  19.568
 3724TIP3    H235368   7.350   1.309  19.711
 3725TIP3   OH235369   8.039   1.559  19.152
 3725TIP3    H135370   8.026   1.654  19.159
 3725TIP3    H235371   7.950   1.523  19.147
 3726TIP3   OH235372   8.749   0.770  19.183
 3726TIP3    H135373   8.752   0.720  19.102
 3726TIP3    H235374   8.748   0.862  19.155
 3727TIP3   OH235375   8.744   1.821  19.169
 3727TIP3    H135376   8.682   1.748  19.180
 3727TIP3    H235377   8.781   1.808  19.082
 3728TIP3   OH235378   8.338   1.176  19.675
 3728TIP3    H135379   8.272   1.160  19.742
 3728TIP3    H235380   8.384   1.092  19.667
 3729TIP3   OH235381   7.584   1.695  19.516
 3729TIP3    H135382   7.595   1.784  19.481
 3729TIP3    H235383   7.497   1.696  19.557
 3730TIP3   OH235384   7.045   1.029  19.003
 3730TIP3    H135385   7.083   1.110  19.038
 3730TIP3    H235386   6.950   1.042  19.010
 3731TIP3   OH235387   7.650   1.457  19.388
 3731TIP3    H135388   7.626   1.536  19.437
 3731TIP3    H235389   7.588   1.391  19.418
 3732TIP3   OH235390   7.597   1.961  19.431
 3732TIP3    H135391   7.507   1.989  19.445
 3732TIP3    H235392   7.648   2.041  19.435
 3733TIP3   OH235393   8.513   1.579  19.033
 3733TIP3    H135394   8.542   1.510  19.094
 3733TIP3    H235395   8.422   1.557  19.014
 3734TIP3   OH235396   8.833   2.080  18.904
 3734TIP3    H135397   8.885   2.147  18.860
 3734TIP3    H235398   8.806   2.120  18.986
 3735TIP3   OH235399   8.595   1.363  19.180
 3735TIP3    H135400   8.537   1.289  19.196
 3735TIP3    H235401   8.680   1.333  19.213
 3736TIP3   OH235402   7.758   1.723  18.754
 3736TIP3    H135403   7.728   1.634  18.737
 3736TIP3    H235404   7.756   1.732  18.849
 3737TIP3   OH235405   7.754   1.723  19.021
 3737TIP3    H135406   7.754   1.640  19.069
 3737TIP3    H235407   7.743   1.790  19.089
 3738TIP3   OH235408   7.156   1.271  19.096
 3738TIP3    H135409   7.088   1.306  19.153
 3738TIP3    H235410   7.183   1.345  19.041
 3739TIP3   OH235411   8.230   0.287  19.352
 3739TIP3    H135412   8.225   0.320  19.263
 3739TIP3    H235413   8.286   0.351  19.398
 3740TIP3   OH235414   8.013   1.838  19.187
 3740TIP3    H135415   7.920   1.858  19.200
 3740TIP3    H235416   8.042   1.899  19.119
 3741TIP3   OH235417   7.891   0.614  19.382
 3741TIP3    H135418   7.973   0.662  19.367
 3741TIP3    H235419   7.904   0.570  19.466
 3742TIP3   OH235420   7.957   0.254  19.425
 3742TIP3    H135421   7.948   0.322  19.492
 3742TIP3    H235422   8.049   0.257  19.400
 3743TIP3   OH235423   7.756   1.929  19.207
 3743TIP3    H135424   7.764   2.022  19.189
 3743TIP3    H235425   7.697   1.924  19.283
 3744TIP3   OH235426   7.535   0.425  19.234
 3744TIP3    H135427   7.546   0.516  19.263
 3744TIP3    H235428   7.624   0.390  19.230
 3745TIP3   OH235429   8.455   0.922  19.654
 3745TIP3    H135430   8.402   0.844  19.639
 3745TIP3    H235431   8.532   0.891  19.702
 3746TIP3   OH235432   7.226   1.519  18.949
 3746TIP3    H135433   7.251   1.604  18.984
 3746TIP3    H235434   7.309   1.477  18.925
 3747TIP3   OH235435   7.011   0.753  18.951
 3747TIP3    H135436   7.040   0.836  18.989
 3747TIP3    H235437   6.916   0.757  18.952
 3748TIP3   OH235438   8.661   2.116  19.751
 3748TIP3    H135439   8.744   2.129  19.704
 3748TIP3    H235440   8.688   2.089  19.839
 3749TIP3   OH235441   7.206   0.160  19.665
 3749TIP3    H135442   7.210   0.146  19.570
 3749TIP3    H235443   7.189   0.073  19.701
 3750TIP3   OH235444   7.089   2.091  19.385
 3750TIP3    H135445   7.023   2.063  19.449
 3750TIP3    H235446   7.040   2.106  19.304
 3751TIP3   OH235447   7.995   1.882  18.779
 3751TIP3    H135448   7.918   1.826  18.772
 3751TIP3    H235449   8.069   1.822  18.775
 3752TIP3   OH235450   8.455   1.819  18.894
 3752TIP3    H135451   8.489   1.745  18.943
 3752TIP3    H235452   8.518   1.831  18.823
 3753TIP3   OH235453   7.474   1.427  18.894
 3753TIP3    H135454   7.524   1.370  18.952
 3753TIP3    H235455   7.536   1.454  18.826
 3754TIP3   OH235456   8.247   1.508  18.978
 3754TIP3    H135457   8.177   1.520  19.042
 3754TIP3    H235458   8.251   1.413  18.963
 3755TIP3   OH235459   7.620   1.256  19.056
 3755TIP3    H135460   7.550   1.225  19.113
 3755TIP3    H235461   7.667   1.177  19.028
 3756TIP3   OH235462   7.749   1.023  18.975
 3756TIP3    H135463   7.746   1.007  18.880
 3756TIP3    H235464   7.842   1.017  18.996
 3757TIP3   OH235465   8.744   1.231  18.908
 3757TIP3    H135466   8.785   1.212  18.823
 3757TIP3    H235467   8.752   1.326  18.918
 3758TIP3   OH235468   7.874   2.199  19.142
 3758TIP3    H135469   7.931   2.146  19.085
 3758TIP3    H235470   7.839   2.266  19.084
 3759TIP3   OH235471   6.944   1.558  18.990
 3759TIP3    H135472   7.040   1.554  18.981
 3759TIP3    H235473   6.911   1.517  18.910
 3760TIP3   OH235474   6.724   2.181  19.470
 3760TIP3    H135475   6.678   2.128  19.405
 3760TIP3    H235476   6.789   2.122  19.507
 3761TIP3   OH235477   6.924   2.027  19.593
 3761TIP3    H135478   6.878   1.954  19.634
 3761TIP3    H235479   6.984   2.058  19.661
 3762TIP3   OH235480   8.829   1.243  19.285
 3762TIP3    H135481   8.910   1.294  19.283
 3762TIP3    H235482   8.842   1.178  19.354
 3763TIP3   OH235483   8.864   1.036  19.461
 3763TIP3    H135484   8.772   1.012  19.454
 3763TIP3    H235485   8.892   0.998  19.545
 3764TIP3   OH235486   9.182   1.318  19.779
 3764TIP3    H135487   0.060   1.316  19.795
 3764TIP3    H235488   9.174   1.359  19.693
 3765TIP3   OH235489   8.760   1.036  19.105
 3765TIP3    H135490   8.756   1.090  19.026
 3765TIP3    H235491   8.775   1.098  19.176
 3766TIP3   OH235492   8.736   0.620  18.950
 3766TIP3    H135493   8.743   0.665  18.866
 3766TIP3    H235494   8.708   0.531  18.928
 3767TIP3   OH235495   8.604   0.958  19.425
 3767TIP3    H135496   8.601   0.871  19.384
 3767TIP3    H235497   8.549   0.948  19.503
 3768TIP3   OH235498   6.844   1.284  19.731
 3768TIP3    H135499   6.850   1.207  19.675
 3768TIP3    H235500   6.934   1.318  19.733
 3769TIP3   OH235501   8.655   0.370  18.846
 3769TIP3    H135502   8.677   0.331  18.761
 3769TIP3    H235503   8.560   0.361  18.852
 3770TIP3   OH235504   8.573   0.588  19.295
 3770TIP3    H135505   8.620   0.504  19.300
 3770TIP3    H235506   8.638   0.649  19.260
 3771TIP3   OH235507   8.699   0.841  19.760
 3771TIP3    H135508   8.786   0.865  19.727
 3771TIP3    H235509   8.716   0.798  19.843
 3772TIP3   OH235510   8.660   0.329  19.350
 3772TIP3    H135511   8.711   0.281  19.415
 3772TIP3    H235512   8.594   0.267  19.320
 3773TIP3   OH235513   7.023   0.369  19.630
 3773TIP3    H135514   7.085   0.299  19.651
 3773TIP3    H235515   7.058   0.447  19.675
 3774TIP3   OH235516   6.742   0.830  19.827
 3774TIP3    H135517   6.822   0.811  19.777
 3774TIP3    H235518   6.753   0.919  19.858
 3775TIP3   OH235519   8.833   0.236  19.010
 3775TIP3    H135520   8.880   0.189  18.940
 3775TIP3    H235521   8.768   0.288  18.964
 3776TIP3   OH235522   6.889   0.305  19.203
 3776TIP3    H135523   6.811   0.260  19.170
 3776TIP3    H235524   6.891   0.387  19.153
 3777TIP3   OH235525   8.600   2.034  19.485
 3777TIP3    H135526   8.664   2.044  19.415
 3777TIP3    H235527   8.651   2.002  19.559
 3778TIP3   OH235528   7.127   2.098  19.785
 3778TIP3    H135529   7.089   2.069  19.868
 3778TIP3    H235530   7.197   2.035  19.767
 3779TIP3   OH235531   7.329   1.916  19.741
 3779TIP3    H135532   7.321   1.822  19.724
 3779TIP3    H235533   7.410   1.925  19.792
 3780TIP3   OH235534   7.565   1.880  19.882
 3780TIP3    H135535   7.605   1.803  19.842
 3780TIP3    H235536   7.598   1.881  19.971
 3781TIP3   OH235537   7.995   0.250  19.761
 3781TIP3    H135538   7.912   0.203  19.769
 3781TIP3    H235539   8.050   0.191  19.710
 3782TIP3   OH235540   8.629   0.060  19.657
 3782TIP3    H135541   8.702   0.081  19.598
 3782TIP3    H235542   8.584   0.143  19.669
 3783TIP3   OH235543   8.821   0.135  19.474
 3783TIP3    H135544   8.817   0.094  19.387
 3783TIP3    H235545   8.910   0.170  19.481
 3784TIP3   OH235546   7.224   0.096  19.396
 3784TIP3    H135547   7.186   0.110  19.310
 3784TIP3    H235548   7.221   0.001  19.409
 3785TIP3   OH235549   7.100   0.133  19.151
 3785TIP3    H135550   7.145   0.169  19.075
 3785TIP3    H235551   7.031   0.197  19.171
 3786TIP3   OH235552   7.802   0.029  19.503
 3786TIP3    H135553   7.857   0.093  19.458
 3786TIP3    H235554   7.781   0.069  19.587
 3787TIP3   OH235555   8.209   0.149  19.600
 3787TIP3    H135556   8.218   0.182  19.511
 3787TIP3    H235557   8.240   0.059  19.595
 3788TIP3   OH235558   8.494   0.113  19.275
 3788TIP3    H135559   8.405   0.148  19.268
 3788TIP3    H235560   8.483   0.020  19.295
 3789TIP3   OH235561   6.958   2.171  19.157
 3789TIP3    H135562   6.876   2.160  19.108
 3789TIP3    H235563   6.985   2.261  19.140
 3790TIP3   OH235564   7.235   0.249  18.926
 3790TIP3    H135565   7.264   0.174  18.874
 3790TIP3    H235566   7.315   0.300  18.942
 3791TIP3   OH235567   7.808   0.390  19.239
 3791TIP3    H135568   7.849   0.324  19.295
 3791TIP3    H235569   7.835   0.474  19.277
 3792TIP3   OH235570   8.058   2.042  18.998
 3792TIP3    H135571   8.151   2.059  18.980
 3792TIP3    H235572   8.027   1.994  18.921
 3793TIP3   OH235573   8.811   2.046  19.314
 3793TIP3    H135574   8.800   1.963  19.267
 3793TIP3    H235575   8.813   2.112  19.244
 3794TIP3   OH235576   7.098   2.180  18.906
 3794TIP3    H135577   7.075   2.261  18.950
 3794TIP3    H235578   7.082   2.111  18.971
 3795TIP3   OH235579   8.979   0.800  19.348
 3795TIP3    H135580   8.954   0.889  19.374
 3795TIP3    H235581   8.908   0.771  19.290
 3796TIP3   OH235582   9.168   1.775  19.794
 3796TIP3    H135583   0.046   1.778  19.803
 3796TIP3    H235584   9.143   1.688  19.823
 3797TIP3   OH235585   9.065   0.252  19.442
 3797TIP3    H135586   9.147   0.297  19.462
 3797TIP3    H235587   9.029   0.301  19.368
 3798TIP3   OH235588   8.877   2.128  19.579
 3798TIP3    H135589   8.877   2.096  19.488
 3798TIP3    H235590   8.959   2.096  19.615
 3799TIP3   OH235591   9.106   2.024  19.688
 3799TIP3    H135592   9.110   1.935  19.722
 3799TIP3    H235593   9.196   2.055  19.692
 3800TIP3   OH235594   9.202   1.038  19.747
 3800TIP3    H135595   0.078   1.042  19.724
 3800TIP3    H235596   9.179   1.128  19.770
 3801TIP3   OH235597   8.965   0.897  19.682
 3801TIP3    H135598   9.010   0.820  19.646
 3801TIP3    H235599   9.035   0.952  19.715
 3802TIP3   OH235600   8.918   0.366  19.240
 3802TIP3    H135601   8.829   0.375  19.275
 3802TIP3    H235602   8.906   0.330  19.152
 3803TIP3   OH235603   1.495   3.504  19.416
 3803TIP3    H135604   1.467   3.594  19.402
 3803TIP3    H235605   1.423   3.451  19.380
 3804TIP3   OH235606   1.077   3.377  19.754
 3804TIP3    H135607   1.144   3.380  19.822
 3804TIP3    H235608   1.095   3.298  19.704
 3805TIP3   OH235609   1.776   3.733  19.603
 3805TIP3    H135610   1.745   3.644  19.616
 3805TIP3    H235611   1.853   3.741  19.660
 3806TIP3   OH235612   0.497   3.871  19.718
 3806TIP3    H135613   0.473   3.784  19.686
 3806TIP3    H235614   0.591   3.865  19.734
 3807TIP3   OH235615   0.046   3.036  19.320
 3807TIP3    H135616   0.045   3.059  19.413
 3807TIP3    H235617   9.175   3.057  19.288
 3808TIP3   OH235618   0.209   3.276  19.680
 3808TIP3    H135619   0.209   3.181  19.688
 3808TIP3    H235620   0.277   3.295  19.614
 3809TIP3   OH235621   1.529   4.424  19.605
 3809TIP3    H135622   1.520   4.345  19.552
 3809TIP3    H235623   1.597   4.401  19.669
 3810TIP3   OH235624   0.961   3.632  19.716
 3810TIP3    H135625   0.987   3.541  19.735
 3810TIP3    H235626   1.032   3.666  19.661
 3811TIP3   OH235627   1.308   2.900  19.706
 3811TIP3    H135628   1.346   2.823  19.748
 3811TIP3    H235629   1.382   2.944  19.665
 3812TIP3   OH235630   0.602   2.743  19.610
 3812TIP3    H135631   0.625   2.827  19.571
 3812TIP3    H235632   0.570   2.690  19.537
 3813TIP3   OH235633   1.619   2.841  19.377
 3813TIP3    H135634   1.598   2.765  19.431
 3813TIP3    H235635   1.697   2.815  19.328
 3814TIP3   OH235636   0.240   2.989  19.634
 3814TIP3    H135637   0.287   2.937  19.699
 3814TIP3    H235638   0.272   2.957  19.550
 3815TIP3   OH235639   0.708   3.234  19.561
 3815TIP3    H135640   0.801   3.209  19.558
 3815TIP3    H235641   0.662   3.154  19.534
 3816TIP3   OH235642   1.404   3.762  19.358
 3816TIP3    H135643   1.358   3.762  19.274
 3816TIP3    H235644   1.378   3.844  19.400
 3817TIP3   OH235645   1.541   2.626  19.532
 3817TIP3    H135646   1.502   2.641  19.618
 3817TIP3    H235647   1.571   2.535  19.536
 3818TIP3   OH235648   0.398   2.812  19.782
 3818TIP3    H135649   0.436   2.818  19.869
 3818TIP3    H235650   0.471   2.791  19.725
 3819TIP3   OH235651   0.373   3.899  19.234
 3819TIP3    H135652   0.350   3.906  19.141
 3819TIP3    H235653   0.355   3.986  19.270
 3820TIP3   OH235654   1.980   3.751  19.797
 3820TIP3    H135655   2.005   3.669  19.841
 3820TIP3    H235656   1.936   3.802  19.865
 3821TIP3   OH235657   0.944   2.374  19.728
 3821TIP3    H135658   0.922   2.308  19.794
 3821TIP3    H235659   0.868   2.433  19.727
 3822TIP3   OH235660   1.582   4.185  19.447
 3822TIP3    H135661   1.601   4.091  19.446
 3822TIP3    H235662   1.666   4.227  19.466
 3823TIP3   OH235663   1.640   3.915  19.443
 3823TIP3    H135664   1.574   3.855  19.406
 3823TIP3    H235665   1.693   3.859  19.501
 3824TIP3   OH235666   1.336   3.327  19.252
 3824TIP3    H135667   1.286   3.383  19.194
 3824TIP3    H235668   1.411   3.299  19.200
 3825TIP3   OH235669   1.290   3.229  18.935
 3825TIP3    H135670   1.348   3.202  19.007
 3825TIP3    H235671   1.321   3.180  18.859
 3826TIP3   OH235672   1.697   3.368  19.280
 3826TIP3    H135673   1.635   3.421  19.330
 3826TIP3    H235674   1.767   3.348  19.342
 3827TIP3   OH235675   0.657   3.490  19.442
 3827TIP3    H135676   0.652   3.467  19.349
 3827TIP3    H235677   0.677   3.408  19.486
 3828TIP3   OH235678   0.775   3.843  19.718
 3828TIP3    H135679   0.777   3.866  19.625
 3828TIP3    H235680   0.832   3.766  19.726
 3829TIP3   OH235681   0.643   3.408  19.769
 3829TIP3    H135682   0.660   3.341  19.704
 3829TIP3    H235683   0.727   3.423  19.812
 3830TIP3   OH235684   1.546   3.218  19.100
 3830TIP3    H135685   1.608   3.257  19.163
 3830TIP3    H235686   1.579   3.247  19.014
 3831TIP3   OH235687   1.335   4.023  19.411
 3831TIP3    H135688   1.402   4.090  19.427
 3831TIP3    H235689   1.289   4.054  19.333
 3832TIP3   OH235690   2.027   2.290  19.095
 3832TIP3    H135691   1.943   2.311  19.136
 3832TIP3    H235692   2.063   2.375  19.071
 3833TIP3   OH235693   0.633   3.430  19.171
 3833TIP3    H135694   0.580   3.508  19.155
 3833TIP3    H235695   0.587   3.360  19.124
 3834TIP3   OH235696   2.161   3.974  19.016
 3834TIP3    H135697   2.159   4.052  18.961
 3834TIP3    H235698   2.253   3.946  19.014
 3835TIP3   OH235699   0.274   3.996  19.828
 3835TIP3    H135700   0.342   3.951  19.777
 3835TIP3    H235701   0.298   3.980  19.919
 3836TIP3   OH235702   1.291   4.500  19.281
 3836TIP3    H135703   1.219   4.469  19.226
 3836TIP3    H235704   1.266   4.589  19.307
 3837TIP3   OH235705   0.535   4.294  19.463
 3837TIP3    H135706   0.534   4.249  19.548
 3837TIP3    H235707   0.471   4.248  19.410
 3838TIP3   OH235708   1.576   4.308  18.977
 3838TIP3    H135709   1.621   4.226  18.958
 3838TIP3    H235710   1.577   4.315  19.072
 3839TIP3   OH235711   1.538   4.376  19.244
 3839TIP3    H135712   1.453   4.417  19.261
 3839TIP3    H235713   1.548   4.310  19.313
 3840TIP3   OH235714   0.711   2.518  19.738
 3840TIP3    H135715   0.627   2.472  19.741
 3840TIP3    H235716   0.690   2.604  19.700
 3841TIP3   OH235717   1.647   3.347  18.869
 3841TIP3    H135718   1.678   3.355  18.779
 3841TIP3    H235719   1.709   3.400  18.919
 3842TIP3   OH235720   1.157   2.648  18.975
 3842TIP3    H135721   1.096   2.668  19.047
 3842TIP3    H235722   1.135   2.559  18.948
 3843TIP3   OH235723   0.608   2.988  19.465
 3843TIP3    H135724   0.522   2.958  19.437
 3843TIP3    H235725   0.665   2.970  19.389
 3844TIP3   OH235726   1.275   3.081  19.373
 3844TIP3    H135727   1.280   3.171  19.341
 3844TIP3    H235728   1.319   3.029  19.306
 3845TIP3   OH235729   1.497   3.023  19.546
 3845TIP3    H135730   1.427   3.054  19.489
 3845TIP3    H235731   1.549   2.964  19.491
 3846TIP3   OH235732   0.839   2.650  18.893
 3846TIP3    H135733   0.808   2.658  18.983
 3846TIP3    H235734   0.820   2.736  18.854
 3847TIP3   OH235735   0.122   2.442  19.490
 3847TIP3    H135736   0.170   2.493  19.555
 3847TIP3    H235737   0.129   2.493  19.410
 3848TIP3   OH235738   0.198   2.848  19.191
 3848TIP3    H135739   0.232   2.883  19.109
 3848TIP3    H235740   0.142   2.917  19.226
 3849TIP3   OH235741   1.135   2.723  19.580
 3849TIP3    H135742   1.185   2.792  19.622
 3849TIP3    H235743   1.148   2.646  19.636
 3850TIP3   OH235744   0.365   2.853  19.413
 3850TIP3    H135745   0.309   2.856  19.336
 3850TIP3    H235746   0.394   2.762  19.419
 3851TIP3   OH235747   0.790   2.930  19.264
 3851TIP3    H135748   0.878   2.921  19.302
 3851TIP3    H235749   0.804   2.978  19.182
 3852TIP3   OH235750   1.403   2.646  19.779
 3852TIP3    H135751   1.441   2.614  19.861
 3852TIP3    H235752   1.332   2.586  19.761
 3853TIP3   OH235753   0.842   3.045  19.021
 3853TIP3    H135754   0.812   2.997  18.944
 3853TIP3    H235755   0.894   3.117  18.986
 3854TIP3   OH235756   1.163   3.138  19.634
 3854TIP3    H135757   1.194   3.127  19.545
 3854TIP3    H235758   1.197   3.061  19.681
 3855TIP3   OH235759   0.494   2.598  19.398
 3855TIP3    H135760   0.474   2.507  19.420
 3855TIP3    H235761   0.529   2.594  19.309
 3856TIP3   OH235762   0.969   3.730  19.118
 3856TIP3    H135763   0.947   3.649  19.072
 3856TIP3    H235764   0.931   3.720  19.205
 3857TIP3   OH235765   1.410   2.692  19.087
 3857TIP3    H135766   1.324   2.686  19.045
 3857TIP3    H235767   1.419   2.785  19.109
 3858TIP3   OH235768   1.452   2.962  19.192
 3858TIP3    H135769   1.517   2.921  19.249
 3858TIP3    H235770   1.497   3.037  19.153
 3859TIP3   OH235771   0.490   3.599  19.645
 3859TIP3    H135772   0.532   3.583  19.560
 3859TIP3    H235773   0.537   3.541  19.706
 3860TIP3   OH235774   1.244   3.816  19.133
 3860TIP3    H135775   1.232   3.910  19.144
 3860TIP3    H235776   1.155   3.782  19.122
 3861TIP3   OH235777   2.287   3.033  19.002
 3861TIP3    H135778   2.207   2.997  18.963
 3861TIP3    H235779   2.272   3.127  19.004
 3862TIP3   OH235780   2.016   4.081  19.231
 3862TIP3    H135781   1.946   4.019  19.252
 3862TIP3    H235782   2.067   4.038  19.163
 3863TIP3   OH235783   1.677   3.472  19.623
 3863TIP3    H135784   1.605   3.487  19.561
 3863TIP3    H235785   1.656   3.388  19.664
 3864TIP3   OH235786   0.738   3.941  19.458
 3864TIP3    H135787   0.776   4.028  19.441
 3864TIP3    H235788   0.653   3.943  19.415
 3865TIP3   OH235789   0.314   3.462  18.989
 3865TIP3    H135790   0.368   3.527  19.033
 3865TIP3    H235791   0.254   3.431  19.057
 3866TIP3   OH235792   0.835   3.698  19.356
 3866TIP3    H135793   0.806   3.780  19.396
 3866TIP3    H235794   0.779   3.632  19.397
 3867TIP3   OH235795   0.793   4.213  19.397
 3867TIP3    H135796   0.705   4.248  19.410
 3867TIP3    H235797   0.851   4.285  19.424
 3868TIP3   OH235798   1.746   3.765  18.986
 3868TIP3    H135799   1.757   3.672  19.006
 3868TIP3    H235800   1.651   3.778  18.979
 3869TIP3   OH235801   2.221   4.425  19.007
 3869TIP3    H135802   2.207   4.484  18.933
 3869TIP3    H235803   2.144   4.437  19.061
 3870TIP3   OH235804   1.798   3.492  19.052
 3870TIP3    H135805   1.758   3.457  19.132
 3870TIP3    H235806   1.892   3.482  19.066
 3871TIP3   OH235807   1.058   3.995  18.808
 3871TIP3    H135808   1.042   3.957  18.721
 3871TIP3    H235809   0.982   3.971  18.859
 3872TIP3   OH235810   0.851   3.957  19.002
 3872TIP3    H135811   0.896   3.884  19.043
 3872TIP3    H235812   0.879   4.034  19.052
 3873TIP3   OH235813   0.469   3.650  19.125
 3873TIP3    H135814   0.429   3.713  19.186
 3873TIP3    H235815   0.521   3.704  19.066
 3874TIP3   OH235816   1.369   2.551  19.325
 3874TIP3    H135817   1.394   2.594  19.243
 3874TIP3    H235818   1.431   2.584  19.389
 3875TIP3   OH235819   1.207   4.091  19.171
 3875TIP3    H135820   1.113   4.110  19.172
 3875TIP3    H235821   1.244   4.156  19.112
 3876TIP3   OH235822   1.050   2.885  19.369
 3876TIP3    H135823   1.116   2.955  19.369
 3876TIP3    H235824   1.070   2.833  19.446
 3877TIP3   OH235825   1.112   2.504  19.399
 3877TIP3    H135826   1.109   2.574  19.464
 3877TIP3    H235827   1.203   2.504  19.368
 3878TIP3   OH235828   0.941   4.176  19.161
 3878TIP3    H135829   0.969   4.266  19.142
 3878TIP3    H235830   0.887   4.184  19.240
 3879TIP3   OH235831   0.733   2.678  19.155
 3879TIP3    H135832   0.726   2.767  19.188
 3879TIP3    H235833   0.822   2.651  19.178
 3880TIP3   OH235834   1.655   3.206  19.688
 3880TIP3    H135835   1.596   3.142  19.648
 3880TIP3    H235836   1.740   3.162  19.689
 3881TIP3   OH235837   0.612   3.816  18.954
 3881TIP3    H135838   0.686   3.873  18.975
 3881TIP3    H235839   0.649   3.748  18.898
 3882TIP3   OH235840   0.307   2.958  18.960
 3882TIP3    H135841   0.369   2.904  18.912
 3882TIP3    H235842   0.316   3.045  18.921
 3883TIP3   OH235843   1.857   4.452  19.851
 3883TIP3    H135844   1.844   4.502  19.771
 3883TIP3    H235845   1.944   4.413  19.841
 3884TIP3   OH235846   0.465   2.389  19.719
 3884TIP3    H135847   0.468   2.369  19.626
 3884TIP3    H235848   0.445   2.305  19.761
 3885TIP3   OH235849   0.329   4.178  19.318
 3885TIP3    H135850   0.269   4.228  19.375
 3885TIP3    H235851   0.325   4.223  19.234
 3886TIP3   OH235852   1.268   4.159  18.752
 3886TIP3    H135853   1.193   4.102  18.771
 3886TIP3    H235854   1.342   4.099  18.748
 3887TIP3   OH235855   1.716   4.069  18.891
 3887TIP3    H135856   1.749   3.986  18.926
 3887TIP3    H235857   1.782   4.096  18.828
 3888TIP3   OH235858   0.718   3.605  18.817
 3888TIP3    H135859   0.770   3.559  18.882
 3888TIP3    H235860   0.780   3.629  18.749
 3889TIP3   OH235861   1.461   3.763  18.963
 3889TIP3    H135862   1.390   3.789  19.022
 3889TIP3    H235863   1.446   3.669  18.948
 3890TIP3   OH235864   0.869   3.483  19.017
 3890TIP3    H135865   0.806   3.452  19.082
 3890TIP3    H235866   0.912   3.404  18.986
 3891TIP3   OH235867   0.998   3.253  18.908
 3891TIP3    H135868   0.985   3.245  18.813
 3891TIP3    H235869   1.093   3.249  18.919
 3892TIP3   OH235870   2.166   3.545  18.837
 3892TIP3    H135871   2.103   3.503  18.778
 3892TIP3    H235872   2.112   3.601  18.893
 3893TIP3   OH235873   1.079   4.427  19.108
 3893TIP3    H135874   1.148   4.384  19.057
 3893TIP3    H235875   1.051   4.501  19.054
 3894TIP3   OH235876   0.341   3.883  18.957
 3894TIP3    H135877   0.435   3.877  18.943
 3894TIP3    H235878   0.304   3.817  18.899
 3895TIP3   OH235879   0.188   4.362  19.478
 3895TIP3    H135880   0.096   4.383  19.464
 3895TIP3    H235881   0.191   4.324  19.566
 3896TIP3   OH235882   0.194   4.249  19.733
 3896TIP3    H135883   0.222   4.161  19.758
 3896TIP3    H235884   0.257   4.308  19.774
 3897TIP3   OH235885   2.065   3.480  19.131
 3897TIP3    H135886   2.069   3.573  19.109
 3897TIP3    H235887   2.082   3.478  19.226
 3898TIP3   OH235888   2.104   3.459  19.400
 3898TIP3    H135889   2.025   3.413  19.428
 3898TIP3    H235890   2.152   3.476  19.481
 3899TIP3   OH235891   2.253   3.786  19.737
 3899TIP3    H135892   2.283   3.696  19.755
 3899TIP3    H235893   2.158   3.782  19.747
 3900TIP3   OH235894   2.250   3.323  18.988
 3900TIP3    H135895   2.235   3.387  18.918
 3900TIP3    H235896   2.192   3.350  19.059
 3901TIP3   OH235897   2.068   2.927  18.880
 3901TIP3    H135898   2.024   2.941  18.796
 3901TIP3    H235899   2.016   2.858  18.922
 3902TIP3   OH235900   1.878   3.332  19.493
 3902TIP3    H135901   1.888   3.250  19.541
 3902TIP3    H235902   1.820   3.385  19.548
 3903TIP3   OH235903   0.232   3.559  19.742
 3903TIP3    H135904   0.233   3.463  19.746
 3903TIP3    H235905   0.318   3.582  19.709
 3904TIP3   OH235906   1.918   2.706  18.970
 3904TIP3    H135907   1.987   2.640  18.978
 3904TIP3    H235908   1.857   2.670  18.906
 3905TIP3   OH235909   1.831   2.744  19.234
 3905TIP3    H135910   1.895   2.686  19.275
 3905TIP3    H235911   1.856   2.747  19.142
 3906TIP3   OH235912   1.913   3.099  19.646
 3906TIP3    H135913   2.002   3.112  19.677
 3906TIP3    H235914   1.911   3.007  19.617
 3907TIP3   OH235915   1.999   2.542  19.324
 3907TIP3    H135916   2.032   2.492  19.398
 3907TIP3    H235917   1.936   2.484  19.281
 3908TIP3   OH235918   0.271   2.584  19.674
 3908TIP3    H135919   0.337   2.520  19.701
 3908TIP3    H235920   0.299   2.666  19.713
 3909TIP3   OH235921   9.180   2.989  19.670
 3909TIP3    H135922   0.058   2.996  19.662
 3909TIP3    H235923   9.163   2.896  19.680
 3910TIP3   OH235924   2.130   2.532  18.988
 3910TIP3    H135925   2.172   2.492  18.912
 3910TIP3    H235926   2.194   2.596  19.020
 3911TIP3   OH235927   0.102   2.594  19.255
 3911TIP3    H135928   0.007   2.598  19.240
 3911TIP3    H235929   0.134   2.681  19.233
 3912TIP3   OH235930   1.812   4.322  19.502
 3912TIP3    H135931   1.895   4.315  19.454
 3912TIP3    H235932   1.815   4.409  19.542
 3913TIP3   OH235933   0.426   4.368  19.833
 3913TIP3    H135934   0.466   4.362  19.920
 3913TIP3    H235935   0.468   4.300  19.782
 3914TIP3   OH235936   0.540   4.153  19.703
 3914TIP3    H135937   0.509   4.063  19.693
 3914TIP3    H235938   0.625   4.145  19.747
 3915TIP3   OH235939   0.769   4.090  19.838
 3915TIP3    H135940   0.776   4.001  19.805
 3915TIP3    H235941   0.854   4.108  19.878
 3916TIP3   OH235942   1.198   2.478  19.703
 3916TIP3    H135943   1.110   2.446  19.721
 3916TIP3    H235944   1.239   2.407  19.653
 3917TIP3   OH235945   1.850   2.248  19.580
 3917TIP3    H135946   1.930   2.297  19.565
 3917TIP3    H235947   1.779   2.309  19.560
 3918TIP3   OH235948   2.085   2.377  19.527
 3918TIP3    H135949   2.129   2.294  19.511
 3918TIP3    H235950   2.154   2.437  19.555
 3919TIP3   OH235951   0.460   2.320  19.454
 3919TIP3    H135952   0.373   2.282  19.442
 3919TIP3    H235953   0.520   2.247  19.441
 3920TIP3   OH235954   0.297   2.417  19.148
 3920TIP3    H135955   0.362   2.477  19.112
 3920TIP3    H235956   0.229   2.475  19.185
 3921TIP3   OH235957   0.965   2.270  19.465
 3921TIP3    H135958   1.011   2.342  19.424
 3921TIP3    H235959   0.953   2.298  19.556
 3922TIP3   OH235960   1.591   2.354  19.519
 3922TIP3    H135961   1.573   2.319  19.431
 3922TIP3    H235962   1.569   2.281  19.578
 3923TIP3   OH235963   1.792   2.384  19.210
 3923TIP3    H135964   1.728   2.452  19.188
 3923TIP3    H235965   1.739   2.306  19.226
 3924TIP3   OH235966   0.283   4.342  19.101
 3924TIP3    H135967   0.206   4.316  19.050
 3924TIP3    H235968   0.266   4.433  19.125
 3925TIP3   OH235969   0.510   2.564  19.038
 3925TIP3    H135970   0.539   2.493  18.980
 3925TIP3    H235971   0.591   2.596  19.078
 3926TIP3   OH235972   1.003   2.665  19.205
 3926TIP3    H135973   1.034   2.596  19.264
 3926TIP3    H235974   1.021   2.746  19.252
 3927TIP3   OH235975   1.291   4.291  18.991
 3927TIP3    H135976   1.385   4.313  18.990
 3927TIP3    H235977   1.276   4.251  18.905
 3928TIP3   OH235978   2.045   4.327  19.348
 3928TIP3    H135979   2.042   4.240  19.309
 3928TIP3    H235980   2.030   4.387  19.274
 3929TIP3   OH235981   0.473   4.353  18.887
 3929TIP3    H135982   0.435   4.330  18.972
 3929TIP3    H235983   0.529   4.278  18.865
 3930TIP3   OH235984   3.764   3.469  19.404
 3930TIP3    H135985   3.722   3.554  19.387
 3930TIP3    H235986   3.705   3.405  19.364
 3931TIP3   OH235987   3.371   3.441  19.776
 3931TIP3    H135988   3.409   3.455  19.863
 3931TIP3    H235989   3.403   3.354  19.750
 3932TIP3   OH235990   4.058   3.741  19.590
 3932TIP3    H135991   4.026   3.651  19.595
 3932TIP3    H235992   4.097   3.757  19.676
 3933TIP3   OH235993   2.848   3.934  19.636
 3933TIP3    H135994   2.781   3.868  19.655
 3933TIP3    H235995   2.926   3.904  19.684
 3934TIP3   OH235996   2.423   2.908  19.382
 3934TIP3    H135997   2.377   2.976  19.333
 3934TIP3    H235998   2.368   2.830  19.372
 3935TIP3   OH235999   2.427   3.268  19.714
 3935TIP3    H136000   2.433   3.175  19.694
 3935TIP3    H236001   2.516   3.302  19.703
 3936TIP3   OH236002   3.798   4.405  19.583
 3936TIP3    H136003   3.806   4.318  19.544
 3936TIP3    H236004   3.855   4.401  19.660
 3937TIP3   OH236005   3.297   3.672  19.636
 3937TIP3    H136006   3.307   3.589  19.682
 3937TIP3    H236007   3.387   3.697  19.612
 3938TIP3   OH236008   3.631   2.963  19.801
 3938TIP3    H136009   3.669   2.890  19.851
 3938TIP3    H236010   3.635   2.934  19.710
 3939TIP3   OH236011   2.845   2.744  19.628
 3939TIP3    H136012   2.896   2.815  19.589
 3939TIP3    H236013   2.806   2.699  19.553
 3940TIP3   OH236014   3.872   2.720  19.461
 3940TIP3    H136015   3.914   2.715  19.547
 3940TIP3    H236016   3.940   2.751  19.402
 3941TIP3   OH236017   2.434   2.993  19.652
 3941TIP3    H136018   2.493   2.935  19.699
 3941TIP3    H236019   2.434   2.961  19.562
 3942TIP3   OH236020   3.042   3.156  19.607
 3942TIP3    H136021   3.135   3.135  19.609
 3942TIP3    H236022   3.001   3.081  19.564
 3943TIP3   OH236023   3.636   3.708  19.341
 3943TIP3    H136024   3.586   3.723  19.261
 3943TIP3    H236025   3.657   3.795  19.373
 3944TIP3   OH236026   3.965   2.710  19.718
 3944TIP3    H136027   3.888   2.719  19.774
 3944TIP3    H236028   4.029   2.664  19.772
 3945TIP3   OH236029   2.626   2.825  19.775
 3945TIP3    H136030   2.653   2.847  19.864
 3945TIP3    H236031   2.708   2.804  19.730
 3946TIP3   OH236032   2.522   3.716  19.165
 3946TIP3    H136033   2.486   3.773  19.097
 3946TIP3    H236034   2.488   3.751  19.247
 3947TIP3   OH236035   4.168   3.774  19.841
 3947TIP3    H136036   4.259   3.751  19.861
 3947TIP3    H236037   4.135   3.814  19.922
 3948TIP3   OH236038   3.210   2.423  19.652
 3948TIP3    H136039   3.218   2.363  19.726
 3948TIP3    H236040   3.120   2.455  19.657
 3949TIP3   OH236041   3.896   4.156  19.420
 3949TIP3    H136042   3.932   4.069  19.404
 3949TIP3    H236043   3.969   4.206  19.456
 3950TIP3   OH236044   4.032   3.907  19.374
 3950TIP3    H136045   4.033   3.837  19.309
 3950TIP3    H236046   4.037   3.862  19.458
 3951TIP3   OH236047   3.652   3.254  19.248
 3951TIP3    H136048   3.603   3.270  19.167
 3951TIP3    H236049   3.742   3.241  19.219
 3952TIP3   OH236050   3.644   3.226  18.965
 3952TIP3    H136051   3.730   3.204  19.000
 3952TIP3    H236052   3.627   3.159  18.900
 3953TIP3   OH236053   4.007   3.413  19.276
 3953TIP3    H136054   3.930   3.440  19.327
 3953TIP3    H236055   4.071   3.387  19.342
 3954TIP3   OH236056   2.887   3.351  19.480
 3954TIP3    H136057   2.939   3.431  19.488
 3954TIP3    H236058   2.940   3.284  19.523
 3955TIP3   OH236059   3.119   3.881  19.710
 3955TIP3    H136060   3.124   3.919  19.622
 3955TIP3    H236061   3.178   3.806  19.707
 3956TIP3   OH236062   2.925   3.300  19.813
 3956TIP3    H136063   2.967   3.244  19.748
 3956TIP3    H236064   2.993   3.320  19.876
 3957TIP3   OH236065   3.896   3.216  19.108
 3957TIP3    H136066   3.942   3.273  19.170
 3957TIP3    H236067   3.927   3.244  19.022
 3958TIP3   OH236068   3.654   3.985  19.376
 3958TIP3    H136069   3.721   4.051  19.392
 3958TIP3    H236070   3.589   4.028  19.320
 3959TIP3   OH236071   4.226   2.264  19.120
 3959TIP3    H136072   4.136   2.276  19.151
 3959TIP3    H236073   4.258   2.352  19.104
 3960TIP3   OH236074   2.756   3.258  19.253
 3960TIP3    H136075   2.720   3.336  19.211
 3960TIP3    H236076   2.796   3.290  19.334
 3961TIP3   OH236077   4.519   3.970  18.871
 3961TIP3    H136078   4.501   4.061  18.895
 3961TIP3    H236079   4.600   3.948  18.917
 3962TIP3   OH236080   2.304   4.057  19.675
 3962TIP3    H136081   2.309   3.965  19.701
 3962TIP3    H236082   2.212   4.069  19.649
 3963TIP3   OH236083   3.604   4.466  19.237
 3963TIP3    H136084   3.565   4.416  19.166
 3963TIP3    H236085   3.551   4.545  19.244
 3964TIP3   OH236086   2.818   4.356  19.435
 3964TIP3    H136087   2.823   4.316  19.521
 3964TIP3    H236088   2.736   4.323  19.397
 3965TIP3   OH236089   3.844   4.321  18.972
 3965TIP3    H136090   3.892   4.241  18.948
 3965TIP3    H236091   3.864   4.335  19.064
 3966TIP3   OH236092   3.861   4.374  19.243
 3966TIP3    H136093   3.771   4.402  19.255
 3966TIP3    H236094   3.872   4.300  19.303
 3967TIP3   OH236095   2.949   2.494  19.705
 3967TIP3    H136096   2.867   2.445  19.714
 3967TIP3    H236097   2.920   2.585  19.692
 3968TIP3   OH236098   3.972   3.339  18.873
 3968TIP3    H136099   3.976   3.334  18.777
 3968TIP3    H236100   4.057   3.374  18.899
 3969TIP3   OH236101   3.482   2.633  18.981
 3969TIP3    H136102   3.429   2.642  19.060
 3969TIP3    H236103   3.427   2.585  18.919
 3970TIP3   OH236104   2.936   2.948  19.461
 3970TIP3    H136105   2.852   2.935  19.416
 3970TIP3    H236106   3.002   2.927  19.396
 3971TIP3   OH236107   3.593   2.984  19.306
 3971TIP3    H136108   3.595   3.079  19.297
 3971TIP3    H236109   3.664   2.953  19.251
 3972TIP3   OH236110   3.656   2.871  19.547
 3972TIP3    H136111   3.634   2.916  19.465
 3972TIP3    H236112   3.727   2.811  19.522
 3973TIP3   OH236113   3.104   2.799  18.944
 3973TIP3    H136114   3.100   2.712  18.982
 3973TIP3    H236115   3.015   2.816  18.912
 3974TIP3   OH236116   2.277   2.566  19.559
 3974TIP3    H136117   2.368   2.574  19.589
 3974TIP3    H236118   2.274   2.620  19.480
 3975TIP3   OH236119   2.314   2.736  19.054
 3975TIP3    H136120   2.400   2.707  19.024
 3975TIP3    H236121   2.309   2.828  19.029
 3976TIP3   OH236122   3.412   2.599  19.565
 3976TIP3    H136123   3.336   2.549  19.594
 3976TIP3    H236124   3.475   2.591  19.637
 3977TIP3   OH236125   2.698   2.888  19.317
 3977TIP3    H136126   2.607   2.902  19.343
 3977TIP3    H236127   2.712   2.794  19.331
 3978TIP3   OH236128   3.123   2.894  19.270
 3978TIP3    H136129   3.207   2.872  19.310
 3978TIP3    H236130   3.135   2.875  19.177
 3979TIP3   OH236131   3.737   2.708  19.881
 3979TIP3    H136132   3.729   2.678  19.971
 3979TIP3    H236133   3.686   2.646  19.830
 3980TIP3   OH236134   2.911   3.092  18.993
 3980TIP3    H136135   2.903   3.023  18.927
 3980TIP3    H236136   2.972   3.155  18.954
 3981TIP3   OH236137   3.489   3.193  19.727
 3981TIP3    H136138   3.532   3.189  19.641
 3981TIP3    H236139   3.526   3.120  19.776
 3982TIP3   OH236140   2.708   2.625  19.417
 3982TIP3    H136141   2.633   2.616  19.475
 3982TIP3    H236142   2.732   2.535  19.395
 3983TIP3   OH236143   3.215   3.740  19.113
 3983TIP3    H136144   3.167   3.667  19.074
 3983TIP3    H236145   3.200   3.731  19.207
 3984TIP3   OH236146   3.731   2.650  19.101
 3984TIP3    H136147   3.644   2.647  19.061
 3984TIP3    H236148   3.751   2.743  19.110
 3985TIP3   OH236149   3.825   2.921  19.163
 3985TIP3    H136150   3.900   2.872  19.196
 3985TIP3    H236151   3.861   3.006  19.137
 3986TIP3   OH236152   2.686   3.351  19.683
 3986TIP3    H136153   2.731   3.356  19.599
 3986TIP3    H236154   2.756   3.336  19.747
 3987TIP3   OH236155   3.493   3.813  19.119
 3987TIP3    H136156   3.486   3.905  19.144
 3987TIP3    H236157   3.403   3.783  19.109
 3988TIP3   OH236158   4.446   2.980  19.009
 3988TIP3    H136159   4.371   2.944  18.961
 3988TIP3    H236160   4.441   3.074  18.993
 3989TIP3   OH236161   4.246   4.060  19.282
 3989TIP3    H136162   4.163   4.021  19.308
 3989TIP3    H236163   4.312   3.998  19.312
 3990TIP3   OH236164   3.965   3.475  19.598
 3990TIP3    H136165   3.884   3.474  19.546
 3990TIP3    H236166   3.959   3.398  19.654
 3991TIP3   OH236167   3.067   3.982  19.458
 3991TIP3    H136168   3.079   4.071  19.426
 3991TIP3    H236169   2.975   3.980  19.488
 3992TIP3   OH236170   2.526   3.319  18.945
 3992TIP3    H136171   2.566   3.379  19.009
 3992TIP3    H236172   2.432   3.325  18.961
 3993TIP3   OH236173   3.169   3.732  19.385
 3993TIP3    H136174   3.135   3.820  19.404
 3993TIP3    H236175   3.211   3.704  19.466
 3994TIP3   OH236176   3.070   4.252  19.381
 3994TIP3    H136177   2.983   4.291  19.387
 3994TIP3    H236178   3.126   4.311  19.431
 3995TIP3   OH236179   4.008   3.824  18.993
 3995TIP3    H136180   4.033   3.779  19.074
 3995TIP3    H236181   3.916   3.801  18.980
 3996TIP3   OH236182   4.484   4.411  18.997
 3996TIP3    H136183   4.486   4.478  18.929
 3996TIP3    H236184   4.403   4.428  19.046
 3997TIP3   OH236185   4.099   3.678  19.207
 3997TIP3    H136186   4.063   3.591  19.223
 3997TIP3    H236187   4.194   3.666  19.217
 3998TIP3   OH236188   3.298   3.925  18.770
 3998TIP3    H136189   3.273   3.834  18.757
 3998TIP3    H236190   3.246   3.954  18.845
 3999TIP3   OH236191   3.146   3.981  18.993
 3999TIP3    H136192   3.167   3.901  19.041
 3999TIP3    H236193   3.171   4.052  19.051
 4000TIP3   OH236194   2.668   3.488  19.116
 4000TIP3    H136195   2.613   3.561  19.145
 4000TIP3    H236196   2.731   3.528  19.055
 4001TIP3   OH236197   3.778   2.500  19.324
 4001TIP3    H136198   3.765   2.543  19.240
 4001TIP3    H236199   3.812   2.569  19.382
 4002TIP3   OH236200   3.462   4.087  19.186
 4002TIP3    H136201   3.372   4.118  19.188
 4002TIP3    H236202   3.509   4.153  19.136
 4003TIP3   OH236203   3.370   2.819  19.379
 4003TIP3    H136204   3.445   2.875  19.362
 4003TIP3    H236205   3.396   2.767  19.456
 4004TIP3   OH236206   3.503   2.456  19.348
 4004TIP3    H136207   3.476   2.502  19.427
 4004TIP3    H236208   3.597   2.470  19.342
 4005TIP3   OH236209   3.204   4.201  19.146
 4005TIP3    H136210   3.183   4.275  19.089
 4005TIP3    H236211   3.158   4.219  19.227
 4006TIP3   OH236212   3.090   2.548  19.058
 4006TIP3    H136213   3.151   2.561  19.131
 4006TIP3    H236214   3.145   2.511  18.988
 4007TIP3   OH236215   4.006   3.229  19.718
 4007TIP3    H136216   3.958   3.161  19.765
 4007TIP3    H236217   4.094   3.193  19.707
 4008TIP3   OH236218   2.901   4.037  18.878
 4008TIP3    H136219   2.896   4.133  18.882
 4008TIP3    H236220   2.984   4.015  18.920
 4009TIP3   OH236221   2.559   3.065  19.042
 4009TIP3    H136222   2.559   3.149  18.996
 4009TIP3    H236223   2.470   3.032  19.033
 4010TIP3   OH236224   3.995   4.420  19.778
 4010TIP3    H136225   4.042   4.487  19.729
 4010TIP3    H236226   4.057   4.347  19.784
 4011TIP3   OH236227   2.691   2.372  19.691
 4011TIP3    H136228   2.707   2.359  19.597
 4011TIP3    H236229   2.656   2.289  19.721
 4012TIP3   OH236230   2.574   4.281  19.343
 4012TIP3    H136231   2.504   4.282  19.408
 4012TIP3    H236232   2.532   4.306  19.261
 4013TIP3   OH236233   3.498   4.124  18.799
 4013TIP3    H136234   3.431   4.055  18.791
 4013TIP3    H236235   3.581   4.078  18.789
 4014TIP3   OH236236   3.979   4.085  18.895
 4014TIP3    H136237   3.997   4.002  18.940
 4014TIP3    H236238   4.057   4.102  18.843
 4015TIP3   OH236239   2.948   3.723  18.822
 4015TIP3    H136240   2.957   3.658  18.891
 4015TIP3    H236241   3.031   3.718  18.774
 4016TIP3   OH236242   3.731   3.765  18.972
 4016TIP3    H136243   3.654   3.779  19.027
 4016TIP3    H236244   3.733   3.670  18.957
 4017TIP3   OH236245   3.036   3.516  19.003
 4017TIP3    H136246   3.010   3.474  19.085
 4017TIP3    H236247   3.065   3.444  18.947
 4018TIP3   OH236248   3.115   3.267  18.881
 4018TIP3    H136249   3.134   3.270  18.787
 4018TIP3    H236250   3.189   3.218  18.918
 4019TIP3   OH236251   4.227   3.446  18.895
 4019TIP3    H136252   4.255   3.411  18.811
 4019TIP3    H236253   4.231   3.541  18.885
 4020TIP3   OH236254   3.134   4.404  18.947
 4020TIP3    H136255   3.210   4.403  18.889
 4020TIP3    H236256   3.111   4.496  18.955
 4021TIP3   OH236257   2.422   3.883  18.964
 4021TIP3    H136258   2.488   3.938  18.923
 4021TIP3    H236259   2.392   3.824  18.894
 4022TIP3   OH236260   2.230   4.482  19.480
 4022TIP3    H136261   2.171   4.422  19.434
 4022TIP3    H236262   2.298   4.425  19.517
 4023TIP3   OH236263   2.412   4.294  19.572
 4023TIP3    H136264   2.383   4.211  19.610
 4023TIP3    H236265   2.482   4.324  19.631
 4024TIP3   OH236266   4.387   3.654  19.193
 4024TIP3    H136267   4.466   3.706  19.204
 4024TIP3    H236268   4.388   3.592  19.266
 4025TIP3   OH236269   4.409   3.476  19.395
 4025TIP3    H136270   4.327   3.434  19.424
 4025TIP3    H236271   4.478   3.428  19.441
 4026TIP3   OH236272   4.600   3.770  19.694
 4026TIP3    H136273   4.657   3.697  19.717
 4026TIP3    H236274   4.544   3.736  19.624
 4027TIP3   OH236275   4.484   3.466  19.004
 4027TIP3    H136276   4.400   3.432  18.972
 4027TIP3    H236277   4.461   3.519  19.080
 4028TIP3   OH236278   4.224   2.903  18.868
 4028TIP3    H136279   4.202   2.926  18.778
 4028TIP3    H236280   4.199   2.811  18.875
 4029TIP3   OH236281   4.184   3.348  19.485
 4029TIP3    H136282   4.205   3.269  19.535
 4029TIP3    H236283   4.121   3.395  19.539
 4030TIP3   OH236284   2.338   3.513  19.814
 4030TIP3    H136285   2.358   3.429  19.772
 4030TIP3    H236286   2.419   3.537  19.859
 4031TIP3   OH236287   4.159   2.636  18.883
 4031TIP3    H136288   4.208   2.587  18.950
 4031TIP3    H236289   4.070   2.602  18.889
 4032TIP3   OH236290   4.052   2.781  19.252
 4032TIP3    H136291   4.079   2.692  19.273
 4032TIP3    H236292   4.127   2.818  19.204
 4033TIP3   OH236293   4.260   3.125  19.642
 4033TIP3    H136294   4.354   3.136  19.656
 4033TIP3    H236295   4.249   3.032  19.623
 4034TIP3   OH236296   4.131   2.530  19.324
 4034TIP3    H136297   4.213   2.500  19.363
 4034TIP3    H236298   4.088   2.449  19.295
 4035TIP3   OH236299   2.540   2.599  19.635
 4035TIP3    H136300   2.584   2.523  19.673
 4035TIP3    H236301   2.556   2.670  19.697
 4036TIP3   OH236302   2.181   3.118  19.708
 4036TIP3    H136303   2.245   3.048  19.695
 4036TIP3    H236304   2.235   3.197  19.718
 4037TIP3   OH236305   4.349   2.499  19.040
 4037TIP3    H136306   4.390   2.471  18.957
 4037TIP3    H236307   4.422   2.525  19.095
 4038TIP3   OH236308   2.238   2.703  19.319
 4038TIP3    H136309   2.154   2.657  19.319
 4038TIP3    H236310   2.264   2.707  19.226
 4039TIP3   OH236311   4.098   4.322  19.503
 4039TIP3    H136312   4.178   4.314  19.450
 4039TIP3    H236313   4.099   4.413  19.534
 4040TIP3   OH236314   2.627   4.380  19.734
 4040TIP3    H136315   2.618   4.374  19.829
 4040TIP3    H236316   2.699   4.322  19.712
 4041TIP3   OH236317   2.834   4.209  19.675
 4041TIP3    H136318   2.818   4.118  19.651
 4041TIP3    H236319   2.912   4.206  19.730
 4042TIP3   OH236320   3.055   4.129  19.824
 4042TIP3    H136321   3.079   4.041  19.796
 4042TIP3    H236322   3.131   4.160  19.873
 4043TIP3   OH236323   3.598   2.503  19.758
 4043TIP3    H136324   3.565   2.430  19.810
 4043TIP3    H236325   3.649   2.462  19.689
 4044TIP3   OH236326   4.121   2.313  19.569
 4044TIP3    H136327   4.199   2.355  19.535
 4044TIP3    H236328   4.052   2.379  19.562
 4045TIP3   OH236329   4.352   2.425  19.458
 4045TIP3    H136330   4.393   2.340  19.469
 4045TIP3    H236331   4.424   2.488  19.463
 4046TIP3   OH236332   2.745   2.343  19.421
 4046TIP3    H136333   2.679   2.280  19.392
 4046TIP3    H236334   2.827   2.294  19.422
 4047TIP3   OH236335   2.423   2.382  18.992
 4047TIP3    H136336   2.379   2.396  18.908
 4047TIP3    H236337   2.471   2.464  19.007
 4048TIP3   OH236338   3.256   2.198  19.477
 4048TIP3    H136339   3.343   2.207  19.438
 4048TIP3    H236340   3.241   2.283  19.520
 4049TIP3   OH236341   3.722   2.357  19.567
 4049TIP3    H136342   3.751   2.379  19.478
 4049TIP3    H236343   3.716   2.262  19.567
 4050TIP3   OH236344   3.973   2.313  19.238
 4050TIP3    H136345   3.902   2.373  19.262
 4050TIP3    H236346   3.934   2.226  19.241
 4051TIP3   OH236347   2.477   4.390  19.101
 4051TIP3    H136348   2.386   4.394  19.074
 4051TIP3    H236349   2.497   4.479  19.133
 4052TIP3   OH236350   2.826   2.586  18.961
 4052TIP3    H136351   2.820   2.511  18.902
 4052TIP3    H236352   2.907   2.571  19.011
 4053TIP3   OH236353   3.317   2.608  19.209
 4053TIP3    H136354   3.371   2.539  19.248
 4053TIP3    H236355   3.326   2.682  19.269
 4054TIP3   OH236356   3.571   4.281  19.020
 4054TIP3    H136357   3.663   4.298  18.999
 4054TIP3    H236358   3.536   4.236  18.943
 4055TIP3   OH236359   4.312   4.324  19.328
 4055TIP3    H136360   4.294   4.236  19.296
 4055TIP3    H236361   4.296   4.381  19.253
 4056TIP3   OH236362   2.600   4.287  18.874
 4056TIP3    H136363   2.566   4.315  18.959
 4056TIP3    H236364   2.694   4.306  18.879
 4057TIP3   OH236365   6.081   3.587  19.430
 4057TIP3    H136366   6.024   3.654  19.395
 4057TIP3    H236367   6.039   3.558  19.511
 4058TIP3   OH236368   5.748   3.502  19.770
 4058TIP3    H136369   5.720   3.506  19.861
 4058TIP3    H236370   5.684   3.443  19.728
 4059TIP3   OH236371   6.246   3.677  19.640
 4059TIP3    H136372   6.174   3.636  19.688
 4059TIP3    H236373   6.236   3.645  19.551
 4060TIP3   OH236374   5.050   3.870  19.697
 4060TIP3    H136375   5.021   3.779  19.702
 4060TIP3    H236376   5.145   3.865  19.710
 4061TIP3   OH236377   4.669   2.863  19.384
 4061TIP3    H136378   4.635   2.951  19.402
 4061TIP3    H236379   4.667   2.856  19.288
 4062TIP3   OH236380   4.776   3.270  19.687
 4062TIP3    H136381   4.795   3.177  19.699
 4062TIP3    H236382   4.852   3.304  19.640
 4063TIP3   OH236383   6.009   4.370  19.601
 4063TIP3    H136384   6.052   4.300  19.553
 4063TIP3    H236385   5.918   4.341  19.610
 4064TIP3   OH236386   5.499   3.649  19.642
 4064TIP3    H136387   5.471   3.558  19.648
 4064TIP3    H236388   5.592   3.648  19.663
 4065TIP3   OH236389   6.203   2.945  19.731
 4065TIP3    H136390   6.142   2.879  19.765
 4065TIP3    H236391   6.159   2.980  19.654
 4066TIP3   OH236392   5.119   2.685  19.690
 4066TIP3    H136393   5.164   2.766  19.666
 4066TIP3    H236394   5.096   2.644  19.607
 4067TIP3   OH236395   6.205   2.775  19.419
 4067TIP3    H136396   6.224   2.726  19.499
 4067TIP3    H236397   6.290   2.803  19.387
 4068TIP3   OH236398   4.798   2.984  19.680
 4068TIP3    H136399   4.814   2.918  19.747
 4068TIP3    H236400   4.849   2.956  19.604
 4069TIP3   OH236401   5.214   3.203  19.630
 4069TIP3    H136402   5.304   3.233  19.640
 4069TIP3    H236403   5.221   3.108  19.618
 4070TIP3   OH236404   5.927   3.806  19.359
 4070TIP3    H136405   5.879   3.795  19.277
 4070TIP3    H236406   5.898   3.891  19.393
 4071TIP3   OH236407   6.276   2.668  19.661
 4071TIP3    H136408   6.195   2.666  19.712
 4071TIP3    H236409   6.324   2.744  19.695
 4072TIP3   OH236410   4.891   2.761  19.826
 4072TIP3    H136411   4.912   2.749  19.918
 4072TIP3    H236412   4.971   2.738  19.779
 4073TIP3   OH236413   4.635   3.775  19.229
 4073TIP3    H136414   4.665   3.812  19.146
 4073TIP3    H236415   4.666   3.836  19.295
 4074TIP3   OH236416   6.485   3.740  19.774
 4074TIP3    H136417   6.438   3.775  19.849
 4074TIP3    H236418   6.417   3.715  19.712
 4075TIP3   OH236419   5.319   2.218  19.729
 4075TIP3    H136420   5.286   2.139  19.772
 4075TIP3    H236421   5.260   2.288  19.757
 4076TIP3   OH236422   6.134   4.181  19.440
 4076TIP3    H136423   6.140   4.087  19.458
 4076TIP3    H236424   6.221   4.215  19.463
 4077TIP3   OH236425   6.152   3.914  19.497
 4077TIP3    H136426   6.085   3.866  19.447
 4077TIP3    H236427   6.189   3.847  19.555
 4078TIP3   OH236428   5.884   3.226  19.077
 4078TIP3    H136429   5.842   3.311  19.072
 4078TIP3    H236430   5.978   3.246  19.083
 4079TIP3   OH236431   5.902   3.064  18.841
 4079TIP3    H136432   5.883   3.112  18.921
 4079TIP3    H236433   5.996   3.049  18.843
 4080TIP3   OH236434   6.259   3.426  19.297
 4080TIP3    H136435   6.195   3.482  19.340
 4080TIP3    H236436   6.276   3.356  19.360
 4081TIP3   OH236437   5.000   3.362  19.556
 4081TIP3    H136438   4.993   3.363  19.460
 4081TIP3    H236439   5.077   3.308  19.574
 4082TIP3   OH236440   5.333   3.868  19.715
 4082TIP3    H136441   5.350   3.917  19.635
 4082TIP3    H236442   5.384   3.787  19.705
 4083TIP3   OH236443   5.217   3.423  19.817
 4083TIP3    H136444   5.184   3.343  19.776
 4083TIP3    H236445   5.311   3.421  19.804
 4084TIP3   OH236446   6.156   3.267  19.095
 4084TIP3    H136447   6.193   3.323  19.162
 4084TIP3    H236448   6.203   3.291  19.015
 4085TIP3   OH236449   5.872   4.073  19.402
 4085TIP3    H136450   5.953   4.123  19.402
 4085TIP3    H236451   5.827   4.098  19.321
 4086TIP3   OH236452   6.528   2.313  19.115
 4086TIP3    H136453   6.445   2.340  19.154
 4086TIP3    H236454   6.576   2.395  19.103
 4087TIP3   OH236455   4.967   3.367  19.283
 4087TIP3    H136456   4.919   3.439  19.242
 4087TIP3    H236457   4.993   3.310  19.211
 4088TIP3   OH236458   6.709   3.988  18.992
 4088TIP3    H136459   6.735   4.080  19.002
 4088TIP3    H236460   6.791   3.940  18.991
 4089TIP3   OH236461   4.730   4.020  19.656
 4089TIP3    H136462   4.817   3.986  19.675
 4089TIP3    H236463   4.672   3.946  19.674
 4090TIP3   OH236464   5.852   4.438  19.216
 4090TIP3    H136465   5.836   4.397  19.131
 4090TIP3    H236466   5.771   4.485  19.235
 4091TIP3   OH236467   5.102   4.311  19.473
 4091TIP3    H136468   5.086   4.257  19.550
 4091TIP3    H236469   5.017   4.319  19.430
 4092TIP3   OH236470   6.104   4.345  18.957
 4092TIP3    H136471   6.142   4.261  18.931
 4092TIP3    H236472   6.115   4.347  19.053
 4093TIP3   OH236473   6.119   4.378  19.236
 4093TIP3    H136474   6.027   4.406  19.241
 4093TIP3    H236475   6.126   4.308  19.301
 4094TIP3   OH236476   5.136   2.418  19.790
 4094TIP3    H136477   5.048   2.396  19.760
 4094TIP3    H236478   5.145   2.512  19.771
 4095TIP3   OH236479   6.303   3.354  18.880
 4095TIP3    H136480   6.297   3.352  18.785
 4095TIP3    H236481   6.377   3.411  18.898
 4096TIP3   OH236482   5.766   2.733  18.956
 4096TIP3    H136483   5.716   2.705  19.032
 4096TIP3    H236484   5.700   2.758  18.891
 4097TIP3   OH236485   5.197   2.922  19.551
 4097TIP3    H136486   5.111   2.911  19.510
 4097TIP3    H236487   5.259   2.911  19.480
 4098TIP3   OH236488   5.896   3.022  19.272
 4098TIP3    H136489   5.864   3.096  19.221
 4098TIP3    H236490   5.969   2.987  19.220
 4099TIP3   OH236491   6.088   3.016  19.484
 4099TIP3    H136492   6.008   3.031  19.433
 4099TIP3    H236493   6.120   2.931  19.454
 4100TIP3   OH236494   5.347   2.658  18.886
 4100TIP3    H136495   5.355   2.669  18.981
 4100TIP3    H236496   5.288   2.730  18.859
 4101TIP3   OH236497   4.567   2.614  19.457
 4101TIP3    H136498   4.618   2.588  19.534
 4101TIP3    H236499   4.592   2.705  19.441
 4102TIP3   OH236500   4.655   2.836  19.112
 4102TIP3    H136501   4.729   2.875  19.066
 4102TIP3    H236502   4.578   2.879  19.075
 4103TIP3   OH236503   5.757   2.853  19.629
 4103TIP3    H136504   5.712   2.926  19.671
 4103TIP3    H236505   5.839   2.843  19.678
 4104TIP3   OH236506   4.934   2.839  19.472
 4104TIP3    H136507   4.845   2.839  19.437
 4104TIP3    H236508   4.963   2.748  19.461
 4105TIP3   OH236509   5.398   2.916  19.348
 4105TIP3    H136510   5.490   2.896  19.365
 4105TIP3    H236511   5.398   3.009  19.325
 4106TIP3   OH236512   6.038   2.721  19.799
 4106TIP3    H136513   6.014   2.707  19.891
 4106TIP3    H236514   5.986   2.656  19.750
 4107TIP3   OH236515   5.080   3.108  18.873
 4107TIP3    H136516   5.116   3.025  18.841
 4107TIP3    H236517   5.156   3.162  18.891
 4108TIP3   OH236518   5.638   3.065  19.756
 4108TIP3    H136519   5.610   3.147  19.716
 4108TIP3    H236520   5.586   3.059  19.836
 4109TIP3   OH236521   5.049   2.581  19.441
 4109TIP3    H136522   5.005   2.496  19.439
 4109TIP3    H236523   5.119   2.573  19.377
 4110TIP3   OH236524   5.489   3.794  19.125
 4110TIP3    H136525   5.452   3.717  19.082
 4110TIP3    H236526   5.472   3.780  19.219
 4111TIP3   OH236527   6.029   2.731  19.026
 4111TIP3    H136528   5.938   2.733  18.998
 4111TIP3    H236529   6.048   2.822  19.051
 4112TIP3   OH236530   6.111   2.992  19.097
 4112TIP3    H136531   6.138   2.982  19.006
 4112TIP3    H236532   6.132   3.083  19.118
 4113TIP3   OH236533   5.018   3.588  19.718
 4113TIP3    H136534   5.010   3.524  19.647
 4113TIP3    H236535   5.088   3.554  19.773
 4114TIP3   OH236536   5.764   3.846  19.132
 4114TIP3    H136537   5.761   3.942  19.140
 4114TIP3    H236538   5.672   3.820  19.127
 4115TIP3   OH236539   6.555   2.943  19.112
 4115TIP3    H136540   6.508   2.954  19.029
 4115TIP3    H236541   6.544   3.027  19.156
 4116TIP3   OH236542   6.516   4.020  19.192
 4116TIP3    H136543   6.442   3.961  19.177
 4116TIP3    H236544   6.578   3.999  19.122
 4117TIP3   OH236545   6.012   3.513  19.690
 4117TIP3    H136546   5.920   3.525  19.715
 4117TIP3    H236547   6.030   3.421  19.709
 4118TIP3   OH236548   5.342   4.018  19.484
 4118TIP3    H136549   5.380   4.104  19.467
 4118TIP3    H236550   5.252   4.025  19.452
 4119TIP3   OH236551   4.750   3.391  18.958
 4119TIP3    H136552   4.787   3.448  19.026
 4119TIP3    H236553   4.655   3.392  18.975
 4120TIP3   OH236554   5.441   3.771  19.393
 4120TIP3    H136555   5.416   3.857  19.427
 4120TIP3    H236556   5.461   3.720  19.471
 4121TIP3   OH236557   5.373   4.292  19.417
 4121TIP3    H136558   5.280   4.306  19.432
 4121TIP3    H236559   5.415   4.374  19.441
 4122TIP3   OH236560   6.274   3.853  19.007
 4122TIP3    H136561   6.305   3.778  19.057
 4122TIP3    H236562   6.184   3.831  18.984
 4123TIP3   OH236563   6.758   4.263  19.020
 4123TIP3    H136564   6.774   4.308  18.938
 4123TIP3    H236565   6.686   4.312  19.060
 4124TIP3   OH236566   6.364   3.622  19.125
 4124TIP3    H136567   6.331   3.556  19.186
 4124TIP3    H236568   6.421   3.575  19.065
 4125TIP3   OH236569   5.519   4.001  18.745
 4125TIP3    H136570   5.484   3.914  18.728
 4125TIP3    H236571   5.485   4.025  18.831
 4126TIP3   OH236572   5.427   4.037  19.000
 4126TIP3    H136573   5.447   3.956  19.046
 4126TIP3    H236574   5.448   4.106  19.063
 4127TIP3   OH236575   4.832   3.574  19.151
 4127TIP3    H136576   4.763   3.625  19.193
 4127TIP3    H236577   4.894   3.639  19.118
 4128TIP3   OH236578   6.090   2.589  19.253
 4128TIP3    H136579   6.069   2.636  19.172
 4128TIP3    H236580   6.122   2.657  19.312
 4129TIP3   OH236581   5.749   4.123  19.158
 4129TIP3    H136582   5.659   4.155  19.173
 4129TIP3    H236583   5.783   4.181  19.089
 4130TIP3   OH236584   5.675   2.877  19.369
 4130TIP3    H136585   5.747   2.930  19.334
 4130TIP3    H236586   5.699   2.862  19.461
 4131TIP3   OH236587   5.840   2.492  19.321
 4131TIP3    H136588   5.851   2.456  19.409
 4131TIP3    H236589   5.926   2.525  19.299
 4132TIP3   OH236590   5.502   4.243  19.176
 4132TIP3    H136591   5.519   4.331  19.141
 4132TIP3    H236592   5.455   4.258  19.258
 4133TIP3   OH236593   5.381   2.709  19.154
 4133TIP3    H136594   5.369   2.778  19.218
 4133TIP3    H236595   5.470   2.678  19.167
 4134TIP3   OH236596   6.290   3.210  19.470
 4134TIP3    H136597   6.214   3.152  19.471
 4134TIP3    H236598   6.335   3.192  19.553
 4135TIP3   OH236599   4.995   3.776  19.047
 4135TIP3    H136600   5.054   3.831  19.098
 4135TIP3    H236601   5.049   3.744  18.974
 4136TIP3   OH236602   4.841   2.984  18.965
 4136TIP3    H136603   4.928   3.023  18.952
 4136TIP3    H236604   4.786   3.027  18.899
 4137TIP3   OH236605   6.572   4.304  19.788
 4137TIP3    H136606   6.542   4.386  19.749
 4137TIP3    H236607   6.492   4.252  19.798
 4138TIP3   OH236608   4.890   2.354  19.678
 4138TIP3    H136609   4.906   2.344  19.584
 4138TIP3    H236610   4.854   2.270  19.706
 4139TIP3   OH236611   4.854   4.377  19.356
 4139TIP3    H136612   4.782   4.348  19.413
 4139TIP3    H236613   4.815   4.380  19.269
 4140TIP3   OH236614   5.742   4.167  18.753
 4140TIP3    H136615   5.669   4.105  18.745
 4140TIP3    H236616   5.820   4.114  18.736
 4141TIP3   OH236617   6.221   4.104  18.885
 4141TIP3    H136618   6.252   4.026  18.933
 4141TIP3    H236619   6.297   4.133  18.835
 4142TIP3   OH236620   5.177   3.690  18.862
 4142TIP3    H136621   5.235   3.639  18.918
 4142TIP3    H236622   5.235   3.733  18.800
 4143TIP3   OH236623   5.905   3.795  18.897
 4143TIP3    H136624   5.859   3.806  18.980
 4143TIP3    H236625   5.854   3.730  18.849
 4144TIP3   OH236626   5.377   3.563  19.009
 4144TIP3    H136627   5.365   3.478  19.052
 4144TIP3    H236628   5.417   3.541  18.924
 4145TIP3   OH236629   5.317   3.249  18.900
 4145TIP3    H136630   5.344   3.321  18.843
 4145TIP3    H236631   5.395   3.193  18.907
 4146TIP3   OH236632   6.523   3.528  18.902
 4146TIP3    H136633   6.549   3.499  18.815
 4146TIP3    H236634   6.525   3.624  18.898
 4147TIP3   OH236635   5.594   4.485  19.062
 4147TIP3    H136636   5.652   4.445  18.997
 4147TIP3    H236637   5.562   4.565  19.020
 4148TIP3   OH236638   4.735   3.844  18.985
 4148TIP3    H136639   4.830   3.834  18.993
 4148TIP3    H236640   4.709   3.774  18.924
 4149TIP3   OH236641   4.473   4.465  19.502
 4149TIP3    H136642   4.421   4.411  19.443
 4149TIP3    H236643   4.544   4.409  19.531
 4150TIP3   OH236644   4.690   4.288  19.570
 4150TIP3    H136645   4.688   4.195  19.592
 4150TIP3    H236646   4.751   4.327  19.633
 4151TIP3   OH236647   6.806   3.420  19.244
 4151TIP3    H136648   6.838   3.506  19.269
 4151TIP3    H236649   6.775   3.381  19.326
 4152TIP3   OH236650   6.699   3.280  19.472
 4152TIP3    H136651   6.651   3.215  19.420
 4152TIP3    H236652   6.637   3.306  19.540
 4153TIP3   OH236653   6.724   3.906  19.782
 4153TIP3    H136654   6.769   3.824  19.799
 4153TIP3    H236655   6.634   3.880  19.759
 4154TIP3   OH236656   6.786   3.462  18.975
 4154TIP3    H136657   6.693   3.476  18.955
 4154TIP3    H236658   6.788   3.443  19.069
 4155TIP3   OH236659   6.442   2.931  18.860
 4155TIP3    H136660   6.489   2.965  18.783
 4155TIP3    H236661   6.455   2.836  18.856
 4156TIP3   OH236662   6.521   3.101  19.355
 4156TIP3    H136663   6.504   3.009  19.375
 4156TIP3    H236664   6.440   3.146  19.380
 4157TIP3   OH236665   4.744   3.546  19.752
 4157TIP3    H136666   4.741   3.451  19.742
 4157TIP3    H236667   4.837   3.567  19.754
 4158TIP3   OH236668   6.469   2.656  18.870
 4158TIP3    H136669   6.512   2.612  18.944
 4158TIP3    H236670   6.378   2.626  18.874
 4159TIP3   OH236671   6.464   2.826  19.345
 4159TIP3    H136672   6.487   2.734  19.358
 4159TIP3    H236673   6.493   2.846  19.257
 4160TIP3   OH236674   6.423   3.119  19.691
 4160TIP3    H136675   6.507   3.082  19.718
 4160TIP3    H236676   6.358   3.056  19.724
 4161TIP3   OH236677   6.511   2.553  19.360
 4161TIP3    H136678   6.527   2.503  19.440
 4161TIP3    H236679   6.439   2.508  19.317
 4162TIP3   OH236680   4.735   2.584  19.669
 4162TIP3    H136681   4.786   2.504  19.681
 4162TIP3    H236682   4.778   2.648  19.726
 4163TIP3   OH236683   4.539   3.120  19.656
 4163TIP3    H136684   4.599   3.046  19.668
 4163TIP3    H236685   4.595   3.197  19.667
 4164TIP3   OH236686   6.670   2.535  19.028
 4164TIP3    H136687   6.710   2.501  18.948
 4164TIP3    H236688   6.713   2.620  19.041
 4165TIP3   OH236689   4.582   2.572  19.182
 4165TIP3    H136690   4.571   2.580  19.277
 4165TIP3    H236691   4.610   2.659  19.154
 4166TIP3   OH236692   6.374   4.284  19.509
 4166TIP3    H136693   6.449   4.264  19.453
 4166TIP3    H236694   6.402   4.358  19.562
 4167TIP3   OH236695   4.893   4.365  19.752
 4167TIP3    H136696   4.868   4.350  19.843
 4167TIP3    H236697   4.953   4.293  19.731
 4168TIP3   OH236698   5.063   4.150  19.701
 4168TIP3    H136699   5.042   4.057  19.691
 4168TIP3    H236700   5.139   4.151  19.759
 4169TIP3   OH236701   5.278   4.094  19.863
 4169TIP3    H136702   5.301   4.013  19.818
 4169TIP3    H236703   5.324   4.089  19.947
 4170TIP3   OH236704   5.881   2.532  19.681
 4170TIP3    H136705   5.790   2.552  19.664
 4170TIP3    H236706   5.895   2.446  19.641
 4171TIP3   OH236707   6.418   2.197  19.668
 4171TIP3    H136708   6.479   2.264  19.637
 4171TIP3    H236709   6.343   2.246  19.701
 4172TIP3   OH236710   6.590   2.392  19.574
 4172TIP3    H136711   6.643   2.322  19.536
 4172TIP3    H236712   6.653   2.457  19.602
 4173TIP3   OH236713   4.939   2.324  19.407
 4173TIP3    H136714   4.878   2.333  19.334
 4173TIP3    H236715   4.969   2.233  19.403
 4174TIP3   OH236716   4.772   2.364  19.185
 4174TIP3    H136717   4.812   2.374  19.098
 4174TIP3    H236718   4.703   2.430  19.187
 4175TIP3   OH236719   5.414   2.142  19.486
 4175TIP3    H136720   5.498   2.188  19.478
 4175TIP3    H236721   5.380   2.171  19.570
 4176TIP3   OH236722   5.897   2.295  19.534
 4176TIP3    H136723   5.901   2.264  19.443
 4176TIP3    H236724   5.907   2.215  19.586
 4177TIP3   OH236725   6.301   2.409  19.239
 4177TIP3    H136726   6.229   2.472  19.241
 4177TIP3    H236727   6.259   2.324  19.248
 4178TIP3   OH236728   4.746   4.414  19.098
 4178TIP3    H136729   4.657   4.392  19.070
 4178TIP3    H236730   4.752   4.509  19.087
 4179TIP3   OH236731   4.970   2.679  18.804
 4179TIP3    H136732   4.995   2.587  18.814
 4179TIP3    H236733   4.979   2.716  18.892
 4180TIP3   OH236734   5.650   2.660  19.201
 4180TIP3    H136735   5.706   2.591  19.238
 4180TIP3    H236736   5.661   2.734  19.260
 4181TIP3   OH236737   5.825   4.317  18.966
 4181TIP3    H136738   5.917   4.332  18.946
 4181TIP3    H236739   5.791   4.270  18.890
 4182TIP3   OH236740   6.580   4.247  19.330
 4182TIP3    H136741   6.561   4.161  19.293
 4182TIP3    H236742   6.574   4.307  19.255
 4183TIP3   OH236743   4.938   4.397  18.852
 4183TIP3    H136744   4.905   4.378  18.940
 4183TIP3    H236745   4.988   4.319  18.828
 4184TIP3   OH236746   8.257   3.531  19.448
 4184TIP3    H136747   8.215   3.616  19.438
 4184TIP3    H236748   8.248   3.489  19.363
 4185TIP3   OH236749   8.008   3.408  19.888
 4185TIP3    H136750   7.991   3.381  19.978
 4185TIP3    H236751   8.027   3.327  19.841
 4186TIP3   OH236752   8.481   3.661  19.666
 4186TIP3    H136753   8.428   3.698  19.735
 4186TIP3    H236754   8.571   3.687  19.687
 4187TIP3   OH236755   7.296   3.887  19.781
 4187TIP3    H136756   7.234   3.815  19.786
 4187TIP3    H236757   7.316   3.908  19.873
 4188TIP3   OH236758   6.896   2.904  19.417
 4188TIP3    H136759   6.846   2.970  19.369
 4188TIP3    H236760   6.849   2.822  19.399
 4189TIP3   OH236761   6.920   3.280  19.646
 4189TIP3    H136762   6.935   3.187  19.666
 4189TIP3    H236763   6.852   3.279  19.579
 4190TIP3   OH236764   8.304   4.370  19.613
 4190TIP3    H136765   8.295   4.295  19.554
 4190TIP3    H236766   8.383   4.351  19.664
 4191TIP3   OH236767   7.853   3.628  19.808
 4191TIP3    H136768   7.897   3.546  19.830
 4191TIP3    H236769   7.922   3.695  19.815
 4192TIP3   OH236770   8.194   2.925  19.761
 4192TIP3    H136771   8.182   2.830  19.756
 4192TIP3    H236772   8.255   2.945  19.690
 4193TIP3   OH236773   7.368   2.724  19.607
 4193TIP3    H136774   7.401   2.799  19.558
 4193TIP3    H236775   7.315   2.675  19.544
 4194TIP3   OH236776   8.450   2.750  19.457
 4194TIP3    H136777   8.470   2.717  19.544
 4194TIP3    H236778   8.534   2.782  19.423
 4195TIP3   OH236779   6.938   2.994  19.676
 4195TIP3    H136780   7.008   2.938  19.711
 4195TIP3    H236781   6.926   2.962  19.586
 4196TIP3   OH236782   7.509   3.145  19.589
 4196TIP3    H136783   7.589   3.100  19.616
 4196TIP3    H236784   7.465   3.083  19.531
 4197TIP3   OH236785   8.155   3.779  19.384
 4197TIP3    H136786   8.122   3.776  19.294
 4197TIP3    H236787   8.126   3.863  19.418
 4198TIP3   OH236788   8.448   2.647  19.715
 4198TIP3    H136789   8.353   2.639  19.721
 4198TIP3    H236790   8.474   2.685  19.798
 4199TIP3   OH236791   7.155   2.821  19.765
 4199TIP3    H136792   7.193   2.858  19.844
 4199TIP3    H236793   7.231   2.798  19.711
 4200TIP3   OH236794   6.902   3.691  19.230
 4200TIP3    H136795   6.894   3.734  19.145
 4200TIP3    H236796   6.860   3.752  19.291
 4201TIP3   OH236797   8.724   3.741  19.751
 4201TIP3    H136798   8.796   3.680  19.765
 4201TIP3    H236799   8.764   3.828  19.760
 4202TIP3   OH236800   7.735   2.371  19.633
 4202TIP3    H136801   7.729   2.288  19.680
 4202TIP3    H236802   7.650   2.413  19.649
 4203TIP3   OH236803   8.358   4.155  19.438
 4203TIP3    H136804   8.376   4.062  19.454
 4203TIP3    H236805   8.443   4.198  19.449
 4204TIP3   OH236806   8.394   3.883  19.487
 4204TIP3    H136807   8.321   3.840  19.444
 4204TIP3    H236808   8.443   3.812  19.529
 4205TIP3   OH236809   8.252   3.415  19.199
 4205TIP3    H136810   8.210   3.457  19.124
 4205TIP3    H236811   8.334   3.379  19.164
 4206TIP3   OH236812   8.244   3.163  18.962
 4206TIP3    H136813   8.316   3.209  19.006
 4206TIP3    H236814   8.277   3.074  18.949
 4207TIP3   OH236815   8.508   3.341  19.413
 4207TIP3    H136816   8.434   3.292  19.377
 4207TIP3    H236817   8.578   3.276  19.423
 4208TIP3   OH236818   7.441   3.597  19.451
 4208TIP3    H136819   7.409   3.558  19.370
 4208TIP3    H236820   7.448   3.524  19.513
 4209TIP3   OH236821   7.635   3.726  19.668
 4209TIP3    H136822   7.682   3.736  19.585
 4209TIP3    H236823   7.699   3.691  19.729
 4210TIP3   OH236824   7.452   3.408  19.652
 4210TIP3    H136825   7.455   3.316  19.624
 4210TIP3    H236826   7.520   3.414  19.720
 4211TIP3   OH236827   8.463   3.299  19.072
 4211TIP3    H136828   8.554   3.295  19.103
 4211TIP3    H236829   8.469   3.345  18.989
 4212TIP3   OH236830   8.099   4.044  19.421
 4212TIP3    H136831   8.180   4.094  19.431
 4212TIP3    H236832   8.065   4.071  19.336
 4213TIP3   OH236833   8.773   2.246  19.122
 4213TIP3    H136834   8.690   2.279  19.156
 4213TIP3    H236835   8.821   2.324  19.097
 4214TIP3   OH236836   7.359   3.468  19.222
 4214TIP3    H136837   7.281   3.510  19.186
 4214TIP3    H236838   7.340   3.374  19.218
 4215TIP3   OH236839   8.827   4.073  18.870
 4215TIP3    H136840   8.824   4.168  18.880
 4215TIP3    H236841   8.850   4.059  18.778
 4216TIP3   OH236842   6.813   4.170  19.759
 4216TIP3    H136843   6.787   4.078  19.769
 4216TIP3    H236844   6.733   4.220  19.775
 4217TIP3   OH236845   8.079   4.482  19.289
 4217TIP3    H136846   8.008   4.463  19.227
 4217TIP3    H236847   8.057   4.569  19.324
 4218TIP3   OH236848   7.313   4.302  19.472
 4218TIP3    H136849   7.300   4.271  19.561
 4218TIP3    H236850   7.244   4.258  19.421
 4219TIP3   OH236851   8.348   4.325  18.964
 4219TIP3    H136852   8.390   4.241  18.945
 4219TIP3    H236853   8.354   4.333  19.059
 4220TIP3   OH236854   8.329   4.368  19.243
 4220TIP3    H136855   8.242   4.404  19.258
 4220TIP3    H236856   8.335   4.293  19.303
 4221TIP3   OH236857   7.487   2.483  19.689
 4221TIP3    H136858   7.411   2.431  19.714
 4221TIP3    H236859   7.452   2.571  19.672
 4222TIP3   OH236860   8.487   3.440  18.840
 4222TIP3    H136861   8.499   3.412  18.749
 4222TIP3    H236862   8.569   3.483  18.864
 4223TIP3   OH236863   8.068   2.721  18.856
 4223TIP3    H136864   8.030   2.674  18.931
 4223TIP3    H236865   7.992   2.750  18.805
 4224TIP3   OH236866   7.424   2.933  19.431
 4224TIP3    H136867   7.332   2.921  19.409
 4224TIP3    H236868   7.472   2.903  19.354
 4225TIP3   OH236869   8.289   3.180  19.351
 4225TIP3    H136870   8.245   3.245  19.295
 4225TIP3    H236871   8.319   3.113  19.290
 4226TIP3   OH236872   8.356   3.003  19.551
 4226TIP3    H136873   8.328   3.063  19.482
 4226TIP3    H236874   8.379   2.922  19.505
 4227TIP3   OH236875   7.622   2.683  18.911
 4227TIP3    H136876   7.555   2.648  18.969
 4227TIP3    H236877   7.582   2.760  18.871
 4228TIP3   OH236878   6.787   2.580  19.601
 4228TIP3    H136879   6.878   2.574  19.629
 4228TIP3    H236880   6.791   2.617  19.513
 4229TIP3   OH236881   6.777   2.786  19.080
 4229TIP3    H136882   6.843   2.844  19.043
 4229TIP3    H236883   6.698   2.840  19.088
 4230TIP3   OH236884   7.773   2.695  19.523
 4230TIP3    H136885   7.694   2.662  19.566
 4230TIP3    H236886   7.845   2.646  19.563
 4231TIP3   OH236887   7.169   2.850  19.387
 4231TIP3    H136888   7.077   2.876  19.393
 4231TIP3    H236889   7.167   2.754  19.386
 4232TIP3   OH236890   7.557   2.833  19.207
 4232TIP3    H136891   7.647   2.801  19.218
 4232TIP3    H236892   7.564   2.906  19.145
 4233TIP3   OH236893   8.171   2.642  19.756
 4233TIP3    H136894   8.139   2.616  19.842
 4233TIP3    H236895   8.109   2.603  19.695
 4234TIP3   OH236896   7.596   3.033  19.026
 4234TIP3    H136897   7.573   3.001  18.939
 4234TIP3    H236898   7.613   3.126  19.013
 4235TIP3   OH236899   8.098   3.183  19.762
 4235TIP3    H136900   8.098   3.185  19.666
 4235TIP3    H236901   8.125   3.093  19.784
 4236TIP3   OH236902   7.199   2.577  19.440
 4236TIP3    H136903   7.132   2.572  19.507
 4236TIP3    H236904   7.223   2.485  19.424
 4237TIP3   OH236905   7.764   3.754  19.136
 4237TIP3    H136906   7.708   3.688  19.096
 4237TIP3    H236907   7.739   3.754  19.228
 4238TIP3   OH236908   8.250   2.630  19.092
 4238TIP3    H136909   8.155   2.620  19.090
 4238TIP3    H236910   8.266   2.713  19.047
 4239TIP3   OH236911   8.404   2.972  19.220
 4239TIP3    H136912   8.486   2.929  19.243
 4239TIP3    H236913   8.391   2.952  19.127
 4240TIP3   OH236914   7.262   3.614  19.702
 4240TIP3    H136915   7.170   3.591  19.710
 4240TIP3    H236916   7.308   3.530  19.694
 4241TIP3   OH236917   8.037   3.826  19.135
 4241TIP3    H136918   8.029   3.922  19.141
 4241TIP3    H236919   7.947   3.795  19.127
 4242TIP3   OH236920   8.757   3.059  19.142
 4242TIP3    H136921   8.727   3.018  19.061
 4242TIP3    H236922   8.749   3.153  19.127
 4243TIP3   OH236923   8.777   4.084  19.151
 4243TIP3    H136924   8.711   4.016  19.159
 4243TIP3    H236925   8.805   4.079  19.059
 4244TIP3   OH236926   8.272   3.436  19.782
 4244TIP3    H136927   8.184   3.453  19.815
 4244TIP3    H236928   8.288   3.344  19.804
 4245TIP3   OH236929   7.448   3.951  19.457
 4245TIP3    H136930   7.499   4.032  19.461
 4245TIP3    H236931   7.375   3.972  19.398
 4246TIP3   OH236932   7.042   3.358  18.968
 4246TIP3    H136933   7.088   3.427  19.016
 4246TIP3    H236934   6.950   3.386  18.968
 4247TIP3   OH236935   7.650   3.763  19.387
 4247TIP3    H136936   7.597   3.843  19.391
 4247TIP3    H236937   7.587   3.692  19.394
 4248TIP3   OH236938   7.570   4.212  19.440
 4248TIP3    H136939   7.484   4.253  19.436
 4248TIP3    H236940   7.630   4.283  19.463
 4249TIP3   OH236941   8.518   3.828  19.020
 4249TIP3    H136942   8.540   3.766  19.089
 4249TIP3    H236943   8.427   3.810  18.999
 4250TIP3   OH236944   8.818   4.349  18.904
 4250TIP3    H136945   8.839   4.428  18.855
 4250TIP3    H236946   8.793   4.380  18.991
 4251TIP3   OH236947   8.577   3.627  19.209
 4251TIP3    H136948   8.518   3.569  19.257
 4251TIP3    H236949   8.665   3.597  19.233
 4252TIP3   OH236950   7.792   3.951  18.750
 4252TIP3    H136951   7.738   3.873  18.733
 4252TIP3    H236952   7.767   3.978  18.838
 4253TIP3   OH236953   7.722   4.000  19.009
 4253TIP3    H136954   7.736   3.919  19.058
 4253TIP3    H236955   7.728   4.070  19.075
 4254TIP3   OH236956   7.136   3.585  19.116
 4254TIP3    H136957   7.057   3.609  19.165
 4254TIP3    H236958   7.158   3.664  19.066
 4255TIP3   OH236959   8.339   2.530  19.329
 4255TIP3    H136960   8.319   2.564  19.242
 4255TIP3    H236961   8.374   2.605  19.377
 4256TIP3   OH236962   8.005   4.103  19.166
 4256TIP3    H136963   7.916   4.132  19.183
 4256TIP3    H236964   8.038   4.164  19.100
 4257TIP3   OH236965   7.826   2.772  19.267
 4257TIP3    H136966   7.863   2.859  19.280
 4257TIP3    H236967   7.806   2.741  19.355
 4258TIP3   OH236968   8.062   2.479  19.345
 4258TIP3    H136969   8.024   2.519  19.266
 4258TIP3    H236970   8.154   2.505  19.343
 4259TIP3   OH236971   7.751   4.204  19.200
 4259TIP3    H136972   7.773   4.293  19.174
 4259TIP3    H236973   7.691   4.215  19.274
 4260TIP3   OH236974   7.413   2.626  19.089
 4260TIP3    H136975   7.449   2.704  19.133
 4260TIP3    H236976   7.375   2.575  19.160
 4261TIP3   OH236977   8.461   3.230  19.689
 4261TIP3    H136978   8.424   3.151  19.651
 4261TIP3    H236979   8.550   3.205  19.715
 4262TIP3   OH236980   7.213   3.816  18.967
 4262TIP3    H136981   7.238   3.906  18.946
 4262TIP3    H236982   7.279   3.762  18.923
 4263TIP3   OH236983   6.931   2.998  18.986
 4263TIP3    H136984   6.950   3.072  19.044
 4263TIP3    H236985   6.952   3.031  18.898
 4264TIP3   OH236986   8.756   4.361  19.790
 4264TIP3    H136987   8.686   4.416  19.755
 4264TIP3    H236988   8.825   4.364  19.723
 4265TIP3   OH236989   7.229   2.355  19.715
 4265TIP3    H136990   7.233   2.338  19.621
 4265TIP3    H236991   7.193   2.274  19.753
 4266TIP3   OH236992   7.104   4.192  19.344
 4266TIP3    H136993   7.036   4.211  19.409
 4266TIP3    H236994   7.069   4.228  19.262
 4267TIP3   OH236995   8.009   4.132  18.746
 4267TIP3    H136996   7.935   4.071  18.748
 4267TIP3    H236997   8.087   4.076  18.742
 4268TIP3   OH236998   8.464   4.083  18.879
 4268TIP3    H136999   8.504   4.009  18.925
 4268TIP3    H237000   8.522   4.100  18.805
 4269TIP3   OH237001   7.413   3.664  18.853
 4269TIP3    H137002   7.466   3.624  18.922
 4269TIP3    H237003   7.477   3.697  18.790
 4270TIP3   OH237004   8.247   3.761  18.966
 4270TIP3    H137005   8.177   3.783  19.027
 4270TIP3    H237006   8.235   3.668  18.948
 4271TIP3   OH237007   7.574   3.551  19.061
 4271TIP3    H137008   7.504   3.525  19.121
 4271TIP3    H237009   7.611   3.468  19.031
 4272TIP3   OH237010   7.686   3.306  18.986
 4272TIP3    H137011   7.690   3.283  18.894
 4272TIP3    H237012   7.777   3.303  19.015
 4273TIP3   OH237013   8.748   3.516  18.891
 4273TIP3    H137014   8.791   3.485  18.811
 4273TIP3    H237015   8.764   3.610  18.892
 4274TIP3   OH237016   7.872   4.444  19.101
 4274TIP3    H137017   7.932   4.399  19.041
 4274TIP3    H237018   7.841   4.520  19.051
 4275TIP3   OH237019   6.934   3.819  18.982
 4275TIP3    H137020   7.028   3.834  18.980
 4275TIP3    H237021   6.918   3.756  18.911
 4276TIP3   OH237022   6.752   4.434  19.438
 4276TIP3    H137023   6.696   4.363  19.407
 4276TIP3    H237024   6.827   4.389  19.478
 4277TIP3   OH237025   6.955   4.286  19.558
 4277TIP3    H137026   6.900   4.235  19.618
 4277TIP3    H237027   7.014   4.335  19.615
 4278TIP3   OH237028   8.819   3.511  19.299
 4278TIP3    H137029   8.886   3.578  19.315
 4278TIP3    H237030   8.844   3.439  19.358
 4279TIP3   OH237031   8.885   3.288  19.446
 4279TIP3    H137032   8.807   3.233  19.448
 4279TIP3    H237033   8.931   3.267  19.528
 4280TIP3   OH237034   9.203   3.678  19.756
 4280TIP3    H137035   0.078   3.651  19.754
 4280TIP3    H237036   9.206   3.774  19.749
 4281TIP3   OH237037   8.736   3.334  19.102
 4281TIP3    H137038   8.745   3.387  19.023
 4281TIP3    H237039   8.767   3.391  19.173
 4282TIP3   OH237040   8.658   2.920  18.925
 4282TIP3    H137041   8.692   2.946  18.839
 4282TIP3    H237042   8.665   2.824  18.926
 4283TIP3   OH237043   8.670   3.119  19.468
 4283TIP3    H137044   8.663   3.033  19.427
 4283TIP3    H237045   8.679   3.102  19.561
 4284TIP3   OH237046   7.000   3.534  19.726
 4284TIP3    H137047   6.980   3.445  19.699
 4284TIP3    H237048   6.916   3.572  19.749
 4285TIP3   OH237049   8.634   2.641  18.960
 4285TIP3    H137050   8.646   2.609  19.049
 4285TIP3    H237051   8.554   2.598  18.929
 4286TIP3   OH237052   8.668   2.870  19.322
 4286TIP3    H137053   8.724   2.793  19.314
 4286TIP3    H237054   8.705   2.933  19.261
 4287TIP3   OH237055   8.723   3.127  19.741
 4287TIP3    H137056   8.813   3.156  19.722
 4287TIP3    H237057   8.729   3.087  19.828
 4288TIP3   OH237058   8.735   2.527  19.321
 4288TIP3    H137059   8.764   2.491  19.405
 4288TIP3    H237060   8.668   2.465  19.291
 4289TIP3   OH237061   7.054   2.575  19.673
 4289TIP3    H137062   7.106   2.505  19.714
 4289TIP3    H237063   7.077   2.653  19.722
 4290TIP3   OH237064   6.667   3.000  19.761
 4290TIP3    H137065   6.758   3.014  19.734
 4290TIP3    H237066   6.666   2.912  19.797
 4291TIP3   OH237067   8.925   2.449  18.996
 4291TIP3    H137068   8.960   2.380  18.940
 4291TIP3    H237069   8.893   2.516  18.935
 4292TIP3   OH237070   6.763   2.675  19.337
 4292TIP3    H137071   6.681   2.626  19.338
 4292TIP3    H237072   6.773   2.701  19.245
 4293TIP3   OH237073   8.583   4.299  19.479
 4293TIP3    H137074   8.666   4.293  19.431
 4293TIP3    H237075   8.594   4.375  19.536
 4294TIP3   OH237076   7.125   4.387  19.756
 4294TIP3    H137077   7.064   4.363  19.826
 4294TIP3    H237078   7.188   4.315  19.754
 4295TIP3   OH237079   7.299   4.173  19.723
 4295TIP3    H137080   7.276   4.080  19.730
 4295TIP3    H237081   7.394   4.174  19.734
 4296TIP3   OH237082   7.573   4.160  19.718
 4296TIP3    H137083   7.588   4.175  19.625
 4296TIP3    H237084   7.657   4.177  19.760
 4297TIP3   OH237085   7.972   2.516  19.606
 4297TIP3    H137086   7.900   2.456  19.623
 4297TIP3    H237087   8.002   2.494  19.517
 4298TIP3   OH237088   8.558   2.397  19.647
 4298TIP3    H137089   8.650   2.410  19.624
 4298TIP3    H237090   8.527   2.485  19.668
 4299TIP3   OH237091   8.819   2.400  19.557
 4299TIP3    H137092   8.838   2.307  19.565
 4299TIP3    H237093   8.905   2.442  19.555
 4300TIP3   OH237094   7.253   2.306  19.443
 4300TIP3    H137095   7.181   2.249  19.414
 4300TIP3    H237096   7.328   2.247  19.449
 4301TIP3   OH237097   7.034   2.418  19.036
 4301TIP3    H137098   7.098   2.468  18.985
 4301TIP3    H237099   6.972   2.483  19.067
 4302TIP3   OH237100   7.740   2.194  19.402
 4302TIP3    H137101   7.789   2.216  19.322
 4302TIP3    H237102   7.748   2.272  19.456
 4303TIP3   OH237103   8.316   2.291  19.489
 4303TIP3    H137104   8.324   2.377  19.448
 4303TIP3    H237105   8.243   2.249  19.442
 4304TIP3   OH237106   8.533   2.340  19.240
 4304TIP3    H137107   8.465   2.400  19.271
 4304TIP3    H237108   8.490   2.255  19.236
 4305TIP3   OH237109   7.003   4.332  19.128
 4305TIP3    H137110   6.917   4.298  19.103
 4305TIP3    H237111   6.993   4.427  19.127
 4306TIP3   OH237112   7.232   2.544  18.884
 4306TIP3    H137113   7.273   2.469  18.842
 4306TIP3    H237114   7.299   2.579  18.943
 4307TIP3   OH237115   7.973   2.602  19.104
 4307TIP3    H137116   7.914   2.544  19.056
 4307TIP3    H237117   7.915   2.663  19.150
 4308TIP3   OH237118   8.066   4.291  18.967
 4308TIP3    H137119   8.158   4.315  18.956
 4308TIP3    H237120   8.043   4.245  18.886
 4309TIP3   OH237121   8.816   4.297  19.325
 4309TIP3    H137122   8.812   4.216  19.274
 4309TIP3    H237123   8.805   4.367  19.260
 4310TIP3   OH237124   7.108   4.339  18.865
 4310TIP3    H137125   7.084   4.327  18.957
 4310TIP3    H237126   7.178   4.275  18.850
 4311TIP3   OH237127   9.003   3.106  19.269
 4311TIP3    H137128   8.972   3.180  19.321
 4311TIP3    H237129   8.928   3.080  19.217
 4312TIP3   OH237130   0.005   3.960  19.769
 4312TIP3    H137131   0.099   3.972  19.781
 4312TIP3    H237132   9.183   4.003  19.845
 4313TIP3   OH237133   9.066   2.500  19.506
 4313TIP3    H137134   9.156   2.471  19.520
 4313TIP3    H237135   9.062   2.523  19.413
 4314TIP3   OH237136   8.927   4.388  19.565
 4314TIP3    H137137   8.898   4.350  19.482
 4314TIP3    H237138   9.005   4.338  19.588
 4315TIP3   OH237139   9.150   4.229  19.630
 4315TIP3    H137140   9.142   4.133  19.632
 4315TIP3    H237141   0.016   4.247  19.675
 4316TIP3   OH237142   9.169   3.391  19.736
 4316TIP3    H137143   0.037   3.351  19.721
 4316TIP3    H237144   9.187   3.485  19.740
 4317TIP3   OH237145   8.989   3.190  19.687
 4317TIP3    H137146   9.048   3.115  19.681
 4317TIP3    H237147   9.046   3.263  19.712
 4318TIP3   OH237148   9.009   2.557  19.239
 4318TIP3    H137149   8.919   2.562  19.269
 4318TIP3    H237150   9.003   2.518  19.152
 4319TIP3   OH237151   1.522   5.794  19.405
 4319TIP3    H137152   1.488   5.883  19.393
 4319TIP3    H237153   1.462   5.738  19.354
 4320TIP3   OH237154   1.146   5.664  19.775
 4320TIP3    H137155   1.239   5.678  19.793
 4320TIP3    H237156   1.140   5.571  19.752
 4321TIP3   OH237157   1.719   6.006  19.646
 4321TIP3    H137158   1.709   5.911  19.650
 4321TIP3    H237159   1.760   6.030  19.728
 4322TIP3   OH237160   0.541   6.140  19.691
 4322TIP3    H137161   0.522   6.056  19.650
 4322TIP3    H237162   0.629   6.129  19.728
 4323TIP3   OH237163   0.159   5.249  19.301
 4323TIP3    H137164   0.185   5.324  19.247
 4323TIP3    H237165   0.076   5.276  19.340
 4324TIP3   OH237166   0.220   5.514  19.727
 4324TIP3    H137167   0.233   5.419  19.727
 4324TIP3    H237168   0.276   5.546  19.657
 4325TIP3   OH237169   1.571   6.671  19.642
 4325TIP3    H137170   1.568   6.595  19.584
 4325TIP3    H237171   1.634   6.647  19.710
 4326TIP3   OH237172   1.014   5.911  19.779
 4326TIP3    H137173   1.038   5.819  19.772
 4326TIP3    H237174   1.095   5.955  19.801
 4327TIP3   OH237175   1.342   5.164  19.759
 4327TIP3    H137176   1.400   5.109  19.813
 4327TIP3    H237177   1.400   5.204  19.694
 4328TIP3   OH237178   0.591   5.002  19.646
 4328TIP3    H137179   0.621   5.085  19.609
 4328TIP3    H237180   0.549   4.957  19.572
 4329TIP3   OH237181   1.612   5.094  19.400
 4329TIP3    H137182   1.619   5.048  19.484
 4329TIP3    H237183   1.700   5.089  19.363
 4330TIP3   OH237184   0.254   5.241  19.691
 4330TIP3    H137185   0.291   5.180  19.755
 4330TIP3    H237186   0.288   5.210  19.607
 4331TIP3   OH237187   0.711   5.502  19.579
 4331TIP3    H137188   0.803   5.481  19.593
 4331TIP3    H237189   0.670   5.419  19.556
 4332TIP3   OH237190   1.414   6.052  19.346
 4332TIP3    H137191   1.366   6.052  19.263
 4332TIP3    H237192   1.388   6.134  19.388
 4333TIP3   OH237193   1.606   4.956  19.632
 4333TIP3    H137194   1.579   4.965  19.724
 4333TIP3    H237195   1.603   4.862  19.616
 4334TIP3   OH237196   0.401   5.052  19.837
 4334TIP3    H137197   0.441   5.047  19.923
 4334TIP3    H237198   0.474   5.037  19.776
 4335TIP3   OH237199   0.446   6.168  19.221
 4335TIP3    H137200   0.374   6.138  19.166
 4335TIP3    H237201   0.415   6.249  19.260
 4336TIP3   OH237202   1.841   6.118  19.867
 4336TIP3    H137203   1.874   6.131  19.956
 4336TIP3    H237204   1.853   6.203  19.825
 4337TIP3   OH237205   0.925   4.620  19.672
 4337TIP3    H137206   0.911   4.546  19.731
 4337TIP3    H237207   0.848   4.675  19.684
 4338TIP3   OH237208   1.606   6.460  19.447
 4338TIP3    H137209   1.624   6.366  19.451
 4338TIP3    H237210   1.692   6.502  19.450
 4339TIP3   OH237211   1.641   6.188  19.455
 4339TIP3    H137212   1.582   6.133  19.405
 4339TIP3    H237213   1.677   6.131  19.523
 4340TIP3   OH237214   1.404   5.609  19.223
 4340TIP3    H137215   1.388   5.667  19.149
 4340TIP3    H237216   1.486   5.565  19.202
 4341TIP3   OH237217   1.340   5.458  18.935
 4341TIP3    H137218   1.380   5.419  19.012
 4341TIP3    H237219   1.365   5.400  18.863
 4342TIP3   OH237220   1.759   5.690  19.292
 4342TIP3    H137221   1.686   5.736  19.334
 4342TIP3    H237222   1.816   5.663  19.364
 4343TIP3   OH237223   0.679   5.732  19.409
 4343TIP3    H137224   0.690   5.691  19.324
 4343TIP3    H237225   0.693   5.661  19.472
 4344TIP3   OH237226   0.819   6.105  19.735
 4344TIP3    H137227   0.831   6.118  19.640
 4344TIP3    H237228   0.878   6.032  19.756
 4345TIP3   OH237229   0.580   5.668  19.761
 4345TIP3    H137230   0.618   5.606  19.699
 4345TIP3    H237231   0.638   5.666  19.837
 4346TIP3   OH237232   1.641   5.500  19.127
 4346TIP3    H137233   1.694   5.555  19.184
 4346TIP3    H237234   1.664   5.528  19.038
 4347TIP3   OH237235   1.354   6.315  19.417
 4347TIP3    H137236   1.437   6.360  19.435
 4347TIP3    H237237   1.294   6.386  19.395
 4348TIP3   OH237238   1.998   4.513  19.150
 4348TIP3    H137239   1.903   4.525  19.161
 4348TIP3    H237240   2.030   4.600  19.126
 4349TIP3   OH237241   0.709   5.595  19.168
 4349TIP3    H137242   0.627   5.595  19.119
 4349TIP3    H237243   0.750   5.511  19.145
 4350TIP3   OH237244   2.168   6.223  18.938
 4350TIP3    H137245   2.187   6.271  18.857
 4350TIP3    H237246   2.253   6.191  18.968
 4351TIP3   OH237247   0.274   6.232  19.783
 4351TIP3    H137248   0.338   6.196  19.721
 4351TIP3    H237249   0.309   6.212  19.869
 4352TIP3   OH237250   1.288   6.752  19.237
 4352TIP3    H137251   1.216   6.724  19.180
 4352TIP3    H237252   1.271   6.845  19.253
 4353TIP3   OH237253   0.535   6.534  19.471
 4353TIP3    H137254   0.527   6.497  19.559
 4353TIP3    H237255   0.472   6.486  19.419
 4354TIP3   OH237256   1.566   6.604  18.980
 4354TIP3    H137257   1.611   6.520  18.975
 4354TIP3    H237258   1.569   6.627  19.073
 4355TIP3   OH237259   1.551   6.666  19.251
 4355TIP3    H137260   1.458   6.690  19.255
 4355TIP3    H237261   1.562   6.597  19.316
 4356TIP3   OH237262   0.692   4.753  19.728
 4356TIP3    H137263   0.607   4.710  19.736
 4356TIP3    H237264   0.671   4.844  19.708
 4357TIP3   OH237265   1.706   5.632  18.886
 4357TIP3    H137266   1.711   5.615  18.792
 4357TIP3    H237267   1.789   5.675  18.907
 4358TIP3   OH237268   1.178   4.867  19.007
 4358TIP3    H137269   1.131   4.904  19.082
 4358TIP3    H237270   1.135   4.783  18.990
 4359TIP3   OH237271   0.622   5.249  19.501
 4359TIP3    H137272   0.536   5.220  19.472
 4359TIP3    H237273   0.679   5.233  19.426
 4360TIP3   OH237274   1.301   5.370  19.346
 4360TIP3    H137275   1.309   5.462  19.320
 4360TIP3    H237276   1.358   5.323  19.285
 4361TIP3   OH237277   1.474   5.282  19.547
 4361TIP3    H137278   1.413   5.320  19.484
 4361TIP3    H237279   1.523   5.217  19.497
 4362TIP3   OH237280   0.779   4.806  18.960
 4362TIP3    H137281   0.780   4.856  19.042
 4362TIP3    H237282   0.707   4.844  18.910
 4363TIP3   OH237283   0.056   4.897  19.526
 4363TIP3    H137284   0.131   4.879  19.583
 4363TIP3    H237285   0.081   4.860  19.442
 4364TIP3   OH237286   0.145   5.035  19.124
 4364TIP3    H137287   0.173   5.080  19.043
 4364TIP3    H237288   0.146   5.103  19.191
 4365TIP3   OH237289   1.166   5.038  19.586
 4365TIP3    H137290   1.221   5.076  19.654
 4365TIP3    H237291   1.160   4.945  19.608
 4366TIP3   OH237292   0.368   5.137  19.452
 4366TIP3    H137293   0.295   5.161  19.396
 4366TIP3    H237294   0.378   5.043  19.440
 4367TIP3   OH237295   0.815   5.222  19.300
 4367TIP3    H137296   0.904   5.211  19.335
 4367TIP3    H237297   0.826   5.279  19.224
 4368TIP3   OH237298   1.523   4.995  19.898
 4368TIP3    H137299   1.594   5.035  19.948
 4368TIP3    H237300   1.496   4.919  19.949
 4369TIP3   OH237301   0.851   5.377  19.068
 4369TIP3    H137302   0.832   5.318  18.996
 4369TIP3    H237303   0.930   5.423  19.041
 4370TIP3   OH237304   1.186   5.399  19.700
 4370TIP3    H137305   1.207   5.386  19.608
 4370TIP3    H237306   1.224   5.323  19.745
 4371TIP3   OH237307   0.475   4.864  19.432
 4371TIP3    H137308   0.431   4.782  19.452
 4371TIP3    H237309   0.536   4.841  19.361
 4372TIP3   OH237310   0.994   5.987  19.169
 4372TIP3    H137311   0.989   5.902  19.125
 4372TIP3    H237312   0.919   5.989  19.228
 4373TIP3   OH237313   1.442   4.925  19.072
 4373TIP3    H137314   1.354   4.899  19.047
 4373TIP3    H237315   1.439   5.021  19.077
 4374TIP3   OH237316   1.501   5.261  19.192
 4374TIP3    H137317   1.550   5.201  19.249
 4374TIP3    H237318   1.566   5.327  19.167
 4375TIP3   OH237319   0.533   5.884  19.594
 4375TIP3    H137320   0.576   5.842  19.519
 4375TIP3    H237321   0.536   5.818  19.663
 4376TIP3   OH237322   1.251   6.087  19.119
 4376TIP3    H137323   1.227   6.177  19.095
 4376TIP3    H237324   1.168   6.045  19.141
 4377TIP3   OH237325   2.051   5.211  19.150
 4377TIP3    H137326   2.031   5.198  19.057
 4377TIP3    H237327   2.032   5.303  19.166
 4378TIP3   OH237328   1.981   6.327  19.118
 4378TIP3    H137329   1.944   6.248  19.157
 4378TIP3    H237330   2.048   6.295  19.057
 4379TIP3   OH237331   1.672   5.731  19.631
 4379TIP3    H137332   1.610   5.751  19.560
 4379TIP3    H237333   1.651   5.641  19.655
 4380TIP3   OH237334   0.759   6.213  19.477
 4380TIP3    H137335   0.794   6.299  19.455
 4380TIP3    H237336   0.673   6.231  19.516
 4381TIP3   OH237337   0.297   5.608  18.970
 4381TIP3    H137338   0.334   5.675  19.028
 4381TIP3    H237339   0.212   5.588  19.009
 4382TIP3   OH237340   0.741   5.992  19.305
 4382TIP3    H137341   0.750   6.058  19.373
 4382TIP3    H237342   0.724   5.911  19.353
 4383TIP3   OH237343   0.805   6.509  19.429
 4383TIP3    H137344   0.710   6.518  19.433
 4383TIP3    H237345   0.839   6.591  19.466
 4384TIP3   OH237346   1.747   6.089  19.024
 4384TIP3    H137347   1.791   6.028  19.084
 4384TIP3    H237348   1.659   6.052  19.013
 4385TIP3   OH237349   2.331   6.706  19.125
 4385TIP3    H137350   2.353   6.777  19.064
 4385TIP3    H237351   2.236   6.708  19.131
 4386TIP3   OH237352   1.893   5.914  19.176
 4386TIP3    H137353   1.853   5.833  19.209
 4386TIP3    H237354   1.986   5.901  19.190
 4387TIP3   OH237355   1.076   6.237  18.788
 4387TIP3    H137356   1.017   6.163  18.794
 4387TIP3    H237357   1.091   6.264  18.878
 4388TIP3   OH237358   0.838   6.220  19.115
 4388TIP3    H137359   0.914   6.162  19.120
 4388TIP3    H237360   0.872   6.307  19.137
 4389TIP3   OH237361   0.370   5.817  19.136
 4389TIP3    H137362   0.395   5.839  19.225
 4389TIP3    H237363   0.329   5.897  19.101
 4390TIP3   OH237364   1.481   4.845  19.336
 4390TIP3    H137365   1.481   4.850  19.241
 4390TIP3    H237366   1.525   4.925  19.364
 4391TIP3   OH237367   1.146   6.337  19.044
 4391TIP3    H137368   1.079   6.374  19.102
 4391TIP3    H237369   1.201   6.412  19.020
 4392TIP3   OH237370   1.081   5.191  19.378
 4392TIP3    H137371   1.152   5.255  19.365
 4392TIP3    H237372   1.107   5.143  19.456
 4393TIP3   OH237373   1.222   4.761  19.371
 4393TIP3    H137374   1.203   4.762  19.465
 4393TIP3    H237375   1.313   4.791  19.364
 4394TIP3   OH237376   0.948   6.460  19.192
 4394TIP3    H137377   0.965   6.545  19.152
 4394TIP3    H237378   0.903   6.481  19.274
 4395TIP3   OH237379   0.787   4.962  19.190
 4395TIP3    H137380   0.775   5.049  19.228
 4395TIP3    H237381   0.879   4.941  19.207
 4396TIP3   OH237382   1.656   5.460  19.664
 4396TIP3    H137383   1.592   5.396  19.631
 4396TIP3    H237384   1.739   5.414  19.659
 4397TIP3   OH237385   0.538   6.184  18.929
 4397TIP3    H137386   0.565   6.267  18.888
 4397TIP3    H237387   0.470   6.149  18.871
 4398TIP3   OH237388   0.229   5.199  18.910
 4398TIP3    H137389   0.302   5.181  18.851
 4398TIP3    H237390   0.180   5.269  18.867
 4399TIP3   OH237391   1.788   6.629  19.810
 4399TIP3    H137392   1.840   6.682  19.750
 4399TIP3    H237393   1.842   6.624  19.889
 4400TIP3   OH237394   0.441   4.629  19.729
 4400TIP3    H137395   0.431   4.607  19.637
 4400TIP3    H237396   0.429   4.547  19.775
 4401TIP3   OH237397   0.340   6.424  19.311
 4401TIP3    H137398   0.271   6.460  19.366
 4401TIP3    H237399   0.339   6.479  19.233
 4402TIP3   OH237400   1.291   6.406  18.733
 4402TIP3    H137401   1.220   6.343  18.741
 4402TIP3    H237402   1.371   6.354  18.747
 4403TIP3   OH237403   1.716   6.359  18.981
 4403TIP3    H137404   1.719   6.266  19.000
 4403TIP3    H237405   1.801   6.393  19.010
 4404TIP3   OH237406   0.750   5.942  18.972
 4404TIP3    H137407   0.806   5.869  19.000
 4404TIP3    H237408   0.795   5.978  18.895
 4405TIP3   OH237409   1.478   6.011  18.975
 4405TIP3    H137410   1.402   6.038  19.026
 4405TIP3    H237411   1.468   5.917  18.964
 4406TIP3   OH237412   0.923   5.740  19.058
 4406TIP3    H137413   0.857   5.690  19.106
 4406TIP3    H237414   0.979   5.673  19.018
 4407TIP3   OH237415   1.060   5.517  18.947
 4407TIP3    H137416   1.034   5.482  18.862
 4407TIP3    H237417   1.155   5.506  18.950
 4408TIP3   OH237418   1.961   5.746  18.877
 4408TIP3    H137419   1.991   5.715  18.792
 4408TIP3    H237420   1.962   5.842  18.868
 4409TIP3   OH237421   1.031   6.684  19.051
 4409TIP3    H137422   1.105   6.658  18.996
 4409TIP3    H237423   0.979   6.742  18.995
 4410TIP3   OH237424   0.254   6.056  19.049
 4410TIP3    H137425   0.282   6.074  18.959
 4410TIP3    H237426   0.158   6.055  19.044
 4411TIP3   OH237427   0.172   6.581  19.472
 4411TIP3    H137428   0.081   6.606  19.455
 4411TIP3    H237429   0.172   6.549  19.562
 4412TIP3   OH237430   0.168   6.491  19.735
 4412TIP3    H137431   0.199   6.401  19.752
 4412TIP3    H237432   0.233   6.546  19.779
 4413TIP3   OH237433   2.174   5.869  19.230
 4413TIP3    H137434   2.249   5.926  19.244
 4413TIP3    H237435   2.167   5.818  19.311
 4414TIP3   OH237436   2.150   5.723  19.464
 4414TIP3    H137437   2.061   5.692  19.478
 4414TIP3    H237438   2.203   5.673  19.526
 4415TIP3   OH237439   2.312   6.026  19.673
 4415TIP3    H137440   2.344   5.943  19.711
 4415TIP3    H237441   2.237   6.000  19.620
 4416TIP3   OH237442   2.222   5.775  18.974
 4416TIP3    H137443   2.135   5.750  18.945
 4416TIP3    H237444   2.209   5.811  19.061
 4417TIP3   OH237445   1.989   5.177  18.888
 4417TIP3    H137446   1.975   5.205  18.798
 4417TIP3    H237447   1.961   5.085  18.890
 4418TIP3   OH237448   1.901   5.617  19.518
 4418TIP3    H137449   1.904   5.527  19.551
 4418TIP3    H237450   1.836   5.660  19.574
 4419TIP3   OH237451   0.223   5.738  19.894
 4419TIP3    H137452   0.226   5.654  19.847
 4419TIP3    H237453   0.315   5.757  19.913
 4420TIP3   OH237454   1.919   4.909  18.906
 4420TIP3    H137455   1.958   4.854  18.974
 4420TIP3    H237456   1.826   4.886  18.906
 4421TIP3   OH237457   1.857   5.069  19.295
 4421TIP3    H137458   1.864   4.974  19.283
 4421TIP3    H237459   1.931   5.105  19.245
 4422TIP3   OH237460   1.913   5.352  19.614
 4422TIP3    H137461   2.002   5.360  19.650
 4422TIP3    H237462   1.914   5.268  19.568
 4423TIP3   OH237463   1.855   4.795  19.280
 4423TIP3    H137464   1.916   4.754  19.341
 4423TIP3    H237465   1.802   4.722  19.246
 4424TIP3   OH237466   0.273   4.850  19.689
 4424TIP3    H137467   0.326   4.774  19.714
 4424TIP3    H237468   0.302   4.919  19.748
 4425TIP3   OH237469   9.194   5.312  19.673
 4425TIP3    H137470   0.059   5.263  19.679
 4425TIP3    H237471   9.208   5.390  19.727
 4426TIP3   OH237472   2.106   4.743  19.042
 4426TIP3    H137473   2.147   4.708  18.963
 4426TIP3    H237474   2.179   4.778  19.093
 4427TIP3   OH237475   0.049   4.810  19.252
 4427TIP3    H137476   9.170   4.813  19.245
 4427TIP3    H237477   0.079   4.888  19.205
 4428TIP3   OH237478   1.847   6.583  19.462
 4428TIP3    H137479   1.925   6.558  19.412
 4428TIP3    H237480   1.877   6.651  19.522
 4429TIP3   OH237481   0.397   6.615  19.841
 4429TIP3    H137482   0.428   6.616  19.932
 4429TIP3    H237483   0.451   6.550  19.797
 4430TIP3   OH237484   0.545   6.415  19.722
 4430TIP3    H137485   0.525   6.322  19.713
 4430TIP3    H237486   0.634   6.417  19.758
 4431TIP3   OH237487   0.794   6.366  19.819
 4431TIP3    H137488   0.810   6.274  19.801
 4431TIP3    H237489   0.880   6.400  19.845
 4432TIP3   OH237490   1.161   4.761  19.640
 4432TIP3    H137491   1.075   4.720  19.650
 4432TIP3    H237492   1.220   4.706  19.691
 4433TIP3   OH237493   1.826   4.579  19.608
 4433TIP3    H137494   1.895   4.627  19.562
 4433TIP3    H237495   1.746   4.629  19.592
 4434TIP3   OH237496   2.034   4.684  19.462
 4434TIP3    H137497   2.083   4.602  19.464
 4434TIP3    H237498   2.101   4.752  19.464
 4435TIP3   OH237499   0.409   4.550  19.470
 4435TIP3    H137500   0.324   4.508  19.455
 4435TIP3    H237501   0.473   4.480  19.455
 4436TIP3   OH237502   0.198   4.603  19.136
 4436TIP3    H137503   0.197   4.650  19.053
 4436TIP3    H237504   0.151   4.660  19.197
 4437TIP3   OH237505   0.938   4.441  19.449
 4437TIP3    H137506   0.998   4.472  19.381
 4437TIP3    H237507   0.937   4.511  19.514
 4438TIP3   OH237508   1.576   4.692  19.555
 4438TIP3    H137509   1.543   4.719  19.470
 4438TIP3    H237510   1.546   4.602  19.565
 4439TIP3   OH237511   1.728   4.569  19.174
 4439TIP3    H137512   1.706   4.573  19.080
 4439TIP3    H237513   1.665   4.507  19.210
 4440TIP3   OH237514   0.298   6.615  19.112
 4440TIP3    H137515   0.206   6.604  19.087
 4440TIP3    H237516   0.307   6.709  19.129
 4441TIP3   OH237517   0.500   4.852  18.871
 4441TIP3    H137518   0.520   4.762  18.846
 4441TIP3    H237519   0.470   4.846  18.962
 4442TIP3   OH237520   1.058   4.945  19.243
 4442TIP3    H137521   1.108   4.879  19.292
 4442TIP3    H237522   1.073   5.026  19.291
 4443TIP3   OH237523   1.277   6.571  18.953
 4443TIP3    H137524   1.367   6.599  18.971
 4443TIP3    H237525   1.281   6.530  18.867
 4444TIP3   OH237526   2.064   6.530  19.295
 4444TIP3    H137527   2.041   6.453  19.243
 4444TIP3    H237528   2.069   6.602  19.232
 4445TIP3   OH237529   0.469   6.630  18.889
 4445TIP3    H137530   0.426   6.610  18.972
 4445TIP3    H237531   0.516   6.550  18.867
 4446TIP3   OH237532   3.761   5.757  19.416
 4446TIP3    H137533   3.728   5.845  19.401
 4446TIP3    H237534   3.705   5.700  19.362
 4447TIP3   OH237535   3.540   5.752  19.761
 4447TIP3    H137536   3.633   5.770  19.747
 4447TIP3    H237537   3.535   5.656  19.763
 4448TIP3   OH237538   3.945   5.990  19.656
 4448TIP3    H137539   3.905   5.907  19.680
 4448TIP3    H237540   4.016   6.001  19.719
 4449TIP3   OH237541   2.835   6.153  19.684
 4449TIP3    H137542   2.812   6.061  19.675
 4449TIP3    H237543   2.921   6.152  19.726
 4450TIP3   OH237544   2.467   5.236  19.381
 4450TIP3    H137545   2.464   5.316  19.328
 4450TIP3    H237546   2.409   5.175  19.335
 4451TIP3   OH237547   2.522   5.559  19.701
 4451TIP3    H137548   2.502   5.466  19.687
 4451TIP3    H237549   2.618   5.562  19.703
 4452TIP3   OH237550   3.771   6.661  19.577
 4452TIP3    H137551   3.769   6.583  19.521
 4452TIP3    H237552   3.833   6.638  19.647
 4453TIP3   OH237553   3.357   5.974  19.753
 4453TIP3    H137554   3.397   5.888  19.763
 4453TIP3    H237555   3.429   6.032  19.728
 4454TIP3   OH237556   3.765   5.272  19.771
 4454TIP3    H137557   3.787   5.191  19.818
 4454TIP3    H237558   3.737   5.242  19.685
 4455TIP3   OH237559   2.863   5.021  19.612
 4455TIP3    H137560   2.907   5.103  19.589
 4455TIP3    H237561   2.852   4.975  19.528
 4456TIP3   OH237562   3.899   5.016  19.436
 4456TIP3    H137563   3.951   5.018  19.517
 4456TIP3    H237564   3.958   5.047  19.368
 4457TIP3   OH237565   2.456   5.288  19.655
 4457TIP3    H137566   2.502   5.213  19.693
 4457TIP3    H237567   2.456   5.270  19.561
 4458TIP3   OH237568   2.994   5.518  19.558
 4458TIP3    H137569   3.089   5.519  19.573
 4458TIP3    H237570   2.975   5.429  19.529
 4459TIP3   OH237571   3.660   6.013  19.351
 4459TIP3    H137572   3.615   6.016  19.267
 4459TIP3    H237573   3.632   6.091  19.397
 4460TIP3   OH237574   4.040   5.035  19.678
 4460TIP3    H137575   3.966   5.034  19.739
 4460TIP3    H237576   4.093   4.959  19.703
 4461TIP3   OH237577   2.620   5.069  19.738
 4461TIP3    H137578   2.647   5.064  19.830
 4461TIP3    H237579   2.702   5.057  19.689
 4462TIP3   OH237580   2.406   6.030  19.232
 4462TIP3    H137581   2.401   6.065  19.143
 4462TIP3    H237582   2.421   6.107  19.288
 4463TIP3   OH237583   4.159   6.095  19.808
 4463TIP3    H137584   4.166   6.141  19.892
 4463TIP3    H237585   4.160   6.165  19.742
 4464TIP3   OH237586   3.145   4.612  19.716
 4464TIP3    H137587   3.145   4.589  19.809
 4464TIP3    H237588   3.071   4.672  19.707
 4465TIP3   OH237589   3.840   6.430  19.425
 4465TIP3    H137590   3.858   6.336  19.431
 4465TIP3    H237591   3.923   6.472  19.445
 4466TIP3   OH237592   3.887   6.160  19.447
 4466TIP3    H137593   3.827   6.105  19.398
 4466TIP3    H237594   3.914   6.107  19.522
 4467TIP3   OH237595   3.663   5.566  19.222
 4467TIP3    H137596   3.611   5.602  19.150
 4467TIP3    H237597   3.750   5.553  19.185
 4468TIP3   OH237598   3.670   5.504  18.923
 4468TIP3    H137599   3.745   5.469  18.971
 4468TIP3    H237600   3.658   5.444  18.850
 4469TIP3   OH237601   3.996   5.668  19.295
 4469TIP3    H137602   3.922   5.710  19.340
 4469TIP3    H237603   4.049   5.632  19.366
 4470TIP3   OH237604   2.936   5.768  19.438
 4470TIP3    H137605   2.904   5.749  19.350
 4470TIP3    H237606   2.959   5.683  19.475
 4471TIP3   OH237607   3.129   6.147  19.720
 4471TIP3    H137608   3.128   6.145  19.624
 4471TIP3    H237609   3.198   6.085  19.744
 4472TIP3   OH237610   2.797   5.607  19.731
 4472TIP3    H137611   2.859   5.576  19.665
 4472TIP3    H237612   2.842   5.592  19.815
 4473TIP3   OH237613   3.910   5.497  19.098
 4473TIP3    H137614   3.948   5.544  19.171
 4473TIP3    H237615   3.946   5.539  19.020
 4474TIP3   OH237616   3.588   6.275  19.409
 4474TIP3    H137617   3.659   6.338  19.418
 4474TIP3    H237618   3.534   6.309  19.337
 4475TIP3   OH237619   4.256   4.518  19.133
 4475TIP3    H137620   4.167   4.543  19.158
 4475TIP3    H237621   4.300   4.601  19.113
 4476TIP3   OH237622   2.834   5.701  19.186
 4476TIP3    H137623   2.761   5.760  19.170
 4476TIP3    H237624   2.799   5.613  19.171
 4477TIP3   OH237625   4.432   6.255  18.990
 4477TIP3    H137626   4.451   6.349  18.990
 4477TIP3    H237627   4.518   6.214  18.984
 4478TIP3   OH237628   2.470   6.248  19.635
 4478TIP3    H137629   2.554   6.210  19.658
 4478TIP3    H237630   2.406   6.179  19.651
 4479TIP3   OH237631   3.564   6.739  19.231
 4479TIP3    H137632   3.515   6.702  19.158
 4479TIP3    H237633   3.520   6.821  19.251
 4480TIP3   OH237634   2.737   6.574  19.431
 4480TIP3    H137635   2.740   6.519  19.509
 4480TIP3    H237636   2.652   6.553  19.391
 4481TIP3   OH237637   3.829   6.588  18.937
 4481TIP3    H137638   3.872   6.504  18.918
 4481TIP3    H237639   3.831   6.595  19.033
 4482TIP3   OH237640   3.805   6.611  19.210
 4482TIP3    H137641   3.722   6.656  19.225
 4482TIP3    H237642   3.807   6.541  19.276
 4483TIP3   OH237643   2.923   4.772  19.727
 4483TIP3    H137644   2.840   4.728  19.711
 4483TIP3    H237645   2.909   4.862  19.698
 4484TIP3   OH237646   4.008   5.654  18.895
 4484TIP3    H137647   4.008   5.642  18.800
 4484TIP3    H237648   4.089   5.701  18.913
 4485TIP3   OH237649   3.505   5.005  18.916
 4485TIP3    H137650   3.451   4.966  18.984
 4485TIP3    H237651   3.442   5.038  18.851
 4486TIP3   OH237652   2.965   5.256  19.474
 4486TIP3    H137653   2.882   5.234  19.431
 4486TIP3    H237654   3.032   5.230  19.411
 4487TIP3   OH237655   3.624   5.296  19.293
 4487TIP3    H137656   3.620   5.391  19.280
 4487TIP3    H237657   3.697   5.267  19.238
 4488TIP3   OH237658   3.690   5.174  19.529
 4488TIP3    H137659   3.663   5.224  19.452
 4488TIP3    H237660   3.755   5.112  19.497
 4489TIP3   OH237661   3.081   4.960  18.916
 4489TIP3    H137662   3.073   4.956  19.011
 4489TIP3    H237663   3.034   5.040  18.891
 4490TIP3   OH237664   2.302   4.760  19.455
 4490TIP3    H137665   2.362   4.792  19.523
 4490TIP3    H237666   2.299   4.665  19.469
 4491TIP3   OH237667   2.309   5.121  19.185
 4491TIP3    H137668   2.348   5.193  19.135
 4491TIP3    H237669   2.215   5.138  19.182
 4492TIP3   OH237670   3.484   4.902  19.516
 4492TIP3    H137671   3.407   4.898  19.572
 4492TIP3    H237672   3.558   4.891  19.576
 4493TIP3   OH237673   2.737   5.158  19.365
 4493TIP3    H137674   2.643   5.174  19.374
 4493TIP3    H237675   2.744   5.064  19.352
 4494TIP3   OH237676   3.151   5.182  19.283
 4494TIP3    H137677   3.245   5.169  19.297
 4494TIP3    H237678   3.146   5.231  19.202
 4495TIP3   OH237679   3.815   5.002  19.841
 4495TIP3    H137680   3.798   4.973  19.931
 4495TIP3    H237681   3.763   4.943  19.787
 4496TIP3   OH237682   3.127   5.307  19.039
 4496TIP3    H137683   3.080   5.267  18.966
 4496TIP3    H237684   3.152   5.394  19.006
 4497TIP3   OH237685   3.569   5.473  19.740
 4497TIP3    H137686   3.543   5.430  19.658
 4497TIP3    H237687   3.636   5.414  19.776
 4498TIP3   OH237688   2.838   4.890  19.368
 4498TIP3    H137689   2.805   4.800  19.371
 4498TIP3    H237690   2.912   4.886  19.306
 4499TIP3   OH237691   3.234   5.998  19.115
 4499TIP3    H137692   3.193   5.922  19.075
 4499TIP3    H237693   3.201   5.998  19.205
 4500TIP3   OH237694   3.736   4.976  19.073
 4500TIP3    H137695   3.655   4.991  19.026
 4500TIP3    H237696   3.769   5.064  19.093
 4501TIP3   OH237697   3.850   5.224  19.148
 4501TIP3    H137698   3.929   5.177  19.176
 4501TIP3    H237699   3.881   5.312  19.126
 4502TIP3   OH237700   2.797   5.882  19.651
 4502TIP3    H137701   2.845   5.860  19.570
 4502TIP3    H237702   2.778   5.797  19.691
 4503TIP3   OH237703   3.504   6.088  19.127
 4503TIP3    H137704   3.488   6.181  19.146
 4503TIP3    H237705   3.417   6.050  19.118
 4504TIP3   OH237706   4.473   5.341  19.045
 4504TIP3    H137707   4.399   5.292  19.008
 4504TIP3    H237708   4.441   5.431  19.050
 4505TIP3   OH237709   4.259   6.287  19.208
 4505TIP3    H137710   4.185   6.226  19.201
 4505TIP3    H237711   4.314   6.266  19.132
 4506TIP3   OH237712   3.822   5.738  19.688
 4506TIP3    H137713   3.801   5.737  19.594
 4506TIP3    H237714   3.858   5.651  19.705
 4507TIP3   OH237715   3.011   6.210  19.466
 4507TIP3    H137716   3.013   6.299  19.430
 4507TIP3    H237717   2.936   6.210  19.524
 4508TIP3   OH237718   2.464   5.639  19.018
 4508TIP3    H137719   2.510   5.710  19.064
 4508TIP3    H237720   2.379   5.676  18.994
 4509TIP3   OH237721   3.107   5.978  19.354
 4509TIP3    H137722   3.074   6.060  19.392
 4509TIP3    H237723   3.052   5.910  19.394
 4510TIP3   OH237724   3.004   6.481  19.385
 4510TIP3    H137725   2.918   6.522  19.389
 4510TIP3    H237726   3.056   6.529  19.450
 4511TIP3   OH237727   4.021   6.099  19.009
 4511TIP3    H137728   4.051   6.027  19.064
 4511TIP3    H237729   3.927   6.086  19.001
 4512TIP3   OH237730   4.455   6.544  18.997
 4512TIP3    H137731   4.441   6.585  18.912
 4512TIP3    H237732   4.389   6.584  19.054
 4513TIP3   OH237733   4.121   5.884  19.155
 4513TIP3    H137734   4.071   5.814  19.197
 4513TIP3    H237735   4.212   5.863  19.174
 4514TIP3   OH237736   3.274   6.202  18.740
 4514TIP3    H137737   3.237   6.115  18.728
 4514TIP3    H237738   3.239   6.232  18.824
 4515TIP3   OH237739   3.166   6.241  18.987
 4515TIP3    H137740   3.186   6.161  19.035
 4515TIP3    H237741   3.172   6.311  19.052
 4516TIP3   OH237742   2.608   5.861  19.121
 4516TIP3    H137743   2.546   5.904  19.180
 4516TIP3    H237744   2.641   5.932  19.066
 4517TIP3   OH237745   3.800   4.806  19.280
 4517TIP3    H137746   3.778   4.858  19.202
 4517TIP3    H237747   3.834   4.870  19.343
 4518TIP3   OH237748   3.445   6.361  19.183
 4518TIP3    H137749   3.353   6.389  19.187
 4518TIP3    H237750   3.487   6.423  19.124
 4519TIP3   OH237751   3.420   5.108  19.325
 4519TIP3    H137752   3.486   5.176  19.314
 4519TIP3    H237753   3.453   5.054  19.397
 4520TIP3   OH237754   3.524   4.742  19.291
 4520TIP3    H137755   3.503   4.789  19.371
 4520TIP3    H237756   3.619   4.750  19.283
 4521TIP3   OH237757   3.180   6.456  19.164
 4521TIP3    H137758   3.158   6.529  19.107
 4521TIP3    H237759   3.119   6.463  19.237
 4522TIP3   OH237760   3.072   4.932  19.194
 4522TIP3    H137761   3.084   5.018  19.234
 4522TIP3    H237762   3.161   4.899  19.182
 4523TIP3   OH237763   3.947   5.477  19.719
 4523TIP3    H137764   3.877   5.417  19.745
 4523TIP3    H237765   4.026   5.423  19.717
 4524TIP3   OH237766   2.704   6.077  18.932
 4524TIP3    H137767   2.740   6.166  18.937
 4524TIP3    H237768   2.780   6.022  18.915
 4525TIP3   OH237769   2.393   5.363  19.061
 4525TIP3    H137770   2.425   5.453  19.062
 4525TIP3    H237771   2.360   5.350  18.972
 4526TIP3   OH237772   4.249   6.629  19.746
 4526TIP3    H137773   4.196   6.706  19.724
 4526TIP3    H237774   4.327   6.637  19.691
 4527TIP3   OH237775   2.685   4.647  19.654
 4527TIP3    H137776   2.702   4.641  19.559
 4527TIP3    H237777   2.659   4.558  19.679
 4528TIP3   OH237778   2.450   6.275  19.356
 4528TIP3    H137779   2.454   6.272  19.451
 4528TIP3    H237780   2.457   6.368  19.334
 4529TIP3   OH237781   3.488   6.390  18.765
 4529TIP3    H137782   3.416   6.327  18.755
 4529TIP3    H237783   3.567   6.336  18.759
 4530TIP3   OH237784   3.954   6.348  18.870
 4530TIP3    H137785   3.994   6.275  18.916
 4530TIP3    H237786   4.018   6.373  18.803
 4531TIP3   OH237787   2.928   5.935  18.877
 4531TIP3    H137788   2.977   5.882  18.939
 4531TIP3    H237789   2.993   5.959  18.810
 4532TIP3   OH237790   3.741   6.043  18.982
 4532TIP3    H137791   3.662   6.059  19.034
 4532TIP3    H237792   3.744   5.948  18.973
 4533TIP3   OH237793   3.074   5.770  19.041
 4533TIP3    H137794   3.007   5.741  19.103
 4533TIP3    H237795   3.111   5.689  19.006
 4534TIP3   OH237796   3.200   5.549  18.915
 4534TIP3    H137797   3.189   5.538  18.820
 4534TIP3    H237798   3.294   5.567  18.925
 4535TIP3   OH237799   4.262   5.769  18.868
 4535TIP3    H137800   4.278   5.749  18.776
 4535TIP3    H237801   4.266   5.865  18.873
 4536TIP3   OH237802   3.108   6.662  18.986
 4536TIP3    H137803   3.152   6.672  18.902
 4536TIP3    H237804   3.051   6.739  18.993
 4537TIP3   OH237805   2.426   6.114  18.971
 4537TIP3    H137806   2.521   6.117  18.962
 4537TIP3    H237807   2.397   6.054  18.903
 4538TIP3   OH237808   2.231   6.672  19.469
 4538TIP3    H137809   2.177   6.611  19.419
 4538TIP3    H237810   2.275   6.618  19.534
 4539TIP3   OH237811   2.403   6.520  19.617
 4539TIP3    H137812   2.419   6.426  19.629
 4539TIP3    H237813   2.468   6.563  19.672
 4540TIP3   OH237814   4.382   5.801  19.237
 4540TIP3    H137815   4.459   5.858  19.237
 4540TIP3    H237816   4.374   5.771  19.327
 4541TIP3   OH237817   4.353   5.698  19.487
 4541TIP3    H137818   4.266   5.657  19.489
 4541TIP3    H237819   4.394   5.670  19.569
 4542TIP3   OH237820   4.566   6.027  19.710
 4542TIP3    H137821   4.596   5.938  19.729
 4542TIP3    H237822   4.471   6.020  19.706
 4543TIP3   OH237823   4.414   5.616  19.038
 4543TIP3    H137824   4.354   5.656  18.974
 4543TIP3    H237825   4.402   5.667  19.118
 4544TIP3   OH237826   4.272   5.192  18.930
 4544TIP3    H137827   4.253   5.223  18.842
 4544TIP3    H237828   4.254   5.098  18.927
 4545TIP3   OH237829   4.118   5.552  19.514
 4545TIP3    H137830   4.155   5.466  19.534
 4545TIP3    H237831   4.048   5.564  19.578
 4546TIP3   OH237832   2.412   5.790  19.786
 4546TIP3    H137833   2.447   5.711  19.746
 4546TIP3    H237834   2.485   5.826  19.837
 4547TIP3   OH237835   4.212   4.919  18.919
 4547TIP3    H137836   4.258   4.857  18.976
 4547TIP3    H237837   4.122   4.887  18.917
 4548TIP3   OH237838   4.076   5.076  19.227
 4548TIP3    H137839   4.107   4.989  19.252
 4548TIP3    H237840   4.147   5.113  19.176
 4549TIP3   OH237841   4.178   5.313  19.652
 4549TIP3    H137842   4.273   5.308  19.658
 4549TIP3    H237843   4.150   5.221  19.655
 4550TIP3   OH237844   4.156   4.827  19.310
 4550TIP3    H137845   4.227   4.793  19.366
 4550TIP3    H237846   4.112   4.748  19.279
 4551TIP3   OH237847   2.483   4.840  19.644
 4551TIP3    H137848   2.554   4.777  19.658
 4551TIP3    H237849   2.519   4.923  19.676
 4552TIP3   OH237850   2.178   5.376  19.692
 4552TIP3    H137851   2.267   5.342  19.686
 4552TIP3    H237852   2.186   5.460  19.738
 4553TIP3   OH237853   4.391   4.744  19.044
 4553TIP3    H137854   4.441   4.705  18.972
 4553TIP3    H237855   4.458   4.787  19.098
 4554TIP3   OH237856   2.320   4.839  19.194
 4554TIP3    H137857   2.310   4.819  19.287
 4554TIP3    H237858   2.325   4.934  19.190
 4555TIP3   OH237859   4.068   6.575  19.485
 4555TIP3    H137860   4.153   6.541  19.455
 4555TIP3    H237861   4.090   6.640  19.551
 4556TIP3   OH237862   2.617   6.624  19.769
 4556TIP3    H137863   2.624   6.611  19.864
 4556TIP3    H237864   2.677   6.558  19.732
 4557TIP3   OH237865   2.780   6.426  19.668
 4557TIP3    H137866   2.772   6.330  19.672
 4557TIP3    H237867   2.870   6.443  19.695
 4558TIP3   OH237868   3.043   6.418  19.735
 4558TIP3    H137869   3.102   6.473  19.683
 4558TIP3    H237870   3.088   6.334  19.742
 4559TIP3   OH237871   3.682   4.804  19.697
 4559TIP3    H137872   3.646   4.726  19.741
 4559TIP3    H237873   3.747   4.769  19.636
 4560TIP3   OH237874   4.111   4.589  19.591
 4560TIP3    H137875   4.187   4.637  19.559
 4560TIP3    H237876   4.036   4.640  19.560
 4561TIP3   OH237877   4.345   4.711  19.483
 4561TIP3    H137878   4.389   4.626  19.491
 4561TIP3    H237879   4.415   4.775  19.483
 4562TIP3   OH237880   2.736   4.626  19.382
 4562TIP3    H137881   2.664   4.620  19.319
 4562TIP3    H237882   2.773   4.537  19.384
 4563TIP3   OH237883   2.532   4.649  19.184
 4563TIP3    H137884   2.594   4.693  19.126
 4563TIP3    H237885   2.458   4.709  19.190
 4564TIP3   OH237886   3.219   4.436  19.517
 4564TIP3    H137887   3.310   4.463  19.503
 4564TIP3    H237888   3.186   4.496  19.584
 4565TIP3   OH237889   3.846   4.668  19.524
 4565TIP3    H137890   3.826   4.686  19.432
 4565TIP3    H237891   3.824   4.575  19.535
 4566TIP3   OH237892   4.002   4.611  19.221
 4566TIP3    H137893   3.928   4.671  19.226
 4566TIP3    H237894   3.963   4.524  19.230
 4567TIP3   OH237895   2.473   6.564  19.323
 4567TIP3    H137896   2.431   6.605  19.248
 4567TIP3    H237897   2.417   6.587  19.397
 4568TIP3   OH237898   2.720   4.757  19.018
 4568TIP3    H137899   2.736   4.698  18.945
 4568TIP3    H237900   2.804   4.799  19.034
 4569TIP3   OH237901   3.358   4.910  19.142
 4569TIP3    H137902   3.406   4.837  19.180
 4569TIP3    H237903   3.376   4.984  19.200
 4570TIP3   OH237904   3.547   6.539  18.997
 4570TIP3    H137905   3.637   6.565  18.976
 4570TIP3    H237906   3.516   6.496  18.917
 4571TIP3   OH237907   4.304   6.518  19.349
 4571TIP3    H137908   4.293   6.431  19.310
 4571TIP3    H237909   4.302   6.577  19.274
 4572TIP3   OH237910   2.646   6.555  18.844
 4572TIP3    H137911   2.624   6.547  18.937
 4572TIP3    H237912   2.714   6.489  18.830
 4573TIP3   OH237913   6.049   5.775  19.375
 4573TIP3    H137914   6.014   5.862  19.358
 4573TIP3    H237915   6.068   5.775  19.469
 4574TIP3   OH237916   5.954   5.638  19.822
 4574TIP3    H137917   5.914   5.631  19.909
 4574TIP3    H237918   5.970   5.548  19.795
 4575TIP3   OH237919   6.244   5.997  19.617
 4575TIP3    H137920   6.207   5.910  19.627
 4575TIP3    H237921   6.308   6.004  19.687
 4576TIP3   OH237922   5.091   6.155  19.681
 4576TIP3    H137923   5.068   6.063  19.668
 4576TIP3    H237924   5.177   6.153  19.723
 4577TIP3   OH237925   4.616   5.166  19.463
 4577TIP3    H137926   4.547   5.226  19.491
 4577TIP3    H237927   4.617   5.174  19.367
 4578TIP3   OH237928   4.790   5.545  19.740
 4578TIP3    H137929   4.778   5.452  19.723
 4578TIP3    H237930   4.884   5.560  19.727
 4579TIP3   OH237931   6.062   6.695  19.540
 4579TIP3    H137932   6.089   6.607  19.515
 4579TIP3    H237933   5.974   6.705  19.504
 4580TIP3   OH237934   5.607   6.033  19.729
 4580TIP3    H137935   5.643   6.020  19.641
 4580TIP3    H237936   5.679   6.010  19.788
 4581TIP3   OH237937   5.910   5.126  19.801
 4581TIP3    H137938   5.921   5.032  19.810
 4581TIP3    H237939   5.914   5.142  19.707
 4582TIP3   OH237940   5.132   5.002  19.615
 4582TIP3    H137941   5.155   5.089  19.581
 4582TIP3    H237942   5.110   4.951  19.538
 4583TIP3   OH237943   6.135   5.030  19.432
 4583TIP3    H137944   6.152   4.972  19.507
 4583TIP3    H237945   6.215   5.024  19.379
 4584TIP3   OH237946   4.745   5.269  19.690
 4584TIP3    H137947   4.800   5.202  19.730
 4584TIP3    H237948   4.719   5.232  19.606
 4585TIP3   OH237949   5.226   5.503  19.521
 4585TIP3    H137950   5.320   5.492  19.510
 4585TIP3    H237951   5.189   5.417  19.504
 4586TIP3   OH237952   5.939   6.030  19.318
 4586TIP3    H137953   5.886   6.017  19.240
 4586TIP3    H237954   5.911   6.116  19.352
 4587TIP3   OH237955   6.147   4.853  19.640
 4587TIP3    H137956   6.076   4.855  19.703
 4587TIP3    H237957   6.166   4.760  19.627
 4588TIP3   OH237958   4.911   5.056  19.773
 4588TIP3    H137959   4.943   5.044  19.863
 4588TIP3    H237960   4.989   5.042  19.718
 4589TIP3   OH237961   4.610   5.965  19.214
 4589TIP3    H137962   4.612   6.017  19.133
 4589TIP3    H237963   4.609   6.030  19.284
 4590TIP3   OH237964   6.445   6.111  19.785
 4590TIP3    H137965   6.412   6.178  19.845
 4590TIP3    H237966   6.459   6.158  19.702
 4591TIP3   OH237967   5.442   4.636  19.742
 4591TIP3    H137968   5.423   4.563  19.800
 4591TIP3    H237969   5.361   4.687  19.740
 4592TIP3   OH237970   6.149   6.449  19.426
 4592TIP3    H137971   6.155   6.353  19.426
 4592TIP3    H237972   6.239   6.479  19.442
 4593TIP3   OH237973   6.168   6.173  19.420
 4593TIP3    H137974   6.098   6.122  19.379
 4593TIP3    H237975   6.202   6.117  19.489
 4594TIP3   OH237976   5.897   5.561  19.260
 4594TIP3    H137977   5.902   5.575  19.166
 4594TIP3    H237978   5.945   5.636  19.298
 4595TIP3   OH237979   5.945   5.534  18.979
 4595TIP3    H137980   6.028   5.504  19.016
 4595TIP3    H237981   5.926   5.471  18.910
 4596TIP3   OH237982   6.284   5.663  19.273
 4596TIP3    H137983   6.205   5.706  19.307
 4596TIP3    H237984   6.333   5.638  19.352
 4597TIP3   OH237985   5.184   5.768  19.420
 4597TIP3    H137986   5.143   5.753  19.334
 4597TIP3    H237987   5.202   5.680  19.453
 4598TIP3   OH237988   5.371   6.176  19.734
 4598TIP3    H137989   5.366   6.188  19.639
 4598TIP3    H237990   5.450   6.123  19.747
 4599TIP3   OH237991   5.062   5.607  19.720
 4599TIP3    H137992   5.114   5.572  19.647
 4599TIP3    H237993   5.119   5.597  19.796
 4600TIP3   OH237994   6.193   5.472  19.088
 4600TIP3    H137995   6.219   5.527  19.163
 4600TIP3    H237996   6.231   5.516  19.012
 4601TIP3   OH237997   5.877   6.292  19.366
 4601TIP3    H137998   5.939   6.363  19.385
 4601TIP3    H237999   5.826   6.325  19.291
 4602TIP3   OH238000   6.577   4.440  19.132
 4602TIP3    H138001   6.486   4.470  19.135
 4602TIP3    H238002   6.629   4.519  19.138
 4603TIP3   OH238003   5.065   5.694  19.177
 4603TIP3    H138004   4.980   5.733  19.156
 4603TIP3    H238005   5.053   5.600  19.161
 4604TIP3   OH238006   6.719   6.209  18.923
 4604TIP3    H138007   6.747   6.293  18.888
 4604TIP3    H238008   6.800   6.163  18.943
 4605TIP3   OH238009   4.710   6.260  19.654
 4605TIP3    H138010   4.798   6.224  19.667
 4605TIP3    H238011   4.651   6.187  19.673
 4606TIP3   OH238012   5.834   6.670  19.212
 4606TIP3    H138013   5.828   6.634  19.123
 4606TIP3    H238014   5.753   6.719  19.224
 4607TIP3   OH238015   5.072   6.571  19.454
 4607TIP3    H138016   5.057   6.526  19.537
 4607TIP3    H238017   4.984   6.582  19.417
 4608TIP3   OH238018   6.111   6.554  18.941
 4608TIP3    H138019   6.164   6.475  18.930
 4608TIP3    H238020   6.124   6.580  19.032
 4609TIP3   OH238021   6.105   6.617  19.210
 4609TIP3    H138022   6.014   6.647  19.220
 4609TIP3    H238023   6.117   6.554  19.280
 4610TIP3   OH238024   5.199   4.761  19.741
 4610TIP3    H138025   5.115   4.715  19.731
 4610TIP3    H238026   5.183   4.848  19.706
 4611TIP3   OH238027   6.286   5.645  18.894
 4611TIP3    H138028   6.288   5.630  18.799
 4611TIP3    H238029   6.370   5.685  18.913
 4612TIP3   OH238030   5.715   4.892  19.002
 4612TIP3    H138031   5.653   4.910  19.073
 4612TIP3    H238032   5.673   4.823  18.951
 4613TIP3   OH238033   5.152   5.242  19.464
 4613TIP3    H138034   5.067   5.208  19.434
 4613TIP3    H238035   5.212   5.222  19.392
 4614TIP3   OH238036   5.841   5.295  19.300
 4614TIP3    H138037   5.846   5.391  19.295
 4614TIP3    H238038   5.909   5.264  19.240
 4615TIP3   OH238039   5.955   5.210  19.537
 4615TIP3    H138040   5.907   5.243  19.461
 4615TIP3    H238041   6.021   5.151  19.500
 4616TIP3   OH238042   5.364   4.956  18.928
 4616TIP3    H138043   5.333   4.945  19.018
 4616TIP3    H238044   5.306   5.023  18.891
 4617TIP3   OH238045   4.564   4.889  19.471
 4617TIP3    H138046   4.634   4.856  19.527
 4617TIP3    H238047   4.569   4.984  19.479
 4618TIP3   OH238048   4.630   5.162  19.186
 4618TIP3    H138049   4.713   5.179  19.143
 4618TIP3    H238050   4.567   5.219  19.141
 4619TIP3   OH238051   5.625   5.008  19.594
 4619TIP3    H138052   5.568   5.063  19.647
 4619TIP3    H238053   5.659   4.943  19.656
 4620TIP3   OH238054   4.922   5.101  19.400
 4620TIP3    H138055   4.829   5.090  19.423
 4620TIP3    H238056   4.954   5.012  19.389
 4621TIP3   OH238057   5.339   5.192  19.268
 4621TIP3    H138058   5.433   5.188  19.289
 4621TIP3    H238059   5.335   5.240  19.186
 4622TIP3   OH238060   5.928   4.847  19.815
 4622TIP3    H138061   5.938   4.801  19.898
 4622TIP3    H238062   5.846   4.813  19.779
 4623TIP3   OH238063   5.316   5.318  19.026
 4623TIP3    H138064   5.284   5.267  18.951
 4623TIP3    H238065   5.342   5.402  18.988
 4624TIP3   OH238066   6.018   5.379  19.750
 4624TIP3    H138067   5.999   5.345  19.662
 4624TIP3    H238068   5.990   5.308  19.808
 4625TIP3   OH238069   5.071   4.863  19.384
 4625TIP3    H138070   5.053   4.769  19.390
 4625TIP3    H238071   5.135   4.871  19.313
 4626TIP3   OH238072   5.466   6.017  19.104
 4626TIP3    H138073   5.417   5.946  19.062
 4626TIP3    H238074   5.440   6.012  19.196
 4627TIP3   OH238075   5.974   4.955  19.070
 4627TIP3    H138076   5.884   4.940  19.042
 4627TIP3    H238077   5.979   5.050  19.083
 4628TIP3   OH238078   6.066   5.222  19.150
 4628TIP3    H138079   6.133   5.173  19.197
 4628TIP3    H238080   6.108   5.303  19.123
 4629TIP3   OH238081   5.060   5.883  19.640
 4629TIP3    H138082   5.103   5.859  19.558
 4629TIP3    H238083   5.039   5.800  19.682
 4630TIP3   OH238084   5.748   6.079  19.107
 4630TIP3    H138085   5.743   6.173  19.118
 4630TIP3    H238086   5.657   6.049  19.105
 4631TIP3   OH238087   6.825   5.250  19.097
 4631TIP3    H138088   6.755   5.199  19.056
 4631TIP3    H238089   6.832   5.329  19.043
 4632TIP3   OH238090   6.558   6.302  19.135
 4632TIP3    H138091   6.481   6.244  19.129
 4632TIP3    H238092   6.618   6.268  19.068
 4633TIP3   OH238093   6.134   5.745  19.643
 4633TIP3    H138094   6.062   5.728  19.704
 4633TIP3    H238095   6.193   5.671  19.656
 4634TIP3   OH238096   5.293   6.230  19.473
 4634TIP3    H138097   5.314   6.316  19.438
 4634TIP3    H238098   5.204   6.240  19.508
 4635TIP3   OH238099   4.659   5.658  18.919
 4635TIP3    H138100   4.715   5.704  18.982
 4635TIP3    H238101   4.576   5.645  18.965
 4636TIP3   OH238102   5.361   5.986  19.354
 4636TIP3    H138103   5.337   6.066  19.401
 4636TIP3    H238104   5.303   5.919  19.390
 4637TIP3   OH238105   5.330   6.498  19.391
 4637TIP3    H138106   5.239   6.527  19.401
 4637TIP3    H238107   5.381   6.564  19.439
 4638TIP3   OH238108   6.349   6.117  19.068
 4638TIP3    H138109   6.384   6.035  19.104
 4638TIP3    H238110   6.263   6.126  19.110
 4639TIP3   OH238111   6.838   6.671  19.073
 4639TIP3    H138112   6.878   6.758  19.064
 4639TIP3    H238113   6.745   6.689  19.089
 4640TIP3   OH238114   6.442   5.879  19.165
 4640TIP3    H138115   6.389   5.803  19.190
 4640TIP3    H238116   6.532   5.852  19.183
 4641TIP3   OH238117   5.529   6.253  18.723
 4641TIP3    H138118   5.471   6.184  18.693
 4641TIP3    H238119   5.502   6.269  18.814
 4642TIP3   OH238120   5.434   6.267  18.978
 4642TIP3    H138121   5.443   6.186  19.027
 4642TIP3    H238122   5.446   6.336  19.043
 4643TIP3   OH238123   4.815   5.808  19.100
 4643TIP3    H138124   4.747   5.845  19.157
 4643TIP3    H238125   4.857   5.885  19.061
 4644TIP3   OH238126   5.917   4.880  19.335
 4644TIP3    H138127   5.938   4.886  19.242
 4644TIP3    H238128   5.987   4.930  19.378
 4645TIP3   OH238129   5.734   6.359  19.135
 4645TIP3    H138130   5.646   6.394  19.151
 4645TIP3    H238131   5.773   6.420  19.072
 4646TIP3   OH238132   5.609   5.149  19.348
 4646TIP3    H138133   5.685   5.203  19.327
 4646TIP3    H238134   5.628   5.114  19.435
 4647TIP3   OH238135   5.680   4.785  19.432
 4647TIP3    H138136   5.658   4.867  19.476
 4647TIP3    H238137   5.767   4.799  19.395
 4648TIP3   OH238138   5.485   6.478  19.156
 4648TIP3    H138139   5.500   6.568  19.129
 4648TIP3    H238140   5.431   6.486  19.235
 4649TIP3   OH238141   5.271   4.932  19.197
 4649TIP3    H138142   5.276   5.024  19.222
 4649TIP3    H238143   5.360   4.900  19.208
 4650TIP3   OH238144   6.264   5.502  19.699
 4650TIP3    H138145   6.180   5.460  19.717
 4650TIP3    H238146   6.325   5.459  19.760
 4651TIP3   OH238147   4.939   6.033  18.989
 4651TIP3    H138148   4.992   6.103  19.029
 4651TIP3    H238149   4.999   5.990  18.928
 4652TIP3   OH238150   4.720   5.378  18.928
 4652TIP3    H138151   4.723   5.473  18.942
 4652TIP3    H238152   4.635   5.352  18.964
 4653TIP3   OH238153   6.597   6.554  19.811
 4653TIP3    H138154   6.572   6.616  19.742
 4653TIP3    H238155   6.561   6.592  19.891
 4654TIP3   OH238156   4.956   4.633  19.678
 4654TIP3    H138157   4.978   4.620  19.585
 4654TIP3    H238158   4.930   4.546  19.708
 4655TIP3   OH238159   4.818   6.635  19.362
 4655TIP3    H138160   4.755   6.597  19.423
 4655TIP3    H238161   4.778   6.623  19.275
 4656TIP3   OH238162   5.758   6.420  18.725
 4656TIP3    H138163   5.685   6.358  18.731
 4656TIP3    H238164   5.836   6.366  18.736
 4657TIP3   OH238165   6.262   6.328  18.875
 4657TIP3    H138166   6.299   6.261  18.932
 4657TIP3    H238167   6.334   6.351  18.815
 4658TIP3   OH238168   5.119   5.891  18.835
 4658TIP3    H138169   5.174   5.866  18.909
 4658TIP3    H238170   5.172   5.872  18.757
 4659TIP3   OH238171   5.934   6.051  18.897
 4659TIP3    H138172   5.871   6.053  18.969
 4659TIP3    H238173   5.974   5.964  18.903
 4660TIP3   OH238174   5.289   5.794  19.031
 4660TIP3    H138175   5.224   5.762  19.095
 4660TIP3    H238176   5.330   5.715  18.997
 4661TIP3   OH238177   5.409   5.565  18.917
 4661TIP3    H138178   5.405   5.568  18.822
 4661TIP3    H238179   5.502   5.564  18.938
 4662TIP3   OH238180   6.545   5.754  18.866
 4662TIP3    H138181   6.562   5.721  18.779
 4662TIP3    H238182   6.532   5.848  18.854
 4663TIP3   OH238183   5.583   6.725  19.045
 4663TIP3    H138184   5.651   6.694  18.986
 4663TIP3    H238185   5.552   6.807  19.005
 4664TIP3   OH238186   4.664   6.094  18.971
 4664TIP3    H138187   4.760   6.093  18.977
 4664TIP3    H238188   4.644   6.036  18.898
 4665TIP3   OH238189   4.437   6.665  19.538
 4665TIP3    H138190   4.396   6.608  19.474
 4665TIP3    H238191   4.522   6.624  19.556
 4666TIP3   OH238192   4.676   6.527  19.577
 4666TIP3    H138193   4.676   6.433  19.596
 4666TIP3    H238194   4.730   6.565  19.647
 4667TIP3   OH238195   6.710   5.800  19.233
 4667TIP3    H138196   6.774   5.867  19.258
 4667TIP3    H238197   6.719   5.732  19.299
 4668TIP3   OH238198   6.707   5.571  19.415
 4668TIP3    H138199   6.615   5.569  19.440
 4668TIP3    H238200   6.753   5.599  19.495
 4669TIP3   OH238201   6.544   5.867  19.877
 4669TIP3    H138202   6.636   5.871  19.851
 4669TIP3    H238203   6.508   5.951  19.850
 4670TIP3   OH238204   6.792   5.728  18.981
 4670TIP3    H138205   6.708   5.722  18.936
 4670TIP3    H238206   6.771   5.755  19.070
 4671TIP3   OH238207   6.641   5.121  18.935
 4671TIP3    H138208   6.696   5.120  18.857
 4671TIP3    H238209   6.558   5.085  18.905
 4672TIP3   OH238210   6.432   5.534  19.481
 4672TIP3    H138211   6.417   5.446  19.446
 4672TIP3    H238212   6.381   5.537  19.561
 4673TIP3   OH238213   4.651   5.771  19.801
 4673TIP3    H138214   4.701   5.695  19.771
 4673TIP3    H238215   4.705   5.808  19.872
 4674TIP3   OH238216   6.409   5.005  18.814
 4674TIP3    H138217   6.340   4.954  18.856
 4674TIP3    H238218   6.364   5.056  18.747
 4675TIP3   OH238219   6.354   5.013  19.263
 4675TIP3    H138220   6.389   4.924  19.260
 4675TIP3    H238221   6.410   5.063  19.203
 4676TIP3   OH238222   6.438   5.362  19.861
 4676TIP3    H138223   6.528   5.346  19.833
 4676TIP3    H238224   6.413   5.281  19.906
 4677TIP3   OH238225   6.468   4.759  19.246
 4677TIP3    H138226   6.504   4.725  19.329
 4677TIP3    H238227   6.408   4.691  19.217
 4678TIP3   OH238228   4.780   4.849  19.634
 4678TIP3    H138229   4.834   4.773  19.654
 4678TIP3    H238230   4.815   4.919  19.688
 4679TIP3   OH238231   4.466   5.344  19.655
 4679TIP3    H138232   4.552   5.321  19.691
 4679TIP3    H238233   4.455   5.436  19.675
 4680TIP3   OH238234   6.703   4.695  19.105
 4680TIP3    H138235   6.695   4.686  19.010
 4680TIP3    H238236   6.621   4.737  19.132
 4681TIP3   OH238237   4.589   4.879  19.191
 4681TIP3    H138238   4.579   4.865  19.285
 4681TIP3    H238239   4.599   4.974  19.183
 4682TIP3   OH238240   6.403   6.556  19.459
 4682TIP3    H138241   6.480   6.530  19.409
 4682TIP3    H238242   6.437   6.611  19.530
 4683TIP3   OH238243   4.858   6.608  19.773
 4683TIP3    H138244   4.842   6.587  19.865
 4683TIP3    H238245   4.925   6.545  19.746
 4684TIP3   OH238246   5.047   6.427  19.693
 4684TIP3    H138247   5.043   6.332  19.688
 4684TIP3    H238248   5.131   6.445  19.737
 4685TIP3   OH238249   5.295   6.433  19.804
 4685TIP3    H138250   5.329   6.344  19.795
 4685TIP3    H238251   5.372   6.489  19.802
 4686TIP3   OH238252   5.689   4.758  19.711
 4686TIP3    H138253   5.607   4.717  19.738
 4686TIP3    H238254   5.702   4.731  19.620
 4687TIP3   OH238255   6.441   4.511  19.652
 4687TIP3    H138256   6.492   4.568  19.594
 4687TIP3    H238257   6.352   4.545  19.646
 4688TIP3   OH238258   6.593   4.652  19.468
 4688TIP3    H138259   6.652   4.577  19.455
 4688TIP3    H238260   6.649   4.720  19.505
 4689TIP3   OH238261   5.029   4.586  19.415
 4689TIP3    H138262   4.956   4.536  19.380
 4689TIP3    H238263   5.100   4.522  19.425
 4690TIP3   OH238264   4.743   4.685  19.055
 4690TIP3    H138265   4.816   4.729  19.011
 4690TIP3    H238266   4.698   4.755  19.103
 4691TIP3   OH238267   5.485   4.539  19.482
 4691TIP3    H138268   5.542   4.604  19.440
 4691TIP3    H238269   5.469   4.575  19.570
 4692TIP3   OH238270   6.181   4.583  19.579
 4692TIP3    H138271   6.177   4.583  19.484
 4692TIP3    H238272   6.120   4.514  19.606
 4693TIP3   OH238273   6.321   4.548  19.150
 4693TIP3    H138274   6.285   4.571  19.064
 4693TIP3    H238275   6.255   4.490  19.189
 4694TIP3   OH238276   4.708   6.619  19.102
 4694TIP3    H138277   4.622   6.587  19.077
 4694TIP3    H238278   4.708   6.711  19.076
 4695TIP3   OH238279   4.971   4.797  18.928
 4695TIP3    H138280   5.012   4.735  18.867
 4695TIP3    H238281   5.041   4.824  18.987
 4696TIP3   OH238282   5.544   4.911  19.223
 4696TIP3    H138283   5.585   4.848  19.282
 4696TIP3    H238284   5.567   4.997  19.260
 4697TIP3   OH238285   5.830   6.560  18.955
 4697TIP3    H138286   5.925   6.566  18.943
 4697TIP3    H238287   5.798   6.523  18.872
 4698TIP3   OH238288   6.622   6.521  19.292
 4698TIP3    H138289   6.606   6.441  19.242
 4698TIP3    H238290   6.608   6.591  19.228
 4699TIP3   OH238291   4.869   6.594  18.871
 4699TIP3    H138292   4.836   6.582  18.960
 4699TIP3    H238293   4.933   6.523  18.860
 4700TIP3   OH238294   8.262   5.777  19.412
 4700TIP3    H138295   8.273   5.747  19.502
 4700TIP3    H238296   8.217   5.706  19.368
 4701TIP3   OH238297   8.093   5.567  19.792
 4701TIP3    H138298   8.085   5.535  19.882
 4701TIP3    H238299   8.035   5.510  19.741
 4702TIP3   OH238300   8.471   5.902  19.655
 4702TIP3    H138301   8.422   5.821  19.664
 4702TIP3    H238302   8.539   5.897  19.722
 4703TIP3   OH238303   7.379   6.195  19.725
 4703TIP3    H138304   7.366   6.101  19.710
 4703TIP3    H238305   7.463   6.201  19.770
 4704TIP3   OH238306   6.846   5.322  19.368
 4704TIP3    H138307   6.797   5.404  19.372
 4704TIP3    H238308   6.837   5.293  19.277
 4705TIP3   OH238309   6.904   5.618  19.611
 4705TIP3    H138310   6.921   5.525  19.628
 4705TIP3    H238311   6.984   5.650  19.569
 4706TIP3   OH238312   8.254   6.576  19.651
 4706TIP3    H138313   8.319   6.513  19.618
 4706TIP3    H238314   8.175   6.523  19.664
 4707TIP3   OH238315   8.040   5.842  19.826
 4707TIP3    H138316   8.052   5.748  19.809
 4707TIP3    H238317   8.122   5.882  19.796
 4708TIP3   OH238318   8.127   5.167  19.737
 4708TIP3    H138319   8.174   5.114  19.801
 4708TIP3    H238320   8.194   5.195  19.675
 4709TIP3   OH238321   7.371   5.057  19.639
 4709TIP3    H138322   7.437   5.112  19.598
 4709TIP3    H238323   7.410   4.969  19.640
 4710TIP3   OH238324   8.423   4.988  19.446
 4710TIP3    H138325   8.467   4.976  19.530
 4710TIP3    H238326   8.493   5.002  19.383
 4711TIP3   OH238327   6.930   5.344  19.631
 4711TIP3    H138328   6.992   5.273  19.646
 4711TIP3    H238329   6.898   5.329  19.542
 4712TIP3   OH238330   7.674   5.432  19.653
 4712TIP3    H138331   7.768   5.415  19.665
 4712TIP3    H238332   7.640   5.352  19.614
 4713TIP3   OH238333   8.220   6.060  19.385
 4713TIP3    H138334   8.224   5.964  19.388
 4713TIP3    H238335   8.304   6.089  19.419
 4714TIP3   OH238336   8.510   4.969  19.705
 4714TIP3    H138337   8.435   4.981  19.763
 4714TIP3    H238338   8.572   4.917  19.756
 4715TIP3   OH238339   7.113   5.129  19.678
 4715TIP3    H138340   7.110   5.140  19.773
 4715TIP3    H238341   7.205   5.112  19.658
 4716TIP3   OH238342   6.915   6.001  19.228
 4716TIP3    H138343   6.909   6.024  19.136
 4716TIP3    H238344   6.928   6.084  19.273
 4717TIP3   OH238345   8.665   5.895  19.851
 4717TIP3    H138346   8.751   5.854  19.861
 4717TIP3    H238347   8.663   5.963  19.918
 4718TIP3   OH238348   7.635   4.612  19.692
 4718TIP3    H138349   7.650   4.612  19.786
 4718TIP3    H238350   7.563   4.674  19.679
 4719TIP3   OH238351   8.414   6.385  19.527
 4719TIP3    H138352   8.446   6.295  19.519
 4719TIP3    H238353   8.490   6.439  19.506
 4720TIP3   OH238354   8.479   6.113  19.481
 4720TIP3    H138355   8.556   6.089  19.429
 4720TIP3    H238356   8.474   6.046  19.548
 4721TIP3   OH238357   8.178   5.556  19.242
 4721TIP3    H138358   8.110   5.584  19.181
 4721TIP3    H238359   8.260   5.572  19.195
 4722TIP3   OH238360   8.206   5.526  18.920
 4722TIP3    H138361   8.274   5.563  18.977
 4722TIP3    H238362   8.239   5.439  18.897
 4723TIP3   OH238363   8.522   5.741  19.309
 4723TIP3    H138364   8.443   5.762  19.360
 4723TIP3    H238365   8.557   5.663  19.351
 4724TIP3   OH238366   7.451   5.799  19.420
 4724TIP3    H138367   7.418   5.751  19.344
 4724TIP3    H238368   7.469   5.731  19.485
 4725TIP3   OH238369   7.666   6.217  19.744
 4725TIP3    H138370   7.643   6.220  19.651
 4725TIP3    H238371   7.727   6.144  19.751
 4726TIP3   OH238372   7.494   5.639  19.647
 4726TIP3    H138373   7.569   5.580  19.643
 4726TIP3    H238374   7.440   5.607  19.719
 4727TIP3   OH238375   8.402   5.616  19.094
 4727TIP3    H138376   8.448   5.667  19.160
 4727TIP3    H238377   8.461   5.615  19.018
 4728TIP3   OH238378   8.180   6.386  19.384
 4728TIP3    H138379   8.262   6.387  19.434
 4728TIP3    H238380   8.167   6.478  19.360
 4729TIP3   OH238381   8.753   4.493  19.137
 4729TIP3    H138382   8.667   4.519  19.172
 4729TIP3    H238383   8.791   4.575  19.104
 4730TIP3   OH238384   7.343   5.679  19.188
 4730TIP3    H138385   7.281   5.751  19.179
 4730TIP3    H238386   7.295   5.602  19.155
 4731TIP3   OH238387   8.798   6.409  18.874
 4731TIP3    H138388   8.814   6.502  18.859
 4731TIP3    H238389   8.813   6.368  18.789
 4732TIP3   OH238390   6.810   6.401  19.731
 4732TIP3    H138391   6.786   6.314  19.763
 4732TIP3    H238392   6.736   6.456  19.758
 4733TIP3   OH238393   8.163   6.650  19.291
 4733TIP3    H138394   8.112   6.635  19.211
 4733TIP3    H238395   8.145   6.741  19.314
 4734TIP3   OH238396   7.241   6.574  19.484
 4734TIP3    H138397   7.282   6.547  19.566
 4734TIP3    H238398   7.149   6.552  19.494
 4735TIP3   OH238399   8.349   6.561  18.987
 4735TIP3    H138400   8.394   6.480  18.964
 4735TIP3    H238401   8.392   6.591  19.067
 4736TIP3   OH238402   8.435   6.651  19.245
 4736TIP3    H138403   8.344   6.646  19.272
 4736TIP3    H238404   8.484   6.616  19.319
 4737TIP3   OH238405   7.413   4.781  19.716
 4737TIP3    H138406   7.339   4.729  19.684
 4737TIP3    H238407   7.383   4.813  19.802
 4738TIP3   OH238408   8.564   5.626  18.878
 4738TIP3    H138409   8.556   5.628  18.783
 4738TIP3    H238410   8.644   5.675  18.897
 4739TIP3   OH238411   7.995   4.855  19.008
 4739TIP3    H138412   7.934   4.879  19.078
 4739TIP3    H238413   7.951   4.785  18.960
 4740TIP3   OH238414   7.541   5.233  19.502
 4740TIP3    H138415   7.483   5.298  19.461
 4740TIP3    H238416   7.594   5.200  19.430
 4741TIP3   OH238417   8.163   5.284  19.306
 4741TIP3    H138418   8.164   5.377  19.286
 4741TIP3    H238419   8.219   5.244  19.239
 4742TIP3   OH238420   8.299   5.218  19.534
 4742TIP3    H138421   8.251   5.247  19.456
 4742TIP3    H238422   8.340   5.136  19.506
 4743TIP3   OH238423   7.637   4.917  18.948
 4743TIP3    H138424   7.613   4.909  19.040
 4743TIP3    H238425   7.577   4.982  18.913
 4744TIP3   OH238426   6.754   4.855  19.556
 4744TIP3    H138427   6.841   4.847  19.596
 4744TIP3    H238428   6.711   4.924  19.607
 4745TIP3   OH238429   7.049   5.081  19.093
 4745TIP3    H138430   7.105   5.109  19.021
 4745TIP3    H238431   6.975   5.141  19.092
 4746TIP3   OH238432   8.050   4.955  19.574
 4746TIP3    H138433   8.059   5.034  19.627
 4746TIP3    H238434   8.082   4.884  19.630
 4747TIP3   OH238435   7.020   5.097  19.415
 4747TIP3    H138436   6.961   5.171  19.397
 4747TIP3    H238437   7.047   5.110  19.506
 4748TIP3   OH238438   7.680   5.166  19.277
 4748TIP3    H138439   7.775   5.158  19.288
 4748TIP3    H238440   7.670   5.210  19.192
 4749TIP3   OH238441   8.278   4.968  19.868
 4749TIP3    H138442   8.276   4.946  19.961
 4749TIP3    H238443   8.237   4.893  19.825
 4750TIP3   OH238444   7.633   5.281  19.031
 4750TIP3    H138445   7.581   5.229  18.971
 4750TIP3    H238446   7.649   5.363  18.985
 4751TIP3   OH238447   7.951   5.366  19.656
 4751TIP3    H138448   7.970   5.360  19.563
 4751TIP3    H238449   7.999   5.293  19.695
 4752TIP3   OH238450   7.259   4.815  19.284
 4752TIP3    H138451   7.257   4.725  19.317
 4752TIP3    H238452   7.353   4.832  19.271
 4753TIP3   OH238453   7.722   5.975  19.103
 4753TIP3    H138454   7.675   5.899  19.069
 4753TIP3    H238455   7.687   5.986  19.192
 4754TIP3   OH238456   8.253   4.892  19.086
 4754TIP3    H138457   8.162   4.882  19.057
 4754TIP3    H238458   8.264   4.986  19.098
 4755TIP3   OH238459   8.339   5.158  19.130
 4755TIP3    H138460   8.429   5.137  19.153
 4755TIP3    H238461   8.345   5.208  19.048
 4756TIP3   OH238462   7.414   5.929  19.663
 4756TIP3    H138463   7.407   5.911  19.569
 4756TIP3    H238464   7.456   5.850  19.699
 4757TIP3   OH238465   7.984   6.058  19.145
 4757TIP3    H138466   8.024   6.048  19.059
 4757TIP3    H238467   7.895   6.025  19.135
 4758TIP3   OH238468   8.707   5.276  19.219
 4758TIP3    H138469   8.692   5.268  19.125
 4758TIP3    H238470   8.795   5.315  19.225
 4759TIP3   OH238471   8.758   6.350  19.135
 4759TIP3    H138472   8.712   6.266  19.127
 4759TIP3    H238473   8.782   6.373  19.045
 4760TIP3   OH238474   8.317   5.664  19.658
 4760TIP3    H138475   8.243   5.632  19.709
 4760TIP3    H238476   8.373   5.587  19.646
 4761TIP3   OH238477   7.539   6.231  19.497
 4761TIP3    H138478   7.529   6.314  19.451
 4761TIP3    H238479   7.461   6.225  19.552
 4762TIP3   OH238480   7.050   5.632  19.026
 4762TIP3    H138481   7.087   5.712  19.062
 4762TIP3    H238482   6.959   5.653  19.007
 4763TIP3   OH238483   7.618   6.010  19.350
 4763TIP3    H138484   7.592   6.087  19.400
 4763TIP3    H238485   7.559   5.940  19.379
 4764TIP3   OH238486   7.488   6.477  19.386
 4764TIP3    H138487   7.399   6.510  19.398
 4764TIP3    H238488   7.544   6.553  19.403
 4765TIP3   OH238489   8.619   6.120  19.058
 4765TIP3    H138490   8.657   6.057  19.119
 4765TIP3    H238491   8.527   6.096  19.053
 4766TIP3   OH238492   8.817   6.687  18.854
 4766TIP3    H138493   8.856   6.762  18.811
 4766TIP3    H238494   8.808   6.713  18.946
 4767TIP3   OH238495   8.703   5.932  19.237
 4767TIP3    H138496   8.637   5.867  19.259
 4767TIP3    H238497   8.786   5.886  19.247
 4768TIP3   OH238498   7.830   6.126  18.768
 4768TIP3    H138499   7.766   6.058  18.744
 4768TIP3    H238500   7.791   6.170  18.844
 4769TIP3   OH238501   7.721   6.238  18.989
 4769TIP3    H138502   7.711   6.161  19.045
 4769TIP3    H238503   7.696   6.311  19.045
 4770TIP3   OH238504   7.146   5.866  19.144
 4770TIP3    H138505   7.072   5.904  19.192
 4770TIP3    H238506   7.181   5.940  19.094
 4771TIP3   OH238507   8.317   4.770  19.320
 4771TIP3    H138508   8.297   4.804  19.232
 4771TIP3    H238509   8.350   4.846  19.368
 4772TIP3   OH238510   7.930   6.373  19.208
 4772TIP3    H138511   7.838   6.399  19.201
 4772TIP3    H238512   7.976   6.435  19.151
 4773TIP3   OH238513   7.952   5.107  19.354
 4773TIP3    H138514   8.022   5.168  19.332
 4773TIP3    H238515   7.985   5.059  19.430
 4774TIP3   OH238516   8.047   4.748  19.384
 4774TIP3    H138517   8.038   4.816  19.450
 4774TIP3    H238518   8.139   4.751  19.359
 4775TIP3   OH238519   7.667   6.458  19.167
 4775TIP3    H138520   7.666   6.550  19.144
 4775TIP3    H238521   7.602   6.449  19.237
 4776TIP3   OH238522   7.568   4.912  19.224
 4776TIP3    H138523   7.580   5.004  19.245
 4776TIP3    H238524   7.654   4.872  19.235
 4777TIP3   OH238525   8.458   5.430  19.610
 4777TIP3    H138526   8.403   5.354  19.594
 4777TIP3    H238527   8.534   5.396  19.658
 4778TIP3   OH238528   7.239   6.075  18.984
 4778TIP3    H138529   7.280   6.161  18.991
 4778TIP3    H238530   7.301   6.023  18.932
 4779TIP3   OH238531   7.192   5.155  18.866
 4779TIP3    H138532   7.163   5.246  18.858
 4779TIP3    H238533   7.139   5.108  18.802
 4780TIP3   OH238534   8.907   6.627  19.769
 4780TIP3    H138535   8.837   6.663  19.714
 4780TIP3    H238536   8.888   6.661  19.857
 4781TIP3   OH238537   7.187   4.639  19.647
 4781TIP3    H138538   7.190   4.614  19.554
 4781TIP3    H238539   7.163   4.558  19.692
 4782TIP3   OH238540   6.962   6.266  19.295
 4782TIP3    H138541   6.935   6.320  19.369
 4782TIP3    H238542   6.985   6.328  19.226
 4783TIP3   OH238543   7.994   6.399  18.804
 4783TIP3    H138544   7.932   6.327  18.816
 4783TIP3    H238545   8.076   6.355  18.781
 4784TIP3   OH238546   8.470   6.327  18.889
 4784TIP3    H138547   8.549   6.294  18.933
 4784TIP3    H238548   8.498   6.347  18.800
 4785TIP3   OH238549   7.420   5.910  18.855
 4785TIP3    H138550   7.465   5.854  18.918
 4785TIP3    H238551   7.489   5.937  18.794
 4786TIP3   OH238552   8.071   6.036  18.884
 4786TIP3    H138553   7.988   6.054  18.840
 4786TIP3    H238554   8.092   5.945  18.860
 4787TIP3   OH238555   7.565   5.745  19.026
 4787TIP3    H138556   7.500   5.715  19.089
 4787TIP3    H238557   7.598   5.665  18.984
 4788TIP3   OH238558   7.693   5.525  18.891
 4788TIP3    H138559   7.690   5.504  18.797
 4788TIP3    H238560   7.781   5.561  18.905
 4789TIP3   OH238561   8.795   5.779  18.877
 4789TIP3    H138562   8.822   5.740  18.793
 4789TIP3    H238563   8.788   5.872  18.858
 4790TIP3   OH238564   7.665   6.743  19.132
 4790TIP3    H138565   7.736   6.770  19.074
 4790TIP3    H238566   7.592   6.801  19.109
 4791TIP3   OH238567   6.959   6.077  18.963
 4791TIP3    H138568   7.052   6.099  18.972
 4791TIP3    H238569   6.957   6.007  18.898
 4792TIP3   OH238570   6.815   6.693  19.413
 4792TIP3    H138571   6.756   6.631  19.370
 4792TIP3    H238572   6.871   6.640  19.468
 4793TIP3   OH238573   6.982   6.546  19.579
 4793TIP3    H138574   6.921   6.486  19.622
 4793TIP3    H238575   7.021   6.597  19.650
 4794TIP3   OH238576   8.931   5.770  19.300
 4794TIP3    H138577   8.975   5.817  19.371
 4794TIP3    H238578   8.920   5.681  19.334
 4795TIP3   OH238579   8.896   5.523  19.431
 4795TIP3    H138580   8.802   5.519  19.416
 4795TIP3    H238581   8.906   5.499  19.523
 4796TIP3   OH238582   9.186   5.848  19.871
 4796TIP3    H138583   0.058   5.819  19.893
 4796TIP3    H238584   9.196   5.941  19.851
 4797TIP3   OH238585   9.023   5.781  19.034
 4797TIP3    H138586   8.941   5.776  18.986
 4797TIP3    H238587   8.997   5.778  19.126
 4798TIP3   OH238588   8.676   5.207  18.952
 4798TIP3    H138589   8.707   5.239  18.867
 4798TIP3    H238590   8.676   5.111  18.942
 4799TIP3   OH238591   8.622   5.493  19.394
 4799TIP3    H138592   8.624   5.415  19.339
 4799TIP3    H238593   8.565   5.469  19.467
 4800TIP3   OH238594   6.800   5.778  19.811
 4800TIP3    H138595   6.841   5.736  19.736
 4800TIP3    H238596   6.752   5.708  19.855
 4801TIP3   OH238597   8.638   4.923  18.968
 4801TIP3    H138598   8.618   4.948  19.058
 4801TIP3    H238599   8.557   4.881  18.936
 4802TIP3   OH238600   8.605   5.015  19.234
 4802TIP3    H138601   8.659   4.946  19.270
 4802TIP3    H238602   8.657   5.095  19.244
 4803TIP3   OH238603   8.689   5.325  19.710
 4803TIP3    H138604   8.772   5.373  19.709
 4803TIP3    H238605   8.713   5.235  19.731
 4804TIP3   OH238606   8.709   4.774  19.332
 4804TIP3    H138607   8.743   4.737  19.414
 4804TIP3    H238608   8.647   4.708  19.300
 4805TIP3   OH238609   7.006   4.854  19.657
 4805TIP3    H138610   7.069   4.781  19.659
 4805TIP3    H238611   7.061   4.932  19.662
 4806TIP3   OH238612   6.705   5.356  19.801
 4806TIP3    H138613   6.784   5.354  19.747
 4806TIP3    H238614   6.701   5.446  19.834
 4807TIP3   OH238615   8.840   4.721  19.004
 4807TIP3    H138616   8.854   4.681  18.918
 4807TIP3    H238617   8.779   4.793  18.987
 4808TIP3   OH238618   6.858   4.832  19.298
 4808TIP3    H138619   6.812   4.838  19.382
 4808TIP3    H238620   6.798   4.783  19.241
 4809TIP3   OH238621   8.603   6.574  19.459
 4809TIP3    H138622   8.680   6.565  19.403
 4809TIP3    H238623   8.631   6.636  19.527
 4810TIP3   OH238624   7.125   6.644  19.798
 4810TIP3    H138625   7.089   6.612  19.880
 4810TIP3    H238626   7.199   6.585  19.780
 4811TIP3   OH238627   7.326   6.469  19.731
 4811TIP3    H138628   7.318   6.374  19.725
 4811TIP3    H238629   7.411   6.484  19.772
 4812TIP3   OH238630   7.573   6.454  19.852
 4812TIP3    H138631   7.613   6.376  19.815
 4812TIP3    H238632   7.626   6.473  19.930
 4813TIP3   OH238633   8.162   4.756  19.735
 4813TIP3    H138634   8.111   4.680  19.761
 4813TIP3    H238635   8.231   4.721  19.679
 4814TIP3   OH238636   8.586   4.526  19.641
 4814TIP3    H138637   8.660   4.581  19.615
 4814TIP3    H238638   8.509   4.581  19.624
 4815TIP3   OH238639   8.817   4.647  19.555
 4815TIP3    H138640   8.864   4.563  19.561
 4815TIP3    H238641   8.886   4.713  19.559
 4816TIP3   OH238642   7.210   4.553  19.383
 4816TIP3    H138643   7.139   4.525  19.324
 4816TIP3    H238644   7.257   4.472  19.403
 4817TIP3   OH238645   6.975   4.603  19.109
 4817TIP3    H138646   7.020   4.664  19.050
 4817TIP3    H238647   6.885   4.635  19.112
 4818TIP3   OH238648   7.726   4.417  19.520
 4818TIP3    H138649   7.808   4.452  19.487
 4818TIP3    H238650   7.691   4.486  19.577
 4819TIP3   OH238651   8.337   4.636  19.566
 4819TIP3    H138652   8.330   4.659  19.474
 4819TIP3    H238653   8.316   4.542  19.569
 4820TIP3   OH238654   8.513   4.583  19.251
 4820TIP3    H138655   8.444   4.647  19.267
 4820TIP3    H238656   8.467   4.499  19.248
 4821TIP3   OH238657   7.024   6.482  19.125
 4821TIP3    H138658   6.949   6.541  19.110
 4821TIP3    H238659   7.092   6.538  19.163
 4822TIP3   OH238660   7.130   4.775  18.946
 4822TIP3    H138661   7.162   4.705  18.889
 4822TIP3    H238662   7.208   4.821  18.975
 4823TIP3   OH238663   7.844   4.877  19.243
 4823TIP3    H138664   7.902   4.812  19.284
 4823TIP3    H238665   7.874   4.961  19.277
 4824TIP3   OH238666   8.075   6.538  19.038
 4824TIP3    H138667   8.168   6.551  19.016
 4824TIP3    H238668   8.036   6.508  18.956
 4825TIP3   OH238669   8.815   6.568  19.285
 4825TIP3    H138670   8.802   6.485  19.240
 4825TIP3    H238671   8.808   6.635  19.216
 4826TIP3   OH238672   7.051   6.493  18.842
 4826TIP3    H138673   7.040   6.481  18.936
 4826TIP3    H238674   7.144   6.510  18.830
 4827TIP3   OH238675   9.150   5.371  19.404
 4827TIP3    H138676   9.070   5.424  19.400
 4827TIP3    H238677   9.157   5.347  19.497
 4828TIP3   OH238678   0.017   6.115  19.812
 4828TIP3    H138679   0.101   6.156  19.794
 4828TIP3    H238680   9.169   6.182  19.791
 4829TIP3   OH238681   9.006   4.839  19.513
 4829TIP3    H138682   9.093   4.867  19.541
 4829TIP3    H238683   9.011   4.839  19.417
 4830TIP3   OH238684   9.005   6.706  19.433
 4830TIP3    H138685   8.945   6.649  19.384
 4830TIP3    H238686   9.049   6.647  19.494
 4831TIP3   OH238687   9.131   6.554  19.624
 4831TIP3    H138688   9.058   6.572  19.683
 4831TIP3    H238689   9.204   6.533  19.682
 4832TIP3   OH238690   9.168   5.585  19.775
 4832TIP3    H138691   0.045   5.575  19.758
 4832TIP3    H238692   9.159   5.676  19.805
 4833TIP3   OH238693   8.946   5.433  19.691
 4833TIP3    H138694   9.009   5.362  19.683
 4833TIP3    H238695   8.995   5.505  19.730
 4834TIP3   OH238696   8.974   4.808  19.234
 4834TIP3    H138697   8.887   4.804  19.274
 4834TIP3    H238698   8.960   4.777  19.145
 4835TIP3   OH238699   1.444   7.944  19.399
 4835TIP3    H138700   1.423   8.035  19.421
 4835TIP3    H238701   1.372   7.915  19.343
 4836TIP3   OH238702   1.333   8.016  19.782
 4836TIP3    H138703   1.320   8.010  19.876
 4836TIP3    H238704   1.318   7.927  19.750
 4837TIP3   OH238705   1.766   8.214  19.629
 4837TIP3    H138706   1.712   8.142  19.661
 4837TIP3    H238707   1.852   8.201  19.669
 4838TIP3   OH238708   0.513   8.360  19.767
 4838TIP3    H138709   0.546   8.308  19.693
 4838TIP3    H238710   0.533   8.307  19.844
 4839TIP3   OH238711   0.039   7.504  19.372
 4839TIP3    H138712   9.178   7.556  19.352
 4839TIP3    H238713   0.011   7.447  19.444
 4840TIP3   OH238714   0.181   7.781  19.719
 4840TIP3    H138715   0.217   7.693  19.733
 4840TIP3    H238716   0.205   7.803  19.629
 4841TIP3   OH238717   1.418   8.848  19.590
 4841TIP3    H138718   1.496   8.825  19.540
 4841TIP3    H238719   1.417   8.787  19.663
 4842TIP3   OH238720   1.253   8.255  19.656
 4842TIP3    H138721   1.296   8.247  19.571
 4842TIP3    H238722   1.276   8.175  19.703
 4843TIP3   OH238723   1.367   7.478  19.748
 4843TIP3    H138724   1.383   7.385  19.767
 4843TIP3    H238725   1.416   7.495  19.668
 4844TIP3   OH238726   0.568   7.213  19.570
 4844TIP3    H138727   0.585   7.298  19.528
 4844TIP3    H238728   0.511   7.167  19.508
 4845TIP3   OH238729   1.631   7.362  19.374
 4845TIP3    H138730   1.624   7.306  19.451
 4845TIP3    H238731   1.724   7.360  19.352
 4846TIP3   OH238732   0.278   7.519  19.716
 4846TIP3    H138733   0.329   7.452  19.762
 4846TIP3    H238734   0.291   7.499  19.623
 4847TIP3   OH238735   0.707   7.739  19.534
 4847TIP3    H138736   0.798   7.710  19.530
 4847TIP3    H238737   0.655   7.661  19.517
 4848TIP3   OH238738   1.393   8.222  19.417
 4848TIP3    H138739   1.360   8.245  19.330
 4848TIP3    H238740   1.479   8.264  19.422
 4849TIP3   OH238741   1.599   7.191  19.581
 4849TIP3    H138742   1.542   7.200  19.657
 4849TIP3    H238743   1.630   7.100  19.586
 4850TIP3   OH238744   0.443   7.306  19.799
 4850TIP3    H138745   0.510   7.309  19.867
 4850TIP3    H238746   0.491   7.276  19.721
 4851TIP3   OH238747   0.248   8.248  19.099
 4851TIP3    H138748   0.272   8.297  19.021
 4851TIP3    H238749   0.172   8.294  19.135
 4852TIP3   OH238750   2.010   8.203  19.772
 4852TIP3    H138751   2.097   8.240  19.755
 4852TIP3    H238752   1.973   8.259  19.840
 4853TIP3   OH238753   0.986   6.979  19.626
 4853TIP3    H138754   0.967   6.901  19.573
 4853TIP3    H238755   0.902   7.004  19.663
 4854TIP3   OH238756   1.626   8.749  19.432
 4854TIP3    H138757   1.664   8.663  19.446
 4854TIP3    H238758   1.700   8.809  19.436
 4855TIP3   OH238759   1.646   8.331  19.413
 4855TIP3    H138760   1.697   8.290  19.342
 4855TIP3    H238761   1.689   8.300  19.493
 4856TIP3   OH238762   1.249   7.861  19.214
 4856TIP3    H138763   1.193   7.938  19.203
 4856TIP3    H238764   1.276   7.839  19.124
 4857TIP3   OH238765   1.357   7.755  18.971
 4857TIP3    H138766   1.438   7.748  19.021
 4857TIP3    H238767   1.364   7.687  18.904
 4858TIP3   OH238768   1.693   7.926  19.285
 4858TIP3    H138769   1.610   7.933  19.333
 4858TIP3    H238770   1.755   7.893  19.350
 4859TIP3   OH238771   0.721   7.998  19.390
 4859TIP3    H138772   0.703   7.968  19.301
 4859TIP3    H238773   0.717   7.919  19.444
 4860TIP3   OH238774   1.028   8.413  19.705
 4860TIP3    H138775   0.969   8.396  19.632
 4860TIP3    H238776   1.102   8.353  19.690
 4861TIP3   OH238777   0.636   7.935  19.722
 4861TIP3    H138778   0.658   7.867  19.658
 4861TIP3    H238779   0.617   7.886  19.802
 4862TIP3   OH238780   1.612   7.751  19.085
 4862TIP3    H138781   1.636   7.808  19.158
 4862TIP3    H238782   1.663   7.783  19.011
 4863TIP3   OH238783   1.225   8.678  19.489
 4863TIP3    H138784   1.257   8.616  19.554
 4863TIP3    H238785   1.267   8.761  19.511
 4864TIP3   OH238786   2.043   6.752  19.129
 4864TIP3    H138787   1.949   6.744  19.145
 4864TIP3    H238788   2.056   6.843  19.103
 4865TIP3   OH238789   0.667   7.900  19.137
 4865TIP3    H138790   0.592   7.956  19.117
 4865TIP3    H238791   0.639   7.812  19.110
 4866TIP3   OH238792   2.162   8.532  19.033
 4866TIP3    H138793   2.170   8.626  19.017
 4866TIP3    H238794   2.250   8.498  19.015
 4867TIP3   OH238795   0.270   8.494  19.749
 4867TIP3    H138796   0.351   8.445  19.741
 4867TIP3    H238797   0.241   8.478  19.839
 4868TIP3   OH238798   1.171   8.881  19.244
 4868TIP3    H138799   1.187   8.890  19.151
 4868TIP3    H238800   1.148   8.969  19.274
 4869TIP3   OH238801   0.670   8.629  19.519
 4869TIP3    H138802   0.645   8.639  19.611
 4869TIP3    H238803   0.593   8.661  19.471
 4870TIP3   OH238804   1.519   8.819  18.979
 4870TIP3    H138805   1.576   8.748  18.950
 4870TIP3    H238806   1.496   8.796  19.069
 4871TIP3   OH238807   1.431   8.748  19.232
 4871TIP3    H138808   1.362   8.804  19.267
 4871TIP3    H238809   1.496   8.744  19.302
 4872TIP3   OH238810   0.693   6.979  19.653
 4872TIP3    H138811   0.616   6.938  19.693
 4872TIP3    H238812   0.663   7.064  19.624
 4873TIP3   OH238813   1.741   7.892  18.884
 4873TIP3    H138814   1.759   7.875  18.791
 4873TIP3    H238815   1.816   7.943  18.914
 4874TIP3   OH238816   1.213   7.283  18.904
 4874TIP3    H138817   1.161   7.255  18.980
 4874TIP3    H238818   1.148   7.304  18.837
 4875TIP3   OH238819   0.596   7.482  19.462
 4875TIP3    H138820   0.506   7.475  19.431
 4875TIP3    H238821   0.649   7.467  19.384
 4876TIP3   OH238822   1.289   7.591  19.313
 4876TIP3    H138823   1.266   7.681  19.289
 4876TIP3    H238824   1.349   7.562  19.244
 4877TIP3   OH238825   1.486   7.558  19.511
 4877TIP3    H138826   1.414   7.577  19.451
 4877TIP3    H238827   1.541   7.496  19.464
 4878TIP3   OH238828   0.844   7.134  18.827
 4878TIP3    H138829   0.829   7.170  18.914
 4878TIP3    H238830   0.759   7.138  18.784
 4879TIP3   OH238831   0.139   7.220  19.504
 4879TIP3    H138832   0.177   7.173  19.579
 4879TIP3    H238833   0.147   7.158  19.431
 4880TIP3   OH238834   0.152   7.344  19.173
 4880TIP3    H138835   0.167   7.397  19.095
 4880TIP3    H238836   0.108   7.403  19.234
 4881TIP3   OH238837   1.159   7.171  19.505
 4881TIP3    H138838   1.085   7.118  19.535
 4881TIP3    H238839   1.223   7.167  19.577
 4882TIP3   OH238840   0.306   7.441  19.450
 4882TIP3    H138841   0.239   7.489  19.400
 4882TIP3    H238842   0.266   7.355  19.467
 4883TIP3   OH238843   0.811   7.450  19.271
 4883TIP3    H138844   0.899   7.434  19.306
 4883TIP3    H238845   0.824   7.512  19.200
 4884TIP3   OH238846   1.419   7.204  19.794
 4884TIP3    H138847   1.439   7.193  19.887
 4884TIP3    H238848   1.357   7.133  19.775
 4885TIP3   OH238849   0.855   7.602  19.045
 4885TIP3    H138850   0.829   7.551  18.968
 4885TIP3    H238851   0.928   7.656  19.014
 4886TIP3   OH238852   1.320   7.753  19.709
 4886TIP3    H138853   1.371   7.747  19.629
 4886TIP3    H238854   1.320   7.664  19.745
 4887TIP3   OH238855   0.410   7.051  19.402
 4887TIP3    H138856   0.406   6.958  19.421
 4887TIP3    H238857   0.336   7.067  19.342
 4888TIP3   OH238858   1.083   8.095  19.163
 4888TIP3    H138859   1.027   8.062  19.093
 4888TIP3    H238860   1.023   8.135  19.226
 4889TIP3   OH238861   1.462   7.259  19.018
 4889TIP3    H138862   1.378   7.264  18.972
 4889TIP3    H238863   1.476   7.347  19.053
 4890TIP3   OH238864   1.508   7.500  19.159
 4890TIP3    H138865   1.562   7.460  19.228
 4890TIP3    H238866   1.556   7.578  19.133
 4891TIP3   OH238867   0.640   8.179  19.595
 4891TIP3    H138868   0.651   8.140  19.509
 4891TIP3    H238869   0.639   8.105  19.655
 4892TIP3   OH238870   1.287   8.289  19.167
 4892TIP3    H138871   1.244   8.374  19.172
 4892TIP3    H238872   1.214   8.226  19.160
 4893TIP3   OH238873   2.087   7.477  19.164
 4893TIP3    H138874   2.059   7.457  19.074
 4893TIP3    H238875   2.053   7.565  19.180
 4894TIP3   OH238876   2.053   8.623  19.277
 4894TIP3    H138877   2.002   8.551  19.314
 4894TIP3    H238878   2.087   8.588  19.194
 4895TIP3   OH238879   1.610   8.004  19.711
 4895TIP3    H138880   1.517   8.018  19.729
 4895TIP3    H238881   1.618   7.909  19.702
 4896TIP3   OH238882   0.816   8.387  19.520
 4896TIP3    H138883   0.770   8.470  19.514
 4896TIP3    H238884   0.752   8.327  19.559
 4897TIP3   OH238885   0.303   7.891  18.945
 4897TIP3    H138886   0.365   7.949  18.990
 4897TIP3    H238887   0.234   7.875  19.010
 4898TIP3   OH238888   0.883   8.214  19.313
 4898TIP3    H138889   0.874   8.278  19.383
 4898TIP3    H238890   0.830   8.140  19.341
 4899TIP3   OH238891   0.895   8.762  19.426
 4899TIP3    H138892   0.819   8.729  19.473
 4899TIP3    H238893   0.910   8.849  19.464
 4900TIP3   OH238894   1.725   8.368  19.018
 4900TIP3    H138895   1.745   8.312  19.094
 4900TIP3    H238896   1.637   8.341  18.991
 4901TIP3   OH238897   2.182   8.818  19.032
 4901TIP3    H138898   2.215   8.859  18.952
 4901TIP3    H238899   2.122   8.882  19.069
 4902TIP3   OH238900   1.786   8.182  19.217
 4902TIP3    H138901   1.745   8.097  19.232
 4902TIP3    H238902   1.879   8.162  19.208
 4903TIP3   OH238903   0.990   8.423  18.844
 4903TIP3    H138904   0.982   8.350  18.783
 4903TIP3    H238905   0.944   8.394  18.923
 4904TIP3   OH238906   0.849   8.369  19.080
 4904TIP3    H138907   0.861   8.310  19.155
 4904TIP3    H238908   0.859   8.456  19.117
 4905TIP3   OH238909   0.460   8.075  19.080
 4905TIP3    H138910   0.383   8.124  19.107
 4905TIP3    H238911   0.518   8.141  19.041
 4906TIP3   OH238912   1.518   7.121  19.249
 4906TIP3    H138913   1.500   7.160  19.163
 4906TIP3    H238914   1.554   7.193  19.301
 4907TIP3   OH238915   1.223   8.570  19.164
 4907TIP3    H138916   1.211   8.583  19.070
 4907TIP3    H238917   1.307   8.611  19.184
 4908TIP3   OH238918   1.084   7.394  19.344
 4908TIP3    H138919   1.150   7.464  19.343
 4908TIP3    H238920   1.113   7.334  19.413
 4909TIP3   OH238921   1.257   7.030  19.284
 4909TIP3    H138922   1.228   7.076  19.363
 4909TIP3    H238923   1.349   7.055  19.274
 4910TIP3   OH238924   0.888   8.624  19.182
 4910TIP3    H138925   0.886   8.686  19.110
 4910TIP3    H238926   0.834   8.665  19.250
 4911TIP3   OH238927   0.816   7.239  19.078
 4911TIP3    H138928   0.791   7.303  19.145
 4911TIP3    H238929   0.907   7.218  19.097
 4912TIP3   OH238930   1.651   7.734  19.661
 4912TIP3    H138931   1.594   7.674  19.612
 4912TIP3    H238932   1.730   7.683  19.677
 4913TIP3   OH238933   0.614   8.272  18.959
 4913TIP3    H138934   0.685   8.317  19.005
 4913TIP3    H238935   0.658   8.218  18.894
 4914TIP3   OH238936   0.186   7.508  18.953
 4914TIP3    H138937   0.252   7.493  18.886
 4914TIP3    H238938   0.120   7.562  18.910
 4915TIP3   OH238939   1.859   8.889  19.789
 4915TIP3    H138940   1.829   8.964  19.738
 4915TIP3    H238941   1.914   8.927  19.857
 4916TIP3   OH238942   0.443   6.869  19.722
 4916TIP3    H138943   0.420   6.846  19.632
 4916TIP3    H238944   0.420   6.792  19.773
 4917TIP3   OH238945   0.437   8.735  19.417
 4917TIP3    H138946   0.362   8.732  19.477
 4917TIP3    H238947   0.406   8.787  19.343
 4918TIP3   OH238948   1.198   8.604  18.889
 4918TIP3    H138949   1.128   8.543  18.867
 4918TIP3    H238950   1.276   8.569  18.845
 4919TIP3   OH238951   1.676   8.611  18.888
 4919TIP3    H138952   1.711   8.538  18.938
 4919TIP3    H238953   1.750   8.643  18.836
 4920TIP3   OH238954   0.756   8.108  18.794
 4920TIP3    H138955   0.807   8.059  18.858
 4920TIP3    H238956   0.821   8.147  18.736
 4921TIP3   OH238957   1.466   8.283  18.955
 4921TIP3    H138958   1.410   8.285  19.032
 4921TIP3    H238959   1.473   8.190  18.933
 4922TIP3   OH238960   0.897   7.974  18.994
 4922TIP3    H138961   0.825   7.942  19.048
 4922TIP3    H238962   0.944   7.895  18.969
 4923TIP3   OH238963   1.051   7.755  18.917
 4923TIP3    H138964   1.043   7.744  18.822
 4923TIP3    H238965   1.146   7.755  18.932
 4924TIP3   OH238966   1.978   8.043  18.909
 4924TIP3    H138967   2.007   8.026  18.820
 4924TIP3    H238968   1.984   8.138  18.919
 4925TIP3   OH238969   0.896   8.812  18.989
 4925TIP3    H138970   0.923   8.902  18.968
 4925TIP3    H238971   0.888   8.769  18.904
 4926TIP3   OH238972   0.364   8.353  18.865
 4926TIP3    H138973   0.453   8.335  18.897
 4926TIP3    H238974   0.339   8.273  18.819
 4927TIP3   OH238975   0.123   8.919  19.448
 4927TIP3    H138976   0.028   8.913  19.456
 4927TIP3    H238977   0.157   8.857  19.513
 4928TIP3   OH238978   0.239   8.740  19.628
 4928TIP3    H138979   0.246   8.650  19.659
 4928TIP3    H238980   0.298   8.790  19.684
 4929TIP3   OH238981   2.269   8.026  19.235
 4929TIP3    H138982   2.313   8.105  19.263
 4929TIP3    H238983   2.213   8.001  19.309
 4930TIP3   OH238984   2.103   7.954  19.444
 4930TIP3    H138985   2.015   7.917  19.445
 4930TIP3    H238986   2.128   7.958  19.537
 4931TIP3   OH238987   2.270   8.289  19.755
 4931TIP3    H138988   2.323   8.211  19.772
 4931TIP3    H238989   2.334   8.357  19.734
 4932TIP3   OH238990   2.254   7.994  18.967
 4932TIP3    H138991   2.160   7.996  18.949
 4932TIP3    H238992   2.261   8.004  19.062
 4933TIP3   OH238993   2.016   7.420  18.911
 4933TIP3    H138994   2.022   7.459  18.823
 4933TIP3    H238995   1.980   7.333  18.896
 4934TIP3   OH238996   1.856   7.829  19.489
 4934TIP3    H138997   1.889   7.745  19.520
 4934TIP3    H238998   1.785   7.851  19.550
 4935TIP3   OH238999   0.135   8.008  19.873
 4935TIP3    H139000   0.160   7.933  19.819
 4935TIP3    H239001   0.129   7.973  19.961
 4936TIP3   OH239002   1.923   7.162  18.877
 4936TIP3    H139003   1.954   7.108  18.950
 4936TIP3    H239004   1.829   7.143  18.871
 4937TIP3   OH239005   1.894   7.329  19.314
 4937TIP3    H139006   1.914   7.236  19.319
 4937TIP3    H239007   1.969   7.367  19.267
 4938TIP3   OH239008   1.903   7.603  19.654
 4938TIP3    H139009   1.991   7.632  19.679
 4938TIP3    H239010   1.907   7.508  19.660
 4939TIP3   OH239011   1.923   7.052  19.331
 4939TIP3    H139012   1.981   7.005  19.391
 4939TIP3    H239013   1.843   7.000  19.330
 4940TIP3   OH239014   0.274   7.098  19.709
 4940TIP3    H139015   0.331   7.022  19.723
 4940TIP3    H239016   0.317   7.169  19.758
 4941TIP3   OH239017   0.007   7.481  19.793
 4941TIP3    H139018   0.100   7.483  19.771
 4941TIP3    H239019   9.196   7.572  19.787
 4942TIP3   OH239020   2.042   7.027  19.088
 4942TIP3    H139021   2.130   7.057  19.107
 4942TIP3    H239022   1.993   7.043  19.168
 4943TIP3   OH239023   0.136   7.086  19.256
 4943TIP3    H139024   0.044   7.066  19.240
 4943TIP3    H239025   0.148   7.174  19.220
 4944TIP3   OH239026   1.843   8.922  19.443
 4944TIP3    H139027   1.936   8.901  19.443
 4944TIP3    H239028   1.831   8.981  19.517
 4945TIP3   OH239029   0.433   8.852  19.792
 4945TIP3    H139030   0.437   8.876  19.884
 4945TIP3    H239031   0.495   8.779  19.783
 4946TIP3   OH239032   0.597   8.627  19.787
 4946TIP3    H139033   0.562   8.538  19.785
 4946TIP3    H239034   0.687   8.616  19.818
 4947TIP3   OH239035   0.858   8.573  19.852
 4947TIP3    H139036   0.913   8.513  19.801
 4947TIP3    H239037   0.919   8.622  19.906
 4948TIP3   OH239038   1.249   7.000  19.725
 4948TIP3    H139039   1.156   6.987  19.706
 4948TIP3    H239040   1.288   6.913  19.712
 4949TIP3   OH239041   1.913   6.797  19.631
 4949TIP3    H139042   1.987   6.844  19.593
 4949TIP3    H239043   1.840   6.857  19.622
 4950TIP3   OH239044   2.113   6.921  19.484
 4950TIP3    H139045   2.161   6.838  19.475
 4950TIP3    H239046   2.181   6.988  19.484
 4951TIP3   OH239047   0.386   6.774  19.470
 4951TIP3    H139048   0.303   6.729  19.458
 4951TIP3    H239049   0.452   6.705  19.458
 4952TIP3   OH239050   0.287   6.888  19.131
 4952TIP3    H139051   0.333   6.946  19.070
 4952TIP3    H239052   0.226   6.945  19.177
 4953TIP3   OH239053   0.821   6.789  19.493
 4953TIP3    H139054   0.793   6.816  19.405
 4953TIP3    H239055   0.768   6.842  19.553
 4954TIP3   OH239056   1.669   6.920  19.577
 4954TIP3    H139057   1.673   6.912  19.482
 4954TIP3    H239058   1.624   6.841  19.606
 4955TIP3   OH239059   1.687   6.905  19.303
 4955TIP3    H139060   1.624   6.971  19.273
 4955TIP3    H239061   1.648   6.822  19.277
 4956TIP3   OH239062   0.302   8.910  19.238
 4956TIP3    H139063   0.228   8.902  19.298
 4956TIP3    H239064   0.274   8.977  19.175
 4957TIP3   OH239065   0.440   7.065  18.974
 4957TIP3    H139066   0.495   7.001  18.929
 4957TIP3    H239067   0.500   7.113  19.031
 4958TIP3   OH239068   1.084   7.206  19.140
 4958TIP3    H139069   1.136   7.133  19.176
 4958TIP3    H239070   1.088   7.273  19.207
 4959TIP3   OH239071   1.238   8.863  18.979
 4959TIP3    H139072   1.332   8.871  18.963
 4959TIP3    H239073   1.214   8.778  18.942
 4960TIP3   OH239074   2.115   8.877  19.363
 4960TIP3    H139075   2.097   8.787  19.337
 4960TIP3    H239076   2.088   8.930  19.288
 4961TIP3   OH239077   0.363   8.931  18.917
 4961TIP3    H139078   0.310   9.000  18.957
 4961TIP3    H239079   0.395   8.880  18.992
 4962TIP3   OH239080   3.781   8.038  19.413
 4962TIP3    H139081   3.751   8.128  19.402
 4962TIP3    H239082   3.802   8.032  19.506
 4963TIP3   OH239083   3.659   7.794  19.776
 4963TIP3    H139084   3.713   7.717  19.792
 4963TIP3    H239085   3.576   7.759  19.744
 4964TIP3   OH239086   3.895   8.241  19.663
 4964TIP3    H139087   3.891   8.148  19.686
 4964TIP3    H239088   3.940   8.282  19.737
 4965TIP3   OH239089   2.868   8.394  19.706
 4965TIP3    H139090   2.844   8.302  19.695
 4965TIP3    H239091   2.956   8.391  19.745
 4966TIP3   OH239092   2.414   7.462  19.416
 4966TIP3    H139093   2.376   7.549  19.408
 4966TIP3    H239094   2.393   7.419  19.334
 4967TIP3   OH239095   2.519   7.815  19.750
 4967TIP3    H139096   2.501   7.724  19.726
 4967TIP3    H239097   2.614   7.824  19.739
 4968TIP3   OH239098   3.703   8.828  19.623
 4968TIP3    H139099   3.770   8.780  19.574
 4968TIP3    H239100   3.655   8.761  19.670
 4969TIP3   OH239101   3.439   8.390  19.660
 4969TIP3    H139102   3.450   8.398  19.566
 4969TIP3    H239103   3.481   8.307  19.682
 4970TIP3   OH239104   3.795   7.551  19.763
 4970TIP3    H139105   3.799   7.467  19.808
 4970TIP3    H239106   3.758   7.531  19.678
 4971TIP3   OH239107   2.846   7.260  19.627
 4971TIP3    H139108   2.887   7.339  19.593
 4971TIP3    H239109   2.823   7.209  19.549
 4972TIP3   OH239110   3.878   7.293  19.439
 4972TIP3    H139111   3.932   7.305  19.517
 4972TIP3    H239112   3.940   7.293  19.366
 4973TIP3   OH239113   2.462   7.548  19.682
 4973TIP3    H139114   2.512   7.479  19.727
 4973TIP3    H239115   2.445   7.512  19.595
 4974TIP3   OH239116   2.984   7.744  19.563
 4974TIP3    H139117   3.079   7.736  19.569
 4974TIP3    H239118   2.954   7.658  19.533
 4975TIP3   OH239119   3.678   8.299  19.350
 4975TIP3    H139120   3.624   8.271  19.275
 4975TIP3    H239121   3.656   8.391  19.362
 4976TIP3   OH239122   4.021   7.351  19.664
 4976TIP3    H139123   3.962   7.331  19.738
 4976TIP3    H239124   4.087   7.408  19.701
 4977TIP3   OH239125   2.626   7.334  19.776
 4977TIP3    H139126   2.657   7.336  19.866
 4977TIP3    H239127   2.704   7.315  19.724
 4978TIP3   OH239128   2.423   8.263  19.248
 4978TIP3    H139129   2.412   8.298  19.159
 4978TIP3    H239130   2.431   8.340  19.304
 4979TIP3   OH239131   4.024   8.419  19.837
 4979TIP3    H139132   4.081   8.443  19.909
 4979TIP3    H239133   4.017   8.499  19.784
 4980TIP3   OH239134   3.109   6.822  19.738
 4980TIP3    H139135   3.115   6.807  19.832
 4980TIP3    H239136   3.043   6.891  19.729
 4981TIP3   OH239137   3.893   8.701  19.460
 4981TIP3    H139138   3.920   8.609  19.463
 4981TIP3    H239139   3.974   8.751  19.472
 4982TIP3   OH239140   3.908   8.427  19.463
 4982TIP3    H139141   3.855   8.381  19.398
 4982TIP3    H239142   3.913   8.367  19.537
 4983TIP3   OH239143   3.661   7.820  19.275
 4983TIP3    H139144   3.652   7.854  19.185
 4983TIP3    H239145   3.695   7.894  19.325
 4984TIP3   OH239146   3.680   7.758  18.976
 4984TIP3    H139147   3.763   7.733  19.018
 4984TIP3    H239148   3.662   7.687  18.915
 4985TIP3   OH239149   3.993   7.927  19.272
 4985TIP3    H139150   3.919   7.970  19.315
 4985TIP3    H239151   4.041   7.885  19.343
 4986TIP3   OH239152   2.942   8.003  19.449
 4986TIP3    H139153   2.908   7.985  19.361
 4986TIP3    H239154   2.962   7.916  19.485
 4987TIP3   OH239155   3.169   8.453  19.725
 4987TIP3    H139156   3.141   8.454  19.634
 4987TIP3    H239157   3.262   8.430  19.721
 4988TIP3   OH239158   2.797   7.849  19.741
 4988TIP3    H139159   2.854   7.814  19.672
 4988TIP3    H239160   2.845   7.832  19.822
 4989TIP3   OH239161   3.940   7.733  19.077
 4989TIP3    H139162   3.951   7.794  19.150
 4989TIP3    H239163   3.980   7.776  19.002
 4990TIP3   OH239164   3.636   8.581  19.389
 4990TIP3    H139165   3.721   8.597  19.430
 4990TIP3    H239166   3.610   8.666  19.354
 4991TIP3   OH239167   4.270   6.700  19.139
 4991TIP3    H139168   4.183   6.713  19.177
 4991TIP3    H239169   4.297   6.786  19.109
 4992TIP3   OH239170   2.832   7.927  19.203
 4992TIP3    H139171   2.761   7.988  19.184
 4992TIP3    H239172   2.793   7.840  19.193
 4993TIP3   OH239173   4.438   8.544  19.021
 4993TIP3    H139174   4.455   8.637  19.007
 4993TIP3    H239175   4.524   8.502  19.014
 4994TIP3   OH239176   2.483   8.472  19.695
 4994TIP3    H139177   2.522   8.464  19.609
 4994TIP3    H239178   2.557   8.466  19.756
 4995TIP3   OH239179   3.549   8.809  19.258
 4995TIP3    H139180   3.543   8.802  19.163
 4995TIP3    H239181   3.467   8.852  19.284
 4996TIP3   OH239182   2.757   8.777  19.476
 4996TIP3    H139183   2.766   8.741  19.564
 4996TIP3    H239184   2.694   8.719  19.433
 4997TIP3   OH239185   3.825   8.836  18.956
 4997TIP3    H139186   3.861   8.752  18.928
 4997TIP3    H239187   3.835   8.837  19.051
 4998TIP3   OH239188   3.821   8.849  19.234
 4998TIP3    H139189   3.727   8.850  19.246
 4998TIP3    H239190   3.855   8.796  19.306
 4999TIP3   OH239191   2.908   7.011  19.745
 4999TIP3    H139192   2.822   6.971  19.735
 4999TIP3    H239193   2.896   7.101  19.716
 5000TIP3   OH239194   4.033   7.896  18.871
 5000TIP3    H139195   4.037   7.880  18.777
 5000TIP3    H239196   4.102   7.960  18.887
 5001TIP3   OH239197   3.487   7.266  18.908
 5001TIP3    H139198   3.436   7.229  18.980
 5001TIP3    H239199   3.421   7.297  18.846
 5002TIP3   OH239200   2.925   7.487  19.475
 5002TIP3    H139201   2.842   7.464  19.433
 5002TIP3    H239202   2.992   7.467  19.409
 5003TIP3   OH239203   3.615   7.549  19.281
 5003TIP3    H139204   3.620   7.645  19.281
 5003TIP3    H239205   3.688   7.522  19.225
 5004TIP3   OH239206   3.674   7.460  19.532
 5004TIP3    H139207   3.649   7.501  19.449
 5004TIP3    H239208   3.737   7.393  19.507
 5005TIP3   OH239209   3.041   7.185  18.891
 5005TIP3    H139210   3.046   7.181  18.986
 5005TIP3    H239211   2.991   7.265  18.873
 5006TIP3   OH239212   2.300   7.128  19.463
 5006TIP3    H139213   2.372   7.113  19.524
 5006TIP3    H239214   2.277   7.220  19.476
 5007TIP3   OH239215   2.343   7.374  19.165
 5007TIP3    H139216   2.391   7.402  19.087
 5007TIP3    H239217   2.256   7.413  19.156
 5008TIP3   OH239218   3.437   7.191  19.516
 5008TIP3    H139219   3.360   7.186  19.572
 5008TIP3    H239220   3.511   7.178  19.576
 5009TIP3   OH239221   2.688   7.384  19.380
 5009TIP3    H139222   2.597   7.402  19.401
 5009TIP3    H239223   2.695   7.288  19.381
 5010TIP3   OH239224   3.116   7.436  19.282
 5010TIP3    H139225   3.211   7.430  19.293
 5010TIP3    H239226   3.104   7.486  19.202
 5011TIP3   OH239227   3.800   7.284  19.838
 5011TIP3    H139228   3.804   7.236  19.920
 5011TIP3    H239229   3.741   7.232  19.783
 5012TIP3   OH239230   3.068   7.559  19.042
 5012TIP3    H139231   3.022   7.512  18.973
 5012TIP3    H239232   3.102   7.637  18.999
 5013TIP3   OH239233   3.482   7.588  19.694
 5013TIP3    H139234   3.540   7.547  19.629
 5013TIP3    H239235   3.468   7.520  19.759
 5014TIP3   OH239236   2.784   7.113  19.397
 5014TIP3    H139237   2.748   7.025  19.407
 5014TIP3    H239238   2.855   7.104  19.334
 5015TIP3   OH239239   3.224   8.191  19.122
 5015TIP3    H139240   3.164   8.130  19.080
 5015TIP3    H239241   3.192   8.199  19.212
 5016TIP3   OH239242   3.732   7.232  19.044
 5016TIP3    H139243   3.648   7.246  19.000
 5016TIP3    H239244   3.761   7.320  19.068
 5017TIP3   OH239245   3.847   7.472  19.137
 5017TIP3    H139246   3.919   7.419  19.170
 5017TIP3    H239247   3.887   7.557  19.116
 5018TIP3   OH239248   2.823   8.126  19.666
 5018TIP3    H139249   2.864   8.097  19.585
 5018TIP3    H239250   2.791   8.045  19.706
 5019TIP3   OH239251   3.499   8.262  19.133
 5019TIP3    H139252   3.468   8.345  19.169
 5019TIP3    H239253   3.419   8.213  19.116
 5020TIP3   OH239254   4.464   7.538  19.112
 5020TIP3    H139255   4.407   7.492  19.051
 5020TIP3    H239256   4.408   7.603  19.153
 5021TIP3   OH239257   4.306   8.609  19.260
 5021TIP3    H139258   4.235   8.546  19.271
 5021TIP3    H239259   4.349   8.582  19.179
 5022TIP3   OH239260   3.858   7.964  19.685
 5022TIP3    H139261   3.778   7.923  19.719
 5022TIP3    H239262   3.926   7.897  19.695
 5023TIP3   OH239263   3.034   8.471  19.484
 5023TIP3    H139264   3.041   8.563  19.458
 5023TIP3    H239265   2.953   8.465  19.533
 5024TIP3   OH239266   2.515   7.892  18.973
 5024TIP3    H139267   2.555   7.957  19.030
 5024TIP3    H239268   2.423   7.917  18.968
 5025TIP3   OH239269   3.105   8.223  19.365
 5025TIP3    H139270   3.082   8.307  19.406
 5025TIP3    H239271   3.049   8.159  19.409
 5026TIP3   OH239272   3.035   8.754  19.439
 5026TIP3    H139273   2.941   8.773  19.438
 5026TIP3    H239274   3.075   8.834  19.471
 5027TIP3   OH239275   4.011   8.358  19.012
 5027TIP3    H139276   4.050   8.290  19.067
 5027TIP3    H239277   3.918   8.335  19.007
 5028TIP3   OH239278   4.455   8.837  19.017
 5028TIP3    H139279   4.460   8.892  18.938
 5028TIP3    H239280   4.398   8.885  19.077
 5029TIP3   OH239281   4.127   8.151  19.157
 5029TIP3    H139282   4.078   8.075  19.188
 5029TIP3    H239283   4.218   8.130  19.175
 5030TIP3   OH239284   3.241   8.490  18.802
 5030TIP3    H139285   3.205   8.407  18.769
 5030TIP3    H239286   3.212   8.494  18.893
 5031TIP3   OH239287   3.150   8.461  19.057
 5031TIP3    H139288   3.181   8.377  19.090
 5031TIP3    H239289   3.167   8.522  19.129
 5032TIP3   OH239290   2.621   8.094  19.137
 5032TIP3    H139291   2.552   8.131  19.192
 5032TIP3    H239292   2.657   8.170  19.090
 5033TIP3   OH239293   3.737   7.098  19.294
 5033TIP3    H139294   3.745   7.135  19.206
 5033TIP3    H239295   3.782   7.161  19.350
 5034TIP3   OH239296   3.413   8.484  19.261
 5034TIP3    H139297   3.343   8.549  19.258
 5034TIP3    H239298   3.484   8.528  19.307
 5035TIP3   OH239299   3.392   7.383  19.313
 5035TIP3    H139300   3.463   7.446  19.300
 5035TIP3    H239301   3.420   7.330  19.387
 5036TIP3   OH239302   3.480   7.007  19.303
 5036TIP3    H139303   3.453   7.055  19.381
 5036TIP3    H239304   3.573   7.028  19.293
 5037TIP3   OH239305   3.210   8.667  19.241
 5037TIP3    H139306   3.235   8.746  19.192
 5037TIP3    H239307   3.149   8.699  19.307
 5038TIP3   OH239308   3.063   7.187  19.167
 5038TIP3    H139309   3.065   7.271  19.214
 5038TIP3    H239310   3.156   7.165  19.155
 5039TIP3   OH239311   4.010   7.719  19.714
 5039TIP3    H139312   3.933   7.667  19.733
 5039TIP3    H239313   4.084   7.666  19.745
 5040TIP3   OH239314   2.719   8.316  18.999
 5040TIP3    H139315   2.775   8.386  19.035
 5040TIP3    H239316   2.777   8.268  18.940
 5041TIP3   OH239317   2.527   7.448  18.964
 5041TIP3    H139318   2.599   7.445  19.027
 5041TIP3    H239319   2.542   7.527  18.913
 5042TIP3   OH239320   4.118   8.861  19.800
 5042TIP3    H139321   4.076   8.936  19.759
 5042TIP3    H239322   4.200   8.895  19.836
 5043TIP3   OH239323   2.661   6.892  19.689
 5043TIP3    H139324   2.669   6.879  19.594
 5043TIP3    H239325   2.640   6.806  19.723
 5044TIP3   OH239326   2.537   8.630  19.386
 5044TIP3    H139327   2.487   8.673  19.455
 5044TIP3    H239328   2.501   8.666  19.305
 5045TIP3   OH239329   3.490   8.624  18.791
 5045TIP3    H139330   3.408   8.574  18.797
 5045TIP3    H239331   3.559   8.558  18.790
 5046TIP3   OH239332   3.939   8.598  18.870
 5046TIP3    H139333   3.981   8.525  18.917
 5046TIP3    H239334   4.005   8.630  18.810
 5047TIP3   OH239335   2.893   8.163  18.850
 5047TIP3    H139336   2.938   8.105  18.911
 5047TIP3    H239337   2.963   8.205  18.800
 5048TIP3   OH239338   3.738   8.275  18.989
 5048TIP3    H139339   3.658   8.272  19.040
 5048TIP3    H239340   3.756   8.183  18.967
 5049TIP3   OH239341   3.036   8.000  19.023
 5049TIP3    H139342   2.977   7.969  19.092
 5049TIP3    H239343   3.076   7.921  18.987
 5050TIP3   OH239344   3.170   7.782  18.903
 5050TIP3    H139345   3.168   7.770  18.808
 5050TIP3    H239346   3.262   7.796  18.924
 5051TIP3   OH239347   4.246   8.076  18.839
 5051TIP3    H139348   4.265   8.064  18.746
 5051TIP3    H239349   4.249   8.171  18.852
 5052TIP3   OH239350   3.306   8.889  19.106
 5052TIP3    H139351   3.380   8.870  19.050
 5052TIP3    H239352   3.267   8.968  19.069
 5053TIP3   OH239353   2.439   8.356  18.987
 5053TIP3    H139354   2.534   8.359  18.986
 5053TIP3    H239355   2.416   8.295  18.916
 5054TIP3   OH239356   2.379   8.937  19.419
 5054TIP3    H139357   2.284   8.933  19.407
 5054TIP3    H239358   2.396   8.881  19.495
 5055TIP3   OH239359   2.438   8.751  19.617
 5055TIP3    H139360   2.412   8.668  19.657
 5055TIP3    H239361   2.489   8.796  19.684
 5056TIP3   OH239362   4.394   8.071  19.229
 5056TIP3    H139363   4.468   8.128  19.250
 5056TIP3    H239364   4.386   8.014  19.306
 5057TIP3   OH239365   4.368   7.901  19.446
 5057TIP3    H139366   4.281   7.863  19.453
 5057TIP3    H239367   4.412   7.875  19.527
 5058TIP3   OH239368   4.624   8.259  19.727
 5058TIP3    H139369   4.669   8.175  19.738
 5058TIP3    H239370   4.534   8.235  19.705
 5059TIP3   OH239371   4.480   8.022  18.972
 5059TIP3    H139372   4.400   8.030  18.921
 5059TIP3    H239373   4.453   8.038  19.063
 5060TIP3   OH239374   4.304   7.417  18.929
 5060TIP3    H139375   4.286   7.450  18.841
 5060TIP3    H239376   4.276   7.326  18.928
 5061TIP3   OH239377   4.120   7.773  19.468
 5061TIP3    H139378   4.118   7.682  19.438
 5061TIP3    H239379   4.080   7.771  19.554
 5062TIP3   OH239380   2.389   8.044  19.825
 5062TIP3    H139381   2.435   7.969  19.786
 5062TIP3    H239382   2.415   8.042  19.917
 5063TIP3   OH239383   4.209   7.157  18.915
 5063TIP3    H139384   4.240   7.084  18.969
 5063TIP3    H239385   4.115   7.141  18.905
 5064TIP3   OH239386   4.048   7.269  19.220
 5064TIP3    H139387   4.069   7.182  19.256
 5064TIP3    H239388   4.111   7.280  19.148
 5065TIP3   OH239389   4.213   7.536  19.777
 5065TIP3    H139390   4.293   7.568  19.736
 5065TIP3    H239391   4.241   7.505  19.864
 5066TIP3   OH239392   4.124   7.019  19.315
 5066TIP3    H139393   4.203   6.996  19.364
 5066TIP3    H239394   4.085   6.935  19.291
 5067TIP3   OH239395   2.499   7.118  19.647
 5067TIP3    H139396   2.553   7.043  19.674
 5067TIP3    H239397   2.534   7.192  19.697
 5068TIP3   OH239398   2.162   7.681  19.703
 5068TIP3    H139399   2.254   7.658  19.714
 5068TIP3    H239400   2.159   7.776  19.712
 5069TIP3   OH239401   4.346   6.945  19.037
 5069TIP3    H139402   4.388   6.912  18.958
 5069TIP3    H239403   4.418   6.977  19.091
 5070TIP3   OH239404   2.289   7.105  19.185
 5070TIP3    H139405   2.295   7.092  19.279
 5070TIP3    H239406   2.314   7.196  19.171
 5071TIP3   OH239407   4.103   8.887  19.470
 5071TIP3    H139408   4.197   8.869  19.470
 5071TIP3    H239409   4.090   8.948  19.543
 5072TIP3   OH239410   2.613   8.843  19.813
 5072TIP3    H139411   2.611   8.837  19.909
 5072TIP3    H239412   2.680   8.780  19.786
 5073TIP3   OH239413   2.796   8.657  19.727
 5073TIP3    H139414   2.804   8.562  19.719
 5073TIP3    H239415   2.880   8.686  19.761
 5074TIP3   OH239416   3.051   8.688  19.816
 5074TIP3    H139417   3.097   8.606  19.795
 5074TIP3    H239418   3.120   8.752  19.830
 5075TIP3   OH239419   3.623   7.103  19.713
 5075TIP3    H139420   3.580   7.037  19.767
 5075TIP3    H239421   3.672   7.052  19.648
 5076TIP3   OH239422   4.111   6.828  19.607
 5076TIP3    H139423   4.186   6.869  19.566
 5076TIP3    H239424   4.040   6.891  19.597
 5077TIP3   OH239425   4.337   6.921  19.476
 5077TIP3    H139426   4.380   6.837  19.495
 5077TIP3    H239427   4.408   6.985  19.474
 5078TIP3   OH239428   2.681   6.847  19.415
 5078TIP3    H139429   2.600   6.836  19.366
 5078TIP3    H239430   2.721   6.760  19.417
 5079TIP3   OH239431   2.357   6.943  18.971
 5079TIP3    H139432   2.441   6.979  18.942
 5079TIP3    H239433   2.332   6.997  19.045
 5080TIP3   OH239434   3.165   6.611  19.571
 5080TIP3    H139435   3.254   6.630  19.541
 5080TIP3    H239436   3.142   6.687  19.625
 5081TIP3   OH239437   3.737   6.932  19.537
 5081TIP3    H139438   3.746   6.952  19.444
 5081TIP3    H239439   3.743   6.837  19.542
 5082TIP3   OH239440   4.034   6.754  19.273
 5082TIP3    H139441   3.951   6.722  19.236
 5082TIP3    H239442   4.045   6.702  19.353
 5083TIP3   OH239443   2.417   8.784  19.183
 5083TIP3    H139444   2.334   8.786  19.136
 5083TIP3    H239445   2.408   8.852  19.250
 5084TIP3   OH239446   2.606   7.052  18.907
 5084TIP3    H139447   2.644   6.976  18.864
 5084TIP3    H239448   2.674   7.083  18.967
 5085TIP3   OH239449   3.342   7.179  19.134
 5085TIP3    H139450   3.385   7.106  19.178
 5085TIP3    H239451   3.360   7.255  19.189
 5086TIP3   OH239452   3.543   8.817  18.981
 5086TIP3    H139453   3.635   8.837  18.961
 5086TIP3    H239454   3.519   8.750  18.916
 5087TIP3   OH239455   4.371   8.845  19.387
 5087TIP3    H139456   4.353   8.758  19.352
 5087TIP3    H239457   4.353   8.904  19.314
 5088TIP3   OH239458   2.530   8.960  18.984
 5088TIP3    H139459   2.509   9.027  19.049
 5088TIP3    H239460   2.524   8.878  19.031
 5089TIP3   OH239461   6.017   8.045  19.379
 5089TIP3    H139462   5.997   8.138  19.369
 5089TIP3    H239463   6.030   8.034  19.473
 5090TIP3   OH239464   5.791   7.913  19.735
 5090TIP3    H139465   5.770   7.921  19.828
 5090TIP3    H239466   5.710   7.885  19.694
 5091TIP3   OH239467   6.136   8.245  19.661
 5091TIP3    H139468   6.112   8.152  19.667
 5091TIP3    H239469   6.197   8.258  19.733
 5092TIP3   OH239470   5.051   8.348  19.711
 5092TIP3    H139471   5.030   8.255  19.702
 5092TIP3    H239472   5.145   8.350  19.728
 5093TIP3   OH239473   4.684   7.531  19.299
 5093TIP3    H139474   4.681   7.609  19.354
 5093TIP3    H239475   4.610   7.541  19.239
 5094TIP3   OH239476   4.792   7.799  19.597
 5094TIP3    H139477   4.775   7.707  19.615
 5094TIP3    H239478   4.883   7.802  19.568
 5095TIP3   OH239479   5.984   8.829  19.620
 5095TIP3    H139480   6.053   8.786  19.570
 5095TIP3    H239481   5.935   8.758  19.661
 5096TIP3   OH239482   5.499   8.141  19.643
 5096TIP3    H139483   5.477   8.047  19.647
 5096TIP3    H239484   5.593   8.144  19.660
 5097TIP3   OH239485   6.211   7.402  19.746
 5097TIP3    H139486   6.149   7.349  19.796
 5097TIP3    H239487   6.157   7.447  19.680
 5098TIP3   OH239488   5.096   7.252  19.640
 5098TIP3    H139489   5.172   7.294  19.601
 5098TIP3    H239490   5.045   7.219  19.565
 5099TIP3   OH239491   6.139   7.280  19.407
 5099TIP3    H139492   6.156   7.217  19.476
 5099TIP3    H239493   6.217   7.277  19.351
 5100TIP3   OH239494   4.727   7.531  19.650
 5100TIP3    H139495   4.809   7.518  19.696
 5100TIP3    H239496   4.717   7.453  19.595
 5101TIP3   OH239497   5.281   7.707  19.482
 5101TIP3    H139498   5.355   7.751  19.523
 5101TIP3    H239499   5.318   7.665  19.404
 5102TIP3   OH239500   5.938   8.316  19.335
 5102TIP3    H139501   5.882   8.293  19.261
 5102TIP3    H239502   5.912   8.405  19.358
 5103TIP3   OH239503   6.191   7.131  19.636
 5103TIP3    H139504   6.121   7.145  19.700
 5103TIP3    H239505   6.261   7.191  19.664
 5104TIP3   OH239506   4.981   7.486  19.745
 5104TIP3    H139507   5.058   7.542  19.759
 5104TIP3    H239508   5.017   7.400  19.724
 5105TIP3   OH239509   4.621   8.237  19.240
 5105TIP3    H139510   4.623   8.289  19.160
 5105TIP3    H239511   4.635   8.300  19.311
 5106TIP3   OH239512   6.320   8.337  19.847
 5106TIP3    H139513   6.350   8.349  19.937
 5106TIP3    H239514   6.354   8.414  19.801
 5107TIP3   OH239515   5.387   6.854  19.741
 5107TIP3    H139516   5.438   6.893  19.812
 5107TIP3    H239517   5.304   6.902  19.742
 5108TIP3   OH239518   6.164   8.700  19.450
 5108TIP3    H139519   6.187   8.607  19.459
 5108TIP3    H239520   6.245   8.747  19.465
 5109TIP3   OH239521   6.165   8.427  19.460
 5109TIP3    H139522   6.110   8.382  19.395
 5109TIP3    H239523   6.166   8.368  19.535
 5110TIP3   OH239524   5.838   7.852  19.286
 5110TIP3    H139525   5.764   7.877  19.342
 5110TIP3    H239526   5.906   7.916  19.307
 5111TIP3   OH239527   5.768   7.847  19.012
 5111TIP3    H139528   5.792   7.850  19.105
 5111TIP3    H239529   5.801   7.762  18.982
 5112TIP3   OH239530   6.215   7.905  19.241
 5112TIP3    H139531   6.149   7.958  19.285
 5112TIP3    H239532   6.274   7.876  19.311
 5113TIP3   OH239533   5.053   7.864  19.509
 5113TIP3    H139534   5.038   7.887  19.418
 5113TIP3    H239535   5.132   7.810  19.508
 5114TIP3   OH239536   5.332   8.349  19.724
 5114TIP3    H139537   5.336   8.397  19.641
 5114TIP3    H239538   5.387   8.272  19.710
 5115TIP3   OH239539   5.224   7.628  19.741
 5115TIP3    H139540   5.230   7.671  19.655
 5115TIP3    H239541   5.295   7.668  19.792
 5116TIP3   OH239542   6.125   7.729  19.043
 5116TIP3    H139543   6.148   7.782  19.119
 5116TIP3    H239544   6.168   7.774  18.970
 5117TIP3   OH239545   5.897   8.599  19.383
 5117TIP3    H139546   5.989   8.614  19.406
 5117TIP3    H239547   5.861   8.686  19.370
 5118TIP3   OH239548   6.572   6.746  19.135
 5118TIP3    H139549   6.486   6.753  19.177
 5118TIP3    H239550   6.588   6.833  19.099
 5119TIP3   OH239551   5.017   7.900  19.238
 5119TIP3    H139552   4.953   7.964  19.208
 5119TIP3    H239553   5.001   7.823  19.183
 5120TIP3   OH239554   6.709   8.551  19.026
 5120TIP3    H139555   6.717   8.642  18.997
 5120TIP3    H239556   6.794   8.511  19.006
 5121TIP3   OH239557   4.799   8.470  19.706
 5121TIP3    H139558   4.881   8.422  19.711
 5121TIP3    H239559   4.731   8.404  19.717
 5122TIP3   OH239560   5.807   8.845  19.288
 5122TIP3    H139561   5.795   8.856  19.194
 5122TIP3    H239562   5.730   8.886  19.327
 5123TIP3   OH239563   5.066   8.793  19.466
 5123TIP3    H139564   5.070   8.748  19.550
 5123TIP3    H239565   5.005   8.741  19.414
 5124TIP3   OH239566   6.114   8.828  18.965
 5124TIP3    H139567   6.154   8.745  18.940
 5124TIP3    H239568   6.116   8.828  19.061
 5125TIP3   OH239569   6.080   8.854  19.238
 5125TIP3    H139570   5.987   8.862  19.258
 5125TIP3    H239571   6.115   8.799  19.308
 5126TIP3   OH239572   5.160   7.006  19.760
 5126TIP3    H139573   5.075   6.963  19.759
 5126TIP3    H239574   5.142   7.096  19.732
 5127TIP3   OH239575   6.228   7.904  18.859
 5127TIP3    H139576   6.262   7.908  18.770
 5127TIP3    H239577   6.285   7.962  18.909
 5128TIP3   OH239578   5.665   7.188  18.961
 5128TIP3    H139579   5.625   7.201  19.047
 5128TIP3    H239580   5.630   7.104  18.930
 5129TIP3   OH239581   5.304   7.404  19.531
 5129TIP3    H139582   5.284   7.482  19.581
 5129TIP3    H239583   5.315   7.435  19.441
 5130TIP3   OH239584   5.874   7.580  19.336
 5130TIP3    H139585   5.864   7.673  19.318
 5130TIP3    H239586   5.926   7.546  19.263
 5131TIP3   OH239587   6.058   7.511  19.537
 5131TIP3    H139588   5.981   7.541  19.489
 5131TIP3    H239589   6.087   7.433  19.490
 5132TIP3   OH239590   5.347   7.200  18.875
 5132TIP3    H139591   5.326   7.210  18.967
 5132TIP3    H239592   5.334   7.287  18.837
 5133TIP3   OH239593   4.564   7.088  19.467
 5133TIP3    H139594   4.604   7.054  19.546
 5133TIP3    H239595   4.598   7.177  19.459
 5134TIP3   OH239596   4.610   7.290  19.096
 5134TIP3    H139597   4.681   7.321  19.040
 5134TIP3    H239598   4.558   7.368  19.116
 5135TIP3   OH239599   5.568   7.324  19.597
 5135TIP3    H139600   5.473   7.328  19.585
 5135TIP3    H239601   5.589   7.402  19.648
 5136TIP3   OH239602   4.732   7.315  19.467
 5136TIP3    H139603   4.727   7.379  19.397
 5136TIP3    H239604   4.811   7.263  19.448
 5137TIP3   OH239605   5.376   7.509  19.278
 5137TIP3    H139606   5.468   7.492  19.294
 5137TIP3    H239607   5.372   7.542  19.188
 5138TIP3   OH239608   6.013   7.214  19.832
 5138TIP3    H139609   6.002   7.182  19.922
 5138TIP3    H239610   5.927   7.203  19.792
 5139TIP3   OH239611   5.386   7.588  19.015
 5139TIP3    H139612   5.368   7.545  18.931
 5139TIP3    H239613   5.421   7.673  18.991
 5140TIP3   OH239614   5.630   7.555  19.721
 5140TIP3    H139615   5.581   7.634  19.699
 5140TIP3    H239616   5.704   7.586  19.774
 5141TIP3   OH239617   4.960   7.141  19.421
 5141TIP3    H139618   4.948   7.047  19.438
 5141TIP3    H239619   5.012   7.144  19.341
 5142TIP3   OH239620   5.492   8.237  19.127
 5142TIP3    H139621   5.432   8.169  19.094
 5142TIP3    H239622   5.475   8.240  19.221
 5143TIP3   OH239623   5.931   7.232  19.032
 5143TIP3    H139624   5.838   7.227  19.008
 5143TIP3    H239625   5.942   7.322  19.065
 5144TIP3   OH239626   6.038   7.480  19.131
 5144TIP3    H139627   6.110   7.428  19.168
 5144TIP3    H239628   6.081   7.561  19.102
 5145TIP3   OH239629   5.033   8.065  19.706
 5145TIP3    H139630   5.034   8.004  19.631
 5145TIP3    H239631   5.106   8.036  19.761
 5146TIP3   OH239632   5.767   8.295  19.119
 5146TIP3    H139633   5.750   8.390  19.115
 5146TIP3    H239634   5.680   8.255  19.113
 5147TIP3   OH239635   6.649   7.603  19.136
 5147TIP3    H139636   6.611   7.565  19.057
 5147TIP3    H239637   6.673   7.692  19.111
 5148TIP3   OH239638   6.585   8.628  19.263
 5148TIP3    H139639   6.519   8.561  19.279
 5148TIP3    H239640   6.629   8.599  19.183
 5149TIP3   OH239641   6.048   7.978  19.648
 5149TIP3    H139642   5.960   7.955  19.679
 5149TIP3    H239643   6.097   7.896  19.656
 5150TIP3   OH239644   5.310   8.488  19.487
 5150TIP3    H139645   5.341   8.577  19.471
 5150TIP3    H239646   5.216   8.492  19.468
 5151TIP3   OH239647   4.714   7.882  18.967
 5151TIP3    H139648   4.767   7.938  19.023
 5151TIP3    H239649   4.628   7.924  18.966
 5152TIP3   OH239650   5.438   8.257  19.393
 5152TIP3    H139651   5.398   8.339  19.422
 5152TIP3    H239652   5.457   8.210  19.474
 5153TIP3   OH239653   5.344   8.758  19.424
 5153TIP3    H139654   5.253   8.786  19.429
 5153TIP3    H239655   5.394   8.832  19.459
 5154TIP3   OH239656   6.291   8.317  18.983
 5154TIP3    H139657   6.320   8.229  19.008
 5154TIP3    H239658   6.196   8.313  18.988
 5155TIP3   OH239659   6.698   8.853  19.003
 5155TIP3    H139660   6.703   8.911  18.927
 5155TIP3    H239661   6.641   8.898  19.065
 5156TIP3   OH239662   6.370   8.057  19.061
 5156TIP3    H139663   6.315   8.006  19.122
 5156TIP3    H239664   6.455   8.063  19.104
 5157TIP3   OH239665   5.434   8.536  18.742
 5157TIP3    H139666   5.387   8.454  18.725
 5157TIP3    H239667   5.452   8.534  18.836
 5158TIP3   OH239668   5.461   8.490  19.010
 5158TIP3    H139669   5.470   8.404  19.050
 5158TIP3    H239670   5.467   8.551  19.082
 5159TIP3   OH239671   4.827   8.073  19.135
 5159TIP3    H139672   4.753   8.110  19.185
 5159TIP3    H239673   4.871   8.150  19.098
 5160TIP3   OH239674   5.891   7.195  19.316
 5160TIP3    H139675   5.910   7.179  19.223
 5160TIP3    H239676   5.974   7.227  19.352
 5161TIP3   OH239677   5.746   8.566  19.141
 5161TIP3    H139678   5.661   8.604  19.165
 5161TIP3    H239679   5.800   8.580  19.219
 5162TIP3   OH239680   5.634   7.440  19.349
 5162TIP3    H139681   5.717   7.489  19.345
 5162TIP3    H239682   5.626   7.413  19.441
 5163TIP3   OH239683   5.676   7.103  19.457
 5163TIP3    H139684   5.642   7.181  19.501
 5163TIP3    H239685   5.757   7.133  19.415
 5164TIP3   OH239686   5.504   8.682  19.208
 5164TIP3    H139687   5.520   8.768  19.169
 5164TIP3    H239688   5.447   8.700  19.283
 5165TIP3   OH239689   5.306   7.254  19.143
 5165TIP3    H139690   5.299   7.340  19.183
 5165TIP3    H239691   5.392   7.221  19.171
 5166TIP3   OH239692   6.187   7.734  19.645
 5166TIP3    H139693   6.133   7.663  19.611
 5166TIP3    H239694   6.266   7.691  19.679
 5167TIP3   OH239695   4.949   8.304  19.034
 5167TIP3    H139696   5.000   8.369  19.083
 5167TIP3    H239697   5.013   8.263  18.976
 5168TIP3   OH239698   4.609   7.637  18.892
 5168TIP3    H139699   4.650   7.715  18.929
 5168TIP3    H239700   4.564   7.596  18.965
 5169TIP3   OH239701   6.423   8.917  19.790
 5169TIP3    H139702   6.369   8.985  19.750
 5169TIP3    H239703   6.503   8.963  19.818
 5170TIP3   OH239704   4.920   6.873  19.714
 5170TIP3    H139705   4.936   6.866  19.619
 5170TIP3    H239706   4.897   6.783  19.740
 5171TIP3   OH239707   4.861   8.656  19.346
 5171TIP3    H139708   4.809   8.665  19.426
 5171TIP3    H239709   4.803   8.688  19.277
 5172TIP3   OH239710   5.803   8.634  18.875
 5172TIP3    H139711   5.774   8.595  18.957
 5172TIP3    H239712   5.869   8.574  18.841
 5173TIP3   OH239713   6.240   8.591  18.879
 5173TIP3    H139714   6.282   8.511  18.913
 5173TIP3    H239715   6.300   8.622  18.811
 5174TIP3   OH239716   5.138   8.174  18.881
 5174TIP3    H139717   5.192   8.120  18.939
 5174TIP3    H239718   5.201   8.215  18.821
 5175TIP3   OH239719   6.010   8.276  18.982
 5175TIP3    H139720   5.932   8.285  19.037
 5175TIP3    H239721   6.005   8.187  18.948
 5176TIP3   OH239722   5.313   8.027  19.047
 5176TIP3    H139723   5.271   7.981  19.120
 5176TIP3    H239724   5.373   7.963  19.010
 5177TIP3   OH239725   5.494   7.840  18.945
 5177TIP3    H139726   5.496   7.828  18.850
 5177TIP3    H239727   5.585   7.854  18.970
 5178TIP3   OH239728   6.691   8.073  18.887
 5178TIP3    H139729   6.639   8.044  18.812
 5178TIP3    H239730   6.648   8.153  18.917
 5179TIP3   OH239731   5.580   8.924  19.101
 5179TIP3    H139732   5.661   8.922  19.050
 5179TIP3    H239733   5.537   9.005  19.075
 5180TIP3   OH239734   4.676   8.371  19.001
 5180TIP3    H139735   4.771   8.368  19.013
 5180TIP3    H239736   4.659   8.311  18.928
 5181TIP3   OH239737   4.643   8.899  19.427
 5181TIP3    H139738   4.548   8.895  19.429
 5181TIP3    H239739   4.672   8.838  19.495
 5182TIP3   OH239740   4.752   8.717  19.600
 5182TIP3    H139741   4.757   8.628  19.635
 5182TIP3    H239742   4.795   8.771  19.666
 5183TIP3   OH239743   6.609   8.062  19.221
 5183TIP3    H139744   6.684   8.119  19.211
 5183TIP3    H239745   6.605   8.043  19.315
 5184TIP3   OH239746   6.591   7.983  19.485
 5184TIP3    H139747   6.509   7.935  19.472
 5184TIP3    H239748   6.634   7.938  19.558
 5185TIP3   OH239749   6.824   8.249  19.697
 5185TIP3    H139750   6.852   8.168  19.740
 5185TIP3    H239751   6.748   8.223  19.644
 5186TIP3   OH239752   6.724   7.865  19.064
 5186TIP3    H139753   6.715   7.924  18.989
 5186TIP3    H239754   6.682   7.911  19.136
 5187TIP3   OH239755   6.564   7.474  18.912
 5187TIP3    H139756   6.559   7.500  18.820
 5187TIP3    H239757   6.560   7.378  18.909
 5188TIP3   OH239758   6.371   7.813  19.454
 5188TIP3    H139759   6.419   7.730  19.456
 5188TIP3    H239760   6.304   7.804  19.521
 5189TIP3   OH239761   4.756   8.019  19.750
 5189TIP3    H139762   4.761   7.943  19.692
 5189TIP3    H239763   4.847   8.049  19.758
 5190TIP3   OH239764   6.527   7.196  18.911
 5190TIP3    H139765   6.569   7.125  18.960
 5190TIP3    H239766   6.434   7.189  18.934
 5191TIP3   OH239767   6.364   7.264  19.254
 5191TIP3    H139768   6.392   7.175  19.277
 5191TIP3    H239769   6.445   7.309  19.230
 5192TIP3   OH239770   6.424   7.589  19.679
 5192TIP3    H139771   6.517   7.567  19.675
 5192TIP3    H239772   6.381   7.510  19.712
 5193TIP3   OH239773   6.443   7.013  19.328
 5193TIP3    H139774   6.518   6.985  19.380
 5193TIP3    H239775   6.394   6.933  19.311
 5194TIP3   OH239776   4.709   7.048  19.695
 5194TIP3    H139777   4.778   6.984  19.712
 5194TIP3    H239778   4.741   7.129  19.735
 5195TIP3   OH239779   4.464   7.635  19.710
 5195TIP3    H139780   4.549   7.597  19.691
 5195TIP3    H239781   4.483   7.721  19.747
 5196TIP3   OH239782   6.657   6.989  19.031
 5196TIP3    H139783   6.718   6.945  18.972
 5196TIP3    H239784   6.713   7.030  19.097
 5197TIP3   OH239785   4.558   7.039  19.189
 5197TIP3    H139786   4.558   7.044  19.284
 5197TIP3    H239787   4.575   7.129  19.160
 5198TIP3   OH239788   6.372   8.887  19.471
 5198TIP3    H139789   6.467   8.875  19.467
 5198TIP3    H239790   6.359   8.948  19.544
 5199TIP3   OH239791   4.911   8.837  19.797
 5199TIP3    H139792   4.896   8.813  19.889
 5199TIP3    H239793   4.976   8.774  19.766
 5200TIP3   OH239794   5.079   8.641  19.702
 5200TIP3    H139795   5.045   8.552  19.700
 5200TIP3    H239796   5.157   8.635  19.758
 5201TIP3   OH239797   5.292   8.583  19.865
 5201TIP3    H139798   5.312   8.496  19.828
 5201TIP3    H239799   5.363   8.600  19.926
 5202TIP3   OH239800   5.766   7.161  19.727
 5202TIP3    H139801   5.695   7.223  19.711
 5202TIP3    H239802   5.755   7.094  19.658
 5203TIP3   OH239803   6.510   6.744  19.633
 5203TIP3    H139804   6.565   6.806  19.585
 5203TIP3    H239805   6.426   6.789  19.643
 5204TIP3   OH239806   6.661   6.914  19.472
 5204TIP3    H139807   6.718   6.842  19.444
 5204TIP3    H239808   6.720   6.988  19.483
 5205TIP3   OH239809   4.969   6.855  19.442
 5205TIP3    H139810   4.903   6.796  19.406
 5205TIP3    H239811   5.051   6.805  19.439
 5206TIP3   OH239812   4.707   6.882  19.018
 5206TIP3    H139813   4.758   6.947  18.969
 5206TIP3    H239814   4.658   6.934  19.082
 5207TIP3   OH239815   5.455   6.708  19.519
 5207TIP3    H139816   5.513   6.773  19.481
 5207TIP3    H239817   5.423   6.748  19.600
 5208TIP3   OH239818   6.265   6.860  19.635
 5208TIP3    H139819   6.237   6.951  19.626
 5208TIP3    H239820   6.191   6.808  19.605
 5209TIP3   OH239821   6.335   6.760  19.278
 5209TIP3    H139822   6.251   6.730  19.241
 5209TIP3    H239823   6.352   6.700  19.351
 5210TIP3   OH239824   4.681   8.790  19.177
 5210TIP3    H139825   4.601   8.798  19.124
 5210TIP3    H239826   4.662   8.838  19.257
 5211TIP3   OH239827   4.892   7.058  18.875
 5211TIP3    H139828   4.936   6.977  18.849
 5211TIP3    H239829   4.958   7.106  18.925
 5212TIP3   OH239830   5.567   7.206  19.219
 5212TIP3    H139831   5.594   7.142  19.284
 5212TIP3    H239832   5.596   7.290  19.254
 5213TIP3   OH239833   5.835   8.873  19.005
 5213TIP3    H139834   5.929   8.885  18.990
 5213TIP3    H239835   5.813   8.793  18.957
 5214TIP3   OH239836   6.641   8.874  19.372
 5214TIP3    H139837   6.629   8.784  19.343
 5214TIP3    H239838   6.612   8.927  19.299
 5215TIP3   OH239839   4.805   8.966  19.002
 5215TIP3    H139840   4.764   9.042  19.042
 5215TIP3    H239841   4.783   8.893  19.061
 5216TIP3   OH239842   8.273   7.994  19.451
 5216TIP3    H139843   8.248   8.086  19.436
 5216TIP3    H239844   8.216   7.945  19.391
 5217TIP3   OH239845   8.212   7.964  19.920
 5217TIP3    H139846   8.158   7.966  19.999
 5217TIP3    H239847   8.184   7.885  19.873
 5218TIP3   OH239848   8.488   8.317  19.659
 5218TIP3    H139849   8.468   8.234  19.703
 5218TIP3    H239850   8.477   8.383  19.727
 5219TIP3   OH239851   7.373   8.397  19.705
 5219TIP3    H139852   7.348   8.305  19.694
 5219TIP3    H239853   7.460   8.393  19.745
 5220TIP3   OH239854   6.835   7.398  19.460
 5220TIP3    H139855   6.782   7.465  19.504
 5220TIP3    H239856   6.821   7.414  19.367
 5221TIP3   OH239857   7.057   7.804  19.771
 5221TIP3    H139858   7.042   7.713  19.747
 5221TIP3    H239859   7.151   7.818  19.756
 5222TIP3   OH239860   8.262   8.847  19.598
 5222TIP3    H139861   8.300   8.787  19.534
 5222TIP3    H239862   8.227   8.789  19.666
 5223TIP3   OH239863   7.914   8.328  19.728
 5223TIP3    H139864   7.958   8.336  19.644
 5223TIP3    H239865   7.983   8.309  19.791
 5224TIP3   OH239866   8.275   7.504  19.784
 5224TIP3    H139867   8.295   7.427  19.836
 5224TIP3    H239868   8.249   7.469  19.698
 5225TIP3   OH239869   7.354   7.267  19.650
 5225TIP3    H139870   7.381   7.346  19.603
 5225TIP3    H239871   7.310   7.214  19.584
 5226TIP3   OH239872   8.467   7.306  19.456
 5226TIP3    H139873   8.499   7.301  19.546
 5226TIP3    H239874   8.523   7.371  19.413
 5227TIP3   OH239875   7.014   7.535  19.703
 5227TIP3    H139876   7.045   7.469  19.765
 5227TIP3    H239877   7.044   7.503  19.618
 5228TIP3   OH239878   7.470   7.738  19.528
 5228TIP3    H139879   7.562   7.719  19.514
 5228TIP3    H239880   7.425   7.657  19.508
 5229TIP3   OH239881   8.196   8.248  19.378
 5229TIP3    H139882   8.135   8.257  19.305
 5229TIP3    H239883   8.185   8.328  19.429
 5230TIP3   OH239884   8.545   7.311  19.715
 5230TIP3    H139885   8.475   7.287  19.776
 5230TIP3    H239886   8.600   7.371  19.766
 5231TIP3   OH239887   7.152   7.323  19.830
 5231TIP3    H139888   7.192   7.312  19.916
 5231TIP3    H239889   7.224   7.309  19.768
 5232TIP3   OH239890   6.847   8.221  19.197
 5232TIP3    H139891   6.854   8.273  19.117
 5232TIP3    H239892   6.855   8.284  19.268
 5233TIP3   OH239893   8.451   8.529  19.838
 5233TIP3    H139894   8.461   8.522  19.933
 5233TIP3    H239895   8.498   8.610  19.816
 5234TIP3   OH239896   7.655   6.878  19.631
 5234TIP3    H139897   7.650   6.803  19.690
 5234TIP3    H239898   7.587   6.938  19.663
 5235TIP3   OH239899   8.385   8.668  19.419
 5235TIP3    H139900   8.415   8.578  19.409
 5235TIP3    H239901   8.464   8.718  19.439
 5236TIP3   OH239902   8.446   8.405  19.405
 5236TIP3    H139903   8.396   8.333  19.367
 5236TIP3    H239904   8.473   8.373  19.491
 5237TIP3   OH239905   8.176   7.837  19.235
 5237TIP3    H139906   8.123   7.838  19.156
 5237TIP3    H239907   8.266   7.842  19.204
 5238TIP3   OH239908   8.179   7.766  18.958
 5238TIP3    H139909   8.266   7.754  18.995
 5238TIP3    H239910   8.171   7.697  18.891
 5239TIP3   OH239911   8.502   7.922  19.320
 5239TIP3    H139912   8.430   7.953  19.375
 5239TIP3    H239913   8.556   7.869  19.378
 5240TIP3   OH239914   7.435   8.008  19.437
 5240TIP3    H139915   7.395   7.996  19.351
 5240TIP3    H239916   7.452   7.919  19.468
 5241TIP3   OH239917   7.656   8.427  19.744
 5241TIP3    H139918   7.644   8.438  19.650
 5241TIP3    H239919   7.743   8.387  19.753
 5242TIP3   OH239920   7.330   7.850  19.740
 5242TIP3    H139921   7.373   7.813  19.663
 5242TIP3    H239922   7.393   7.835  19.811
 5243TIP3   OH239923   8.427   7.788  19.092
 5243TIP3    H139924   8.469   7.834  19.165
 5243TIP3    H239925   8.463   7.829  19.014
 5244TIP3   OH239926   8.148   8.500  19.487
 5244TIP3    H139927   8.222   8.554  19.458
 5244TIP3    H239928   8.076   8.524  19.428
 5245TIP3   OH239929   8.785   6.783  19.109
 5245TIP3    H139930   8.697   6.813  19.131
 5245TIP3    H239931   8.843   6.850  19.144
 5246TIP3   OH239932   7.316   7.939  19.193
 5246TIP3    H139933   7.235   7.986  19.175
 5246TIP3    H239934   7.294   7.847  19.178
 5247TIP3   OH239935   8.830   8.597  18.928
 5247TIP3    H139936   8.819   8.691  18.946
 5247TIP3    H239937   8.864   8.594  18.839
 5248TIP3   OH239938   6.973   8.484  19.683
 5248TIP3    H139939   7.058   8.442  19.685
 5248TIP3    H239940   6.910   8.412  19.691
 5249TIP3   OH239941   8.033   8.826  19.222
 5249TIP3    H139942   8.027   8.824  19.126
 5249TIP3    H239943   7.957   8.878  19.249
 5250TIP3   OH239944   7.292   8.791  19.464
 5250TIP3    H139945   7.294   8.749  19.550
 5250TIP3    H239946   7.228   8.740  19.414
 5251TIP3   OH239947   8.318   8.831  18.947
 5251TIP3    H139948   8.364   8.749  18.928
 5251TIP3    H239949   8.325   8.840  19.042
 5252TIP3   OH239950   8.305   8.847  19.224
 5252TIP3    H139951   8.210   8.846  19.232
 5252TIP3    H239952   8.334   8.777  19.283
 5253TIP3   OH239953   7.446   7.019  19.743
 5253TIP3    H139954   7.360   6.978  19.747
 5253TIP3    H239955   7.428   7.111  19.721
 5254TIP3   OH239956   8.503   7.933  18.870
 5254TIP3    H139957   8.511   7.918  18.776
 5254TIP3    H239958   8.582   7.981  18.894
 5255TIP3   OH239959   8.039   7.157  18.874
 5255TIP3    H139960   8.038   7.157  18.969
 5255TIP3    H239961   7.973   7.092  18.849
 5256TIP3   OH239962   7.369   7.487  19.466
 5256TIP3    H139963   7.277   7.463  19.460
 5256TIP3    H239964   7.408   7.453  19.386
 5257TIP3   OH239965   8.168   7.576  19.334
 5257TIP3    H139966   8.150   7.669  19.317
 5257TIP3    H239967   8.248   7.558  19.284
 5258TIP3   OH239968   8.219   7.401  19.539
 5258TIP3    H139969   8.200   7.469  19.474
 5258TIP3    H239970   8.298   7.359  19.507
 5259TIP3   OH239971   7.621   7.207  18.867
 5259TIP3    H139972   7.578   7.138  18.917
 5259TIP3    H239973   7.551   7.266  18.841
 5260TIP3   OH239974   6.841   7.125  19.489
 5260TIP3    H139975   6.897   7.109  19.565
 5260TIP3    H239976   6.829   7.219  19.486
 5261TIP3   OH239977   6.827   7.402  19.185
 5261TIP3    H139978   6.899   7.433  19.130
 5261TIP3    H239979   6.757   7.466  19.170
 5262TIP3   OH239980   8.033   7.116  19.519
 5262TIP3    H139981   7.941   7.113  19.546
 5262TIP3    H239982   8.081   7.128  19.601
 5263TIP3   OH239983   7.110   7.381  19.481
 5263TIP3    H139984   7.016   7.382  19.462
 5263TIP3    H239985   7.136   7.289  19.472
 5264TIP3   OH239986   7.500   7.395  19.237
 5264TIP3    H139987   7.591   7.368  19.231
 5264TIP3    H239988   7.485   7.449  19.160
 5265TIP3   OH239989   8.330   7.249  19.882
 5265TIP3    H139990   8.334   7.212  19.970
 5265TIP3    H239991   8.270   7.191  19.834
 5266TIP3   OH239992   7.489   7.540  19.008
 5266TIP3    H139993   7.464   7.493  18.928
 5266TIP3    H239994   7.531   7.620  18.977
 5267TIP3   OH239995   8.126   7.736  19.795
 5267TIP3    H139996   8.099   7.737  19.704
 5267TIP3    H239997   8.178   7.656  19.805
 5268TIP3   OH239998   7.223   7.125  19.454
 5268TIP3    H139999   7.195   7.034  19.457
 5268TIP3    H240000   7.265   7.134  19.369
 5269TIP3   OH240001   7.735   8.225  19.134
 5269TIP3    H140002   7.684   8.158  19.089
 5269TIP3    H240003   7.700   8.226  19.223
 5270TIP3   OH240004   8.305   7.276  19.121
 5270TIP3    H140005   8.210   7.269  19.124
 5270TIP3    H240006   8.323   7.368  19.141
 5271TIP3   OH240007   8.402   7.531  19.197
 5271TIP3    H140008   8.486   7.514  19.240
 5271TIP3    H240009   8.416   7.613  19.149
 5272TIP3   OH240010   7.332   8.127  19.665
 5272TIP3    H140011   7.366   8.101  19.579
 5272TIP3    H240012   7.311   8.045  19.709
 5273TIP3   OH240013   8.008   8.313  19.179
 5273TIP3    H140014   7.989   8.401  19.211
 5273TIP3    H240015   7.923   8.275  19.158
 5274TIP3   OH240016   8.799   7.615  19.149
 5274TIP3    H140017   8.793   7.570  19.064
 5274TIP3    H240018   8.793   7.708  19.127
 5275TIP3   OH240019   8.773   8.592  19.207
 5275TIP3    H140020   8.708   8.524  19.220
 5275TIP3    H240021   8.798   8.585  19.115
 5276TIP3   OH240022   8.414   8.073  19.766
 5276TIP3    H140023   8.350   8.042  19.830
 5276TIP3    H240024   8.399   8.018  19.689
 5277TIP3   OH240025   7.551   8.479  19.493
 5277TIP3    H140026   7.563   8.571  19.466
 5277TIP3    H240027   7.467   8.478  19.538
 5278TIP3   OH240028   6.994   7.823  19.018
 5278TIP3    H140029   7.030   7.905  19.050
 5278TIP3    H240030   6.901   7.828  19.039
 5279TIP3   OH240031   7.611   8.230  19.375
 5279TIP3    H140032   7.589   8.312  19.419
 5279TIP3    H240033   7.552   8.165  19.413
 5280TIP3   OH240034   7.565   8.760  19.432
 5280TIP3    H140035   7.471   8.778  19.433
 5280TIP3    H240036   7.605   8.840  19.465
 5281TIP3   OH240037   8.506   8.354  19.029
 5281TIP3    H140038   8.539   8.289  19.091
 5281TIP3    H240039   8.412   8.338  19.025
 5282TIP3   OH240040   8.807   8.867  18.967
 5282TIP3    H140041   8.826   8.940  18.908
 5282TIP3    H240042   8.776   8.908  19.048
 5283TIP3   OH240043   8.602   8.152  19.192
 5283TIP3    H140044   8.555   8.078  19.229
 5283TIP3    H240045   8.693   8.137  19.218
 5284TIP3   OH240046   7.793   8.433  18.770
 5284TIP3    H140047   7.740   8.357  18.747
 5284TIP3    H240048   7.763   8.458  18.857
 5285TIP3   OH240049   7.698   8.477  19.021
 5285TIP3    H140050   7.707   8.391  19.063
 5285TIP3    H240051   7.698   8.540  19.093
 5286TIP3   OH240052   7.077   8.069  19.121
 5286TIP3    H140053   6.996   8.103  19.160
 5286TIP3    H240054   7.117   8.145  19.079
 5287TIP3   OH240055   8.377   7.090  19.308
 5287TIP3    H140056   8.349   7.148  19.237
 5287TIP3    H240057   8.411   7.149  19.375
 5288TIP3   OH240058   7.964   8.567  19.289
 5288TIP3    H140059   7.870   8.581  19.279
 5288TIP3    H240060   8.004   8.651  19.267
 5289TIP3   OH240061   7.998   7.353  19.338
 5289TIP3    H140062   8.041   7.438  19.337
 5289TIP3    H240063   8.030   7.311  19.418
 5290TIP3   OH240064   8.162   6.924  19.367
 5290TIP3    H140065   8.107   6.987  19.414
 5290TIP3    H240066   8.238   6.975  19.340
 5291TIP3   OH240067   7.716   8.668  19.220
 5291TIP3    H140068   7.732   8.746  19.167
 5291TIP3    H240069   7.660   8.698  19.292
 5292TIP3   OH240070   7.346   7.163  19.215
 5292TIP3    H140071   7.398   7.243  19.217
 5292TIP3    H240072   7.398   7.101  19.164
 5293TIP3   OH240073   8.508   7.645  19.710
 5293TIP3    H140074   8.423   7.610  19.737
 5293TIP3    H240075   8.571   7.600  19.768
 5294TIP3   OH240076   7.203   8.293  19.007
 5294TIP3    H140077   7.256   8.355  19.057
 5294TIP3    H240078   7.264   8.253  18.945
 5295TIP3   OH240079   6.997   7.539  19.016
 5295TIP3    H140080   7.008   7.631  19.040
 5295TIP3    H240081   6.992   7.539  18.920
 5296TIP3   OH240082   8.588   8.767  19.807
 5296TIP3    H140083   8.556   8.851  19.776
 5296TIP3    H240084   8.681   8.780  19.823
 5297TIP3   OH240085   7.190   6.906  19.726
 5297TIP3    H140086   7.180   6.893  19.632
 5297TIP3    H240087   7.166   6.822  19.765
 5298TIP3   OH240088   7.081   8.667  19.341
 5298TIP3    H140089   7.026   8.682  19.418
 5298TIP3    H240090   7.028   8.697  19.267
 5299TIP3   OH240091   8.002   8.611  18.769
 5299TIP3    H140092   7.932   8.547  18.773
 5299TIP3    H240093   8.083   8.559  18.771
 5300TIP3   OH240094   8.454   8.597  18.889
 5300TIP3    H140095   8.490   8.525  18.940
 5300TIP3    H240096   8.521   8.617  18.824
 5301TIP3   OH240097   7.392   8.161  18.850
 5301TIP3    H140098   7.439   8.111  18.917
 5301TIP3    H240099   7.462   8.195  18.794
 5302TIP3   OH240100   8.230   8.296  19.006
 5302TIP3    H140101   8.156   8.302  19.066
 5302TIP3    H240102   8.234   8.204  18.982
 5303TIP3   OH240103   7.539   8.020  19.040
 5303TIP3    H140104   7.472   7.994  19.103
 5303TIP3    H240105   7.577   7.937  19.010
 5304TIP3   OH240106   7.647   7.775  18.956
 5304TIP3    H140107   7.673   7.767  18.864
 5304TIP3    H240108   7.726   7.751  19.004
 5305TIP3   OH240109   8.753   8.052  18.879
 5305TIP3    H140110   8.794   8.023  18.798
 5305TIP3    H240111   8.759   8.148  18.876
 5306TIP3   OH240112   7.788   8.883  19.061
 5306TIP3    H140113   7.865   8.867  19.005
 5306TIP3    H240114   7.742   8.955  19.019
 5307TIP3   OH240115   6.932   8.369  18.973
 5307TIP3    H140116   7.026   8.363  18.989
 5307TIP3    H240117   6.917   8.313  18.897
 5308TIP3   OH240118   6.908   8.947  19.414
 5308TIP3    H140119   6.813   8.938  19.401
 5308TIP3    H240120   6.930   8.879  19.478
 5309TIP3   OH240121   6.975   8.745  19.590
 5309TIP3    H140122   6.959   8.656  19.621
 5309TIP3    H240123   7.019   8.788  19.663
 5310TIP3   OH240124   8.851   8.061  19.295
 5310TIP3    H140125   8.903   8.131  19.335
 5310TIP3    H240126   8.864   7.985  19.353
 5311TIP3   OH240127   8.884   7.846  19.467
 5311TIP3    H140128   8.795   7.811  19.478
 5311TIP3    H240129   8.909   7.876  19.554
 5312TIP3   OH240130   9.139   8.143  19.753
 5312TIP3    H140131   0.002   8.110  19.795
 5312TIP3    H240132   9.159   8.236  19.737
 5313TIP3   OH240133   8.784   7.881  19.093
 5313TIP3    H140134   8.773   7.934  19.014
 5313TIP3    H240135   8.807   7.944  19.161
 5314TIP3   OH240136   8.763   7.481  18.911
 5314TIP3    H140137   8.753   7.508  18.820
 5314TIP3    H240138   8.744   7.388  18.911
 5315TIP3   OH240139   8.629   7.739  19.485
 5315TIP3    H140140   8.628   7.655  19.439
 5315TIP3    H240141   8.584   7.720  19.568
 5316TIP3   OH240142   6.892   8.010  19.829
 5316TIP3    H140143   6.951   7.941  19.800
 5316TIP3    H240144   6.927   8.039  19.913
 5317TIP3   OH240145   8.714   7.204  18.920
 5317TIP3    H140146   8.741   7.165  19.003
 5317TIP3    H240147   8.620   7.185  18.915
 5318TIP3   OH240148   8.652   7.493  19.342
 5318TIP3    H140149   8.721   7.448  19.391
 5318TIP3    H240150   8.698   7.536  19.270
 5319TIP3   OH240151   8.682   7.497  19.871
 5319TIP3    H140152   8.774   7.504  19.846
 5319TIP3    H240153   8.681   7.515  19.965
 5320TIP3   OH240154   8.808   7.015  19.271
 5320TIP3    H140155   8.825   6.998  19.363
 5320TIP3    H240156   8.716   6.990  19.259
 5321TIP3   OH240157   7.005   7.116  19.708
 5321TIP3    H140158   7.068   7.046  19.724
 5321TIP3    H240159   7.041   7.192  19.753
 5322TIP3   OH240160   6.731   7.589  19.646
 5322TIP3    H140161   6.819   7.571  19.678
 5322TIP3    H240162   6.719   7.683  19.659
 5323TIP3   OH240163   8.998   7.055  18.931
 5323TIP3    H140164   8.971   6.992  18.865
 5323TIP3    H240165   8.969   7.140  18.896
 5324TIP3   OH240166   6.826   7.122  19.208
 5324TIP3    H140167   6.832   7.113  19.303
 5324TIP3    H240168   6.828   7.217  19.194
 5325TIP3   OH240169   8.587   8.854  19.468
 5325TIP3    H140170   8.679   8.833  19.451
 5325TIP3    H240171   8.587   8.897  19.554
 5326TIP3   OH240172   7.133   8.846  19.799
 5326TIP3    H140173   7.116   8.821  19.890
 5326TIP3    H240174   7.202   8.786  19.770
 5327TIP3   OH240175   7.321   8.667  19.713
 5327TIP3    H140176   7.318   8.572  19.712
 5327TIP3    H240177   7.406   8.688  19.753
 5328TIP3   OH240178   7.569   8.677  19.827
 5328TIP3    H140179   7.605   8.590  19.810
 5328TIP3    H240180   7.643   8.729  19.857
 5329TIP3   OH240181   8.159   7.061  19.772
 5329TIP3    H140182   8.091   7.016  19.822
 5329TIP3    H240183   8.203   6.992  19.722
 5330TIP3   OH240184   8.701   6.770  19.636
 5330TIP3    H140185   8.763   6.831  19.597
 5330TIP3    H240186   8.628   6.825  19.666
 5331TIP3   OH240187   8.889   6.935  19.523
 5331TIP3    H140188   8.940   6.860  19.493
 5331TIP3    H240189   8.953   7.006  19.531
 5332TIP3   OH240190   7.151   6.848  19.460
 5332TIP3    H140191   7.067   6.833  19.417
 5332TIP3    H240192   7.199   6.766  19.450
 5333TIP3   OH240193   6.945   6.925  19.056
 5333TIP3    H140194   7.031   6.957  19.028
 5333TIP3    H240195   6.912   6.992  19.115
 5334TIP3   OH240196   7.638   6.701  19.412
 5334TIP3    H140197   7.653   6.735  19.324
 5334TIP3    H240198   7.650   6.777  19.470
 5335TIP3   OH240199   8.247   6.849  19.627
 5335TIP3    H140200   8.224   6.857  19.535
 5335TIP3    H240201   8.255   6.755  19.642
 5336TIP3   OH240202   8.556   6.899  19.218
 5336TIP3    H140203   8.492   6.964  19.250
 5336TIP3    H240204   8.510   6.815  19.225
 5337TIP3   OH240205   6.930   8.797  19.145
 5337TIP3    H140206   6.846   8.806  19.100
 5337TIP3    H240207   6.945   8.882  19.186
 5338TIP3   OH240208   7.185   7.053  19.009
 5338TIP3    H140209   7.268   7.008  18.996
 5338TIP3    H240210   7.201   7.112  19.084
 5339TIP3   OH240211   8.045   7.164  19.149
 5339TIP3    H140212   8.024   7.082  19.193
 5339TIP3    H240213   8.013   7.232  19.208
 5340TIP3   OH240214   8.037   8.819  18.946
 5340TIP3    H140215   8.130   8.836  18.936
 5340TIP3    H240216   8.019   8.745  18.888
 5341TIP3   OH240217   8.842   8.814  19.356
 5341TIP3    H140218   8.828   8.730  19.312
 5341TIP3    H240219   8.812   8.880  19.293
 5342TIP3   OH240220   7.069   8.938  18.945
 5342TIP3    H140221   7.053   9.006  19.010
 5342TIP3    H240222   7.047   8.856  18.989
 5343TIP3   OH240223   9.015   7.636  19.331
 5343TIP3    H140224   8.981   7.712  19.380
 5343TIP3    H240225   8.952   7.623  19.261
 5344TIP3   OH240226   0.004   8.405  19.710
 5344TIP3    H140227   0.097   8.424  19.699
 5344TIP3    H240228   9.176   8.488  19.694
 5345TIP3   OH240229   9.084   7.125  19.481
 5345TIP3    H140230   9.163   7.170  19.511
 5345TIP3    H240231   9.093   7.121  19.386
 5346TIP3   OH240232   9.066   8.885  19.502
 5346TIP3    H140233   8.997   8.849  19.448
 5346TIP3    H240234   9.029   8.965  19.539
 5347TIP3   OH240235   9.178   8.674  19.653
 5347TIP3    H140236   9.126   8.739  19.605
 5347TIP3    H240237   0.051   8.707  19.649
 5348TIP3   OH240238   9.122   7.742  19.771
 5348TIP3    H140239   9.209   7.777  19.752
 5348TIP3    H240240   9.062   7.814  19.751
 5349TIP3   OH240241   8.948   7.528  19.832
 5349TIP3    H140242   9.021   7.466  19.827
 5349TIP3    H240243   8.988   7.613  19.813
 5350TIP3   OH240244   9.074   7.069  19.201
 5350TIP3    H140245   8.984   7.055  19.230
 5350TIP3    H240246   9.069   7.067  19.106
 5351TIP3   OH240247   0.904   9.089  19.790
 5351TIP3    H140248   0.938   9.058  19.874
 5351TIP3    H240249   0.814   9.115  19.809
 5352TIP3   OH240250   2.035   9.034  19.152
 5352TIP3    H140251   1.940   9.046  19.162
 5352TIP3    H240252   2.070   9.123  19.147
 5353TIP3   OH240253   0.663   9.200  19.835
 5353TIP3    H140254   0.582   9.175  19.789
 5353TIP3    H240255   0.668   0.078  19.823
 5354TIP3   OH240256   0.435   9.119  19.695
 5354TIP3    H140257   0.406   9.119  19.604
 5354TIP3    H240258   0.432   9.028  19.721
 5355TIP3   OH240259   1.790   9.109  19.637
 5355TIP3    H140260   1.821   9.200  19.642
 5355TIP3    H240261   1.697   9.116  19.619
 5356TIP3   OH240262   0.332   9.115  19.437
 5356TIP3    H140263   0.245   9.078  19.450
 5356TIP3    H240264   0.371   9.062  19.367
 5357TIP3   OH240265   0.215   9.110  19.069
 5357TIP3    H140266   0.259   9.195  19.070
 5357TIP3    H240267   0.121   9.132  19.072
 5358TIP3   OH240268   0.958   9.008  19.528
 5358TIP3    H140269   0.994   9.089  19.490
 5358TIP3    H240270   0.941   9.029  19.620
 5359TIP3   OH240271   1.525   9.119  19.574
 5359TIP3    H140272   1.476   9.200  19.588
 5359TIP3    H240273   1.461   9.049  19.587
 5360TIP3   OH240274   1.768   9.084  19.232
 5360TIP3    H140275   1.683   9.052  19.203
 5360TIP3    H240276   1.788   9.031  19.310
 5361TIP3   OH240277   3.227   9.120  19.796
 5361TIP3    H140278   3.263   9.058  19.733
 5361TIP3    H240279   3.133   9.121  19.777
 5362TIP3   OH240280   4.309   9.014  19.177
 5362TIP3    H140281   4.214   9.019  19.182
 5362TIP3    H240282   4.338   9.105  19.176
 5363TIP3   OH240283   2.971   9.160  19.701
 5363TIP3    H140284   2.879   9.137  19.715
 5363TIP3    H240285   2.972   0.039  19.698
 5364TIP3   OH240286   2.699   9.095  19.718
 5364TIP3    H140287   2.678   9.081  19.626
 5364TIP3    H240288   2.664   9.018  19.763
 5365TIP3   OH240289   4.032   9.084  19.655
 5365TIP3    H140290   4.060   9.175  19.645
 5365TIP3    H240291   3.937   9.087  19.642
 5366TIP3   OH240292   2.646   9.036  19.456
 5366TIP3    H140293   2.557   9.011  19.432
 5366TIP3    H240294   2.696   8.955  19.448
 5367TIP3   OH240295   2.459   9.120  19.192
 5367TIP3    H140296   2.485   9.212  19.195
 5367TIP3    H240297   2.420   9.103  19.277
 5368TIP3   OH240298   3.124   9.005  19.527
 5368TIP3    H140299   3.182   9.073  19.493
 5368TIP3    H240300   3.059   9.052  19.579
 5369TIP3   OH240301   3.758   9.093  19.598
 5369TIP3    H140302   3.722   9.102  19.510
 5369TIP3    H240303   3.735   9.004  19.624
 5370TIP3   OH240304   4.036   9.028  19.241
 5370TIP3    H140305   3.957   8.980  19.216
 5370TIP3    H240306   4.061   8.990  19.325
 5371TIP3   OH240307   5.450   9.087  19.781
 5371TIP3    H140308   5.471   9.032  19.857
 5371TIP3    H240309   5.359   9.112  19.794
 5372TIP3   OH240310   6.553   9.032  19.165
 5372TIP3    H140311   6.458   9.033  19.179
 5372TIP3    H240312   6.579   9.124  19.173
 5373TIP3   OH240313   5.202   9.185  19.818
 5373TIP3    H140314   5.118   9.155  19.785
 5373TIP3    H240315   5.201   0.063  19.802
 5374TIP3   OH240316   4.959   9.098  19.708
 5374TIP3    H140317   4.942   9.083  19.615
 5374TIP3    H240318   4.937   9.015  19.751
 5375TIP3   OH240319   6.295   9.107  19.635
 5375TIP3    H140320   6.314   9.201  19.630
 5375TIP3    H240321   6.201   9.101  19.619
 5376TIP3   OH240322   4.904   9.033  19.444
 5376TIP3    H140323   4.817   8.998  19.426
 5376TIP3    H240324   4.963   8.958  19.437
 5377TIP3   OH240325   4.677   9.174  19.124
 5377TIP3    H140326   4.733   0.034  19.138
 5377TIP3    H240327   4.593   9.200  19.162
 5378TIP3   OH240328   5.479   8.978  19.522
 5378TIP3    H140329   5.513   9.057  19.480
 5378TIP3    H240330   5.469   9.002  19.614
 5379TIP3   OH240331   6.021   9.095  19.580
 5379TIP3    H140332   5.968   9.105  19.501
 5379TIP3    H240333   6.005   9.005  19.609
 5380TIP3   OH240334   6.287   9.037  19.253
 5380TIP3    H140335   6.210   8.986  19.229
 5380TIP3    H240336   6.318   8.997  19.334
 5381TIP3   OH240337   7.707   9.084  19.805
 5381TIP3    H140338   7.746   9.027  19.739
 5381TIP3    H240339   7.616   9.094  19.777
 5382TIP3   OH240340   8.725   9.007  19.193
 5382TIP3    H140341   8.632   9.013  19.216
 5382TIP3    H240342   8.757   9.097  19.197
 5383TIP3   OH240343   7.473   9.160  19.682
 5383TIP3    H140344   7.381   9.137  19.698
 5383TIP3    H240345   7.474   0.039  19.686
 5384TIP3   OH240346   7.202   9.102  19.709
 5384TIP3    H140347   7.186   9.083  19.617
 5384TIP3    H240348   7.174   9.023  19.755
 5385TIP3   OH240349   8.544   9.017  19.690
 5385TIP3    H140350   8.586   9.103  19.689
 5385TIP3    H240351   8.451   9.036  19.674
 5386TIP3   OH240352   7.170   9.041  19.444
 5386TIP3    H140353   7.081   9.010  19.427
 5386TIP3    H240354   7.224   8.962  19.438
 5387TIP3   OH240355   6.997   9.086  19.169
 5387TIP3    H140356   7.032   9.175  19.164
 5387TIP3    H240357   6.964   9.078  19.259
 5388TIP3   OH240358   7.648   9.012  19.520
 5388TIP3    H140359   7.710   9.081  19.495
 5388TIP3    H240360   7.576   9.058  19.562
 5389TIP3   OH240361   8.305   9.111  19.551
 5389TIP3    H140362   8.353   9.100  19.469
 5389TIP3    H240363   8.270   9.024  19.570
 5390TIP3   OH240364   8.464   9.050  19.318
 5390TIP3    H140365   8.402   8.995  19.270
 5390TIP3    H240366   8.510   8.989  19.376
 5391TIP3   OH240367   1.484   1.248  10.628
 5391TIP3    H140368   1.465   1.322  10.570
 5391TIP3    H240369   1.422   1.180  10.601
 5392TIP3   OH240370   1.432   1.022  11.074
 5392TIP3    H140371   1.424   0.959  11.145
 5392TIP3    H240372   1.358   1.002  11.016
 5393TIP3   OH240373   0.260   1.068  11.207
 5393TIP3    H140374   0.269   0.973  11.216
 5393TIP3    H240375   0.306   1.103  11.284
 5394TIP3   OH240376   1.644   1.352  10.826
 5394TIP3    H140377   1.583   1.314  10.763
 5394TIP3    H240378   1.666   1.280  10.884
 5395TIP3   OH240379   0.627   1.611  11.065
 5395TIP3    H140380   0.612   1.525  11.025
 5395TIP3    H240381   0.720   1.629  11.051
 5396TIP3   OH240382   0.055   0.731  10.592
 5396TIP3    H140383   0.071   0.807  10.648
 5396TIP3    H240384   9.182   0.744  10.560
 5397TIP3   OH240385   0.239   1.006  10.837
 5397TIP3    H140386   0.253   0.912  10.848
 5397TIP3    H240387   0.326   1.045  10.842
 5398TIP3   OH240388   1.467   2.034  10.881
 5398TIP3    H140389   1.524   1.965  10.845
 5398TIP3    H240390   1.463   2.014  10.975
 5399TIP3   OH240391   1.087   1.451  11.024
 5399TIP3    H140392   1.129   1.434  10.940
 5399TIP3    H240393   1.157   1.485  11.079
 5400TIP3   OH240394   2.196   0.339  11.129
 5400TIP3    H140395   2.168   0.423  11.166
 5400TIP3    H240396   2.230   0.362  11.043
 5401TIP3   OH240397   1.345   0.650  11.011
 5401TIP3    H140398   1.380   0.564  11.038
 5401TIP3    H240399   1.404   0.678  10.941
 5402TIP3   OH240400   0.642   0.539  10.881
 5402TIP3    H140401   0.678   0.612  10.831
 5402TIP3    H240402   0.627   0.471  10.815
 5403TIP3   OH240403   1.629   0.445  10.714
 5403TIP3    H140404   1.666   0.428  10.801
 5403TIP3    H240405   1.704   0.469  10.660
 5404TIP3   OH240406   0.291   0.735  10.868
 5404TIP3    H140407   0.348   0.705  10.939
 5404TIP3    H240408   0.331   0.701  10.788
 5405TIP3   OH240409   0.803   0.978  10.801
 5405TIP3    H140410   0.893   0.946  10.803
 5405TIP3    H240411   0.752   0.903  10.770
 5406TIP3   OH240412   2.078   0.552  11.261
 5406TIP3    H140413   2.060   0.645  11.255
 5406TIP3    H240414   2.017   0.519  11.327
 5407TIP3   OH240415   0.586   0.458  11.261
 5407TIP3    H140416   0.563   0.522  11.193
 5407TIP3    H240417   0.506   0.451  11.314
 5408TIP3   OH240418   1.486   1.489  10.489
 5408TIP3    H140419   1.403   1.525  10.457
 5408TIP3    H240420   1.512   1.547  10.561
 5409TIP3   OH240421   0.939   1.236  11.136
 5409TIP3    H140422   0.893   1.290  11.200
 5409TIP3    H240423   0.992   1.298  11.087
 5410TIP3   OH240424   1.721   0.424  10.973
 5410TIP3    H140425   1.633   0.422  11.010
 5410TIP3    H240426   1.759   0.506  11.005
 5411TIP3   OH240427   0.477   0.641  11.065
 5411TIP3    H140428   0.517   0.725  11.087
 5411TIP3    H240429   0.537   0.602  11.002
 5412TIP3   OH240430   0.653   1.593  11.348
 5412TIP3    H140431   0.637   1.598  11.254
 5412TIP3    H240432   0.569   1.565  11.385
 5413TIP3   OH240433   0.309   1.584  10.443
 5413TIP3    H140434   0.310   1.612  10.352
 5413TIP3    H240435   0.285   1.663  10.492
 5414TIP3   OH240436   1.783   1.648  11.158
 5414TIP3    H140437   1.690   1.673  11.163
 5414TIP3    H240438   1.799   1.634  11.065
 5415TIP3   OH240439   1.949   0.243  11.230
 5415TIP3    H140440   1.899   0.209  11.157
 5415TIP3    H240441   2.030   0.277  11.191
 5416TIP3   OH240442   1.060   0.045  10.995
 5416TIP3    H140443   1.006   9.187  11.022
 5416TIP3    H240444   1.026   0.119  11.046
 5417TIP3   OH240445   1.644   1.862  10.755
 5417TIP3    H140446   1.646   1.768  10.736
 5417TIP3    H240447   1.735   1.886  10.769
 5418TIP3   OH240448   1.666   1.593  10.692
 5418TIP3    H140449   1.731   1.569  10.627
 5418TIP3    H240450   1.659   1.516  10.749
 5419TIP3   OH240451   1.994   1.473  11.514
 5419TIP3    H140452   2.005   1.416  11.438
 5419TIP3    H240453   1.974   1.559  11.477
 5420TIP3   OH240454   1.358   1.024  10.501
 5420TIP3    H140455   1.280   1.025  10.446
 5420TIP3    H240456   1.430   1.035  10.439
 5421TIP3   OH240457   1.286   0.961  10.225
 5421TIP3    H140458   1.362   1.018  10.231
 5421TIP3    H240459   1.322   0.874  10.206
 5422TIP3   OH240460   2.149   1.051  11.339
 5422TIP3    H140461   2.103   1.134  11.332
 5422TIP3    H240462   2.211   1.052  11.266
 5423TIP3   OH240463   1.712   1.184  10.485
 5423TIP3    H140464   1.644   1.210  10.548
 5423TIP3    H240465   1.763   1.118  10.532
 5424TIP3   OH240466   1.772   0.881  11.422
 5424TIP3    H140467   1.776   0.954  11.483
 5424TIP3    H240468   1.688   0.892  11.377
 5425TIP3   OH240469   0.741   1.237  10.715
 5425TIP3    H140470   0.710   1.223  10.625
 5425TIP3    H240471   0.766   1.150  10.746
 5426TIP3   OH240472   0.890   1.655  10.994
 5426TIP3    H140473   0.871   1.656  10.901
 5426TIP3    H240474   0.956   1.586  11.004
 5427TIP3   OH240475   0.716   1.101  11.035
 5427TIP3    H140476   0.743   1.056  10.954
 5427TIP3    H240477   0.796   1.140  11.068
 5428TIP3   OH240478   1.519   1.726  11.152
 5428TIP3    H140479   1.498   1.819  11.151
 5428TIP3    H240480   1.435   1.683  11.133
 5429TIP3   OH240481   0.847   1.645  11.537
 5429TIP3    H140482   0.800   1.711  11.588
 5429TIP3    H240483   0.788   1.625  11.464
 5430TIP3   OH240484   1.538   1.068  10.298
 5430TIP3    H140485   1.596   1.124  10.349
 5430TIP3    H240486   1.596   1.020  10.239
 5431TIP3   OH240487   0.385   1.122  11.465
 5431TIP3    H140488   0.426   1.192  11.517
 5431TIP3    H240489   0.294   1.120  11.495
 5432TIP3   OH240490   1.302   2.024  10.653
 5432TIP3    H140491   1.337   2.030  10.742
 5432TIP3    H240492   1.247   2.101  10.644
 5433TIP3   OH240493   0.717   1.854  11.664
 5433TIP3    H140494   0.728   1.922  11.598
 5433TIP3    H240495   0.626   1.826  11.656
 5434TIP3   OH240496   2.070   0.086  10.319
 5434TIP3    H140497   1.991   0.118  10.362
 5434TIP3    H240498   2.120   0.165  10.299
 5435TIP3   OH240499   0.656   1.186  10.456
 5435TIP3    H140500   0.601   1.262  10.435
 5435TIP3    H240501   0.603   1.110  10.430
 5436TIP3   OH240502   2.210   1.919  10.197
 5436TIP3    H140503   2.217   2.013  10.212
 5436TIP3    H240504   2.299   1.892  10.173
 5437TIP3   OH240505   0.175   1.384  11.455
 5437TIP3    H140506   0.094   1.381  11.404
 5437TIP3    H240507   0.172   1.306  11.510
 5438TIP3   OH240508   0.205   1.740  11.023
 5438TIP3    H140509   0.258   1.662  11.011
 5438TIP3    H240510   0.245   1.785  11.098
 5439TIP3   OH240511   2.122   1.833  11.712
 5439TIP3    H140512   2.153   1.791  11.792
 5439TIP3    H240513   2.032   1.859  11.733
 5440TIP3   OH240514   1.069   1.811  11.481
 5440TIP3    H140515   1.074   1.881  11.546
 5440TIP3    H240516   0.991   1.760  11.505
 5441TIP3   OH240517   1.156   2.244  10.567
 5441TIP3    H140518   1.184   2.216  10.480
 5441TIP3    H240519   1.170   2.338  10.568
 5442TIP3   OH240520   0.519   1.987  10.734
 5442TIP3    H140521   0.536   1.947  10.819
 5442TIP3    H240522   0.434   1.951  10.708
 5443TIP3   OH240523   1.516   2.066  10.292
 5443TIP3    H140524   1.554   1.990  10.249
 5443TIP3    H240525   1.531   2.051  10.385
 5444TIP3   OH240526   1.566   2.051  10.567
 5444TIP3    H140527   1.472   2.045  10.585
 5444TIP3    H240528   1.604   1.978  10.617
 5445TIP3   OH240529   1.887   0.683  11.583
 5445TIP3    H140530   1.844   0.744  11.523
 5445TIP3    H240531   1.884   0.599  11.538
 5446TIP3   OH240532   0.416   1.516  11.477
 5446TIP3    H140533   0.447   1.448  11.536
 5446TIP3    H240534   0.328   1.489  11.453
 5447TIP3   OH240535   0.660   0.208  11.159
 5447TIP3    H140536   0.609   0.216  11.079
 5447TIP3    H240537   0.646   0.290  11.206
 5448TIP3   OH240538   1.229   0.182  11.370
 5448TIP3    H140539   1.242   0.092  11.400
 5448TIP3    H240540   1.134   0.195  11.372
 5449TIP3   OH240541   1.616   0.445  11.537
 5449TIP3    H140542   1.588   0.433  11.628
 5449TIP3    H240543   1.574   0.526  11.509
 5450TIP3   OH240544   1.729   0.933  10.159
 5450TIP3    H140545   1.764   0.884  10.233
 5450TIP3    H240546   1.803   0.946  10.100
 5451TIP3   OH240547   1.214   0.429  10.228
 5451TIP3    H140548   1.151   0.401  10.294
 5451TIP3    H240549   1.161   0.449  10.151
 5452TIP3   OH240550   0.577   0.880  11.136
 5452TIP3    H140551   0.563   0.895  11.230
 5452TIP3    H240552   0.620   0.960  11.106
 5453TIP3   OH240553   0.679   0.751  10.698
 5453TIP3    H140554   0.590   0.725  10.673
 5453TIP3    H240555   0.735   0.716  10.629
 5454TIP3   OH240556   1.356   0.749  10.566
 5454TIP3    H140557   1.358   0.844  10.556
 5454TIP3    H240558   1.429   0.717  10.513
 5455TIP3   OH240559   1.238   0.882  11.886
 5455TIP3    H140560   1.180   0.895  11.811
 5455TIP3    H240561   1.223   0.791  11.912
 5456TIP3   OH240562   1.509   0.684  10.792
 5456TIP3    H140563   1.452   0.715  10.722
 5456TIP3    H240564   1.542   0.600  10.761
 5457TIP3   OH240565   0.294   0.781  11.239
 5457TIP3    H140566   0.357   0.809  11.306
 5457TIP3    H240567   0.343   0.720  11.184
 5458TIP3   OH240568   0.666   0.546  10.232
 5458TIP3    H140569   0.710   0.498  10.302
 5458TIP3    H240570   0.709   0.631  10.231
 5459TIP3   OH240571   0.124   0.452  10.768
 5459TIP3    H140572   0.182   0.444  10.844
 5459TIP3    H240573   0.117   0.546  10.753
 5460TIP3   OH240574   0.236   0.573  10.461
 5460TIP3    H140575   0.233   0.604  10.371
 5460TIP3    H240576   0.167   0.621  10.506
 5461TIP3   OH240577   1.375   0.811  11.246
 5461TIP3    H140578   1.363   0.748  11.175
 5461TIP3    H240579   1.308   0.787  11.310
 5462TIP3   OH240580   1.211   0.449  10.809
 5462TIP3    H140581   1.231   0.524  10.866
 5462TIP3    H240582   1.239   0.372  10.860
 5463TIP3   OH240583   0.431   0.621  10.652
 5463TIP3    H140584   0.369   0.608  10.581
 5463TIP3    H240585   0.474   0.536  10.662
 5464TIP3   OH240586   0.854   0.648  10.511
 5464TIP3    H140587   0.948   0.643  10.533
 5464TIP3    H240588   0.851   0.702  10.432
 5465TIP3   OH240589   1.455   0.400  11.056
 5465TIP3    H140590   1.455   0.379  11.150
 5465TIP3    H240591   1.405   0.328  11.016
 5466TIP3   OH240592   0.812   0.792  10.279
 5466TIP3    H140593   0.732   0.842  10.263
 5466TIP3    H240594   0.883   0.851  10.252
 5467TIP3   OH240595   1.959   2.214  11.675
 5467TIP3    H140596   1.972   2.211  11.581
 5467TIP3    H240597   2.034   2.263  11.709
 5468TIP3   OH240598   0.459   1.314  11.660
 5468TIP3    H140599   0.530   1.309  11.724
 5468TIP3    H240600   0.380   1.330  11.713
 5469TIP3   OH240601   1.199   0.895  10.975
 5469TIP3    H140602   1.230   0.805  10.990
 5469TIP3    H240603   1.135   0.910  11.044
 5470TIP3   OH240604   0.575   0.382  10.661
 5470TIP3    H140605   0.531   0.297  10.666
 5470TIP3    H240606   0.638   0.372  10.589
 5471TIP3   OH240607   0.961   0.699  11.254
 5471TIP3    H140608   0.956   0.783  11.209
 5471TIP3    H240609   1.040   0.706  11.308
 5472TIP3   OH240610   1.003   1.458  10.401
 5472TIP3    H140611   0.980   1.371  10.369
 5472TIP3    H240612   0.986   1.455  10.495
 5473TIP3   OH240613   2.039   1.310  11.290
 5473TIP3    H140614   2.120   1.336  11.246
 5473TIP3    H240615   1.972   1.320  11.223
 5474TIP3   OH240616   1.458   0.401  10.358
 5474TIP3    H140617   1.378   0.408  10.306
 5474TIP3    H240618   1.488   0.491  10.369
 5475TIP3   OH240619   1.284   1.648  11.443
 5475TIP3    H140620   1.256   1.583  11.507
 5475TIP3    H240621   1.214   1.713  11.441
 5476TIP3   OH240622   1.580   0.643  10.441
 5476TIP3    H140623   1.632   0.578  10.488
 5476TIP3    H240624   1.644   0.705  10.406
 5477TIP3   OH240625   0.636   1.360  10.946
 5477TIP3    H140626   0.666   1.335  10.858
 5477TIP3    H240627   0.636   1.278  10.995
 5478TIP3   OH240628   1.250   1.594  10.410
 5478TIP3    H140629   1.231   1.688  10.410
 5478TIP3    H240630   1.165   1.553  10.398
 5479TIP3   OH240631   0.133   1.126  11.565
 5479TIP3    H140632   0.147   1.091  11.653
 5479TIP3    H240633   0.044   1.097  11.542
 5480TIP3   OH240634   1.002   1.172  11.658
 5480TIP3    H140635   0.982   1.081  11.635
 5480TIP3    H240636   1.097   1.174  11.670
 5481TIP3   OH240637   1.490   1.815  11.551
 5481TIP3    H140638   1.432   1.760  11.498
 5481TIP3    H240639   1.481   1.779  11.639
 5482TIP3   OH240640   2.165   0.797  10.431
 5482TIP3    H140641   2.164   0.787  10.336
 5482TIP3    H240642   2.073   0.800  10.456
 5483TIP3   OH240643   2.226   1.390  11.646
 5483TIP3    H140644   2.146   1.430  11.612
 5483TIP3    H240645   2.284   1.383  11.570
 5484TIP3   OH240646   2.016   1.828  10.372
 5484TIP3    H140647   1.956   1.766  10.332
 5484TIP3    H240648   2.080   1.848  10.303
 5485TIP3   OH240649   1.670   1.112  10.964
 5485TIP3    H140650   1.587   1.091  11.007
 5485TIP3    H240651   1.695   1.032  10.919
 5486TIP3   OH240652   0.785   1.674  10.736
 5486TIP3    H140653   0.800   1.763  10.704
 5486TIP3    H240654   0.693   1.656  10.717
 5487TIP3   OH240655   0.403   1.100  10.337
 5487TIP3    H140656   0.416   1.195  10.338
 5487TIP3    H240657   0.316   1.088  10.374
 5488TIP3   OH240658   0.923   1.443  10.662
 5488TIP3    H140659   0.879   1.524  10.689
 5488TIP3    H240660   0.863   1.373  10.689
 5489TIP3   OH240661   1.003   1.993  11.282
 5489TIP3    H140662   1.082   2.044  11.266
 5489TIP3    H240663   1.031   1.922  11.340
 5490TIP3   OH240664   0.777   1.937  10.647
 5490TIP3    H140665   0.687   1.962  10.666
 5490TIP3    H240666   0.829   2.015  10.668
 5491TIP3   OH240667   1.300   1.538  11.184
 5491TIP3    H140668   1.295   1.579  11.270
 5491TIP3    H240669   1.375   1.479  11.190
 5492TIP3   OH240670   1.700   1.597  10.339
 5492TIP3    H140671   1.769   1.530  10.346
 5492TIP3    H240672   1.622   1.555  10.375
 5493TIP3   OH240673   1.740   1.904  11.472
 5493TIP3    H140674   1.653   1.871  11.493
 5493TIP3    H240675   1.725   1.965  11.400
 5494TIP3   OH240676   2.244   2.186  10.273
 5494TIP3    H140677   2.288   2.271  10.272
 5494TIP3    H240678   2.156   2.205  10.307
 5495TIP3   OH240679   0.350   0.457  11.402
 5495TIP3    H140680   0.259   0.487  11.395
 5495TIP3    H240681   0.347   0.389  11.470
 5496TIP3   OH240682   1.871   1.387  10.389
 5496TIP3    H140683   1.812   1.317  10.415
 5496TIP3    H240684   1.958   1.348  10.395
 5497TIP3   OH240685   0.339   1.863  11.235
 5497TIP3    H140686   0.431   1.841  11.249
 5497TIP3    H240687   0.300   1.860  11.323
 5498TIP3   OH240688   0.827   1.645  10.299
 5498TIP3    H140689   0.890   1.584  10.336
 5498TIP3    H240690   0.855   1.731  10.332
 5499TIP3   OH240691   0.464   1.368  10.370
 5499TIP3    H140692   0.405   1.430  10.412
 5499TIP3    H240693   0.510   1.420  10.304
 5500TIP3   OH240694   1.451   0.338  11.320
 5500TIP3    H140695   1.501   0.344  11.401
 5500TIP3    H240696   1.374   0.285  11.342
 5501TIP3   OH240697   1.582   0.236  10.538
 5501TIP3    H140698   1.539   0.279  10.464
 5501TIP3    H240699   1.596   0.306  10.601
 5502TIP3   OH240700   1.194   1.865  10.444
 5502TIP3    H140701   1.098   1.865  10.448
 5502TIP3    H240702   1.221   1.902  10.528
 5503TIP3   OH240703   1.124   0.591  10.581
 5503TIP3    H140704   1.198   0.650  10.567
 5503TIP3    H240705   1.145   0.545  10.662
 5504TIP3   OH240706   1.176   0.731  11.428
 5504TIP3    H140707   1.131   0.783  11.495
 5504TIP3    H240708   1.199   0.649  11.472
 5505TIP3   OH240709   1.179   0.220  10.633
 5505TIP3    H140710   1.190   0.300  10.685
 5505TIP3    H240711   1.262   0.173  10.643
 5506TIP3   OH240712   0.918   1.879  10.418
 5506TIP3    H140713   0.922   1.962  10.371
 5506TIP3    H240714   0.864   1.898  10.495
 5507TIP3   OH240715   0.766   0.396  10.453
 5507TIP3    H140716   0.786   0.483  10.487
 5507TIP3    H240717   0.852   0.356  10.438
 5508TIP3   OH240718   1.882   0.434  11.439
 5508TIP3    H140719   1.792   0.424  11.471
 5508TIP3    H240720   1.891   0.365  11.372
 5509TIP3   OH240721   1.726   0.861  10.846
 5509TIP3    H140722   1.651   0.803  10.833
 5509TIP3    H240723   1.788   0.809  10.898
 5510TIP3   OH240724   0.605   1.524  10.189
 5510TIP3    H140725   0.668   1.582  10.234
 5510TIP3    H240726   0.659   1.465  10.138
 5511TIP3   OH240727   0.583   0.931  10.217
 5511TIP3    H140728   0.519   0.987  10.260
 5511TIP3    H240729   0.549   0.918  10.128
 5512TIP3   OH240730   1.961   2.126  11.144
 5512TIP3    H140731   1.947   2.162  11.056
 5512TIP3    H240732   2.047   2.084  11.139
 5513TIP3   OH240733   0.468   0.200  10.955
 5513TIP3    H140734   0.469   0.193  10.860
 5513TIP3    H240735   0.428   0.119  10.985
 5514TIP3   OH240736   0.243   1.829  10.567
 5514TIP3    H140737   0.231   1.849  10.660
 5514TIP3    H240738   0.196   1.898  10.521
 5515TIP3   OH240739   0.180   2.284  11.724
 5515TIP3    H140740   0.210   2.258  11.811
 5515TIP3    H240741   0.161   2.201  11.679
 5516TIP3   OH240742   0.787   1.829  11.942
 5516TIP3    H140743   0.841   1.751  11.933
 5516TIP3    H240744   0.759   1.849  11.852
 5517TIP3   OH240745   0.963   1.832  19.896
 5517TIP3    H140746   0.964   1.763  19.831
 5517TIP3    H240747   1.055   1.850  19.915
 5518TIP3   OH240748   1.466   1.733  11.818
 5518TIP3    H140749   1.445   1.656  11.870
 5518TIP3    H240750   1.552   1.761  11.851
 5519TIP3   OH240751   1.639   1.834  10.209
 5519TIP3    H140752   1.659   1.760  10.267
 5519TIP3    H240753   1.649   1.798  10.121
 5520TIP3   OH240754   0.225   1.368  11.811
 5520TIP3    H140755   0.222   1.303  11.882
 5520TIP3    H240756   0.134   1.376  11.782
 5521TIP3   OH240757   0.824   1.380  10.105
 5521TIP3    H140758   0.851   1.318  10.173
 5521TIP3    H240759   0.884   1.454  10.116
 5522TIP3   OH240760   0.908   1.432  11.708
 5522TIP3    H140761   0.887   1.493  11.638
 5522TIP3    H240762   0.935   1.352  11.663
 5523TIP3   OH240763   1.837   1.345  11.704
 5523TIP3    H140764   1.892   1.395  11.643
 5523TIP3    H240765   1.773   1.408  11.736
 5524TIP3   OH240766   0.228   1.025  11.806
 5524TIP3    H140767   0.315   0.986  11.817
 5524TIP3    H240768   0.216   1.077  11.885
 5525TIP3   OH240769   0.897   1.214  10.316
 5525TIP3    H140770   0.819   1.197  10.369
 5525TIP3    H240771   0.931   1.127  10.294
 5526TIP3   OH240772   0.494   0.880  11.406
 5526TIP3    H140773   0.461   0.967  11.430
 5526TIP3    H240774   0.553   0.857  11.478
 5527TIP3   OH240775   1.009   0.980  10.204
 5527TIP3    H140776   1.005   1.011  10.114
 5527TIP3    H240777   1.103   0.971  10.222
 5528TIP3   OH240778   1.401   1.272  11.901
 5528TIP3    H140779   1.398   1.223  11.819
 5528TIP3    H240780   1.381   1.207  11.968
 5529TIP3   OH240781   2.131   1.373  19.855
 5529TIP3    H140782   2.193   1.304  19.829
 5529TIP3    H240783   2.184   1.435  19.906
 5530TIP3   OH240784   0.793   0.637  11.624
 5530TIP3    H140785   0.812   0.586  11.545
 5530TIP3    H240786   0.860   0.705  11.625
 5531TIP3   OH240787   0.836   0.490  11.381
 5531TIP3    H140788   0.878   0.558  11.329
 5531TIP3    H240789   0.749   0.479  11.341
 5532TIP3   OH240790   1.026   0.969  11.182
 5532TIP3    H140791   1.063   0.979  11.270
 5532TIP3    H240792   0.996   1.057  11.159
 5533TIP3   OH240793   1.835   0.767  11.849
 5533TIP3    H140794   1.837   0.683  11.897
 5533TIP3    H240795   1.843   0.742  11.757
 5534TIP3   OH240796   1.816   1.088  11.605
 5534TIP3    H140797   1.810   1.181  11.622
 5534TIP3    H240798   1.910   1.069  11.605
 5535TIP3   OH240799   0.582   0.744  11.769
 5535TIP3    H140800   0.509   0.690  11.740
 5535TIP3    H240801   0.658   0.709  11.723
 5536TIP3   OH240802   0.939   0.224  11.367
 5536TIP3    H140803   0.921   0.316  11.386
 5536TIP3    H240804   0.866   0.196  11.311
 5537TIP3   OH240805   1.107   0.629  11.864
 5537TIP3    H140806   1.029   0.575  11.878
 5537TIP3    H240807   1.080   0.692  11.797
 5538TIP3   OH240808   1.519   0.448  11.798
 5538TIP3    H140809   1.442   0.470  11.851
 5538TIP3    H240810   1.583   0.416  11.862
 5539TIP3   OH240811   1.680   0.351  12.006
 5539TIP3    H140812   1.665   0.257  12.008
 5539TIP3    H240813   1.632   0.386  12.081
 5540TIP3   OH240814   0.392   0.575  11.656
 5540TIP3    H140815   0.418   0.571  11.564
 5540TIP3    H240816   0.380   0.484  11.681
 5541TIP3   OH240817   0.953   0.091  11.616
 5541TIP3    H140818   0.979   0.000  11.599
 5541TIP3    H240819   0.952   0.132  11.529
 5542TIP3   OH240820   0.825   0.223  11.816
 5542TIP3    H140821   0.871   0.182  11.743
 5542TIP3    H240822   0.855   0.175  11.893
 5543TIP3   OH240823   0.965   2.120  10.296
 5543TIP3    H140824   1.061   2.124  10.294
 5543TIP3    H240825   0.937   2.207  10.267
 5544TIP3   OH240826   0.356   1.640  10.177
 5544TIP3    H140827   0.443   1.601  10.177
 5544TIP3    H240828   0.348   1.682  10.091
 5545TIP3   OH240829   0.096   2.084  10.616
 5545TIP3    H140830   0.007   2.112  10.637
 5545TIP3    H240831   0.127   2.042  10.697
 5546TIP3   OH240832   0.225   1.937  10.824
 5546TIP3    H140833   0.197   1.866  10.882
 5546TIP3    H240834   0.268   2.000  10.883
 5547TIP3   OH240835   2.230   2.045  11.230
 5547TIP3    H140836   2.202   1.996  11.307
 5547TIP3    H240837   2.260   2.129  11.264
 5548TIP3   OH240838   2.111   1.912  11.447
 5548TIP3    H140839   2.059   1.839  11.414
 5548TIP3    H240840   2.133   1.887  11.537
 5549TIP3   OH240841   1.982   1.485  11.955
 5549TIP3    H140842   1.939   1.559  11.996
 5549TIP3    H240843   2.071   1.516  11.935
 5550TIP3   OH240844   2.120   1.267  10.456
 5550TIP3    H140845   2.176   1.340  10.482
 5550TIP3    H240846   2.104   1.219  10.537
 5551TIP3   OH240847   2.079   1.119  10.683
 5551TIP3    H140848   1.998   1.075  10.657
 5551TIP3    H240849   2.081   1.110  10.778
 5552TIP3   OH240850   2.284   1.345  11.169
 5552TIP3    H140851   2.302   1.254  11.144
 5552TIP3    H240852   2.318   1.397  11.096
 5553TIP3   OH240853   1.922   1.712  11.387
 5553TIP3    H140854   1.857   1.774  11.422
 5553TIP3    H240855   1.885   1.685  11.302
 5554TIP3   OH240856   2.285   1.049  10.381
 5554TIP3    H140857   2.238   0.970  10.408
 5554TIP3    H240858   2.221   1.119  10.388
 5555TIP3   OH240859   2.084   0.734  10.179
 5555TIP3    H140860   2.003   0.750  10.227
 5555TIP3    H240861   2.074   0.646  10.144
 5556TIP3   OH240862   1.845   0.987  10.628
 5556TIP3    H140863   1.847   0.921  10.558
 5556TIP3    H240864   1.800   0.944  10.700
 5557TIP3   OH240865   0.087   1.160  11.013
 5557TIP3    H140866   0.129   1.118  10.938
 5557TIP3    H240867   0.147   1.143  11.086
 5558TIP3   OH240868   2.085   1.037  11.615
 5558TIP3    H140869   2.106   0.950  11.649
 5558TIP3    H240870   2.116   1.036  11.525
 5559TIP3   OH240871   2.119   0.780  11.699
 5559TIP3    H140872   2.039   0.743  11.660
 5559TIP3    H240873   2.184   0.711  11.690
 5560TIP3   OH240874   2.037   0.467  10.128
 5560TIP3    H140875   2.102   0.405  10.162
 5560TIP3    H240876   1.953   0.425  10.145
 5561TIP3   OH240877   1.823   0.508  10.541
 5561TIP3    H140878   1.903   0.455  10.539
 5561TIP3    H240879   1.847   0.589  10.496
 5562TIP3   OH240880   1.918   0.724  10.997
 5562TIP3    H140881   2.002   0.717  10.951
 5562TIP3    H240882   1.941   0.757  11.084
 5563TIP3   OH240883   1.993   0.819  11.260
 5563TIP3    H140884   1.913   0.838  11.309
 5563TIP3    H240885   2.052   0.891  11.282
 5564TIP3   OH240886   0.132   0.645  11.565
 5564TIP3    H140887   0.145   0.728  11.520
 5564TIP3    H240888   0.214   0.630  11.613
 5565TIP3   OH240889   2.346   0.241  11.779
 5565TIP3    H140890   2.430   0.236  11.732
 5565TIP3    H240891   2.282   0.261  11.712
 5566TIP3   OH240892   2.016   0.302  10.571
 5566TIP3    H140893   2.029   0.273  10.661
 5566TIP3    H240894   1.952   0.241  10.534
 5567TIP3   OH240895   0.309   0.429  10.973
 5567TIP3    H140896   0.364   0.350  10.972
 5567TIP3    H240897   0.361   0.494  11.020
 5568TIP3   OH240898   0.069   0.770  11.060
 5568TIP3    H140899   0.127   0.758  10.984
 5568TIP3    H240900   0.129   0.777  11.134
 5569TIP3   OH240901   2.146   0.326  11.608
 5569TIP3    H140902   2.071   0.383  11.593
 5569TIP3    H240903   2.132   0.250  11.552
 5570TIP3   OH240904   2.230   0.311  10.255
 5570TIP3    H140905   2.310   0.263  10.232
 5570TIP3    H240906   2.261   0.394  10.292
 5571TIP3   OH240907   0.240   0.309  10.558
 5571TIP3    H140908   0.188   0.334  10.635
 5571TIP3    H240909   0.250   0.389  10.508
 5572TIP3   OH240910   1.897   1.961  10.781
 5572TIP3    H140911   1.951   1.971  10.703
 5572TIP3    H240912   1.910   2.043  10.830
 5573TIP3   OH240913   0.052   0.103  11.233
 5573TIP3    H140914   9.177   0.117  11.260
 5573TIP3    H240915   0.077   0.184  11.189
 5574TIP3   OH240916   0.467   1.736  11.647
 5574TIP3    H140917   0.447   1.667  11.583
 5574TIP3    H240918   0.424   1.707  11.727
 5575TIP3   OH240919   0.771   2.036  11.451
 5575TIP3    H140920   0.722   2.108  11.413
 5575TIP3    H240921   0.843   2.021  11.389
 5576TIP3   OH240922   1.137   2.019  11.658
 5576TIP3    H140923   1.144   1.964  11.736
 5576TIP3    H240924   1.226   2.050  11.642
 5577TIP3   OH240925   1.408   2.068  11.638
 5577TIP3    H140926   1.440   1.988  11.596
 5577TIP3    H240927   1.488   2.115  11.663
 5578TIP3   OH240928   2.085   0.121  11.437
 5578TIP3    H140929   2.027   0.153  11.369
 5578TIP3    H240930   2.044   0.040  11.468
 5579TIP3   OH240931   0.387   2.337  11.388
 5579TIP3    H140932   0.300   2.356  11.354
 5579TIP3    H240933   0.388   2.376  11.475
 5580TIP3   OH240934   0.648   2.258  11.327
 5580TIP3    H140935   0.558   2.276  11.352
 5580TIP3    H240936   0.654   2.288  11.236
 5581TIP3   OH240937   1.234   2.156  11.233
 5581TIP3    H140938   1.218   2.195  11.147
 5581TIP3    H240939   1.223   2.227  11.295
 5582TIP3   OH240940   1.462   1.998  11.159
 5582TIP3    H140941   1.390   2.045  11.199
 5582TIP3    H240942   1.541   2.033  11.201
 5583TIP3   OH240943   1.708   2.093  11.266
 5583TIP3    H140944   1.707   2.185  11.294
 5583TIP3    H240945   1.786   2.085  11.212
 5584TIP3   OH240946   0.374   2.061  11.028
 5584TIP3    H140947   0.339   2.026  11.109
 5584TIP3    H240948   0.452   2.010  11.010
 5585TIP3   OH240949   0.578   1.879  10.984
 5585TIP3    H140950   0.576   1.786  11.007
 5585TIP3    H240951   0.665   1.908  11.010
 5586TIP3   OH240952   0.835   1.920  11.071
 5586TIP3    H140953   0.868   1.832  11.049
 5586TIP3    H240954   0.890   1.948  11.143
 5587TIP3   OH240955   1.293   0.208  10.925
 5587TIP3    H140956   1.227   0.145  10.953
 5587TIP3    H240957   1.343   0.162  10.857
 5588TIP3   OH240958   1.850   0.178  10.965
 5588TIP3    H140959   1.928   0.196  10.914
 5588TIP3    H240960   1.800   0.260  10.963
 5589TIP3   OH240961   2.087   0.208  10.824
 5589TIP3    H140962   2.129   0.122  10.828
 5589TIP3    H240963   2.156   0.270  10.845
 5590TIP3   OH240964   0.428   0.144  10.687
 5590TIP3    H140965   0.358   0.187  10.637
 5590TIP3    H240966   0.405   0.052  10.687
 5591TIP3   OH240967   0.328   0.123  10.366
 5591TIP3    H140968   0.403   0.175  10.337
 5591TIP3    H240969   0.282   0.180  10.429
 5592TIP3   OH240970   1.023   0.002  10.718
 5592TIP3    H140971   1.069   0.075  10.676
 5592TIP3    H240972   1.040   0.014  10.811
 5593TIP3   OH240973   1.418   0.089  10.706
 5593TIP3    H140974   1.478   0.134  10.646
 5593TIP3    H240975   1.460   0.004  10.722
 5594TIP3   OH240976   1.831   0.119  10.473
 5594TIP3    H140977   1.746   0.159  10.488
 5594TIP3    H240978   1.815   0.024  10.477
 5595TIP3   OH240979   0.301   2.218  10.487
 5595TIP3    H140980   0.225   2.172  10.523
 5595TIP3    H240981   0.267   2.303  10.460
 5596TIP3   OH240982   0.536   0.300  10.310
 5596TIP3    H140983   0.540   0.377  10.252
 5596TIP3    H240984   0.614   0.307  10.365
 5597TIP3   OH240985   1.044   0.365  10.439
 5597TIP3    H140986   1.086   0.298  10.492
 5597TIP3    H240987   1.069   0.448  10.481
 5598TIP3   OH240988   1.243   2.114  10.329
 5598TIP3    H140989   1.333   2.119  10.297
 5598TIP3    H240990   1.231   2.023  10.355
 5599TIP3   OH240991   2.046   2.025  10.556
 5599TIP3    H140992   2.036   1.949  10.500
 5599TIP3    H240993   2.031   2.100  10.499
 5600TIP3   OH240994   0.351   0.298  11.630
 5600TIP3    H140995   0.284   0.231  11.648
 5600TIP3    H240996   0.433   0.257  11.659
 5601TIP3   OH240997   0.566   0.164  11.726
 5601TIP3    H140998   0.652   0.196  11.754
 5601TIP3    H240999   0.568   0.070  11.744
 5602TIP3   OH241000   0.537   2.252  10.343
 5602TIP3    H141001   0.453   2.230  10.386
 5602TIP3    H241002   0.582   2.168  10.337
 5603TIP3   OH241003   1.608   0.076  12.009
 5603TIP3    H141004   1.514   0.078  12.027
 5603TIP3    H241005   1.618   0.007  11.942
 5604TIP3   OH241006   1.863   1.954  11.715
 5604TIP3    H141007   1.832   1.933  11.627
 5604TIP3    H241008   1.907   2.039  11.705
 5605TIP3   OH241009   3.762   1.221  10.575
 5605TIP3    H141010   3.749   1.313  10.553
 5605TIP3    H241011   3.678   1.179  10.554
 5606TIP3   OH241012   3.419   1.078  11.104
 5606TIP3    H141013   3.494   1.051  11.156
 5606TIP3    H241014   3.409   1.009  11.038
 5607TIP3   OH241015   2.584   1.035  11.206
 5607TIP3    H141016   2.619   0.946  11.196
 5607TIP3    H241017   2.635   1.073  11.277
 5608TIP3   OH241018   3.995   1.488  10.885
 5608TIP3    H141019   3.998   1.393  10.902
 5608TIP3    H241020   4.010   1.527  10.971
 5609TIP3   OH241021   2.875   1.605  11.025
 5609TIP3    H141022   2.854   1.531  10.968
 5609TIP3    H241023   2.970   1.608  11.026
 5610TIP3   OH241024   2.332   0.720  10.640
 5610TIP3    H141025   2.266   0.712  10.709
 5610TIP3    H241026   2.284   0.753  10.564
 5611TIP3   OH241027   2.326   0.972  10.869
 5611TIP3    H141028   2.404   0.916  10.874
 5611TIP3    H241029   2.324   1.002  10.778
 5612TIP3   OH241030   3.709   2.028  10.847
 5612TIP3    H141031   3.769   1.988  10.784
 5612TIP3    H241032   3.675   1.955  10.897
 5613TIP3   OH241033   3.317   1.348  11.110
 5613TIP3    H141034   3.347   1.258  11.095
 5613TIP3    H241035   3.392   1.391  11.150
 5614TIP3   OH241036   4.477   0.302  11.172
 5614TIP3    H141037   4.476   0.385  11.221
 5614TIP3    H241038   4.536   0.318  11.099
 5615TIP3   OH241039   3.808   0.794  11.058
 5615TIP3    H141040   3.820   0.706  11.093
 5615TIP3    H241041   3.764   0.780  10.974
 5616TIP3   OH241042   2.804   0.535  10.860
 5616TIP3    H141043   2.829   0.619  10.822
 5616TIP3    H241044   2.799   0.476  10.785
 5617TIP3   OH241045   3.850   0.526  10.722
 5617TIP3    H141046   3.908   0.479  10.781
 5617TIP3    H241047   3.908   0.562  10.655
 5618TIP3   OH241048   2.530   0.793  10.898
 5618TIP3    H141049   2.597   0.779  10.964
 5618TIP3    H241050   2.563   0.748  10.820
 5619TIP3   OH241051   3.024   0.983  10.776
 5619TIP3    H141052   3.107   0.941  10.751
 5619TIP3    H241053   2.958   0.915  10.765
 5620TIP3   OH241054   4.459   0.538  11.315
 5620TIP3    H141055   4.431   0.628  11.298
 5620TIP3    H241056   4.497   0.542  11.403
 5621TIP3   OH241057   2.859   0.333  11.261
 5621TIP3    H141058   2.842   0.416  11.216
 5621TIP3    H241059   2.774   0.306  11.297
 5622TIP3   OH241060   3.744   1.499  10.472
 5622TIP3    H141061   3.671   1.459  10.425
 5622TIP3    H241062   3.721   1.592  10.477
 5623TIP3   OH241063   3.058   1.272  11.182
 5623TIP3    H141064   3.006   1.346  11.214
 5623TIP3    H241065   3.141   1.312  11.156
 5624TIP3   OH241066   4.008   0.390  10.909
 5624TIP3    H141067   3.935   0.349  10.956
 5624TIP3    H241068   4.060   0.432  10.978
 5625TIP3   OH241069   2.859   0.572  11.127
 5625TIP3    H141070   2.932   0.634  11.131
 5625TIP3    H241071   2.846   0.556  11.034
 5626TIP3   OH241072   2.888   1.484  11.279
 5626TIP3    H141073   2.870   1.533  11.198
 5626TIP3    H241074   2.802   1.469  11.317
 5627TIP3   OH241075   2.574   1.612  10.480
 5627TIP3    H141076   2.577   1.642  10.390
 5627TIP3    H241077   2.564   1.692  10.532
 5628TIP3   OH241078   4.001   1.659  11.112
 5628TIP3    H141079   3.917   1.644  11.154
 5628TIP3    H241080   3.984   1.731  11.050
 5629TIP3   OH241081   4.217   0.218  11.231
 5629TIP3    H141082   4.181   0.161  11.163
 5629TIP3    H241083   4.305   0.239  11.200
 5630TIP3   OH241084   3.228   0.120  10.976
 5630TIP3    H141085   3.241   0.041  11.028
 5630TIP3    H241086   3.141   0.151  11.001
 5631TIP3   OH241087   3.890   1.915  10.673
 5631TIP3    H141088   3.900   1.820  10.674
 5631TIP3    H241089   3.976   1.948  10.698
 5632TIP3   OH241090   3.888   1.641  10.683
 5632TIP3    H141091   3.855   1.575  10.621
 5632TIP3    H241092   3.929   1.590  10.753
 5633TIP3   OH241093   4.242   1.462  11.442
 5633TIP3    H141094   4.263   1.402  11.370
 5633TIP3    H241095   4.216   1.543  11.398
 5634TIP3   OH241096   3.526   1.085  10.484
 5634TIP3    H141097   3.449   1.140  10.471
 5634TIP3    H241098   3.545   1.050  10.397
 5635TIP3   OH241099   3.617   0.937  10.262
 5635TIP3    H141100   3.708   0.965  10.262
 5635TIP3    H241101   3.621   0.843  10.277
 5636TIP3   OH241102   4.450   1.049  11.281
 5636TIP3    H141103   4.391   1.124  11.277
 5636TIP3    H241104   4.504   1.056  11.203
 5637TIP3   OH241105   4.003   1.106  10.514
 5637TIP3    H141106   3.924   1.146  10.550
 5637TIP3    H241107   4.048   1.068  10.590
 5638TIP3   OH241108   3.897   0.862  11.454
 5638TIP3    H141109   3.943   0.924  11.511
 5638TIP3    H241110   3.849   0.917  11.392
 5639TIP3   OH241111   2.961   1.229  10.667
 5639TIP3    H141112   2.908   1.200  10.593
 5639TIP3    H241113   2.990   1.148  10.709
 5640TIP3   OH241114   3.152   1.597  11.001
 5640TIP3    H141115   3.145   1.597  10.905
 5640TIP3    H241116   3.212   1.525  11.020
 5641TIP3   OH241117   3.032   1.020  11.054
 5641TIP3    H141118   3.030   1.024  10.959
 5641TIP3    H241119   3.035   1.111  11.083
 5642TIP3   OH241120   3.760   1.634  11.236
 5642TIP3    H141121   3.751   1.661  11.328
 5642TIP3    H241122   3.686   1.575  11.222
 5643TIP3   OH241123   3.017   1.586  11.505
 5643TIP3    H141124   2.957   1.655  11.532
 5643TIP3    H241125   2.978   1.551  11.425
 5644TIP3   OH241126   3.894   0.969  10.301
 5644TIP3    H141127   3.929   1.011  10.379
 5644TIP3    H241128   3.925   1.023  10.229
 5645TIP3   OH241129   2.701   1.093  11.467
 5645TIP3    H141130   2.723   1.165  11.526
 5645TIP3    H241131   2.606   1.083  11.476
 5646TIP3   OH241132   3.672   1.771  10.488
 5646TIP3    H141133   3.711   1.832  10.426
 5646TIP3    H241134   3.712   1.792  10.572
 5647TIP3   OH241135   2.854   1.813  11.566
 5647TIP3    H141136   2.899   1.879  11.514
 5647TIP3    H241137   2.773   1.795  11.519
 5648TIP3   OH241138   4.320   0.131  10.361
 5648TIP3    H141139   4.226   0.147  10.372
 5648TIP3    H241140   4.354   0.213  10.326
 5649TIP3   OH241141   2.815   1.144  10.449
 5649TIP3    H141142   2.771   1.227  10.431
 5649TIP3    H241143   2.748   1.078  10.430
 5650TIP3   OH241144   4.457   1.904  10.203
 5650TIP3    H141145   4.483   1.995  10.208
 5650TIP3    H241146   4.533   1.859  10.165
 5651TIP3   OH241147   2.393   1.350  11.425
 5651TIP3    H141148   2.354   1.353  11.338
 5651TIP3    H241149   2.405   1.257  11.444
 5652TIP3   OH241150   2.375   1.877  11.065
 5652TIP3    H141151   2.456   1.869  11.116
 5652TIP3    H241152   2.318   1.931  11.118
 5653TIP3   OH241153   4.404   1.797  11.657
 5653TIP3    H141154   4.421   1.703  11.647
 5653TIP3    H241155   4.311   1.803  11.676
 5654TIP3   OH241156   3.256   1.720  11.528
 5654TIP3    H141157   3.265   1.723  11.624
 5654TIP3    H241158   3.173   1.675  11.513
 5655TIP3   OH241159   3.637   2.265  10.521
 5655TIP3    H141160   3.595   2.211  10.454
 5655TIP3    H241161   3.579   2.340  10.532
 5656TIP3   OH241162   2.789   1.974  10.705
 5656TIP3    H141163   2.792   1.938  10.793
 5656TIP3    H241164   2.710   1.934  10.666
 5657TIP3   OH241165   3.809   1.959  10.335
 5657TIP3    H141166   3.876   1.901  10.299
 5657TIP3    H241167   3.858   2.026  10.382
 5658TIP3   OH241168   3.893   2.158  10.511
 5658TIP3    H141169   3.807   2.198  10.520
 5658TIP3    H241170   3.896   2.089  10.578
 5659TIP3   OH241171   4.147   0.725  11.451
 5659TIP3    H141172   4.057   0.759  11.453
 5659TIP3    H241173   4.138   0.636  11.417
 5660TIP3   OH241174   2.650   1.459  11.427
 5660TIP3    H141175   2.684   1.412  11.504
 5660TIP3    H241176   2.560   1.427  11.418
 5661TIP3   OH241177   2.960   0.177  11.054
 5661TIP3    H141178   2.884   0.184  10.996
 5661TIP3    H241179   2.937   0.231  11.129
 5662TIP3   OH241180   3.404   0.119  11.366
 5662TIP3    H141181   3.424   0.034  11.406
 5662TIP3    H241182   3.317   0.141  11.398
 5663TIP3   OH241183   3.691   0.679  11.507
 5663TIP3    H141184   3.720   0.622  11.578
 5663TIP3    H241185   3.765   0.738  11.491
 5664TIP3   OH241186   4.001   1.166  10.142
 5664TIP3    H141187   3.977   1.235  10.080
 5664TIP3    H241188   4.053   1.211  10.209
 5665TIP3   OH241189   3.393   0.562  10.268
 5665TIP3    H141190   3.353   0.516  10.342
 5665TIP3    H241191   3.319   0.592  10.215
 5666TIP3   OH241192   3.038   0.781  11.186
 5666TIP3    H141193   2.995   0.815  11.264
 5666TIP3    H241194   3.043   0.857  11.127
 5667TIP3   OH241195   2.862   0.765  10.712
 5667TIP3    H141196   2.777   0.749  10.672
 5667TIP3    H241197   2.925   0.750  10.641
 5668TIP3   OH241198   3.565   0.819  10.587
 5668TIP3    H141199   3.547   0.911  10.567
 5668TIP3    H241200   3.633   0.793  10.525
 5669TIP3   OH241201   3.378   0.900  11.610
 5669TIP3    H141202   3.318   0.840  11.655
 5669TIP3    H241203   3.458   0.898  11.663
 5670TIP3   OH241204   3.684   0.730  10.820
 5670TIP3    H141205   3.643   0.765  10.741
 5670TIP3    H241206   3.733   0.654  10.791
 5671TIP3   OH241207   2.710   0.790  11.219
 5671TIP3    H141208   2.772   0.820  11.285
 5671TIP3    H241209   2.745   0.706  11.190
 5672TIP3   OH241210   3.115   0.606  10.192
 5672TIP3    H141211   3.072   0.559  10.262
 5672TIP3    H241212   3.067   0.581  10.113
 5673TIP3   OH241213   2.308   0.371  10.863
 5673TIP3    H141214   2.399   0.377  10.891
 5673TIP3    H241215   2.311   0.381  10.768
 5674TIP3   OH241216   2.317   0.552  10.369
 5674TIP3    H141217   2.386   0.609  10.335
 5674TIP3    H241218   2.245   0.611  10.392
 5675TIP3   OH241219   3.631   0.940  11.231
 5675TIP3    H141220   3.690   0.894  11.171
 5675TIP3    H241221   3.576   0.871  11.268
 5676TIP3   OH241222   3.350   0.575  10.932
 5676TIP3    H141223   3.316   0.574  11.021
 5676TIP3    H241224   3.382   0.485  10.918
 5677TIP3   OH241225   2.604   0.666  10.655
 5677TIP3    H141226   2.513   0.686  10.635
 5677TIP3    H241227   2.616   0.575  10.630
 5678TIP3   OH241228   3.082   0.736  10.542
 5678TIP3    H141229   3.166   0.714  10.583
 5678TIP3    H241230   3.105   0.788  10.466
 5679TIP3   OH241231   3.795   0.278  11.036
 5679TIP3    H141232   3.735   0.272  11.110
 5679TIP3    H241233   3.749   0.232  10.965
 5680TIP3   OH241234   3.151   0.858  10.303
 5680TIP3    H141235   3.137   0.777  10.255
 5680TIP3    H241236   3.227   0.899  10.260
 5681TIP3   OH241237   4.160   2.140  11.685
 5681TIP3    H141238   4.204   2.164  11.603
 5681TIP3    H241239   4.227   2.152  11.752
 5682TIP3   OH241240   2.708   1.312  11.655
 5682TIP3    H141241   2.778   1.334  11.717
 5682TIP3    H241242   2.627   1.326  11.704
 5683TIP3   OH241243   3.450   0.838  10.948
 5683TIP3    H141244   3.536   0.819  10.911
 5683TIP3    H241245   3.405   0.753  10.949
 5684TIP3   OH241246   2.768   0.383  10.630
 5684TIP3    H141247   2.740   0.292  10.631
 5684TIP3    H241248   2.829   0.389  10.556
 5685TIP3   OH241249   3.262   0.616  11.207
 5685TIP3    H141250   3.194   0.683  11.196
 5685TIP3    H241251   3.330   0.660  11.257
 5686TIP3   OH241252   3.300   1.252  10.422
 5686TIP3    H141253   3.230   1.200  10.384
 5686TIP3    H241254   3.255   1.314  10.479
 5687TIP3   OH241255   4.310   1.296  11.226
 5687TIP3    H141256   4.393   1.327  11.190
 5687TIP3    H241257   4.251   1.291  11.151
 5688TIP3   OH241258   3.640   0.498  10.380
 5688TIP3    H141259   3.561   0.516  10.330
 5688TIP3    H241260   3.686   0.582  10.384
 5689TIP3   OH241261   3.479   1.561  11.502
 5689TIP3    H141262   3.466   1.513  11.584
 5689TIP3    H241263   3.405   1.621  11.497
 5690TIP3   OH241264   3.782   0.741  10.417
 5690TIP3    H141265   3.853   0.692  10.457
 5690TIP3    H241266   3.824   0.816  10.375
 5691TIP3   OH241267   2.847   1.385  10.865
 5691TIP3    H141268   2.892   1.342  10.793
 5691TIP3    H241269   2.789   1.317  10.901
 5692TIP3   OH241270   3.513   1.419  10.353
 5692TIP3    H141271   3.473   1.505  10.343
 5692TIP3    H241272   3.440   1.359  10.369
 5693TIP3   OH241273   2.421   1.085  11.492
 5693TIP3    H141274   2.440   1.050  11.579
 5693TIP3    H241275   2.352   1.028  11.458
 5694TIP3   OH241276   3.195   1.123  11.615
 5694TIP3    H141277   3.159   1.111  11.528
 5694TIP3    H241278   3.272   1.065  11.617
 5695TIP3   OH241279   3.719   1.702  11.509
 5695TIP3    H141280   3.635   1.658  11.498
 5695TIP3    H241281   3.730   1.710  11.604
 5696TIP3   OH241282   4.447   0.794  10.437
 5696TIP3    H141283   4.354   0.785  10.415
 5696TIP3    H241284   4.470   0.880  10.401
 5697TIP3   OH241285   4.450   1.524  11.613
 5697TIP3    H141286   4.365   1.498  11.578
 5697TIP3    H241287   4.514   1.491  11.549
 5698TIP3   OH241288   4.338   1.847  10.441
 5698TIP3    H141289   4.254   1.802  10.429
 5698TIP3    H241290   4.370   1.863  10.352
 5699TIP3   OH241291   3.978   1.214  10.939
 5699TIP3    H141292   3.889   1.201  10.905
 5699TIP3    H241293   4.010   1.126  10.958
 5700TIP3   OH241294   3.060   1.629  10.737
 5700TIP3    H141295   3.067   1.721  10.712
 5700TIP3    H241296   2.966   1.611  10.739
 5701TIP3   OH241297   2.556   1.073  10.359
 5701TIP3    H141298   2.570   1.168  10.350
 5701TIP3    H241299   2.461   1.065  10.368
 5702TIP3   OH241300   3.133   1.422  10.567
 5702TIP3    H141301   3.127   1.493  10.631
 5702TIP3    H241302   3.075   1.354  10.601
 5703TIP3   OH241303   3.233   1.906  11.319
 5703TIP3    H141304   3.319   1.945  11.305
 5703TIP3    H241305   3.246   1.844  11.390
 5704TIP3   OH241306   3.048   1.894  10.657
 5704TIP3    H141307   2.956   1.921  10.662
 5704TIP3    H241308   3.098   1.974  10.674
 5705TIP3   OH241309   3.544   1.444  11.259
 5705TIP3    H141310   3.516   1.483  11.342
 5705TIP3    H241311   3.588   1.363  11.284
 5706TIP3   OH241312   3.984   1.521  10.323
 5706TIP3    H141313   4.039   1.444  10.334
 5706TIP3    H241314   3.905   1.501  10.374
 5707TIP3   OH241315   3.962   1.836  11.473
 5707TIP3    H141316   3.878   1.791  11.479
 5707TIP3    H241317   3.941   1.922  11.437
 5708TIP3   OH241318   4.536   2.162  10.264
 5708TIP3    H141319   4.587   2.237  10.233
 5708TIP3    H241320   4.459   2.201  10.305
 5709TIP3   OH241321   2.579   0.281  11.352
 5709TIP3    H141322   2.542   0.367  11.332
 5709TIP3    H241323   2.509   0.219  11.329
 5710TIP3   OH241324   4.136   1.286  10.353
 5710TIP3    H141325   4.095   1.225  10.415
 5710TIP3    H241326   4.228   1.286  10.377
 5711TIP3   OH241327   2.620   1.881  11.196
 5711TIP3    H141328   2.705   1.860  11.156
 5711TIP3    H241329   2.624   1.838  11.282
 5712TIP3   OH241330   3.064   1.590  10.353
 5712TIP3    H141331   3.091   1.530  10.422
 5712TIP3    H241332   3.112   1.671  10.371
 5713TIP3   OH241333   2.659   1.361  10.384
 5713TIP3    H141334   2.617   1.430  10.435
 5713TIP3    H241335   2.714   1.407  10.321
 5714TIP3   OH241336   3.600   0.265  11.234
 5714TIP3    H141337   3.586   0.347  11.281
 5714TIP3    H241338   3.536   0.205  11.271
 5715TIP3   OH241339   3.679   0.338  10.600
 5715TIP3    H141340   3.666   0.381  10.516
 5715TIP3    H241341   3.734   0.399  10.650
 5716TIP3   OH241342   3.435   1.687  10.362
 5716TIP3    H141343   3.356   1.726  10.401
 5716TIP3    H241344   3.507   1.718  10.417
 5717TIP3   OH241345   3.330   0.666  10.657
 5717TIP3    H141346   3.408   0.717  10.637
 5717TIP3    H241347   3.339   0.643  10.749
 5718TIP3   OH241348   3.459   0.756  11.374
 5718TIP3    H141349   3.422   0.812  11.442
 5718TIP3    H241350   3.535   0.716  11.415
 5719TIP3   OH241351   3.412   0.254  10.628
 5719TIP3    H141352   3.409   0.279  10.720
 5719TIP3    H241353   3.503   0.269  10.602
 5720TIP3   OH241354   3.205   1.821  10.442
 5720TIP3    H141355   3.230   1.909  10.413
 5720TIP3    H241356   3.149   1.836  10.518
 5721TIP3   OH241357   3.009   0.491  10.427
 5721TIP3    H141358   3.010   0.576  10.471
 5721TIP3    H241359   3.094   0.452  10.446
 5722TIP3   OH241360   4.182   0.477  11.335
 5722TIP3    H141361   4.168   0.386  11.308
 5722TIP3    H241362   4.277   0.489  11.328
 5723TIP3   OH241363   4.037   0.941  10.968
 5723TIP3    H141364   3.963   0.895  11.006
 5723TIP3    H241365   4.113   0.889  10.994
 5724TIP3   OH241366   2.834   1.508  10.223
 5724TIP3    H141367   2.903   1.552  10.272
 5724TIP3    H241368   2.880   1.440  10.173
 5725TIP3   OH241369   2.456   0.784  10.282
 5725TIP3    H141370   2.509   0.855  10.317
 5725TIP3    H241371   2.394   0.827  10.223
 5726TIP3   OH241372   4.093   2.137  11.163
 5726TIP3    H141373   4.072   2.176  11.077
 5726TIP3    H241374   4.179   2.098  11.151
 5727TIP3   OH241375   2.718   0.140  10.920
 5727TIP3    H141376   2.704   0.136  10.825
 5727TIP3    H241377   2.691   0.054  10.952
 5728TIP3   OH241378   2.548   1.873  10.598
 5728TIP3    H141379   2.502   1.893  10.679
 5728TIP3    H241380   2.504   1.927  10.532
 5729TIP3   OH241381   2.479   2.280  11.721
 5729TIP3    H141382   2.534   2.246  11.791
 5729TIP3    H241383   2.459   2.204  11.667
 5730TIP3   OH241384   2.812   1.948  11.814
 5730TIP3    H141385   2.882   1.908  11.865
 5730TIP3    H241386   2.818   1.906  11.728
 5731TIP3   OH241387   3.453   1.870  10.153
 5731TIP3    H141388   3.444   1.800  10.217
 5731TIP3    H241389   3.458   1.826  10.069
 5732TIP3   OH241390   3.726   1.718  11.787
 5732TIP3    H141391   3.724   1.634  11.832
 5732TIP3    H241392   3.803   1.763  11.824
 5733TIP3   OH241393   4.005   1.784  10.252
 5733TIP3    H141394   3.995   1.694  10.282
 5733TIP3    H241395   4.057   1.777  10.172
 5734TIP3   OH241396   2.463   1.351  11.789
 5734TIP3    H141397   2.452   1.271  11.841
 5734TIP3    H241398   2.380   1.359  11.741
 5735TIP3   OH241399   3.030   1.328  10.149
 5735TIP3    H141400   3.042   1.250  10.203
 5735TIP3    H241401   3.099   1.388  10.178
 5736TIP3   OH241402   3.148   1.434  11.697
 5736TIP3    H141403   3.107   1.473  11.620
 5736TIP3    H241404   3.168   1.344  11.672
 5737TIP3   OH241405   4.075   1.317  11.606
 5737TIP3    H141406   4.122   1.365  11.539
 5737TIP3    H241407   4.107   1.352  11.689
 5738TIP3   OH241408   2.519   0.999  11.731
 5738TIP3    H141409   2.612   0.983  11.746
 5738TIP3    H241410   2.487   1.038  11.812
 5739TIP3   OH241411   3.068   1.123  10.334
 5739TIP3    H141412   2.981   1.125  10.374
 5739TIP3    H241413   3.087   1.030  10.323
 5740TIP3   OH241414   2.901   0.902  11.403
 5740TIP3    H141415   2.830   0.958  11.434
 5740TIP3    H241416   2.977   0.959  11.396
 5741TIP3   OH241417   3.359   0.976  10.171
 5741TIP3    H141418   3.365   1.043  10.103
 5741TIP3    H241419   3.450   0.961  10.198
 5742TIP3   OH241420   3.773   1.216  11.921
 5742TIP3    H141421   3.859   1.181  11.898
 5742TIP3    H241422   3.719   1.139  11.937
 5743TIP3   OH241423   4.493   1.080  19.909
 5743TIP3    H141424   4.539   1.147  19.859
 5743TIP3    H241425   4.418   1.126  19.947
 5744TIP3   OH241426   2.992   0.670  11.558
 5744TIP3    H141427   3.022   0.602  11.497
 5744TIP3    H241428   2.958   0.740  11.503
 5745TIP3   OH241429   3.082   0.471  11.380
 5745TIP3    H141430   3.145   0.505  11.316
 5745TIP3    H241431   3.013   0.431  11.327
 5746TIP3   OH241432   3.121   1.064  11.353
 5746TIP3    H141433   3.195   1.028  11.304
 5746TIP3    H241434   3.089   1.136  11.299
 5747TIP3   OH241435   3.697   0.689  11.913
 5747TIP3    H141436   3.726   0.632  11.984
 5747TIP3    H241437   3.716   0.640  11.833
 5748TIP3   OH241438   4.046   1.047  11.596
 5748TIP3    H141439   4.038   1.142  11.590
 5748TIP3    H241440   4.141   1.031  11.596
 5749TIP3   OH241441   2.907   0.597  11.812
 5749TIP3    H141442   2.830   0.541  11.808
 5749TIP3    H241443   2.923   0.622  11.721
 5750TIP3   OH241444   3.138   0.193  11.447
 5750TIP3    H141445   3.140   0.288  11.458
 5750TIP3    H241446   3.070   0.178  11.382
 5751TIP3   OH241447   3.196   0.738  11.738
 5751TIP3    H141448   3.205   0.662  11.796
 5751TIP3    H241449   3.128   0.713  11.676
 5752TIP3   OH241450   3.780   0.506  11.713
 5752TIP3    H141451   3.741   0.423  11.687
 5752TIP3    H241452   3.854   0.482  11.768
 5753TIP3   OH241453   3.946   0.390  11.907
 5753TIP3    H141454   3.935   0.296  11.920
 5753TIP3    H241455   3.901   0.430  11.981
 5754TIP3   OH241456   2.693   0.424  11.805
 5754TIP3    H141457   2.655   0.374  11.732
 5754TIP3    H241458   2.716   0.357  11.870
 5755TIP3   OH241459   3.070   0.021  11.662
 5755TIP3    H141460   3.110   9.152  11.647
 5755TIP3    H241461   3.099   0.074  11.588
 5756TIP3   OH241462   3.174   0.218  11.847
 5756TIP3    H141463   3.117   0.156  11.802
 5756TIP3    H241464   3.262   0.187  11.829
 5757TIP3   OH241465   3.285   2.080  10.375
 5757TIP3    H141466   3.380   2.081  10.370
 5757TIP3    H241467   3.256   2.109  10.288
 5758TIP3   OH241468   2.610   1.668  10.212
 5758TIP3    H141469   2.693   1.621  10.211
 5758TIP3    H241470   2.565   1.639  10.133
 5759TIP3   OH241471   2.265   2.142  10.672
 5759TIP3    H141472   2.191   2.088  10.644
 5759TIP3    H241473   2.313   2.087  10.733
 5760TIP3   OH241474   2.436   1.985  10.824
 5760TIP3    H141475   2.399   1.933  10.895
 5760TIP3    H241476   2.506   2.036  10.865
 5761TIP3   OH241477   4.349   2.037  11.161
 5761TIP3    H141478   4.361   1.982  11.239
 5761TIP3    H241479   4.425   2.016  11.106
 5762TIP3   OH241480   4.351   1.899  11.401
 5762TIP3    H141481   4.292   1.829  11.373
 5762TIP3    H241482   4.387   1.868  11.483
 5763TIP3   OH241483   4.212   1.426  11.820
 5763TIP3    H141484   4.151   1.467  11.881
 5763TIP3    H241485   4.286   1.487  11.816
 5764TIP3   OH241486   4.404   1.264  10.441
 5764TIP3    H141487   4.468   1.335  10.450
 5764TIP3    H241488   4.402   1.223  10.527
 5765TIP3   OH241489   4.392   1.103  10.665
 5765TIP3    H141490   4.306   1.065  10.682
 5765TIP3    H241491   4.451   1.057  10.726
 5766TIP3   OH241492   4.568   1.349  11.146
 5766TIP3    H141493   4.586   1.260  11.116
 5766TIP3    H241494   4.625   1.405  11.093
 5767TIP3   OH241495   4.162   1.706  11.333
 5767TIP3    H141496   4.092   1.745  11.385
 5767TIP3    H241497   4.121   1.686  11.248
 5768TIP3   OH241498   4.509   1.041  10.317
 5768TIP3    H141499   4.484   1.053  10.225
 5768TIP3    H241500   4.470   1.115  10.362
 5769TIP3   OH241501   4.187   0.756  10.341
 5769TIP3    H141502   4.137   0.815  10.285
 5769TIP3    H241503   4.200   0.677  10.288
 5770TIP3   OH241504   4.145   0.970  10.714
 5770TIP3    H141505   4.149   0.877  10.692
 5770TIP3    H241506   4.107   0.973  10.802
 5771TIP3   OH241507   2.327   1.079  11.125
 5771TIP3    H141508   2.320   1.041  11.038
 5771TIP3    H241509   2.417   1.061  11.152
 5772TIP3   OH241510   4.324   1.037  11.623
 5772TIP3    H141511   4.345   0.944  11.630
 5772TIP3    H241512   4.402   1.077  11.585
 5773TIP3   OH241513   4.356   0.762  11.627
 5773TIP3    H141514   4.280   0.743  11.572
 5773TIP3    H241515   4.420   0.695  11.603
 5774TIP3   OH241516   4.216   0.525  10.198
 5774TIP3    H141517   4.293   0.471  10.212
 5774TIP3    H241518   4.148   0.463  10.169
 5775TIP3   OH241519   4.015   0.620  10.515
 5775TIP3    H141520   4.053   0.532  10.516
 5775TIP3    H241521   4.078   0.673  10.467
 5776TIP3   OH241522   4.266   0.794  11.021
 5776TIP3    H141523   4.347   0.767  10.978
 5776TIP3    H241524   4.285   0.790  11.114
 5777TIP3   OH241525   4.357   0.790  11.284
 5777TIP3    H141526   4.283   0.785  11.344
 5777TIP3    H241527   4.390   0.879  11.293
 5778TIP3   OH241528   2.277   0.562  11.696
 5778TIP3    H141529   2.346   0.550  11.761
 5778TIP3    H241530   2.252   0.473  11.670
 5779TIP3   OH241531   4.566   0.219  11.854
 5779TIP3    H141532   4.659   0.214  11.831
 5779TIP3    H241533   4.524   0.253  11.776
 5780TIP3   OH241534   4.131   0.373  10.525
 5780TIP3    H141535   4.211   0.355  10.574
 5780TIP3    H241536   4.101   0.288  10.494
 5781TIP3   OH241537   2.575   0.383  10.934
 5781TIP3    H141538   2.621   0.299  10.940
 5781TIP3    H241539   2.644   0.447  10.916
 5782TIP3   OH241540   2.185   0.732  10.894
 5782TIP3    H141541   2.256   0.680  10.931
 5782TIP3    H241542   2.219   0.822  10.893
 5783TIP3   OH241543   4.400   0.328  11.658
 5783TIP3    H141544   4.328   0.359  11.714
 5783TIP3    H241545   4.360   0.261  11.602
 5784TIP3   OH241546   4.439   0.364  10.241
 5784TIP3    H141547   4.505   0.310  10.198
 5784TIP3    H241548   4.489   0.437  10.278
 5785TIP3   OH241549   2.290   0.361  10.575
 5785TIP3    H141550   2.197   0.345  10.562
 5785TIP3    H241551   2.311   0.432  10.515
 5786TIP3   OH241552   4.120   2.043  10.742
 5786TIP3    H141553   4.207   2.056  10.705
 5786TIP3    H241554   4.109   2.116  10.803
 5787TIP3   OH241555   2.324   0.157  11.300
 5787TIP3    H141556   2.250   0.147  11.360
 5787TIP3    H241557   2.291   0.214  11.231
 5788TIP3   OH241558   2.623   1.734  11.434
 5788TIP3    H141559   2.638   1.639  11.426
 5788TIP3    H241560   2.540   1.741  11.482
 5789TIP3   OH241561   2.978   1.995  11.406
 5789TIP3    H141562   2.959   2.084  11.376
 5789TIP3    H241563   3.065   1.976  11.372
 5790TIP3   OH241564   3.425   2.111  11.619
 5790TIP3    H141565   3.431   2.030  11.669
 5790TIP3    H241566   3.511   2.120  11.578
 5791TIP3   OH241567   3.756   2.352  11.597
 5791TIP3    H141568   3.711   2.283  11.548
 5791TIP3    H241569   3.806   2.305  11.665
 5792TIP3   OH241570   4.290   0.136  11.489
 5792TIP3    H141571   4.246   0.166  11.409
 5792TIP3    H241572   4.258   0.046  11.501
 5793TIP3   OH241573   2.647   2.312  11.387
 5793TIP3    H141574   2.555   2.308  11.360
 5793TIP3    H241575   2.646   2.363  11.468
 5794TIP3   OH241576   2.910   2.256  11.321
 5794TIP3    H141577   2.817   2.267  11.342
 5794TIP3    H241578   2.916   2.283  11.229
 5795TIP3   OH241579   3.471   2.054  11.259
 5795TIP3    H141580   3.481   2.072  11.166
 5795TIP3    H241581   3.419   2.127  11.293
 5796TIP3   OH241582   3.659   2.125  11.459
 5796TIP3    H141583   3.602   2.090  11.390
 5796TIP3    H241584   3.748   2.105  11.429
 5797TIP3   OH241585   3.928   2.097  11.380
 5797TIP3    H141586   3.971   2.162  11.435
 5797TIP3    H241587   3.972   2.103  11.296
 5798TIP3   OH241588   2.645   2.081  10.987
 5798TIP3    H141589   2.607   2.056  11.071
 5798TIP3    H241590   2.718   2.020  10.975
 5799TIP3   OH241591   2.835   1.876  10.970
 5799TIP3    H141592   2.827   1.781  10.979
 5799TIP3    H241593   2.923   1.895  11.002
 5800TIP3   OH241594   3.089   1.863  11.080
 5800TIP3    H141595   3.122   1.776  11.055
 5800TIP3    H241596   3.134   1.882  11.163
 5801TIP3   OH241597   3.425   0.303  10.898
 5801TIP3    H141598   3.363   0.243  10.939
 5801TIP3    H241599   3.509   0.257  10.903
 5802TIP3   OH241600   4.152   0.173  10.799
 5802TIP3    H141601   4.229   0.210  10.755
 5802TIP3    H241602   4.101   0.248  10.826
 5803TIP3   OH241603   4.364   0.296  10.657
 5803TIP3    H141604   4.414   0.245  10.593
 5803TIP3    H241605   4.429   0.352  10.700
 5804TIP3   OH241606   2.664   0.105  10.651
 5804TIP3    H141607   2.587   0.120  10.597
 5804TIP3    H241608   2.671   0.009  10.656
 5805TIP3   OH241609   2.440   0.137  10.491
 5805TIP3    H141610   2.449   0.161  10.399
 5805TIP3    H241611   2.385   0.206  10.528
 5806TIP3   OH241612   3.260   0.022  10.715
 5806TIP3    H141613   3.309   0.086  10.662
 5806TIP3    H241614   3.252   0.064  10.801
 5807TIP3   OH241615   3.669   0.160  10.819
 5807TIP3    H141616   3.678   0.211  10.739
 5807TIP3    H241617   3.708   0.075  10.799
 5808TIP3   OH241618   4.042   0.135  10.403
 5808TIP3    H141619   3.951   0.164  10.397
 5808TIP3    H241620   4.037   0.039  10.400
 5809TIP3   OH241621   2.423   2.078  10.453
 5809TIP3    H141622   2.365   2.101  10.381
 5809TIP3    H241623   2.379   2.112  10.531
 5810TIP3   OH241624   2.475   0.182  10.217
 5810TIP3    H141625   2.498   0.090  10.204
 5810TIP3    H241626   2.537   0.230  10.162
 5811TIP3   OH241627   3.274   0.450  10.491
 5811TIP3    H141628   3.315   0.372  10.530
 5811TIP3    H241629   3.296   0.521  10.551
 5812TIP3   OH241630   3.556   2.070  10.313
 5812TIP3    H141631   3.647   2.041  10.322
 5812TIP3    H241632   3.519   2.011  10.247
 5813TIP3   OH241633   4.362   2.076  10.594
 5813TIP3    H141634   4.355   1.990  10.552
 5813TIP3    H241635   4.343   2.138  10.524
 5814TIP3   OH241636   2.588   0.233  11.632
 5814TIP3    H141637   2.593   0.242  11.536
 5814TIP3    H241638   2.654   0.166  11.653
 5815TIP3   OH241639   2.785   0.047  11.710
 5815TIP3    H141640   2.880   0.041  11.697
 5815TIP3    H241641   2.753   9.174  11.700
 5816TIP3   OH241642   2.686   2.125  10.394
 5816TIP3    H141643   2.594   2.108  10.414
 5816TIP3    H241644   2.723   2.039  10.375
 5817TIP3   OH241645   3.924   0.118  11.955
 5817TIP3    H141646   3.903   0.032  11.920
 5817TIP3    H241647   3.954   0.101  12.044
 5818TIP3   OH241648   4.134   1.862  11.688
 5818TIP3    H141649   4.076   1.842  11.614
 5818TIP3    H241650   4.140   1.957  11.690
 5819TIP3   OH241651   6.030   1.202  10.524
 5819TIP3    H141652   6.011   1.292  10.497
 5819TIP3    H241653   5.948   1.156  10.513
 5820TIP3   OH241654   5.652   0.954  11.111
 5820TIP3    H141655   5.738   0.953  11.154
 5820TIP3    H241656   5.660   0.892  11.039
 5821TIP3   OH241657   4.873   1.135  11.135
 5821TIP3    H141658   4.958   1.127  11.092
 5821TIP3    H241659   4.895   1.153  11.227
 5822TIP3   OH241660   6.240   1.458  10.912
 5822TIP3    H141661   6.252   1.367  10.940
 5822TIP3    H241662   6.240   1.508  10.994
 5823TIP3   OH241663   5.139   1.648  10.900
 5823TIP3    H141664   5.105   1.559  10.890
 5823TIP3    H241665   5.217   1.638  10.955
 5824TIP3   OH241666   4.610   0.715  10.648
 5824TIP3    H141667   4.599   0.788  10.708
 5824TIP3    H241668   4.553   0.737  10.574
 5825TIP3   OH241669   4.655   0.963  10.811
 5825TIP3    H141670   4.707   0.893  10.849
 5825TIP3    H241671   4.717   1.011  10.756
 5826TIP3   OH241672   6.074   2.104  10.903
 5826TIP3    H141673   6.080   2.034  10.838
 5826TIP3    H241674   6.074   2.058  10.987
 5827TIP3   OH241675   5.536   1.406  11.104
 5827TIP3    H141676   5.586   1.347  11.047
 5827TIP3    H241677   5.597   1.430  11.174
 5828TIP3   OH241678   6.682   0.326  11.177
 5828TIP3    H141679   6.664   0.411  11.218
 5828TIP3    H241680   6.714   0.348  11.089
 5829TIP3   OH241681   6.069   0.753  11.034
 5829TIP3    H141682   6.079   0.664  11.066
 5829TIP3    H241683   6.022   0.744  10.951
 5830TIP3   OH241684   5.141   0.514  10.822
 5830TIP3    H141685   5.160   0.600  10.784
 5830TIP3    H241686   5.102   0.464  10.750
 5831TIP3   OH241687   6.141   0.505  10.707
 5831TIP3    H141688   6.201   0.489  10.780
 5831TIP3    H241689   6.197   0.539  10.638
 5832TIP3   OH241690   4.798   0.742  10.894
 5832TIP3    H141691   4.855   0.704  10.961
 5832TIP3    H241692   4.834   0.710  10.811
 5833TIP3   OH241693   5.258   0.983  10.819
 5833TIP3    H141694   5.344   0.949  10.843
 5833TIP3    H241695   5.212   0.909  10.781
 5834TIP3   OH241696   6.592   0.557  11.288
 5834TIP3    H141697   6.586   0.651  11.271
 5834TIP3    H241698   6.522   0.539  11.350
 5835TIP3   OH241699   5.065   0.431  11.264
 5835TIP3    H141700   5.031   0.485  11.193
 5835TIP3    H241701   5.009   0.454  11.339
 5836TIP3   OH241702   5.974   1.458  10.425
 5836TIP3    H141703   5.888   1.455  10.382
 5836TIP3    H241704   5.970   1.536  10.480
 5837TIP3   OH241705   5.315   1.249  11.181
 5837TIP3    H141706   5.263   1.301  11.242
 5837TIP3    H241707   5.387   1.307  11.156
 5838TIP3   OH241708   6.311   0.479  10.928
 5838TIP3    H141709   6.241   0.483  10.993
 5838TIP3    H241710   6.369   0.552  10.950
 5839TIP3   OH241711   4.986   0.578  11.035
 5839TIP3    H141712   5.025   0.660  11.065
 5839TIP3    H241713   5.045   0.547  10.967
 5840TIP3   OH241714   5.138   1.390  11.355
 5840TIP3    H141715   5.075   1.462  11.354
 5840TIP3    H241716   5.084   1.312  11.367
 5841TIP3   OH241717   4.651   1.481  10.392
 5841TIP3    H141718   4.685   1.506  10.305
 5841TIP3    H241719   4.634   1.564  10.436
 5842TIP3   OH241720   6.434   1.844  11.240
 5842TIP3    H141721   6.354   1.800  11.211
 5842TIP3    H241722   6.455   1.905  11.170
 5843TIP3   OH241723   6.432   0.267  11.295
 5843TIP3    H141724   6.371   0.241  11.227
 5843TIP3    H241725   6.514   0.284  11.249
 5844TIP3   OH241726   5.495   0.102  10.954
 5844TIP3    H141727   5.482   0.015  10.991
 5844TIP3    H241728   5.420   0.153  10.986
 5845TIP3   OH241729   6.127   1.924  10.694
 5845TIP3    H141730   6.141   1.831  10.711
 5845TIP3    H241731   6.215   1.961  10.692
 5846TIP3   OH241732   6.160   1.655  10.731
 5846TIP3    H141733   6.084   1.616  10.688
 5846TIP3    H241734   6.194   1.586  10.788
 5847TIP3   OH241735   6.585   1.421  11.475
 5847TIP3    H141736   6.566   1.375  11.393
 5847TIP3    H241737   6.549   1.509  11.462
 5848TIP3   OH241738   5.807   1.045  10.451
 5848TIP3    H141739   5.720   1.081  10.433
 5848TIP3    H241740   5.834   1.005  10.368
 5849TIP3   OH241741   5.902   0.898  10.234
 5849TIP3    H141742   5.994   0.924  10.236
 5849TIP3    H241743   5.904   0.802  10.243
 5850TIP3   OH241744   6.683   1.048  11.266
 5850TIP3    H141745   6.629   1.127  11.268
 5850TIP3    H241746   6.761   1.074  11.217
 5851TIP3   OH241747   6.274   1.090  10.492
 5851TIP3    H141748   6.192   1.132  10.517
 5851TIP3    H241749   6.311   1.059  10.575
 5852TIP3   OH241750   6.338   0.888  11.428
 5852TIP3    H141751   6.349   0.974  11.469
 5852TIP3    H241752   6.243   0.881  11.414
 5853TIP3   OH241753   5.203   1.219  10.676
 5853TIP3    H141754   5.154   1.185  10.601
 5853TIP3    H241755   5.231   1.141  10.723
 5854TIP3   OH241756   5.399   1.629  10.999
 5854TIP3    H141757   5.426   1.626  10.907
 5854TIP3    H241758   5.445   1.555  11.039
 5855TIP3   OH241759   5.128   1.111  11.030
 5855TIP3    H141760   5.174   1.069  10.957
 5855TIP3    H241761   5.197   1.151  11.082
 5856TIP3   OH241762   6.194   1.729  11.178
 5856TIP3    H141763   6.138   1.806  11.165
 5856TIP3    H241764   6.157   1.684  11.254
 5857TIP3   OH241765   5.308   1.521  11.540
 5857TIP3    H141766   5.244   1.591  11.557
 5857TIP3    H241767   5.266   1.466  11.475
 5858TIP3   OH241768   6.177   0.948  10.278
 5858TIP3    H141769   6.209   0.991  10.357
 5858TIP3    H241770   6.200   1.008  10.207
 5859TIP3   OH241771   4.951   1.190  11.397
 5859TIP3    H141772   4.893   1.225  11.464
 5859TIP3    H241773   4.988   1.111  11.436
 5860TIP3   OH241774   5.921   1.690  10.563
 5860TIP3    H141775   5.963   1.774  10.576
 5860TIP3    H241776   5.831   1.711  10.539
 5861TIP3   OH241777   5.119   1.721  11.561
 5861TIP3    H141778   5.121   1.791  11.497
 5861TIP3    H241779   5.031   1.724  11.598
 5862TIP3   OH241780   6.595   0.108  10.334
 5862TIP3    H141781   6.506   0.129  10.361
 5862TIP3    H241782   6.631   0.192  10.303
 5863TIP3   OH241783   5.060   1.118  10.457
 5863TIP3    H141784   5.005   1.193  10.432
 5863TIP3    H241785   5.003   1.042  10.447
 5864TIP3   OH241786   6.708   1.946  10.172
 5864TIP3    H141787   6.720   2.038  10.196
 5864TIP3    H241788   6.773   1.931  10.103
 5865TIP3   OH241789   4.601   1.389  11.423
 5865TIP3    H141790   4.583   1.378  11.330
 5865TIP3    H241791   4.585   1.303  11.461
 5866TIP3   OH241792   4.720   1.835  11.043
 5866TIP3    H141793   4.743   1.743  11.032
 5866TIP3    H241794   4.772   1.864  11.118
 5867TIP3   OH241795   6.792   1.899  11.582
 5867TIP3    H141796   6.769   1.891  11.490
 5867TIP3    H241797   6.707   1.898  11.627
 5868TIP3   OH241798   5.537   1.682  11.535
 5868TIP3    H141799   5.567   1.673  11.626
 5868TIP3    H241800   5.465   1.620  11.527
 5869TIP3   OH241801   5.789   2.207  10.521
 5869TIP3    H141802   5.731   2.185  10.447
 5869TIP3    H241803   5.769   2.299  10.539
 5870TIP3   OH241804   4.978   2.065  10.730
 5870TIP3    H141805   5.033   2.021  10.795
 5870TIP3    H241806   4.889   2.038  10.752
 5871TIP3   OH241807   6.009   1.971  10.299
 5871TIP3    H141808   6.083   1.911  10.289
 5871TIP3    H241809   6.038   2.034  10.365
 5872TIP3   OH241810   6.052   2.132  10.523
 5872TIP3    H141811   5.960   2.156  10.530
 5872TIP3    H241812   6.063   2.061  10.586
 5873TIP3   OH241813   6.468   0.711  11.597
 5873TIP3    H141814   6.423   0.777  11.545
 5873TIP3    H241815   6.444   0.628  11.557
 5874TIP3   OH241816   4.853   1.494  11.468
 5874TIP3    H141817   4.872   1.431  11.537
 5874TIP3    H241818   4.766   1.469  11.435
 5875TIP3   OH241819   5.140   0.211  11.104
 5875TIP3    H141820   5.074   0.222  11.036
 5875TIP3    H241821   5.123   0.282  11.166
 5876TIP3   OH241822   5.754   0.202  11.389
 5876TIP3    H141823   5.765   0.108  11.406
 5876TIP3    H241824   5.661   0.219  11.406
 5877TIP3   OH241825   6.090   0.546  11.501
 5877TIP3    H141826   6.078   0.539  11.596
 5877TIP3    H241827   6.034   0.619  11.475
 5878TIP3   OH241828   6.258   1.162  10.125
 5878TIP3    H141829   6.231   1.230  10.063
 5878TIP3    H241830   6.307   1.209  10.192
 5879TIP3   OH241831   5.721   0.565  10.236
 5879TIP3    H141832   5.666   0.516  10.297
 5879TIP3    H241833   5.659   0.604  10.174
 5880TIP3   OH241834   5.084   0.823  11.113
 5880TIP3    H141835   5.036   0.814  11.195
 5880TIP3    H241836   5.086   0.917  11.097
 5881TIP3   OH241837   5.148   0.762  10.691
 5881TIP3    H141838   5.062   0.737  10.659
 5881TIP3    H241839   5.207   0.749  10.616
 5882TIP3   OH241840   5.853   0.787  10.558
 5882TIP3    H141841   5.838   0.880  10.540
 5882TIP3    H241842   5.928   0.764  10.503
 5883TIP3   OH241843   5.752   0.840  11.663
 5883TIP3    H141844   5.700   0.767  11.697
 5883TIP3    H241845   5.790   0.881  11.740
 5884TIP3   OH241846   5.946   0.685  10.796
 5884TIP3    H141847   5.913   0.725  10.716
 5884TIP3    H241848   6.007   0.618  10.767
 5885TIP3   OH241849   4.955   0.763  11.343
 5885TIP3    H141850   4.977   0.823  11.414
 5885TIP3    H241851   4.931   0.682  11.387
 5886TIP3   OH241852   5.355   0.645  10.135
 5886TIP3    H141853   5.333   0.586  10.206
 5886TIP3    H241854   5.315   0.606  10.057
 5887TIP3   OH241855   4.582   0.452  10.749
 5887TIP3    H141856   4.640   0.439  10.824
 5887TIP3    H241857   4.583   0.547  10.734
 5888TIP3   OH241858   4.591   0.580  10.336
 5888TIP3    H141859   4.669   0.629  10.310
 5888TIP3    H241860   4.532   0.647  10.370
 5889TIP3   OH241861   5.908   0.902  11.212
 5889TIP3    H141862   5.967   0.856  11.152
 5889TIP3    H241863   5.913   0.853  11.294
 5890TIP3   OH241864   5.590   0.521  10.840
 5890TIP3    H141865   5.505   0.504  10.880
 5890TIP3    H241866   5.639   0.439  10.852
 5891TIP3   OH241867   4.893   0.647  10.647
 5891TIP3    H141868   4.802   0.657  10.616
 5891TIP3    H241869   4.914   0.555  10.628
 5892TIP3   OH241870   5.350   0.726  10.503
 5892TIP3    H141871   5.436   0.708  10.541
 5892TIP3    H241872   5.368   0.787  10.432
 5893TIP3   OH241873   6.073   0.476  11.075
 5893TIP3    H141874   6.046   0.445  11.161
 5893TIP3    H241875   6.014   0.432  11.014
 5894TIP3   OH241876   5.409   0.875  10.277
 5894TIP3    H141877   5.389   0.803  10.218
 5894TIP3    H241878   5.493   0.909  10.245
 5895TIP3   OH241879   6.332   2.206  11.756
 5895TIP3    H141880   6.300   2.181  11.670
 5895TIP3    H241881   6.414   2.253  11.739
 5896TIP3   OH241882   4.860   1.295  11.662
 5896TIP3    H141883   4.947   1.279  11.699
 5896TIP3    H241884   4.813   1.212  11.675
 5897TIP3   OH241885   5.704   0.763  10.917
 5897TIP3    H141886   5.793   0.746  10.886
 5897TIP3    H241887   5.657   0.680  10.902
 5898TIP3   OH241888   5.010   0.388  10.605
 5898TIP3    H141889   4.978   0.300  10.624
 5898TIP3    H241890   5.059   0.378  10.524
 5899TIP3   OH241891   5.326   0.716  11.207
 5899TIP3    H141892   5.242   0.741  11.168
 5899TIP3    H241893   5.372   0.799  11.222
 5900TIP3   OH241894   5.491   1.339  10.357
 5900TIP3    H141895   5.444   1.257  10.343
 5900TIP3    H241896   5.446   1.381  10.431
 5901TIP3   OH241897   6.547   1.291  11.228
 5901TIP3    H141898   6.615   1.318  11.167
 5901TIP3    H241899   6.467   1.287  11.176
 5902TIP3   OH241900   5.952   0.475  10.362
 5902TIP3    H141901   5.876   0.497  10.309
 5902TIP3    H241902   5.998   0.558  10.373
 5903TIP3   OH241903   5.815   1.634  11.476
 5903TIP3    H141904   5.855   1.656  11.560
 5903TIP3    H241905   5.724   1.662  11.485
 5904TIP3   OH241906   6.082   0.719  10.406
 5904TIP3    H141907   6.157   0.674  10.446
 5904TIP3    H241908   6.121   0.794  10.361
 5905TIP3   OH241909   5.097   1.374  10.883
 5905TIP3    H141910   5.129   1.330  10.804
 5905TIP3    H241911   5.087   1.303  10.947
 5906TIP3   OH241912   5.717   1.498  10.330
 5906TIP3    H141913   5.689   1.574  10.382
 5906TIP3    H241914   5.642   1.439  10.333
 5907TIP3   OH241915   4.567   1.134  11.521
 5907TIP3    H141916   4.633   1.090  11.574
 5907TIP3    H241917   4.556   1.078  11.445
 5908TIP3   OH241918   5.504   0.979  11.704
 5908TIP3    H141919   5.442   0.959  11.633
 5908TIP3    H241920   5.588   0.945  11.672
 5909TIP3   OH241921   6.101   1.616  11.418
 5909TIP3    H141922   6.007   1.622  11.432
 5909TIP3    H241923   6.139   1.676  11.483
 5910TIP3   OH241924   6.726   0.785  10.425
 5910TIP3    H141925   6.633   0.771  10.405
 5910TIP3    H241926   6.747   0.869  10.386
 5911TIP3   OH241927   6.784   1.309  11.623
 5911TIP3    H141928   6.708   1.354  11.585
 5911TIP3    H241929   6.843   1.294  11.549
 5912TIP3   OH241930   6.506   1.834  10.319
 5912TIP3    H141931   6.526   1.740  10.321
 5912TIP3    H241932   6.570   1.871  10.258
 5913TIP3   OH241933   6.265   1.194  11.020
 5913TIP3    H141934   6.186   1.185  11.072
 5913TIP3    H241935   6.287   1.104  10.993
 5914TIP3   OH241936   5.355   1.669  10.714
 5914TIP3    H141937   5.364   1.740  10.650
 5914TIP3    H241938   5.270   1.684  10.756
 5915TIP3   OH241939   4.787   1.030  10.356
 5915TIP3    H141940   4.812   1.122  10.351
 5915TIP3    H241941   4.691   1.031  10.349
 5916TIP3   OH241942   5.339   1.438  10.562
 5916TIP3    H141943   5.354   1.505  10.630
 5916TIP3    H241944   5.294   1.367  10.608
 5917TIP3   OH241945   5.417   1.882  11.366
 5917TIP3    H141946   5.475   1.952  11.397
 5917TIP3    H241947   5.449   1.804  11.411
 5918TIP3   OH241948   5.209   2.072  10.576
 5918TIP3    H141949   5.125   2.069  10.622
 5918TIP3    H241950   5.238   2.163  10.586
 5919TIP3   OH241951   5.738   1.443  11.286
 5919TIP3    H141952   5.765   1.515  11.343
 5919TIP3    H241953   5.801   1.373  11.306
 5920TIP3   OH241954   6.225   1.518  10.309
 5920TIP3    H141955   6.284   1.443  10.321
 5920TIP3    H241956   6.144   1.490  10.351
 5921TIP3   OH241957   6.204   2.104  11.532
 5921TIP3    H141958   6.206   2.011  11.554
 5921TIP3    H241959   6.230   2.107  11.439
 5922TIP3   OH241960   6.750   2.208  10.248
 5922TIP3    H141961   6.799   2.290  10.240
 5922TIP3    H241962   6.666   2.234  10.284
 5923TIP3   OH241963   4.892   0.520  11.470
 5923TIP3    H141964   4.913   0.532  11.563
 5923TIP3    H241965   4.803   0.484  11.470
 5924TIP3   OH241966   6.391   1.285  10.334
 5924TIP3    H141967   6.354   1.223  10.396
 5924TIP3    H241968   6.485   1.285  10.352
 5925TIP3   OH241969   4.878   1.916  11.260
 5925TIP3    H141970   4.969   1.902  11.287
 5925TIP3    H241971   4.830   1.931  11.342
 5926TIP3   OH241972   5.222   1.635  10.400
 5926TIP3    H141973   5.262   1.564  10.450
 5926TIP3    H241974   5.271   1.713  10.425
 5927TIP3   OH241975   4.869   1.301  10.368
 5927TIP3    H141976   4.792   1.353  10.391
 5927TIP3    H241977   4.928   1.362  10.325
 5928TIP3   OH241978   5.966   0.373  11.305
 5928TIP3    H141979   6.001   0.411  11.386
 5928TIP3    H241980   5.896   0.315  11.335
 5929TIP3   OH241981   5.985   0.310  10.578
 5929TIP3    H141982   5.974   0.355  10.495
 5929TIP3    H241983   6.037   0.370  10.632
 5930TIP3   OH241984   5.662   1.744  10.457
 5930TIP3    H141985   5.577   1.776  10.488
 5930TIP3    H241986   5.688   1.806  10.389
 5931TIP3   OH241987   5.604   0.655  10.595
 5931TIP3    H141988   5.687   0.702  10.586
 5931TIP3    H241989   5.607   0.619  10.684
 5932TIP3   OH241990   5.890   0.739  11.443
 5932TIP3    H141991   5.854   0.786  11.519
 5932TIP3    H241992   5.818   0.685  11.412
 5933TIP3   OH241993   5.704   0.254  10.591
 5933TIP3    H141994   5.699   0.270  10.685
 5933TIP3    H241995   5.797   0.260  10.571
 5934TIP3   OH241996   5.369   1.861  10.498
 5934TIP3    H141997   5.413   1.902  10.423
 5934TIP3    H241998   5.312   1.929  10.532
 5935TIP3   OH241999   5.306   0.492  10.358
 5935TIP3    H142000   5.303   0.567  10.418
 5935TIP3    H242001   5.390   0.450  10.377
 5936TIP3   OH242002   6.366   0.499  11.446
 5936TIP3    H142003   6.272   0.512  11.461
 5936TIP3    H242004   6.372   0.412  11.408
 5937TIP3   OH242005   6.288   0.913  10.960
 5937TIP3    H142006   6.206   0.871  10.988
 5937TIP3    H242007   6.355   0.847  10.976
 5938TIP3   OH242008   5.043   1.487  10.250
 5938TIP3    H142009   5.091   1.550  10.304
 5938TIP3    H242010   5.111   1.438  10.204
 5939TIP3   OH242011   4.797   0.759  10.284
 5939TIP3    H142012   4.792   0.849  10.315
 5939TIP3    H242013   4.875   0.757  10.229
 5940TIP3   OH242014   6.496   2.072  11.090
 5940TIP3    H142015   6.489   2.126  11.012
 5940TIP3    H242016   6.588   2.078  11.115
 5941TIP3   OH242017   4.927   0.180  10.916
 5941TIP3    H142018   4.928   0.175  10.820
 5941TIP3    H242019   4.917   0.090  10.945
 5942TIP3   OH242020   4.601   1.744  10.476
 5942TIP3    H142021   4.508   1.769  10.479
 5942TIP3    H242022   4.647   1.828  10.469
 5943TIP3   OH242023   4.565   1.990  11.772
 5943TIP3    H142024   4.652   1.970  11.738
 5943TIP3    H242025   4.508   1.924  11.733
 5944TIP3   OH242026   5.830   1.667  10.140
 5944TIP3    H142027   5.792   1.598  10.194
 5944TIP3    H242028   5.925   1.653  10.145
 5945TIP3   OH242029   5.952   1.695  11.709
 5945TIP3    H142030   5.954   1.626  11.775
 5945TIP3    H242031   6.044   1.722  11.699
 5946TIP3   OH242032   6.224   1.798  10.290
 5946TIP3    H142033   6.223   1.702  10.296
 5946TIP3    H242034   6.316   1.822  10.302
 5947TIP3   OH242035   4.698   1.512  11.769
 5947TIP3    H142036   4.742   1.434  11.734
 5947TIP3    H242037   4.611   1.509  11.730
 5948TIP3   OH242038   5.265   1.352  10.162
 5948TIP3    H142039   5.273   1.266  10.205
 5948TIP3    H242040   5.348   1.395  10.182
 5949TIP3   OH242041   5.436   1.414  11.762
 5949TIP3    H142042   5.387   1.447  11.687
 5949TIP3    H242043   5.467   1.327  11.734
 5950TIP3   OH242044   6.278   1.397  11.504
 5950TIP3    H142045   6.360   1.446  11.506
 5950TIP3    H242046   6.213   1.459  11.471
 5951TIP3   OH242047   4.762   1.039  11.692
 5951TIP3    H142048   4.843   0.999  11.661
 5951TIP3    H242049   4.749   1.003  11.780
 5952TIP3   OH242050   5.308   1.130  10.324
 5952TIP3    H142051   5.227   1.121  10.373
 5952TIP3    H242052   5.338   1.039  10.310
 5953TIP3   OH242053   5.337   0.908  11.494
 5953TIP3    H142054   5.246   0.931  11.512
 5953TIP3    H242055   5.353   0.939  11.405
 5954TIP3   OH242056   5.644   0.978  10.178
 5954TIP3    H142057   5.651   1.048  10.113
 5954TIP3    H242058   5.733   0.944  10.187
 5955TIP3   OH242059   5.891   1.231  11.803
 5955TIP3    H142060   5.942   1.217  11.723
 5955TIP3    H242061   5.870   1.142  11.833
 5956TIP3   OH242062   6.751   1.092  19.912
 5956TIP3    H142063   6.781   1.165  19.856
 5956TIP3    H242064   6.687   1.133  19.971
 5957TIP3   OH242065   5.354   0.650  11.586
 5957TIP3    H142066   5.345   0.588  11.514
 5957TIP3    H242067   5.354   0.736  11.545
 5958TIP3   OH242068   5.326   0.484  11.357
 5958TIP3    H142069   5.343   0.560  11.302
 5958TIP3    H242070   5.237   0.456  11.333
 5959TIP3   OH242071   5.407   0.985  11.233
 5959TIP3    H142072   5.494   0.978  11.195
 5959TIP3    H242073   5.381   1.076  11.218
 5960TIP3   OH242074   6.077   0.777  11.897
 5960TIP3    H142075   6.057   0.694  11.855
 5960TIP3    H242076   6.169   0.793  11.877
 5961TIP3   OH242077   6.360   1.128  11.552
 5961TIP3    H142078   6.332   1.219  11.539
 5961TIP3    H242079   6.437   1.134  11.607
 5962TIP3   OH242080   5.145   0.726  11.756
 5962TIP3    H142081   5.112   0.802  11.709
 5962TIP3    H242082   5.219   0.695  11.703
 5963TIP3   OH242083   5.459   0.237  11.420
 5963TIP3    H142084   5.431   0.328  11.420
 5963TIP3    H242085   5.413   0.197  11.346
 5964TIP3   OH242086   5.583   0.640  11.745
 5964TIP3    H142087   5.575   0.557  11.792
 5964TIP3    H242088   5.503   0.646  11.693
 5965TIP3   OH242089   6.042   0.526  11.776
 5965TIP3    H142090   5.957   0.493  11.807
 5965TIP3    H242091   6.105   0.463  11.810
 5966TIP3   OH242092   6.192   0.330  11.904
 5966TIP3    H142093   6.164   0.240  11.884
 5966TIP3    H242094   6.140   0.355  11.980
 5967TIP3   OH242095   4.932   0.552  11.747
 5967TIP3    H142096   5.003   0.616  11.752
 5967TIP3    H242097   4.970   0.471  11.781
 5968TIP3   OH242098   5.373   0.049  11.626
 5968TIP3    H142099   5.423   9.187  11.604
 5968TIP3    H242100   5.406   0.116  11.566
 5969TIP3   OH242101   5.512   0.394  11.861
 5969TIP3    H142102   5.496   0.314  11.811
 5969TIP3    H242103   5.427   0.415  11.900
 5970TIP3   OH242104   5.497   1.992  10.293
 5970TIP3    H142105   5.588   1.968  10.273
 5970TIP3    H242106   5.465   2.030  10.211
 5971TIP3   OH242107   4.791   1.553  10.162
 5971TIP3    H142108   4.880   1.538  10.194
 5971TIP3    H242109   4.800   1.565  10.068
 5972TIP3   OH242110   4.602   2.190  10.667
 5972TIP3    H142111   4.515   2.151  10.653
 5972TIP3    H242112   4.637   2.142  10.742
 5973TIP3   OH242113   4.727   2.044  10.862
 5973TIP3    H142114   4.698   1.961  10.899
 5973TIP3    H242115   4.786   2.081  10.928
 5974TIP3   OH242116   6.740   2.089  11.224
 5974TIP3    H142117   6.685   2.066  11.299
 5974TIP3    H242118   6.775   2.175  11.246
 5975TIP3   OH242119   6.556   2.018  11.420
 5975TIP3    H142120   6.506   1.958  11.364
 5975TIP3    H242121   6.539   1.987  11.509
 5976TIP3   OH242122   6.662   1.252  10.412
 5976TIP3    H142123   6.739   1.308  10.419
 5976TIP3    H242124   6.633   1.239  10.503
 5977TIP3   OH242125   6.560   1.207  10.663
 5977TIP3    H142126   6.509   1.128  10.679
 5977TIP3    H242127   6.537   1.266  10.735
 5978TIP3   OH242128   6.768   1.334  11.071
 5978TIP3    H142129   6.830   1.263  11.087
 5978TIP3    H242130   6.821   1.409  11.048
 5979TIP3   OH242131   6.450   1.657  11.448
 5979TIP3    H142132   6.385   1.695  11.507
 5979TIP3    H242133   6.450   1.714  11.372
 5980TIP3   OH242134   6.764   1.027  10.292
 5980TIP3    H142135   6.729   1.035  10.203
 5980TIP3    H242136   6.727   1.102  10.339
 5981TIP3   OH242137   6.468   0.740  10.329
 5981TIP3    H142138   6.416   0.798  10.274
 5981TIP3    H242139   6.480   0.661  10.277
 5982TIP3   OH242140   6.400   0.984  10.717
 5982TIP3    H142141   6.441   0.899  10.701
 5982TIP3    H242142   6.352   0.973  10.799
 5983TIP3   OH242143   4.615   1.092  11.062
 5983TIP3    H142144   4.613   1.045  10.979
 5983TIP3    H242145   4.707   1.096  11.086
 5984TIP3   OH242146   6.602   1.103  11.697
 5984TIP3    H142147   6.643   1.017  11.691
 5984TIP3    H242148   6.671   1.165  11.674
 5985TIP3   OH242149   6.709   0.836  11.661
 5985TIP3    H142150   6.623   0.800  11.638
 5985TIP3    H242151   6.760   0.760  11.690
 5986TIP3   OH242152   6.491   0.501  10.200
 5986TIP3    H142153   6.571   0.448  10.207
 5986TIP3    H242154   6.421   0.437  10.185
 5987TIP3   OH242155   6.311   0.590  10.504
 5987TIP3    H142156   6.357   0.506  10.510
 5987TIP3    H242157   6.373   0.648  10.458
 5988TIP3   OH242158   6.480   0.708  10.988
 5988TIP3    H142159   6.566   0.706  10.945
 5988TIP3    H242160   6.498   0.737  11.077
 5989TIP3   OH242161   6.529   0.821  11.238
 5989TIP3    H142162   6.459   0.840  11.300
 5989TIP3    H242163   6.588   0.896  11.244
 5990TIP3   OH242164   4.540   0.551  11.582
 5990TIP3    H142165   4.604   0.567  11.652
 5990TIP3    H242166   4.495   0.471  11.609
 5991TIP3   OH242167   6.828   0.161  11.781
 5991TIP3    H142168   6.918   0.171  11.752
 5991TIP3    H242169   6.781   0.231  11.737
 5992TIP3   OH242170   6.445   0.351  10.529
 5992TIP3    H142171   6.503   0.325  10.601
 5992TIP3    H242172   6.404   0.269  10.501
 5993TIP3   OH242173   4.769   0.410  10.953
 5993TIP3    H142174   4.816   0.327  10.944
 5993TIP3    H242175   4.834   0.470  10.990
 5994TIP3   OH242176   4.532   0.708  10.983
 5994TIP3    H142177   4.622   0.716  10.950
 5994TIP3    H242178   4.543   0.679  11.073
 5995TIP3   OH242179   6.668   0.363  11.678
 5995TIP3    H142180   6.595   0.375  11.739
 5995TIP3    H242181   6.634   0.303  11.611
 5996TIP3   OH242182   6.723   0.344  10.232
 5996TIP3    H142183   6.787   0.292  10.184
 5996TIP3    H242184   6.771   0.422  10.259
 5997TIP3   OH242185   4.635   0.359  10.496
 5997TIP3    H142186   4.622   0.389  10.586
 5997TIP3    H242187   4.624   0.438  10.443
 5998TIP3   OH242188   6.371   2.055  10.696
 5998TIP3    H142189   6.445   2.028  10.641
 5998TIP3    H242190   6.411   2.099  10.771
 5999TIP3   OH242191   4.512   0.070  11.329
 5999TIP3    H142192   4.450   0.093  11.398
 5999TIP3    H242193   4.512   0.146  11.271
 6000TIP3   OH242194   4.847   1.715  11.632
 6000TIP3    H142195   4.849   1.653  11.559
 6000TIP3    H242196   4.799   1.669  11.701
 6001TIP3   OH242197   5.135   1.925  11.373
 6001TIP3    H142198   5.123   2.018  11.353
 6001TIP3    H242199   5.230   1.910  11.363
 6002TIP3   OH242200   5.708   2.120  11.668
 6002TIP3    H142201   5.719   2.033  11.707
 6002TIP3    H242202   5.797   2.150  11.649
 6003TIP3   OH242203   5.964   2.226  11.621
 6003TIP3    H142204   6.038   2.180  11.583
 6003TIP3    H242205   5.997   2.261  11.704
 6004TIP3   OH242206   6.577   0.159  11.506
 6004TIP3    H142207   6.515   0.196  11.443
 6004TIP3    H242208   6.547   0.069  11.519
 6005TIP3   OH242209   4.830   2.313  11.337
 6005TIP3    H142210   4.735   2.314  11.347
 6005TIP3    H242211   4.855   2.405  11.338
 6006TIP3   OH242212   5.078   2.183  11.300
 6006TIP3    H142213   4.993   2.225  11.315
 6006TIP3    H242214   5.118   2.234  11.230
 6007TIP3   OH242215   5.884   2.168  11.238
 6007TIP3    H142216   5.799   2.175  11.195
 6007TIP3    H242217   5.885   2.242  11.299
 6008TIP3   OH242218   6.081   1.991  11.162
 6008TIP3    H142219   6.005   2.042  11.192
 6008TIP3    H242220   6.156   2.036  11.201
 6009TIP3   OH242221   6.292   2.139  11.267
 6009TIP3    H142222   6.303   2.234  11.266
 6009TIP3    H242223   6.360   2.107  11.208
 6010TIP3   OH242224   4.926   2.094  11.044
 6010TIP3    H142225   4.906   2.062  11.132
 6010TIP3    H242226   4.996   2.037  11.012
 6011TIP3   OH242227   5.114   1.923  10.933
 6011TIP3    H142228   5.102   1.830  10.914
 6011TIP3    H242229   5.192   1.927  10.988
 6012TIP3   OH242230   5.339   1.885  11.091
 6012TIP3    H142231   5.367   1.798  11.060
 6012TIP3    H242232   5.367   1.888  11.183
 6013TIP3   OH242233   5.703   0.268  10.867
 6013TIP3    H142234   5.645   0.209  10.915
 6013TIP3    H242235   5.786   0.221  10.862
 6014TIP3   OH242236   6.381   0.212  10.852
 6014TIP3    H142237   6.465   0.230  10.811
 6014TIP3    H242238   6.348   0.298  10.880
 6015TIP3   OH242239   6.625   0.262  10.725
 6015TIP3    H142240   6.670   0.179  10.711
 6015TIP3    H242241   6.691   0.319  10.763
 6016TIP3   OH242242   4.919   0.117  10.643
 6016TIP3    H142243   4.853   0.126  10.573
 6016TIP3    H242244   4.929   0.022  10.654
 6017TIP3   OH242245   4.740   0.119  10.433
 6017TIP3    H142246   4.786   0.134  10.351
 6017TIP3    H242247   4.695   0.201  10.451
 6018TIP3   OH242248   5.543   0.027  10.684
 6018TIP3    H142249   5.594   0.091  10.634
 6018TIP3    H242250   5.538   0.064  10.772
 6019TIP3   OH242251   5.932   0.134  10.792
 6019TIP3    H142252   5.963   0.183  10.716
 6019TIP3    H242253   5.978   0.050  10.788
 6020TIP3   OH242254   6.330   0.116  10.430
 6020TIP3    H142255   6.237   0.140  10.432
 6020TIP3    H242256   6.331   0.020  10.433
 6021TIP3   OH242257   4.685   2.019  10.450
 6021TIP3    H142258   4.636   2.058  10.378
 6021TIP3    H242259   4.662   2.071  10.527
 6022TIP3   OH242260   4.885   0.129  10.201
 6022TIP3    H142261   4.888   0.034  10.198
 6022TIP3    H242262   4.954   0.157  10.141
 6023TIP3   OH242263   5.568   0.437  10.431
 6023TIP3    H142264   5.608   0.363  10.476
 6023TIP3    H242265   5.581   0.511  10.490
 6024TIP3   OH242266   5.750   1.906  10.246
 6024TIP3    H142267   5.837   1.943  10.264
 6024TIP3    H242268   5.768   1.830  10.192
 6025TIP3   OH242269   6.571   2.027  10.510
 6025TIP3    H142270   6.547   1.956  10.450
 6025TIP3    H242271   6.564   2.106  10.457
 6026TIP3   OH242272   4.831   0.194  11.784
 6026TIP3    H142273   4.878   0.121  11.744
 6026TIP3    H242274   4.899   0.253  11.814
 6027TIP3   OH242275   5.152   0.064  11.801
 6027TIP3    H142276   5.227   0.056  11.743
 6027TIP3    H242277   5.118   9.191  11.809
 6028TIP3   OH242278   4.945   2.059  10.355
 6028TIP3    H142279   4.860   2.031  10.389
 6028TIP3    H242280   5.009   2.001  10.398
 6029TIP3   OH242281   6.076   0.083  11.875
 6029TIP3    H142282   6.004   0.064  11.936
 6029TIP3    H242283   6.097   9.214  11.836
 6030TIP3   OH242284   6.528   1.921  11.680
 6030TIP3    H142285   6.449   1.870  11.663
 6030TIP3    H242286   6.509   1.968  11.761
 6031TIP3   OH242287   8.267   1.225  10.583
 6031TIP3    H142288   8.256   1.318  10.565
 6031TIP3    H242289   8.182   1.186  10.564
 6032TIP3   OH242290   7.853   0.839  11.213
 6032TIP3    H142291   7.937   0.857  11.255
 6032TIP3    H242292   7.875   0.806  11.126
 6033TIP3   OH242293   7.158   1.061  11.283
 6033TIP3    H142294   7.190   0.971  11.285
 6033TIP3    H242295   7.182   1.096  11.369
 6034TIP3   OH242296   8.530   1.512  10.884
 6034TIP3    H142297   8.566   1.432  10.921
 6034TIP3    H242298   8.542   1.578  10.952
 6035TIP3   OH242299   7.398   1.644  10.935
 6035TIP3    H142300   7.373   1.552  10.928
 6035TIP3    H242301   7.476   1.644  10.990
 6036TIP3   OH242302   6.895   0.709  10.636
 6036TIP3    H142303   6.834   0.705  10.710
 6036TIP3    H242304   6.841   0.737  10.562
 6037TIP3   OH242305   6.930   0.930  10.935
 6037TIP3    H142306   7.002   0.868  10.940
 6037TIP3    H242307   6.936   0.967  10.847
 6038TIP3   OH242308   8.335   2.158  10.878
 6038TIP3    H142309   8.350   2.083  10.821
 6038TIP3    H242310   8.304   2.120  10.960
 6039TIP3   OH242311   7.814   1.424  11.109
 6039TIP3    H142312   7.866   1.381  11.041
 6039TIP3    H242313   7.879   1.459  11.170
 6040TIP3   OH242314   8.929   0.398  11.195
 6040TIP3    H142315   8.945   0.464  11.262
 6040TIP3    H242316   8.957   0.439  11.113
 6041TIP3   OH242317   8.338   0.747  11.058
 6041TIP3    H142318   8.340   0.654  11.081
 6041TIP3    H242319   8.276   0.752  10.985
 6042TIP3   OH242320   7.506   0.526  10.798
 6042TIP3    H142321   7.483   0.609  10.757
 6042TIP3    H242322   7.467   0.460  10.741
 6043TIP3   OH242323   8.412   0.550  10.737
 6043TIP3    H142324   8.472   0.530  10.809
 6043TIP3    H242325   8.468   0.593  10.672
 6044TIP3   OH242326   7.123   0.741  10.914
 6044TIP3    H142327   7.183   0.689  10.967
 6044TIP3    H242328   7.140   0.714  10.824
 6045TIP3   OH242329   7.558   0.974  10.792
 6045TIP3    H142330   7.645   0.936  10.790
 6045TIP3    H242331   7.501   0.905  10.758
 6046TIP3   OH242332   8.970   0.621  11.354
 6046TIP3    H142333   8.897   0.683  11.352
 6046TIP3    H242334   9.006   0.628  11.442
 6047TIP3   OH242335   7.369   0.367  11.213
 6047TIP3    H142336   7.338   0.435  11.153
 6047TIP3    H242337   7.294   0.351  11.271
 6048TIP3   OH242338   8.255   1.509  10.482
 6048TIP3    H142339   8.185   1.464  10.434
 6048TIP3    H242340   8.226   1.600  10.488
 6049TIP3   OH242341   7.607   1.251  11.194
 6049TIP3    H142342   7.538   1.309  11.228
 6049TIP3    H242343   7.677   1.310  11.166
 6050TIP3   OH242344   8.577   0.501  10.954
 6050TIP3    H142345   8.503   0.498  11.015
 6050TIP3    H242346   8.639   0.561  10.994
 6051TIP3   OH242347   7.326   0.559  11.007
 6051TIP3    H142348   7.364   0.630  11.059
 6051TIP3    H242349   7.392   0.538  10.942
 6052TIP3   OH242350   7.408   1.440  11.272
 6052TIP3    H142351   7.370   1.475  11.191
 6052TIP3    H242352   7.333   1.413  11.324
 6053TIP3   OH242353   6.898   1.406  10.421
 6053TIP3    H142354   6.933   1.450  10.344
 6053TIP3    H242355   6.899   1.473  10.490
 6054TIP3   OH242356   8.541   1.728  11.060
 6054TIP3    H142357   8.447   1.738  11.079
 6054TIP3    H242358   8.562   1.805  11.007
 6055TIP3   OH242359   8.668   0.351  11.281
 6055TIP3    H142360   8.608   0.353  11.206
 6055TIP3    H242361   8.754   0.371  11.243
 6056TIP3   OH242362   7.730   0.088  10.961
 6056TIP3    H142363   7.741   0.010  11.015
 6056TIP3    H242364   7.646   0.125  10.989
 6057TIP3   OH242365   8.407   1.943  10.707
 6057TIP3    H142366   8.402   1.847  10.703
 6057TIP3    H242367   8.498   1.961  10.732
 6058TIP3   OH242368   8.397   1.664  10.691
 6058TIP3    H142369   8.366   1.598  10.629
 6058TIP3    H242370   8.444   1.613  10.757
 6059TIP3   OH242371   8.782   1.458  11.399
 6059TIP3    H142372   8.803   1.407  11.321
 6059TIP3    H242373   8.750   1.542  11.365
 6060TIP3   OH242374   8.036   1.079  10.501
 6060TIP3    H142375   7.960   1.138  10.495
 6060TIP3    H242376   8.050   1.047  10.412
 6061TIP3   OH242377   8.106   0.941  10.266
 6061TIP3    H142378   8.199   0.965  10.264
 6061TIP3    H242379   8.107   0.845  10.268
 6062TIP3   OH242380   8.909   1.044  11.271
 6062TIP3    H142381   8.878   1.132  11.248
 6062TIP3    H242382   8.969   1.021  11.200
 6063TIP3   OH242383   8.490   1.088  10.510
 6063TIP3    H142384   8.416   1.132  10.553
 6063TIP3    H242385   8.525   1.030  10.577
 6064TIP3   OH242386   8.568   0.852  11.509
 6064TIP3    H142387   8.566   0.942  11.541
 6064TIP3    H242388   8.492   0.845  11.451
 6065TIP3   OH242389   7.478   1.226  10.708
 6065TIP3    H142390   7.426   1.199  10.632
 6065TIP3    H242391   7.514   1.145  10.742
 6066TIP3   OH242392   7.660   1.644  11.029
 6066TIP3    H142393   7.680   1.643  10.935
 6066TIP3    H242394   7.709   1.571  11.065
 6067TIP3   OH242395   7.508   1.016  11.069
 6067TIP3    H142396   7.527   1.020  10.975
 6067TIP3    H242397   7.541   1.100  11.103
 6068TIP3   OH242398   8.276   1.777  11.105
 6068TIP3    H142399   8.266   1.872  11.108
 6068TIP3    H242400   8.187   1.743  11.109
 6069TIP3   OH242401   7.501   1.610  11.481
 6069TIP3    H142402   7.432   1.673  11.502
 6069TIP3    H242403   7.468   1.561  11.406
 6070TIP3   OH242404   8.380   0.977  10.285
 6070TIP3    H142405   8.416   1.019  10.364
 6070TIP3    H242406   8.428   1.018  10.213
 6071TIP3   OH242407   7.251   1.083  11.562
 6071TIP3    H142408   7.250   1.172  11.598
 6071TIP3    H242409   7.203   1.031  11.626
 6072TIP3   OH242410   8.170   1.773  10.501
 6072TIP3    H142411   8.212   1.837  10.443
 6072TIP3    H242412   8.199   1.798  10.589
 6073TIP3   OH242413   7.320   1.819  11.546
 6073TIP3    H142414   7.327   1.879  11.471
 6073TIP3    H242415   7.228   1.820  11.570
 6074TIP3   OH242416   8.747   0.123  10.285
 6074TIP3    H142417   8.689   0.149  10.356
 6074TIP3    H242418   8.814   0.191  10.282
 6075TIP3   OH242419   7.340   1.108  10.494
 6075TIP3    H142420   7.269   1.160  10.454
 6075TIP3    H242421   7.301   1.021  10.507
 6076TIP3   OH242422   8.765   1.822  10.160
 6076TIP3    H142423   8.809   1.907  10.166
 6076TIP3    H242424   8.812   1.776  10.090
 6077TIP3   OH242425   6.949   1.242  11.410
 6077TIP3    H142426   6.938   1.230  11.316
 6077TIP3    H242427   6.932   1.155  11.447
 6078TIP3   OH242428   6.909   1.929  11.076
 6078TIP3    H142429   6.989   1.947  11.124
 6078TIP3    H242430   6.841   1.976  11.124
 6079TIP3   OH242431   8.856   1.742  11.639
 6079TIP3    H142432   8.853   1.664  11.694
 6079TIP3    H242433   8.777   1.791  11.663
 6080TIP3   OH242434   7.732   1.759  11.515
 6080TIP3    H142435   7.741   1.752  11.610
 6080TIP3    H242436   7.655   1.707  11.494
 6081TIP3   OH242437   8.139   2.250  10.477
 6081TIP3    H142438   8.093   2.201  10.408
 6081TIP3    H242439   8.079   2.321  10.500
 6082TIP3   OH242440   7.348   2.015  10.661
 6082TIP3    H142441   7.357   1.986  10.752
 6082TIP3    H242442   7.261   1.985  10.634
 6083TIP3   OH242443   8.311   1.959  10.352
 6083TIP3    H142444   8.377   1.905  10.309
 6083TIP3    H242445   8.361   2.027  10.397
 6084TIP3   OH242446   8.395   2.163  10.528
 6084TIP3    H142447   8.305   2.194  10.521
 6084TIP3    H242448   8.392   2.096  10.596
 6085TIP3   OH242449   8.644   0.650  11.692
 6085TIP3    H142450   8.627   0.728  11.640
 6085TIP3    H242451   8.619   0.577  11.635
 6086TIP3   OH242452   7.190   1.383  11.425
 6086TIP3    H142453   7.209   1.375  11.518
 6086TIP3    H242454   7.104   1.342  11.414
 6087TIP3   OH242455   7.481   0.179  11.043
 6087TIP3    H142456   7.415   0.190  10.975
 6087TIP3    H242457   7.458   0.244  11.110
 6088TIP3   OH242458   8.052   0.139  11.365
 6088TIP3    H142459   8.061   0.050  11.399
 6088TIP3    H242460   7.959   0.159  11.372
 6089TIP3   OH242461   8.283   0.505  11.504
 6089TIP3    H142462   8.260   0.502  11.597
 6089TIP3    H242463   8.237   0.581  11.470
 6090TIP3   OH242464   8.542   1.143  10.129
 6090TIP3    H142465   8.525   1.199  10.054
 6090TIP3    H242466   8.561   1.203  10.201
 6091TIP3   OH242467   8.014   0.488  10.252
 6091TIP3    H142468   7.948   0.461  10.315
 6091TIP3    H242469   7.974   0.473  10.166
 6092TIP3   OH242470   7.432   0.766  11.149
 6092TIP3    H142471   7.365   0.782  11.215
 6092TIP3    H242472   7.457   0.854  11.119
 6093TIP3   OH242473   7.425   0.760  10.666
 6093TIP3    H142474   7.335   0.730  10.652
 6093TIP3    H242475   7.470   0.740  10.584
 6094TIP3   OH242476   8.096   0.808  10.585
 6094TIP3    H142477   8.078   0.901  10.571
 6094TIP3    H242478   8.174   0.791  10.532
 6095TIP3   OH242479   7.982   0.817  11.622
 6095TIP3    H142480   7.932   0.740  11.647
 6095TIP3    H242481   8.057   0.817  11.682
 6096TIP3   OH242482   8.183   0.694  10.826
 6096TIP3    H142483   8.150   0.738  10.747
 6096TIP3    H242484   8.255   0.640  10.793
 6097TIP3   OH242485   7.255   0.809  11.354
 6097TIP3    H142486   7.325   0.839  11.412
 6097TIP3    H242487   7.187   0.777  11.413
 6098TIP3   OH242488   7.365   0.328  10.216
 6098TIP3    H142489   7.423   0.360  10.286
 6098TIP3    H242490   7.404   0.361  10.135
 6099TIP3   OH242491   6.853   0.405  10.803
 6099TIP3    H142492   6.943   0.405  10.837
 6099TIP3    H242493   6.864   0.409  10.708
 6100TIP3   OH242494   6.860   0.566  10.322
 6100TIP3    H142495   6.935   0.607  10.279
 6100TIP3    H242496   6.810   0.640  10.357
 6101TIP3   OH242497   8.355   0.821  11.332
 6101TIP3    H142498   8.358   0.810  11.237
 6101TIP3    H242499   8.269   0.788  11.357
 6102TIP3   OH242500   7.786   0.551  10.826
 6102TIP3    H142501   7.690   0.540  10.827
 6102TIP3    H242502   7.820   0.464  10.850
 6103TIP3   OH242503   7.167   0.648  10.655
 6103TIP3    H142504   7.077   0.670  10.634
 6103TIP3    H242505   7.169   0.552  10.657
 6104TIP3   OH242506   7.602   0.704  10.458
 6104TIP3    H142507   7.689   0.694  10.497
 6104TIP3    H242508   7.614   0.767  10.387
 6105TIP3   OH242509   8.337   0.471  11.086
 6105TIP3    H142510   8.312   0.425  11.166
 6105TIP3    H242511   8.278   0.436  11.019
 6106TIP3   OH242512   7.637   0.883  10.249
 6106TIP3    H142513   7.593   0.864  10.166
 6106TIP3    H242514   7.720   0.923  10.223
 6107TIP3   OH242515   8.671   2.149  11.773
 6107TIP3    H142516   8.715   2.233  11.755
 6107TIP3    H242517   8.717   2.114  11.849
 6108TIP3   OH242518   7.227   1.329  11.692
 6108TIP3    H142519   7.294   1.352  11.756
 6108TIP3    H242520   7.146   1.328  11.743
 6109TIP3   OH242521   7.942   0.729  10.975
 6109TIP3    H142522   8.027   0.719  10.932
 6109TIP3    H242523   7.884   0.670  10.928
 6110TIP3   OH242524   7.385   0.357  10.614
 6110TIP3    H142525   7.342   0.273  10.601
 6110TIP3    H242526   7.433   0.372  10.532
 6111TIP3   OH242527   7.649   0.659  11.285
 6111TIP3    H142528   7.575   0.691  11.234
 6111TIP3    H242529   7.721   0.718  11.263
 6112TIP3   OH242530   7.817   1.256  10.459
 6112TIP3    H142531   7.744   1.207  10.420
 6112TIP3    H242532   7.775   1.320  10.516
 6113TIP3   OH242533   8.844   1.301  11.174
 6113TIP3    H142534   8.927   1.320  11.131
 6113TIP3    H242535   8.780   1.302  11.103
 6114TIP3   OH242536   8.261   0.482  10.376
 6114TIP3    H142537   8.178   0.480  10.329
 6114TIP3    H242538   8.278   0.575  10.391
 6115TIP3   OH242539   7.996   1.676  11.487
 6115TIP3    H142540   7.995   1.633  11.572
 6115TIP3    H242541   7.911   1.719  11.480
 6116TIP3   OH242542   8.334   0.747  10.435
 6116TIP3    H142543   8.418   0.718  10.470
 6116TIP3    H242544   8.355   0.821  10.378
 6117TIP3   OH242545   7.373   1.369  10.925
 6117TIP3    H142546   7.410   1.330  10.846
 6117TIP3    H242547   7.341   1.295  10.976
 6118TIP3   OH242548   8.030   1.409  10.364
 6118TIP3    H142549   7.993   1.495  10.348
 6118TIP3    H242550   7.955   1.355  10.391
 6119TIP3   OH242551   6.846   1.001  11.487
 6119TIP3    H142552   6.811   0.940  11.552
 6119TIP3    H242553   6.780   1.002  11.417
 6120TIP3   OH242554   7.770   1.001  11.623
 6120TIP3    H142555   7.742   1.014  11.532
 6120TIP3    H242556   7.846   0.944  11.616
 6121TIP3   OH242557   8.231   1.826  11.538
 6121TIP3    H142558   8.154   1.782  11.499
 6121TIP3    H242559   8.236   1.790  11.626
 6122TIP3   OH242560   8.784   0.729  10.360
 6122TIP3    H142561   8.792   0.666  10.288
 6122TIP3    H242562   8.769   0.813  10.317
 6123TIP3   OH242563   8.993   1.364  11.559
 6123TIP3    H142564   8.919   1.411  11.518
 6123TIP3    H242565   9.054   1.350  11.487
 6124TIP3   OH242566   8.736   1.830  10.439
 6124TIP3    H142567   8.648   1.794  10.450
 6124TIP3    H242568   8.755   1.817  10.346
 6125TIP3   OH242569   8.615   1.267  11.011
 6125TIP3    H142570   8.561   1.249  11.087
 6125TIP3    H242571   8.604   1.191  10.954
 6126TIP3   OH242572   7.608   1.659  10.748
 6126TIP3    H142573   7.621   1.746  10.710
 6126TIP3    H242574   7.523   1.663  10.790
 6127TIP3   OH242575   7.042   0.994  10.298
 6127TIP3    H142576   7.078   1.080  10.318
 6127TIP3    H242577   6.947   1.006  10.302
 6128TIP3   OH242578   7.649   1.425  10.604
 6128TIP3    H142579   7.645   1.504  10.658
 6128TIP3    H242580   7.590   1.363  10.647
 6129TIP3   OH242581   7.655   1.971  11.353
 6129TIP3    H142582   7.695   2.050  11.387
 6129TIP3    H242583   7.690   1.900  11.407
 6130TIP3   OH242584   7.606   1.915  10.640
 6130TIP3    H142585   7.516   1.946  10.633
 6130TIP3    H242586   7.656   1.992  10.669
 6131TIP3   OH242587   8.024   1.518  11.260
 6131TIP3    H142588   8.010   1.577  11.334
 6131TIP3    H242589   8.114   1.487  11.270
 6132TIP3   OH242590   8.486   1.527  10.322
 6132TIP3    H142591   8.536   1.447  10.333
 6132TIP3    H242592   8.409   1.516  10.378
 6133TIP3   OH242593   8.489   1.869  11.443
 6133TIP3    H142594   8.399   1.847  11.469
 6133TIP3    H242595   8.480   1.947  11.389
 6134TIP3   OH242596   8.905   2.054  10.192
 6134TIP3    H142597   8.997   2.074  10.207
 6134TIP3    H242598   8.857   2.121  10.241
 6135TIP3   OH242599   7.145   0.323  11.375
 6135TIP3    H142600   7.058   0.296  11.347
 6135TIP3    H242601   7.138   0.332  11.470
 6136TIP3   OH242602   8.611   1.280  10.356
 6136TIP3    H142603   8.564   1.223  10.417
 6136TIP3    H242604   8.704   1.260  10.372
 6137TIP3   OH242605   7.129   2.035  11.210
 6137TIP3    H142606   7.209   2.002  11.251
 6137TIP3    H242607   7.108   2.114  11.259
 6138TIP3   OH242608   7.566   1.551  10.368
 6138TIP3    H142609   7.596   1.509  10.448
 6138TIP3    H242610   7.609   1.637  10.369
 6139TIP3   OH242611   7.133   1.249  10.375
 6139TIP3    H142612   7.051   1.292  10.399
 6139TIP3    H242613   7.186   1.319  10.337
 6140TIP3   OH242614   8.243   0.327  11.295
 6140TIP3    H142615   8.256   0.375  11.377
 6140TIP3    H242616   8.180   0.258  11.317
 6141TIP3   OH242617   8.348   0.324  10.581
 6141TIP3    H142618   8.311   0.370  10.506
 6141TIP3    H242619   8.367   0.393  10.645
 6142TIP3   OH242620   7.951   1.674  10.356
 6142TIP3    H142621   7.867   1.710  10.383
 6142TIP3    H242622   8.014   1.715  10.415
 6143TIP3   OH242623   7.852   0.657  10.578
 6143TIP3    H142624   7.933   0.707  10.581
 6143TIP3    H242625   7.837   0.630  10.669
 6144TIP3   OH242626   8.108   0.707  11.403
 6144TIP3    H142627   8.067   0.755  11.475
 6144TIP3    H242628   8.041   0.646  11.374
 6145TIP3   OH242629   7.924   0.230  10.625
 6145TIP3    H142630   7.911   0.266  10.713
 6145TIP3    H242631   8.010   0.190  10.628
 6146TIP3   OH242632   7.706   1.793  10.413
 6146TIP3    H142633   7.729   1.872  10.364
 6146TIP3    H242634   7.671   1.827  10.496
 6147TIP3   OH242635   7.547   0.437  10.397
 6147TIP3    H142636   7.549   0.531  10.414
 6147TIP3    H242637   7.638   0.409  10.403
 6148TIP3   OH242638   8.560   0.457  11.518
 6148TIP3    H142639   8.465   0.468  11.506
 6148TIP3    H242640   8.591   0.426  11.433
 6149TIP3   OH242641   8.570   0.849  10.940
 6149TIP3    H142642   8.489   0.826  10.985
 6149TIP3    H242643   8.638   0.800  10.985
 6150TIP3   OH242644   7.303   1.453  10.275
 6150TIP3    H142645   7.360   1.511  10.326
 6150TIP3    H242646   7.363   1.404  10.219
 6151TIP3   OH242647   7.050   0.732  10.212
 6151TIP3    H142648   7.050   0.820  10.250
 6151TIP3    H242649   7.108   0.739  10.136
 6152TIP3   OH242650   8.689   2.152  11.150
 6152TIP3    H142651   8.685   2.194  11.064
 6152TIP3    H242652   8.775   2.109  11.152
 6153TIP3   OH242653   7.264   0.169  10.870
 6153TIP3    H142654   7.265   0.163  10.775
 6153TIP3    H242655   7.243   0.080  10.899
 6154TIP3   OH242656   7.091   1.951  10.590
 6154TIP3    H142657   7.040   1.953  10.671
 6154TIP3    H242658   7.034   1.992  10.525
 6155TIP3   OH242659   6.963   2.095  11.691
 6155TIP3    H142660   7.033   2.032  11.705
 6155TIP3    H242661   6.894   2.047  11.645
 6156TIP3   OH242662   7.409   2.024  11.723
 6156TIP3    H142663   7.476   1.985  11.780
 6156TIP3    H242664   7.383   1.953  11.664
 6157TIP3   OH242665   8.021   1.825  10.131
 6157TIP3    H142666   7.990   1.767  10.201
 6157TIP3    H242667   8.065   1.766  10.069
 6158TIP3   OH242668   8.224   1.720  11.798
 6158TIP3    H142669   8.222   1.634  11.840
 6158TIP3    H242670   8.300   1.763  11.836
 6159TIP3   OH242671   8.503   1.792  10.251
 6159TIP3    H142672   8.495   1.698  10.267
 6159TIP3    H242673   8.587   1.803  10.206
 6160TIP3   OH242674   6.978   1.310  11.819
 6160TIP3    H142675   6.973   1.225  11.862
 6160TIP3    H242676   6.908   1.308  11.753
 6161TIP3   OH242677   7.539   1.340  10.187
 6161TIP3    H142678   7.565   1.266  10.242
 6161TIP3    H242679   7.567   1.417  10.236
 6162TIP3   OH242680   7.625   1.463  11.676
 6162TIP3    H142681   7.579   1.511  11.607
 6162TIP3    H242682   7.658   1.384  11.633
 6163TIP3   OH242683   8.569   1.376  11.556
 6163TIP3    H142684   8.644   1.401  11.502
 6163TIP3    H242685   8.559   1.447  11.618
 6164TIP3   OH242686   7.121   0.949  11.767
 6164TIP3    H142687   7.096   0.859  11.787
 6164TIP3    H242688   7.078   1.001  11.835
 6165TIP3   OH242689   7.587   1.131  10.367
 6165TIP3    H142690   7.504   1.127  10.414
 6165TIP3    H242691   7.600   1.043  10.333
 6166TIP3   OH242692   7.463   0.918  11.495
 6166TIP3    H142693   7.405   0.988  11.525
 6166TIP3    H242694   7.535   0.965  11.451
 6167TIP3   OH242695   7.860   1.016  10.168
 6167TIP3    H142696   7.868   1.106  10.139
 6167TIP3    H242697   7.948   0.991  10.196
 6168TIP3   OH242698   8.309   1.220  11.913
 6168TIP3    H142699   8.392   1.174  11.902
 6168TIP3    H242700   8.245   1.150  11.926
 6169TIP3   OH242701   8.937   1.334  19.908
 6169TIP3    H142702   8.941   1.267  19.976
 6169TIP3    H242703   9.023   1.330  19.866
 6170TIP3   OH242704   7.585   0.678  11.556
 6170TIP3    H142705   7.609   0.654  11.467
 6170TIP3    H242706   7.548   0.766  11.548
 6171TIP3   OH242707   7.632   0.382  11.305
 6171TIP3    H142708   7.651   0.475  11.300
 6171TIP3    H242709   7.539   0.375  11.280
 6172TIP3   OH242710   7.682   1.026  11.355
 6172TIP3    H142711   7.730   0.967  11.297
 6172TIP3    H242712   7.658   1.101  11.301
 6173TIP3   OH242713   8.220   0.785  11.768
 6173TIP3    H142714   8.223   0.690  11.776
 6173TIP3    H242715   8.308   0.809  11.736
 6174TIP3   OH242716   8.588   1.108  11.614
 6174TIP3    H142717   8.560   1.196  11.586
 6174TIP3    H242718   8.681   1.119  11.635
 6175TIP3   OH242719   7.462   0.608  11.792
 6175TIP3    H142720   7.370   0.613  11.767
 6175TIP3    H242721   7.510   0.628  11.711
 6176TIP3   OH242722   7.774   0.162  11.386
 6176TIP3    H142723   7.736   0.248  11.365
 6176TIP3    H242724   7.712   0.099  11.350
 6177TIP3   OH242725   7.832   0.595  11.667
 6177TIP3    H142726   7.824   0.507  11.704
 6177TIP3    H242727   7.743   0.616  11.636
 6178TIP3   OH242728   8.227   0.508  11.776
 6178TIP3    H142729   8.150   0.482  11.826
 6178TIP3    H242730   8.297   0.452  11.809
 6179TIP3   OH242731   8.418   0.343  11.905
 6179TIP3    H142732   8.424   0.248  11.916
 6179TIP3    H242733   8.373   0.375  11.983
 6180TIP3   OH242734   7.057   0.451  11.771
 6180TIP3    H142735   7.063   0.366  11.728
 6180TIP3    H242736   7.091   0.436  11.859
 6181TIP3   OH242737   7.806   0.093  11.655
 6181TIP3    H142738   7.806   9.214  11.652
 6181TIP3    H242739   7.801   0.121  11.563
 6182TIP3   OH242740   7.801   0.340  11.784
 6182TIP3    H142741   7.813   0.255  11.742
 6182TIP3    H242742   7.712   0.337  11.820
 6183TIP3   OH242743   7.789   2.034  10.310
 6183TIP3    H142744   7.884   2.042  10.307
 6183TIP3    H242745   7.756   2.116  10.274
 6184TIP3   OH242746   7.042   1.525  10.223
 6184TIP3    H142747   7.135   1.509  10.238
 6184TIP3    H242748   7.039   1.575  10.141
 6185TIP3   OH242749   6.772   2.154  10.655
 6185TIP3    H142750   6.706   2.093  10.623
 6185TIP3    H242751   6.823   2.105  10.719
 6186TIP3   OH242752   6.948   2.015  10.819
 6186TIP3    H142753   6.918   1.967  10.896
 6186TIP3    H242754   7.022   2.067  10.851
 6187TIP3   OH242755   8.939   2.028  11.188
 6187TIP3    H142756   8.923   1.957  11.251
 6187TIP3    H242757   9.008   2.081  11.229
 6188TIP3   OH242758   8.896   1.832  11.375
 6188TIP3    H142759   8.821   1.782  11.344
 6188TIP3    H242760   8.906   1.807  11.467
 6189TIP3   OH242761   8.766   1.565  11.875
 6189TIP3    H142762   8.677   1.547  11.907
 6189TIP3    H242763   8.792   1.646  11.919
 6190TIP3   OH242764   8.859   1.164  10.405
 6190TIP3    H142765   8.944   1.207  10.405
 6190TIP3    H242766   8.859   1.111  10.485
 6191TIP3   OH242767   8.858   1.007  10.633
 6191TIP3    H142768   8.770   0.972  10.642
 6191TIP3    H242769   8.887   1.026  10.722
 6192TIP3   OH242770   9.100   1.339  11.075
 6192TIP3    H142771   9.171   1.287  11.039
 6192TIP3    H242772   9.127   1.430  11.062
 6193TIP3   OH242773   8.665   1.696  11.307
 6193TIP3    H142774   8.605   1.747  11.361
 6193TIP3    H242775   8.627   1.699  11.219
 6194TIP3   OH242776   8.738   0.971  10.240
 6194TIP3    H142777   8.672   1.018  10.189
 6194TIP3    H242778   8.784   1.039  10.290
 6195TIP3   OH242779   8.776   0.547  10.146
 6195TIP3    H142780   8.759   0.593  10.064
 6195TIP3    H242781   8.704   0.484  10.154
 6196TIP3   OH242782   8.608   0.896  10.675
 6196TIP3    H142783   8.603   0.808  10.639
 6196TIP3    H242784   8.591   0.885  10.769
 6197TIP3   OH242785   6.930   1.118  11.142
 6197TIP3    H142786   6.925   1.053  11.071
 6197TIP3    H242787   7.012   1.099  11.187
 6198TIP3   OH242788   8.852   1.156  11.676
 6198TIP3    H142789   8.900   1.073  11.672
 6198TIP3    H242790   8.907   1.218  11.629
 6199TIP3   OH242791   8.961   0.894  11.669
 6199TIP3    H142792   8.894   0.882  11.736
 6199TIP3    H242793   8.995   0.806  11.653
 6200TIP3   OH242794   8.592   0.348  10.174
 6200TIP3    H142795   8.626   0.259  10.185
 6200TIP3    H242796   8.507   0.347  10.219
 6201TIP3   OH242797   8.595   0.643  10.542
 6201TIP3    H142798   8.625   0.554  10.555
 6201TIP3    H242799   8.658   0.681  10.480
 6202TIP3   OH242800   8.750   0.685  11.076
 6202TIP3    H142801   8.843   0.673  11.057
 6202TIP3    H242802   8.748   0.723  11.163
 6203TIP3   OH242803   8.772   0.808  11.324
 6203TIP3    H142804   8.704   0.820  11.390
 6203TIP3    H242805   8.811   0.894  11.314
 6204TIP3   OH242806   6.826   0.596  11.738
 6204TIP3    H142807   6.911   0.552  11.744
 6204TIP3    H242808   6.765   0.526  11.713
 6205TIP3   OH242809   8.986   0.128  11.884
 6205TIP3    H142810   9.079   0.138  11.901
 6205TIP3    H242811   8.967   0.191  11.814
 6206TIP3   OH242812   8.691   0.380  10.569
 6206TIP3    H142813   8.741   0.330  10.634
 6206TIP3    H242814   8.634   0.315  10.528
 6207TIP3   OH242815   7.122   0.408  10.877
 6207TIP3    H142816   7.166   0.323  10.876
 6207TIP3    H242817   7.180   0.464  10.928
 6208TIP3   OH242818   6.749   0.715  10.888
 6208TIP3    H142819   6.802   0.639  10.912
 6208TIP3    H242820   6.799   0.790  10.921
 6209TIP3   OH242821   8.907   0.321  11.706
 6209TIP3    H142822   8.831   0.360  11.747
 6209TIP3    H242823   8.875   0.289  11.621
 6210TIP3   OH242824   8.927   0.337  10.247
 6210TIP3    H142825   9.005   0.330  10.192
 6210TIP3    H242826   8.880   0.414  10.213
 6211TIP3   OH242827   6.843   0.379  10.524
 6211TIP3    H142828   6.750   0.363  10.506
 6211TIP3    H242829   6.867   0.449  10.463
 6212TIP3   OH242830   8.660   2.019  10.782
 6212TIP3    H142831   8.723   2.030  10.710
 6212TIP3    H242832   8.661   2.102  10.828
 6213TIP3   OH242833   6.800   0.130  11.339
 6213TIP3    H142834   6.738   0.138  11.412
 6213TIP3    H242835   6.769   0.194  11.275
 6214TIP3   OH242836   7.055   1.821  11.641
 6214TIP3    H142837   6.965   1.838  11.613
 6214TIP3    H242838   7.051   1.737  11.686
 6215TIP3   OH242839   7.375   1.999  11.345
 6215TIP3    H142840   7.373   2.094  11.331
 6215TIP3    H242841   7.468   1.977  11.341
 6216TIP3   OH242842   7.919   2.061  11.588
 6216TIP3    H142843   7.922   1.991  11.652
 6216TIP3    H242844   8.011   2.081  11.570
 6217TIP3   OH242845   8.193   2.104  11.560
 6217TIP3    H142846   8.210   2.012  11.540
 6217TIP3    H242847   8.261   2.128  11.623
 6218TIP3   OH242848   8.792   0.200  11.479
 6218TIP3    H142849   8.744   0.256  11.419
 6218TIP3    H242850   8.726   0.141  11.515
 6219TIP3   OH242851   7.080   2.274  11.341
 6219TIP3    H142852   6.990   2.301  11.322
 6219TIP3    H242853   7.092   2.294  11.434
 6220TIP3   OH242854   7.359   2.266  11.285
 6220TIP3    H142855   7.267   2.285  11.302
 6220TIP3    H242856   7.379   2.313  11.204
 6221TIP3   OH242857   8.058   2.222  11.205
 6221TIP3    H142858   7.962   2.217  11.204
 6221TIP3    H242859   8.078   2.271  11.285
 6222TIP3   OH242860   8.256   2.050  11.123
 6222TIP3    H142861   8.183   2.108  11.148
 6222TIP3    H242862   8.324   2.068  11.187
 6223TIP3   OH242863   8.465   2.105  11.297
 6223TIP3    H142864   8.458   2.186  11.347
 6223TIP3    H242865   8.542   2.117  11.243
 6224TIP3   OH242866   7.175   2.116  10.948
 6224TIP3    H142867   7.149   2.099  11.038
 6224TIP3    H242868   7.246   2.054  10.931
 6225TIP3   OH242869   7.371   1.922  10.919
 6225TIP3    H142870   7.357   1.828  10.922
 6225TIP3    H242871   7.447   1.937  10.976
 6226TIP3   OH242872   7.590   1.911  11.087
 6226TIP3    H142873   7.623   1.822  11.075
 6226TIP3    H242874   7.617   1.934  11.176
 6227TIP3   OH242875   7.889   0.301  10.891
 6227TIP3    H142876   7.829   0.231  10.917
 6227TIP3    H242877   7.964   0.292  10.951
 6228TIP3   OH242878   8.652   0.091  10.862
 6228TIP3    H142879   8.726   0.128  10.813
 6228TIP3    H242880   8.609   0.166  10.901
 6229TIP3   OH242881   8.856   0.201  10.714
 6229TIP3    H142882   8.897   0.126  10.670
 6229TIP3    H242883   8.929   0.257  10.739
 6230TIP3   OH242884   7.238   0.106  10.603
 6230TIP3    H142885   7.158   0.130  10.558
 6230TIP3    H242886   7.238   0.010  10.603
 6231TIP3   OH242887   7.000   0.155  10.471
 6231TIP3    H142888   7.035   0.180  10.386
 6231TIP3    H242889   6.946   0.230  10.497
 6232TIP3   OH242890   7.776   9.213  10.699
 6232TIP3    H142891   7.822   0.068  10.655
 6232TIP3    H242892   7.762   0.029  10.788
 6233TIP3   OH242893   8.173   0.126  10.676
 6233TIP3    H142894   8.242   0.187  10.649
 6233TIP3    H242895   8.221   0.054  10.718
 6234TIP3   OH242896   8.537   0.165  10.460
 6234TIP3    H142897   8.466   0.212  10.504
 6234TIP3    H242898   8.505   0.075  10.454
 6235TIP3   OH242899   6.936   2.122  10.435
 6235TIP3    H142900   6.878   2.139  10.361
 6235TIP3    H242901   6.885   2.148  10.512
 6236TIP3   OH242902   7.119   0.202  10.232
 6236TIP3    H142903   7.141   0.111  10.211
 6236TIP3    H242904   7.202   0.249  10.224
 6237TIP3   OH242905   7.824   0.415  10.441
 6237TIP3    H142906   7.855   0.345  10.498
 6237TIP3    H242907   7.836   0.495  10.492
 6238TIP3   OH242908   8.063   2.054  10.276
 6238TIP3    H142909   8.152   2.033  10.305
 6238TIP3    H242910   8.043   1.988  10.210
 6239TIP3   OH242911   8.830   2.054  10.560
 6239TIP3    H142912   8.806   1.968  10.524
 6239TIP3    H242913   8.814   2.115  10.488
 6240TIP3   OH242914   7.092   0.195  11.669
 6240TIP3    H142915   7.097   0.119  11.611
 6240TIP3    H242916   7.171   0.188  11.723
 6241TIP3   OH242917   7.322   0.176  11.820
 6241TIP3    H142918   7.411   0.209  11.829
 6241TIP3    H242919   7.331   0.081  11.822
 6242TIP3   OH242920   7.203   2.178  10.404
 6242TIP3    H142921   7.109   2.162  10.413
 6242TIP3    H242922   7.243   2.093  10.422
 6243TIP3   OH242923   8.471   0.070  11.946
 6243TIP3    H142924   8.437   9.216  11.891
 6243TIP3    H242925   8.566   0.066  11.934
 6244TIP3   OH242926   8.622   1.884  11.689
 6244TIP3    H142927   8.578   1.880  11.604
 6244TIP3    H242928   8.635   1.978  11.704
 6245TIP3   OH242929   9.017   0.808  10.511
 6245TIP3    H142930   8.969   0.881  10.553
 6245TIP3    H242931   8.950   0.761  10.461
 6246TIP3   OH242932   9.152   1.297  11.346
 6246TIP3    H142933   9.130   1.304  11.253
 6246TIP3    H242934   9.149   1.203  11.364
 6247TIP3   OH242935   9.176   1.604  11.063
 6247TIP3    H142936   0.037   1.655  11.039
 6247TIP3    H242937   9.124   1.664  11.117
 6248TIP3   OH242938   9.084   0.347  10.735
 6248TIP3    H142939   9.172   0.379  10.754
 6248TIP3    H242940   9.059   0.392  10.655
 6249TIP3   OH242941   9.096   1.040  11.476
 6249TIP3    H142942   9.060   0.988  11.548
 6249TIP3    H242943   9.030   1.035  11.407
 6250TIP3   OH242944   9.160   1.354  11.785
 6250TIP3    H142945   9.089   1.338  11.849
 6250TIP3    H242946   9.114   1.366  11.702
 6251TIP3   OH242947   9.049   2.138  10.704
 6251TIP3    H142948   8.979   2.106  10.647
 6251TIP3    H242949   9.040   2.087  10.784
 6252TIP3   OH242950   8.985   1.981  10.918
 6252TIP3    H142951   8.922   1.912  10.898
 6252TIP3    H242952   8.972   2.000  11.011
 6253TIP3   OH242953   9.102   0.985  11.086
 6253TIP3    H142954   9.154   0.905  11.077
 6253TIP3    H242955   9.161   1.055  11.058
 6254TIP3   OH242956   9.073   0.637  11.611
 6254TIP3    H142957   9.168   0.635  11.601
 6254TIP3    H242958   9.052   0.557  11.660
 6255TIP3   OH242959   9.030   0.647  11.084
 6255TIP3    H142960   9.115   0.684  11.061
 6255TIP3    H242961   9.027   0.650  11.179
 6256TIP3   OH242962   8.962   0.437  10.505
 6256TIP3    H142963   8.869   0.444  10.527
 6256TIP3    H242964   8.963   0.399  10.417
 6257TIP3   OH242965   8.998   0.145  11.296
 6257TIP3    H142966   8.941   0.151  11.373
 6257TIP3    H242967   8.979   0.223  11.245
 6258TIP3   OH242968   1.545   3.523  10.607
 6258TIP3    H142969   1.535   3.613  10.576
 6258TIP3    H242970   1.462   3.480  10.586
 6259TIP3   OH242971   1.088   3.227  11.100
 6259TIP3    H142972   1.169   3.193  11.138
 6259TIP3    H242973   1.064   3.162  11.033
 6260TIP3   OH242974   0.412   3.365  11.164
 6260TIP3    H142975   0.483   3.306  11.138
 6260TIP3    H242976   0.423   3.376  11.258
 6261TIP3   OH242977   1.727   3.759  10.886
 6261TIP3    H142978   1.723   3.664  10.876
 6261TIP3    H242979   1.729   3.773  10.980
 6262TIP3   OH242980   0.410   3.846  11.081
 6262TIP3    H142981   0.445   3.761  11.053
 6262TIP3    H242982   0.402   3.838  11.176
 6263TIP3   OH242983   0.139   3.145  10.548
 6263TIP3    H142984   0.159   3.181  10.634
 6263TIP3    H242985   0.044   3.154  10.539
 6264TIP3   OH242986   0.270   3.231  10.785
 6264TIP3    H142987   0.307   3.152  10.824
 6264TIP3    H242988   0.343   3.273  10.740
 6265TIP3   OH242989   1.550   4.394  10.886
 6265TIP3    H142990   1.562   4.324  10.821
 6265TIP3    H242991   1.508   4.350  10.960
 6266TIP3   OH242992   1.033   3.495  11.168
 6266TIP3    H142993   1.065   3.410  11.139
 6266TIP3    H242994   1.110   3.538  11.205
 6267TIP3   OH242995   2.163   2.575  11.299
 6267TIP3    H142996   2.164   2.671  11.289
 6267TIP3    H242997   2.106   2.545  11.228
 6268TIP3   OH242998   1.520   2.976  11.110
 6268TIP3    H142999   1.526   2.881  11.114
 6268TIP3    H243000   1.537   2.997  11.018
 6269TIP3   OH243001   0.693   2.739  10.792
 6269TIP3    H143002   0.657   2.814  10.744
 6269TIP3    H243003   0.657   2.662  10.747
 6270TIP3   OH243004   1.643   2.814  10.694
 6270TIP3    H143005   1.694   2.810  10.775
 6270TIP3    H243006   1.705   2.790  10.625
 6271TIP3   OH243007   0.325   2.974  10.895
 6271TIP3    H143008   0.382   2.912  10.941
 6271TIP3    H243009   0.323   2.941  10.805
 6272TIP3   OH243010   0.721   3.165  10.841
 6272TIP3    H143011   0.811   3.135  10.835
 6272TIP3    H243012   0.670   3.103  10.789
 6273TIP3   OH243013   2.146   2.863  11.288
 6273TIP3    H143014   2.091   2.939  11.270
 6273TIP3    H243015   2.233   2.889  11.257
 6274TIP3   OH243016   0.568   2.621  11.226
 6274TIP3    H143017   0.540   2.680  11.156
 6274TIP3    H243018   0.500   2.629  11.293
 6275TIP3   OH243019   1.510   3.794  10.476
 6275TIP3    H143020   1.436   3.748  10.436
 6275TIP3    H243021   1.483   3.886  10.476
 6276TIP3   OH243022   0.763   3.464  11.185
 6276TIP3    H143023   0.718   3.542  11.153
 6276TIP3    H243024   0.856   3.484  11.175
 6277TIP3   OH243025   1.792   2.835  10.926
 6277TIP3    H143026   1.791   2.791  11.011
 6277TIP3    H243027   1.848   2.911  10.939
 6278TIP3   OH243028   0.528   2.790  11.006
 6278TIP3    H143029   0.573   2.856  11.058
 6278TIP3    H243030   0.589   2.767  10.937
 6279TIP3   OH243031   0.666   3.883  11.327
 6279TIP3    H143032   0.680   3.936  11.248
 6279TIP3    H243033   0.572   3.868  11.329
 6280TIP3   OH243034   0.280   3.811  10.486
 6280TIP3    H143035   0.293   3.837  10.395
 6280TIP3    H243036   0.271   3.894  10.534
 6281TIP3   OH243037   1.751   3.945  11.108
 6281TIP3    H143038   1.672   3.988  11.141
 6281TIP3    H243039   1.763   3.981  11.020
 6282TIP3   OH243040   1.775   2.747  11.190
 6282TIP3    H143041   1.682   2.723  11.182
 6282TIP3    H243042   1.779   2.793  11.274
 6283TIP3   OH243043   0.875   2.317  10.933
 6283TIP3    H143044   0.874   2.225  10.959
 6283TIP3    H243045   0.800   2.356  10.980
 6284TIP3   OH243046   1.603   4.202  10.691
 6284TIP3    H143047   1.604   4.107  10.700
 6284TIP3    H243048   1.695   4.228  10.700
 6285TIP3   OH243049   1.612   3.930  10.705
 6285TIP3    H143050   1.587   3.869  10.636
 6285TIP3    H243051   1.656   3.875  10.770
 6286TIP3   OH243052   1.998   3.751  11.447
 6286TIP3    H143053   2.018   3.705  11.366
 6286TIP3    H243054   1.968   3.838  11.418
 6287TIP3   OH243055   1.306   3.401  10.519
 6287TIP3    H143056   1.224   3.451  10.515
 6287TIP3    H243057   1.317   3.366  10.431
 6288TIP3   OH243058   1.377   3.257  10.288
 6288TIP3    H143059   1.464   3.294  10.274
 6288TIP3    H243060   1.393   3.169  10.322
 6289TIP3   OH243061   2.120   3.361  11.229
 6289TIP3    H143062   2.094   3.452  11.219
 6289TIP3    H243063   2.189   3.348  11.164
 6290TIP3   OH243064   1.787   3.411  10.517
 6290TIP3    H143065   1.712   3.450  10.564
 6290TIP3    H243066   1.842   3.375  10.587
 6291TIP3   OH243067   1.801   3.161  11.460
 6291TIP3    H143068   1.805   3.233  11.523
 6291TIP3    H243069   1.733   3.188  11.397
 6292TIP3   OH243070   0.611   3.425  10.827
 6292TIP3    H143071   0.554   3.411  10.752
 6292TIP3    H243072   0.661   3.343  10.835
 6293TIP3   OH243073   0.918   3.911  10.968
 6293TIP3    H143074   0.878   3.908  10.881
 6293TIP3    H243075   0.978   3.837  10.970
 6294TIP3   OH243076   0.646   3.227  11.102
 6294TIP3    H143077   0.671   3.213  11.011
 6294TIP3    H243078   0.693   3.306  11.128
 6295TIP3   OH243079   1.534   4.082  11.204
 6295TIP3    H143080   1.533   4.172  11.239
 6295TIP3    H243081   1.450   4.046  11.232
 6296TIP3   OH243082   0.810   3.924  11.551
 6296TIP3    H143083   0.753   3.987  11.595
 6296TIP3    H243084   0.765   3.904  11.470
 6297TIP3   OH243085   1.660   3.273  10.314
 6297TIP3    H143086   1.702   3.314  10.389
 6297TIP3    H243087   1.693   3.321  10.238
 6298TIP3   OH243088   0.466   3.365  11.443
 6298TIP3    H143089   0.498   3.418  11.517
 6298TIP3    H243090   0.372   3.356  11.459
 6299TIP3   OH243091   1.414   4.062  10.488
 6299TIP3    H143092   1.440   4.128  10.424
 6299TIP3    H243093   1.449   4.093  10.571
 6300TIP3   OH243094   0.623   4.113  11.631
 6300TIP3    H143095   0.616   4.163  11.549
 6300TIP3    H243096   0.541   4.064  11.635
 6301TIP3   OH243097   2.004   2.253  10.394
 6301TIP3    H143098   1.911   2.233  10.386
 6301TIP3    H243099   2.006   2.343  10.428
 6302TIP3   OH243100   0.453   3.358  10.611
 6302TIP3    H143101   0.433   3.441  10.569
 6302TIP3    H243102   0.456   3.294  10.540
 6303TIP3   OH243103   2.203   4.149  10.208
 6303TIP3    H143104   2.224   4.242  10.212
 6303TIP3    H243105   2.287   4.104  10.213
 6304TIP3   OH243106   0.228   3.641  11.409
 6304TIP3    H143107   0.135   3.641  11.383
 6304TIP3    H243108   0.240   3.556  11.451
 6305TIP3   OH243109   0.176   4.007  11.080
 6305TIP3    H143110   0.240   3.939  11.062
 6305TIP3    H243111   0.217   4.063  11.146
 6306TIP3   OH243112   2.084   4.024  11.668
 6306TIP3    H143113   2.066   3.943  11.716
 6306TIP3    H243114   2.010   4.081  11.687
 6307TIP3   OH243115   1.062   4.023  11.502
 6307TIP3    H143116   1.094   4.065  11.583
 6307TIP3    H243117   0.978   3.985  11.528
 6308TIP3   OH243118   1.336   4.532  10.494
 6308TIP3    H143119   1.292   4.484  10.424
 6308TIP3    H243120   1.279   4.607  10.512
 6309TIP3   OH243121   0.490   4.181  10.705
 6309TIP3    H143122   0.497   4.145  10.794
 6309TIP3    H243123   0.420   4.130  10.664
 6310TIP3   OH243124   1.520   4.275  10.338
 6310TIP3    H143125   1.591   4.216  10.315
 6310TIP3    H243126   1.561   4.341  10.393
 6311TIP3   OH243127   1.595   4.453  10.542
 6311TIP3    H143128   1.505   4.485  10.537
 6311TIP3    H243129   1.591   4.378  10.601
 6312TIP3   OH243130   2.045   3.068  11.611
 6312TIP3    H143131   1.961   3.097  11.576
 6312TIP3    H243132   2.045   2.973  11.598
 6313TIP3   OH243133   0.388   3.860  11.366
 6313TIP3    H143134   0.394   3.894  11.456
 6313TIP3    H243135   0.334   3.781  11.375
 6314TIP3   OH243136   0.654   2.396  11.085
 6314TIP3    H143137   0.575   2.375  11.035
 6314TIP3    H243138   0.631   2.476  11.133
 6315TIP3   OH243139   1.167   2.377  11.393
 6315TIP3    H143140   1.170   2.352  11.485
 6315TIP3    H243141   1.074   2.387  11.373
 6316TIP3   OH243142   1.759   2.881  11.442
 6316TIP3    H143143   1.669   2.865  11.471
 6316TIP3    H243144   1.770   2.976  11.448
 6317TIP3   OH243145   1.769   3.461  10.144
 6317TIP3    H143146   1.747   3.526  10.078
 6317TIP3    H243147   1.825   3.508  10.207
 6318TIP3   OH243148   1.212   2.752  10.230
 6318TIP3    H143149   1.144   2.702  10.275
 6318TIP3    H243150   1.213   2.717  10.141
 6319TIP3   OH243151   0.662   2.962  11.173
 6319TIP3    H143152   0.627   2.950  11.261
 6319TIP3    H243153   0.655   3.056  11.157
 6320TIP3   OH243154   0.595   2.974  10.678
 6320TIP3    H143155   0.504   2.963  10.653
 6320TIP3    H243156   0.644   2.954  10.598
 6321TIP3   OH243157   1.397   3.166  10.647
 6321TIP3    H143158   1.357   3.249  10.622
 6321TIP3    H243159   1.430   3.130  10.565
 6322TIP3   OH243160   1.181   2.986  11.684
 6322TIP3    H143161   1.157   2.896  11.703
 6322TIP3    H243162   1.234   3.013  11.758
 6323TIP3   OH243163   1.545   3.036  10.838
 6323TIP3    H143164   1.483   3.084  10.781
 6323TIP3    H243165   1.570   2.960  10.786
 6324TIP3   OH243166   0.541   2.909  11.418
 6324TIP3    H143167   0.477   2.977  11.438
 6324TIP3    H243168   0.493   2.827  11.425
 6325TIP3   OH243169   0.681   2.804  10.105
 6325TIP3    H143170   0.707   2.747  10.177
 6325TIP3    H243171   0.646   2.745  10.039
 6326TIP3   OH243172   0.094   2.649  10.792
 6326TIP3    H143173   0.173   2.631  10.843
 6326TIP3    H243174   0.125   2.662  10.703
 6327TIP3   OH243175   0.172   2.932  10.363
 6327TIP3    H143176   0.248   2.959  10.312
 6327TIP3    H243177   0.145   3.010  10.410
 6328TIP3   OH243178   1.297   3.095  11.214
 6328TIP3    H143179   1.381   3.066  11.178
 6328TIP3    H243180   1.273   3.028  11.278
 6329TIP3   OH243181   0.967   2.779  10.787
 6329TIP3    H143182   0.872   2.769  10.791
 6329TIP3    H243183   1.001   2.692  10.807
 6330TIP3   OH243184   0.325   2.930  10.621
 6330TIP3    H143185   0.266   2.999  10.589
 6330TIP3    H243186   0.293   2.851  10.579
 6331TIP3   OH243187   0.759   2.901  10.470
 6331TIP3    H143188   0.854   2.908  10.482
 6331TIP3    H243189   0.740   2.958  10.396
 6332TIP3   OH243190   1.506   2.696  11.145
 6332TIP3    H143191   1.440   2.668  11.209
 6332TIP3    H243192   1.490   2.640  11.069
 6333TIP3   OH243193   0.663   3.037  10.253
 6333TIP3    H143194   0.569   3.052  10.253
 6333TIP3    H243195   0.676   2.967  10.188
 6334TIP3   OH243196   1.917   4.460  11.710
 6334TIP3    H143197   1.956   4.456  11.623
 6334TIP3    H243198   1.966   4.529  11.755
 6335TIP3   OH243199   0.532   3.500  11.672
 6335TIP3    H143200   0.601   3.525  11.734
 6335TIP3    H243201   0.451   3.528  11.714
 6336TIP3   OH243202   1.052   3.001  10.928
 6336TIP3    H143203   1.142   3.011  10.898
 6336TIP3    H243204   1.018   2.926  10.878
 6337TIP3   OH243205   0.574   2.529  10.662
 6337TIP3    H143206   0.552   2.438  10.685
 6337TIP3    H243207   0.551   2.536  10.569
 6338TIP3   OH243208   0.914   2.850  11.133
 6338TIP3    H143209   0.831   2.896  11.144
 6338TIP3    H243210   0.966   2.906  11.077
 6339TIP3   OH243211   1.063   3.539  10.457
 6339TIP3    H143212   1.007   3.482  10.404
 6339TIP3    H243213   1.002   3.594  10.505
 6340TIP3   OH243214   2.087   3.644  11.199
 6340TIP3    H143215   2.167   3.695  11.188
 6340TIP3    H243216   2.029   3.675  11.130
 6341TIP3   OH243217   1.300   2.886  10.454
 6341TIP3    H143218   1.277   2.844  10.371
 6341TIP3    H243219   1.373   2.944  10.432
 6342TIP3   OH243220   1.256   3.819  11.486
 6342TIP3    H143221   1.229   3.784  11.572
 6342TIP3    H243222   1.197   3.893  11.471
 6343TIP3   OH243223   1.526   3.052  10.420
 6343TIP3    H143224   1.588   2.989  10.456
 6343TIP3    H243225   1.581   3.120  10.381
 6344TIP3   OH243226   0.516   3.591  11.031
 6344TIP3    H143227   0.552   3.546  10.955
 6344TIP3    H243228   0.469   3.524  11.079
 6345TIP3   OH243229   1.272   3.705  10.374
 6345TIP3    H143230   1.229   3.790  10.366
 6345TIP3    H243231   1.201   3.645  10.397
 6346TIP3   OH243232   0.197   3.371  11.508
 6346TIP3    H143233   0.203   3.332  11.595
 6346TIP3    H243234   0.108   3.352  11.479
 6347TIP3   OH243235   0.950   3.196  11.629
 6347TIP3    H143236   0.886   3.259  11.596
 6347TIP3    H243237   0.986   3.237  11.707
 6348TIP3   OH243238   1.533   3.826  11.563
 6348TIP3    H143239   1.448   3.819  11.519
 6348TIP3    H243240   1.516   3.879  11.640
 6349TIP3   OH243241   2.233   3.039  10.351
 6349TIP3    H143242   2.146   2.999  10.343
 6349TIP3    H243243   2.225   3.124  10.307
 6350TIP3   OH243244   2.223   3.680  11.594
 6350TIP3    H143245   2.146   3.721  11.555
 6350TIP3    H243246   2.290   3.685  11.525
 6351TIP3   OH243247   1.998   4.065  10.367
 6351TIP3    H143248   1.967   3.976  10.347
 6351TIP3    H243249   2.060   4.084  10.297
 6352TIP3   OH243250   1.698   3.488  10.842
 6352TIP3    H143251   1.633   3.490  10.772
 6352TIP3    H243252   1.711   3.395  10.860
 6353TIP3   OH243253   0.773   3.910  10.731
 6353TIP3    H143254   0.783   4.001  10.700
 6353TIP3    H243255   0.681   3.903  10.757
 6354TIP3   OH243256   0.310   3.298  10.367
 6354TIP3    H143257   0.321   3.392  10.378
 6354TIP3    H243258   0.237   3.275  10.425
 6355TIP3   OH243259   0.863   3.690  10.587
 6355TIP3    H143260   0.847   3.769  10.639
 6355TIP3    H243261   0.801   3.625  10.621
 6356TIP3   OH243262   0.889   4.187  11.333
 6356TIP3    H143263   0.920   4.274  11.356
 6356TIP3    H243264   0.950   4.127  11.376
 6357TIP3   OH243265   0.763   4.175  10.653
 6357TIP3    H143266   0.668   4.188  10.660
 6357TIP3    H243267   0.800   4.258  10.684
 6358TIP3   OH243268   1.253   3.622  11.284
 6358TIP3    H143269   1.250   3.691  11.350
 6358TIP3    H243270   1.347   3.607  11.271
 6359TIP3   OH243271   1.767   3.824  10.348
 6359TIP3    H143272   1.818   3.743  10.346
 6359TIP3    H243273   1.686   3.800  10.393
 6360TIP3   OH243274   1.757   4.197  11.451
 6360TIP3    H143275   1.661   4.192  11.449
 6360TIP3    H243276   1.778   4.275  11.399
 6361TIP3   OH243277   2.262   4.415  10.277
 6361TIP3    H143278   2.310   4.498  10.272
 6361TIP3    H243279   2.175   4.441  10.308
 6362TIP3   OH243280   0.383   2.677  11.438
 6362TIP3    H143281   0.290   2.699  11.437
 6362TIP3    H243282   0.389   2.601  11.496
 6363TIP3   OH243283   1.916   3.583  10.346
 6363TIP3    H143284   1.875   3.525  10.410
 6363TIP3    H243285   2.010   3.574  10.362
 6364TIP3   OH243286   0.368   4.123  11.264
 6364TIP3    H143287   0.368   4.034  11.299
 6364TIP3    H243288   0.444   4.165  11.305
 6365TIP3   OH243289   0.791   3.856  10.369
 6365TIP3    H143290   0.827   3.798  10.436
 6365TIP3    H243291   0.836   3.939  10.382
 6366TIP3   OH243292   0.390   3.563  10.435
 6366TIP3    H143293   0.340   3.639  10.465
 6366TIP3    H243294   0.458   3.600  10.378
 6367TIP3   OH243295   1.317   2.608  11.328
 6367TIP3    H143296   1.339   2.639  11.416
 6367TIP3    H243297   1.268   2.528  11.342
 6368TIP3   OH243298   1.380   2.704  10.648
 6368TIP3    H143299   1.352   2.770  10.584
 6368TIP3    H243300   1.470   2.729  10.670
 6369TIP3   OH243301   1.171   3.963  10.380
 6369TIP3    H143302   1.090   4.002  10.416
 6369TIP3    H243303   1.241   4.002  10.433
 6370TIP3   OH243304   1.029   2.873  10.531
 6370TIP3    H143305   1.122   2.894  10.520
 6370TIP3    H243306   1.021   2.850  10.624
 6371TIP3   OH243307   1.213   2.893  11.389
 6371TIP3    H143308   1.270   2.858  11.457
 6371TIP3    H243309   1.200   2.820  11.329
 6372TIP3   OH243310   1.175   2.520  10.606
 6372TIP3    H143311   1.132   2.519  10.691
 6372TIP3    H243312   1.253   2.574  10.619
 6373TIP3   OH243313   0.930   4.091  10.449
 6373TIP3    H143314   0.951   4.174  10.407
 6373TIP3    H243315   0.873   4.114  10.522
 6374TIP3   OH243316   0.755   2.660  10.329
 6374TIP3    H143317   0.745   2.734  10.389
 6374TIP3    H243318   0.845   2.630  10.343
 6375TIP3   OH243319   2.015   2.804  11.523
 6375TIP3    H143320   1.922   2.810  11.499
 6375TIP3    H243321   2.061   2.819  11.440
 6376TIP3   OH243322   1.757   3.212  10.872
 6376TIP3    H143323   1.679   3.158  10.864
 6376TIP3    H243324   1.817   3.161  10.926
 6377TIP3   OH243325   0.580   3.703  10.275
 6377TIP3    H143326   0.641   3.766  10.311
 6377TIP3    H243327   0.635   3.644  10.222
 6378TIP3   OH243328   0.383   3.075  10.231
 6378TIP3    H143329   0.363   3.155  10.279
 6378TIP3    H243330   0.367   3.097  10.140
 6379TIP3   OH243331   1.969   4.354  11.087
 6379TIP3    H143332   1.964   4.406  11.007
 6379TIP3    H243333   2.060   4.324  11.090
 6380TIP3   OH243334   0.423   2.332  10.952
 6380TIP3    H143335   0.439   2.315  10.858
 6380TIP3    H243336   0.392   2.248  10.986
 6381TIP3   OH243337   0.253   4.069  10.607
 6381TIP3    H143338   0.219   4.090  10.694
 6381TIP3    H243339   0.205   4.128  10.548
 6382TIP3   OH243340   0.268   4.419  11.804
 6382TIP3    H143341   0.345   4.405  11.858
 6382TIP3    H243342   0.194   4.400  11.862
 6383TIP3   OH243343   0.699   4.230  11.874
 6383TIP3    H143344   0.784   4.271  11.859
 6383TIP3    H243345   0.679   4.186  11.792
 6384TIP3   OH243346   1.203   4.114  10.149
 6384TIP3    H143347   1.187   4.056  10.224
 6384TIP3    H243348   1.219   4.055  10.076
 6385TIP3   OH243349   1.452   3.979  11.788
 6385TIP3    H143350   1.447   3.915  11.859
 6385TIP3    H243351   1.525   4.036  11.813
 6386TIP3   OH243352   1.723   4.097  10.314
 6386TIP3    H143353   1.720   4.001  10.315
 6386TIP3    H243354   1.814   4.118  10.339
 6387TIP3   OH243355   0.288   3.566  11.798
 6387TIP3    H143356   0.285   3.495  11.862
 6387TIP3    H243357   0.198   3.575  11.768
 6388TIP3   OH243358   0.779   3.561  10.151
 6388TIP3    H143359   0.821   3.492  10.201
 6388TIP3    H243360   0.852   3.614  10.117
 6389TIP3   OH243361   0.915   3.693  11.650
 6389TIP3    H143362   0.872   3.771  11.615
 6389TIP3    H243363   0.928   3.637  11.574
 6390TIP3   OH243364   1.749   3.641  11.552
 6390TIP3    H143365   1.826   3.692  11.524
 6390TIP3    H243366   1.678   3.705  11.555
 6391TIP3   OH243367   0.228   3.240  11.751
 6391TIP3    H143368   0.262   3.151  11.755
 6391TIP3    H243369   0.258   3.281  11.833
 6392TIP3   OH243370   0.910   3.365  10.295
 6392TIP3    H143371   0.851   3.290  10.306
 6392TIP3    H243372   0.986   3.329  10.249
 6393TIP3   OH243373   0.750   3.317  11.420
 6393TIP3    H143374   0.656   3.316  11.440
 6393TIP3    H243375   0.758   3.378  11.346
 6394TIP3   OH243376   1.127   3.260  10.169
 6394TIP3    H143377   1.142   3.208  10.090
 6394TIP3    H243378   1.213   3.267  10.210
 6395TIP3   OH243379   1.445   3.541  11.934
 6395TIP3    H143380   1.532   3.514  11.905
 6395TIP3    H243381   1.393   3.461  11.930
 6396TIP3   OH243382   2.081   3.528  19.916
 6396TIP3    H143383   2.171   3.521  19.885
 6396TIP3    H243384   2.060   3.442  19.953
 6397TIP3   OH243385   0.885   2.854  11.494
 6397TIP3    H143386   0.877   2.782  11.432
 6397TIP3    H243387   0.798   2.893  11.496
 6398TIP3   OH243388   0.832   2.653  11.307
 6398TIP3    H143389   0.870   2.708  11.239
 6398TIP3    H243390   0.740   2.642  11.281
 6399TIP3   OH243391   0.951   3.147  11.328
 6399TIP3    H143392   0.986   3.186  11.247
 6399TIP3    H243393   0.879   3.205  11.353
 6400TIP3   OH243394   1.358   3.004  11.901
 6400TIP3    H143395   1.327   2.944  11.970
 6400TIP3    H243396   1.426   2.955  11.855
 6401TIP3   OH243397   1.815   3.386  11.620
 6401TIP3    H143398   1.779   3.469  11.590
 6401TIP3    H243399   1.907   3.405  11.639
 6402TIP3   OH243400   0.334   2.979  11.780
 6402TIP3    H143401   0.318   2.885  11.770
 6402TIP3    H243402   0.429   2.988  11.773
 6403TIP3   OH243403   0.892   2.388  11.379
 6403TIP3    H143404   0.872   2.479  11.360
 6403TIP3    H243405   0.810   2.341  11.365
 6404TIP3   OH243406   1.085   2.730  11.655
 6404TIP3    H143407   1.057   2.651  11.702
 6404TIP3    H243408   1.007   2.758  11.608
 6405TIP3   OH243409   1.347   2.728  11.577
 6405TIP3    H143410   1.258   2.718  11.610
 6405TIP3    H243411   1.401   2.735  11.656
 6406TIP3   OH243412   1.472   2.748  11.826
 6406TIP3    H143413   1.544   2.690  11.850
 6406TIP3    H243414   1.414   2.748  11.903
 6407TIP3   OH243415   0.310   2.701  11.775
 6407TIP3    H143416   0.337   2.626  11.723
 6407TIP3    H243417   0.329   2.676  11.865
 6408TIP3   OH243418   1.022   2.273  11.620
 6408TIP3    H143419   1.045   2.181  11.634
 6408TIP3    H243420   0.959   2.270  11.547
 6409TIP3   OH243421   0.990   2.502  11.770
 6409TIP3    H143422   0.999   2.419  11.724
 6409TIP3    H243423   0.895   2.512  11.784
 6410TIP3   OH243424   0.995   4.339  10.349
 6410TIP3    H143425   1.089   4.346  10.334
 6410TIP3    H243426   0.956   4.398  10.284
 6411TIP3   OH243427   0.353   3.851  10.223
 6411TIP3    H143428   0.433   3.800  10.238
 6411TIP3    H243429   0.351   3.864  10.129
 6412TIP3   OH243430   0.101   4.339  10.641
 6412TIP3    H143431   0.009   4.363  10.647
 6412TIP3    H243432   0.118   4.287  10.719
 6413TIP3   OH243433   0.181   4.179  10.854
 6413TIP3    H143434   0.152   4.113  10.918
 6413TIP3    H243435   0.239   4.237  10.904
 6414TIP3   OH243436   2.231   4.282  11.196
 6414TIP3    H143437   2.189   4.237  11.270
 6414TIP3    H243438   2.244   4.372  11.228
 6415TIP3   OH243439   2.107   4.154  11.416
 6415TIP3    H143440   2.043   4.095  11.376
 6415TIP3    H243441   2.126   4.115  11.501
 6416TIP3   OH243442   1.990   3.847  11.886
 6416TIP3    H143443   1.904   3.862  11.925
 6416TIP3    H243444   2.051   3.898  11.940
 6417TIP3   OH243445   2.187   3.527  10.409
 6417TIP3    H143446   2.249   3.600  10.405
 6417TIP3    H243447   2.203   3.488  10.495
 6418TIP3   OH243448   2.219   3.369  10.640
 6418TIP3    H143449   2.130   3.346  10.665
 6418TIP3    H243450   2.270   3.363  10.721
 6419TIP3   OH243451   2.323   3.790  11.160
 6419TIP3    H143452   2.361   3.781  11.073
 6419TIP3    H243453   2.342   3.880  11.186
 6420TIP3   OH243454   1.901   3.986  11.337
 6420TIP3    H143455   1.843   4.048  11.382
 6420TIP3    H243456   1.855   3.966  11.255
 6421TIP3   OH243457   2.238   3.303  10.255
 6421TIP3    H143458   2.206   3.329  10.169
 6421TIP3    H243459   2.215   3.377  10.312
 6422TIP3   OH243460   1.983   2.917  10.313
 6422TIP3    H143461   1.911   2.962  10.269
 6422TIP3    H243462   2.007   2.846  10.252
 6423TIP3   OH243463   1.960   3.270  10.693
 6423TIP3    H143464   1.978   3.178  10.672
 6423TIP3    H243465   1.895   3.266  10.763
 6424TIP3   OH243466   0.166   3.314  11.030
 6424TIP3    H143467   0.201   3.306  10.941
 6424TIP3    H243468   0.242   3.340  11.083
 6425TIP3   OH243469   2.076   3.461  11.678
 6425TIP3    H143470   2.136   3.387  11.674
 6425TIP3    H243471   2.126   3.536  11.645
 6426TIP3   OH243472   2.248   3.249  11.649
 6426TIP3    H143473   2.184   3.179  11.640
 6426TIP3    H243474   2.308   3.218  11.718
 6427TIP3   OH243475   2.047   2.721  10.137
 6427TIP3    H143476   2.141   2.705  10.150
 6427TIP3    H243477   2.017   2.646  10.086
 6428TIP3   OH243478   1.838   2.755  10.506
 6428TIP3    H143479   1.877   2.668  10.513
 6428TIP3    H243480   1.898   2.803  10.450
 6429TIP3   OH243481   1.949   3.057  10.998
 6429TIP3    H143482   2.040   3.061  10.968
 6429TIP3    H243483   1.954   3.066  11.093
 6430TIP3   OH243484   2.005   3.108  11.267
 6430TIP3    H143485   1.940   3.123  11.336
 6430TIP3    H243486   2.047   3.193  11.255
 6431TIP3   OH243487   0.113   2.711  11.569
 6431TIP3    H143488   0.167   2.715  11.648
 6431TIP3    H243489   0.091   2.619  11.559
 6432TIP3   OH243490   2.197   2.361  11.716
 6432TIP3    H143491   2.290   2.339  11.727
 6432TIP3    H243492   2.198   2.446  11.673
 6433TIP3   OH243493   1.938   2.488  10.545
 6433TIP3    H143494   1.997   2.457  10.614
 6433TIP3    H243495   1.856   2.441  10.560
 6434TIP3   OH243496   0.326   2.598  10.931
 6434TIP3    H143497   0.360   2.509  10.941
 6434TIP3    H243498   0.398   2.655  10.958
 6435TIP3   OH243499   0.073   3.052  11.009
 6435TIP3    H143500   0.147   3.005  10.970
 6435TIP3    H243501   0.108   3.140  11.028
 6436TIP3   OH243502   2.202   2.604  11.574
 6436TIP3    H143503   2.134   2.670  11.584
 6436TIP3    H243504   2.197   2.578  11.482
 6437TIP3   OH243505   2.308   2.667  10.192
 6437TIP3    H143506   2.332   2.578  10.218
 6437TIP3    H243507   2.370   2.723  10.238
 6438TIP3   OH243508   0.112   2.705  10.511
 6438TIP3    H143509   0.019   2.685  10.511
 6438TIP3    H243510   0.121   2.779  10.451
 6439TIP3   OH243511   1.857   4.283  10.730
 6439TIP3    H143512   1.930   4.269  10.670
 6439TIP3    H243513   1.884   4.357  10.784
 6440TIP3   OH243514   0.126   2.432  11.328
 6440TIP3    H143515   0.033   2.428  11.349
 6440TIP3    H243516   0.129   2.460  11.237
 6441TIP3   OH243517   0.383   3.974  11.623
 6441TIP3    H143518   0.302   4.025  11.633
 6441TIP3    H243519   0.385   3.917  11.700
 6442TIP3   OH243520   0.609   4.224  11.376
 6442TIP3    H143521   0.603   4.315  11.349
 6442TIP3    H243522   0.698   4.198  11.353
 6443TIP3   OH243523   1.161   4.342  11.614
 6443TIP3    H143524   1.171   4.260  11.662
 6443TIP3    H243525   1.251   4.369  11.594
 6444TIP3   OH243526   1.418   4.425  11.554
 6444TIP3    H143527   1.458   4.385  11.476
 6444TIP3    H243528   1.489   4.430  11.618
 6445TIP3   OH243529   2.018   2.171  11.412
 6445TIP3    H143530   1.989   2.170  11.320
 6445TIP3    H243531   2.047   2.082  11.429
 6446TIP3   OH243532   0.342   4.550  11.352
 6446TIP3    H143533   0.249   4.558  11.331
 6446TIP3    H243534   0.347   4.569  11.446
 6447TIP3   OH243535   0.600   4.484  11.286
 6447TIP3    H143536   0.511   4.505  11.314
 6447TIP3    H243537   0.613   4.535  11.206
 6448TIP3   OH243538   1.331   4.504  11.238
 6448TIP3    H143539   1.240   4.490  11.211
 6448TIP3    H243540   1.325   4.570  11.307
 6449TIP3   OH243541   1.535   4.338  11.311
 6449TIP3    H143542   1.469   4.397  11.275
 6449TIP3    H243543   1.618   4.382  11.295
 6450TIP3   OH243544   1.803   4.421  11.290
 6450TIP3    H143545   1.813   4.516  11.286
 6450TIP3    H243546   1.851   4.389  11.213
 6451TIP3   OH243547   0.363   4.295  11.036
 6451TIP3    H143548   0.347   4.268  11.126
 6451TIP3    H243549   0.429   4.233  11.004
 6452TIP3   OH243550   0.522   4.074  10.962
 6452TIP3    H143551   0.477   3.997  10.996
 6452TIP3    H243552   0.603   4.080  11.013
 6453TIP3   OH243553   0.748   4.059  11.123
 6453TIP3    H143554   0.812   4.010  11.071
 6453TIP3    H243555   0.802   4.109  11.185
 6454TIP3   OH243556   1.048   2.521  10.856
 6454TIP3    H143557   0.982   2.453  10.869
 6454TIP3    H243558   1.091   2.529  10.941
 6455TIP3   OH243559   1.924   2.221  10.886
 6455TIP3    H143560   1.981   2.280  10.836
 6455TIP3    H243561   1.837   2.236  10.851
 6456TIP3   OH243562   2.114   2.371  10.729
 6456TIP3    H143563   2.165   2.294  10.705
 6456TIP3    H243564   2.179   2.436  10.756
 6457TIP3   OH243565   0.481   2.261  10.693
 6457TIP3    H143566   0.419   2.256  10.620
 6457TIP3    H243567   0.512   2.172  10.705
 6458TIP3   OH243568   0.247   2.477  10.421
 6458TIP3    H143569   0.337   2.508  10.404
 6458TIP3    H243570   0.201   2.554  10.454
 6459TIP3   OH243571   0.920   2.165  10.694
 6459TIP3    H143572   0.998   2.191  10.645
 6459TIP3    H243573   0.904   2.237  10.754
 6460TIP3   OH243574   1.665   2.216  10.783
 6460TIP3    H143575   1.647   2.185  10.695
 6460TIP3    H243576   1.599   2.175  10.838
 6461TIP3   OH243577   1.733   2.217  10.411
 6461TIP3    H143578   1.678   2.209  10.333
 6461TIP3    H243579   1.691   2.160  10.476
 6462TIP3   OH243580   0.186   4.414  10.386
 6462TIP3    H143581   0.151   4.388  10.471
 6462TIP3    H243582   0.150   4.502  10.372
 6463TIP3   OH243583   0.521   2.522  10.388
 6463TIP3    H143584   0.533   2.431  10.363
 6463TIP3    H243585   0.600   2.566  10.356
 6464TIP3   OH243586   1.025   2.632  10.398
 6464TIP3    H143587   1.072   2.575  10.460
 6464TIP3    H243588   1.019   2.716  10.442
 6465TIP3   OH243589   1.262   4.348  10.280
 6465TIP3    H143590   1.355   4.333  10.297
 6465TIP3    H243591   1.236   4.277  10.221
 6466TIP3   OH243592   2.058   4.269  10.541
 6466TIP3    H143593   2.031   4.196  10.484
 6466TIP3    H243594   2.047   4.347  10.487
 6467TIP3   OH243595   0.366   2.467  11.637
 6467TIP3    H143596   0.288   2.414  11.656
 6467TIP3    H243597   0.433   2.431  11.694
 6468TIP3   OH243598   0.500   2.336  11.840
 6468TIP3    H143599   0.584   2.291  11.846
 6468TIP3    H243600   0.438   2.276  11.881
 6469TIP3   OH243601   0.426   4.446  10.259
 6469TIP3    H143602   0.342   4.427  10.300
 6469TIP3    H243603   0.475   4.364  10.263
 6470TIP3   OH243604   1.663   2.157  11.713
 6470TIP3    H143605   1.709   2.076  11.733
 6470TIP3    H243606   1.734   2.221  11.699
 6471TIP3   OH243607   1.865   4.187  11.707
 6471TIP3    H143608   1.823   4.185  11.621
 6471TIP3    H243609   1.884   4.279  11.723
 6472TIP3   OH243610   3.771   3.478  10.575
 6472TIP3    H143611   3.763   3.569  10.547
 6472TIP3    H243612   3.682   3.443  10.569
 6473TIP3   OH243613   3.711   3.322  11.135
 6473TIP3    H143614   3.642   3.284  11.190
 6473TIP3    H243615   3.685   3.298  11.045
 6474TIP3   OH243616   2.532   3.310  11.277
 6474TIP3    H143617   2.460   3.337  11.333
 6474TIP3    H243618   2.610   3.317  11.332
 6475TIP3   OH243619   3.924   3.695  10.949
 6475TIP3    H143620   3.941   3.606  10.980
 6475TIP3    H243621   3.963   3.751  11.016
 6476TIP3   OH243622   2.841   3.908  10.927
 6476TIP3    H143623   2.818   3.815  10.924
 6476TIP3    H243624   2.923   3.911  10.976
 6477TIP3   OH243625   2.385   3.161  10.546
 6477TIP3    H143626   2.334   3.238  10.572
 6477TIP3    H243627   2.331   3.117  10.481
 6478TIP3   OH243628   2.445   3.302  10.815
 6478TIP3    H143629   2.454   3.207  10.820
 6478TIP3    H243630   2.510   3.329  10.750
 6479TIP3   OH243631   3.759   4.435  10.909
 6479TIP3    H143632   3.780   4.354  10.864
 6479TIP3    H243633   3.689   4.412  10.970
 6480TIP3   OH243634   3.266   3.687  11.074
 6480TIP3    H143635   3.316   3.662  10.996
 6480TIP3    H243636   3.332   3.702  11.141
 6481TIP3   OH243637   4.437   2.575  11.248
 6481TIP3    H143638   4.426   2.659  11.291
 6481TIP3    H243639   4.499   2.591  11.177
 6482TIP3   OH243640   3.602   2.969  11.073
 6482TIP3    H143641   3.658   2.902  11.113
 6482TIP3    H243642   3.651   2.998  10.997
 6483TIP3   OH243643   2.984   2.734  10.770
 6483TIP3    H143644   2.986   2.797  10.698
 6483TIP3    H243645   2.958   2.652  10.730
 6484TIP3   OH243646   3.892   2.817  10.764
 6484TIP3    H143647   3.935   2.793  10.846
 6484TIP3    H243648   3.963   2.816  10.700
 6485TIP3   OH243649   2.473   3.023  10.848
 6485TIP3    H143650   2.512   2.958  10.906
 6485TIP3    H243651   2.510   3.002  10.762
 6486TIP3   OH243652   2.982   3.223  10.836
 6486TIP3    H143653   3.067   3.181  10.827
 6486TIP3    H243654   2.921   3.164  10.792
 6487TIP3   OH243655   4.400   2.827  11.355
 6487TIP3    H143656   4.364   2.910  11.323
 6487TIP3    H243657   4.453   2.851  11.431
 6488TIP3   OH243658   2.841   2.605  11.205
 6488TIP3    H143659   2.816   2.660  11.130
 6488TIP3    H243660   2.769   2.614  11.267
 6489TIP3   OH243661   3.735   3.737  10.474
 6489TIP3    H143662   3.657   3.739  10.419
 6489TIP3    H243663   3.728   3.815  10.528
 6490TIP3   OH243664   3.101   3.495  11.202
 6490TIP3    H143665   3.041   3.553  11.249
 6490TIP3    H243666   3.157   3.555  11.151
 6491TIP3   OH243667   4.011   2.780  11.016
 6491TIP3    H143668   4.063   2.712  11.059
 6491TIP3    H243669   4.067   2.858  11.019
 6492TIP3   OH243670   2.800   2.762  10.981
 6492TIP3    H143671   2.822   2.847  11.020
 6492TIP3    H243672   2.861   2.753  10.909
 6493TIP3   OH243673   2.927   3.694  11.306
 6493TIP3    H143674   2.901   3.743  11.229
 6493TIP3    H243675   2.846   3.678  11.354
 6494TIP3   OH243676   2.376   3.734  10.383
 6494TIP3    H143677   2.422   3.757  10.302
 6494TIP3    H243678   2.355   3.819  10.422
 6495TIP3   OH243679   3.974   3.934  11.097
 6495TIP3    H143680   3.926   3.980  11.165
 6495TIP3    H243681   3.931   3.960  11.015
 6496TIP3   OH243682   4.159   2.610  11.175
 6496TIP3    H143683   4.135   2.644  11.262
 6496TIP3    H243684   4.247   2.575  11.186
 6497TIP3   OH243685   3.145   2.304  10.919
 6497TIP3    H143686   3.151   2.214  10.952
 6497TIP3    H243687   3.068   2.340  10.964
 6498TIP3   OH243688   3.840   4.210  10.761
 6498TIP3    H143689   3.836   4.121  10.795
 6498TIP3    H243690   3.933   4.228  10.751
 6499TIP3   OH243691   3.831   3.938  10.841
 6499TIP3    H143692   3.774   3.930  10.765
 6499TIP3    H243693   3.859   3.848  10.859
 6500TIP3   OH243694   4.251   3.697  11.398
 6500TIP3    H143695   4.238   3.626  11.335
 6500TIP3    H243696   4.244   3.777  11.344
 6501TIP3   OH243697   3.514   3.370  10.517
 6501TIP3    H143698   3.449   3.438  10.501
 6501TIP3    H243699   3.531   3.332  10.431
 6502TIP3   OH243700   3.604   3.221  10.296
 6502TIP3    H143701   3.692   3.260  10.290
 6502TIP3    H243702   3.620   3.129  10.318
 6503TIP3   OH243703   4.378   3.295  11.175
 6503TIP3    H143704   4.316   3.367  11.185
 6503TIP3    H243705   4.464   3.336  11.179
 6504TIP3   OH243706   4.026   3.386  10.531
 6504TIP3    H143707   3.944   3.420  10.566
 6504TIP3    H243708   4.075   3.357  10.608
 6505TIP3   OH243709   4.067   3.184  11.432
 6505TIP3    H143710   4.063   3.259  11.491
 6505TIP3    H243711   3.995   3.199  11.370
 6506TIP3   OH243712   2.926   3.474  10.716
 6506TIP3    H143713   2.855   3.448  10.658
 6506TIP3    H243714   2.955   3.392  10.757
 6507TIP3   OH243715   3.109   3.914  11.001
 6507TIP3    H143716   3.120   3.906  10.906
 6507TIP3    H243717   3.161   3.843  11.037
 6508TIP3   OH243718   2.950   3.271  11.110
 6508TIP3    H143719   2.955   3.262  11.015
 6508TIP3    H243720   3.002   3.349  11.130
 6509TIP3   OH243721   3.865   4.067  11.314
 6509TIP3    H143722   3.812   4.147  11.312
 6509TIP3    H243723   3.828   4.016  11.386
 6510TIP3   OH243724   3.067   3.851  11.498
 6510TIP3    H143725   2.996   3.913  11.515
 6510TIP3    H243726   3.034   3.798  11.426
 6511TIP3   OH243727   3.880   3.272  10.322
 6511TIP3    H143728   3.927   3.310  10.396
 6511TIP3    H243729   3.906   3.325  10.247
 6512TIP3   OH243730   2.733   3.376  11.470
 6512TIP3    H143731   2.732   3.463  11.432
 6512TIP3    H243732   2.712   3.389  11.562
 6513TIP3   OH243733   3.675   3.977  10.604
 6513TIP3    H143734   3.718   4.062  10.592
 6513TIP3    H243735   3.587   3.989  10.570
 6514TIP3   OH243736   2.875   4.035  11.551
 6514TIP3    H143737   2.868   4.104  11.485
 6514TIP3    H243738   2.784   4.018  11.577
 6515TIP3   OH243739   4.340   2.285  10.414
 6515TIP3    H143740   4.247   2.310  10.414
 6515TIP3    H243741   4.384   2.357  10.459
 6516TIP3   OH243742   2.714   3.379  10.564
 6516TIP3    H143743   2.671   3.441  10.506
 6516TIP3    H243744   2.703   3.294  10.521
 6517TIP3   OH243745   4.445   4.203  10.184
 6517TIP3    H143746   4.457   4.295  10.208
 6517TIP3    H243747   4.525   4.181  10.135
 6518TIP3   OH243748   2.411   3.653  11.388
 6518TIP3    H143749   2.379   3.690  11.306
 6518TIP3    H243750   2.380   3.563  11.388
 6519TIP3   OH243751   2.401   4.053  11.195
 6519TIP3    H143752   2.483   4.100  11.211
 6519TIP3    H243753   2.335   4.123  11.186
 6520TIP3   OH243754   4.392   4.079  11.570
 6520TIP3    H143755   4.408   3.988  11.597
 6520TIP3    H243756   4.310   4.102  11.614
 6521TIP3   OH243757   3.275   4.050  11.470
 6521TIP3    H143758   3.283   4.119  11.536
 6521TIP3    H243759   3.203   3.995  11.501
 6522TIP3   OH243760   3.580   4.511  10.521
 6522TIP3    H143761   3.519   4.463  10.465
 6522TIP3    H243762   3.539   4.596  10.534
 6523TIP3   OH243763   2.736   4.282  10.658
 6523TIP3    H143764   2.768   4.255  10.744
 6523TIP3    H243765   2.642   4.268  10.662
 6524TIP3   OH243766   3.768   4.251  10.357
 6524TIP3    H143767   3.838   4.190  10.335
 6524TIP3    H243768   3.809   4.315  10.415
 6525TIP3   OH243769   3.839   4.430  10.563
 6525TIP3    H143770   3.748   4.461  10.557
 6525TIP3    H243771   3.837   4.365  10.634
 6526TIP3   OH243772   4.128   2.961  11.583
 6526TIP3    H143773   4.111   3.041  11.534
 6526TIP3    H243774   4.202   2.982  11.639
 6527TIP3   OH243775   2.686   3.647  11.434
 6527TIP3    H143776   2.683   3.637  11.529
 6527TIP3    H243777   2.596   3.663  11.408
 6528TIP3   OH243778   2.919   2.378  11.066
 6528TIP3    H143779   2.847   2.365  11.005
 6528TIP3    H243780   2.897   2.458  11.113
 6529TIP3   OH243781   3.328   2.241  11.390
 6529TIP3    H143782   3.352   2.200  11.473
 6529TIP3    H243783   3.252   2.295  11.410
 6530TIP3   OH243784   3.863   2.898  11.633
 6530TIP3    H143785   3.957   2.910  11.616
 6530TIP3    H243786   3.845   2.955  11.707
 6531TIP3   OH243787   3.975   3.466  10.152
 6531TIP3    H143788   3.953   3.537  10.091
 6531TIP3    H243789   4.037   3.505  10.213
 6532TIP3   OH243790   3.490   2.770  10.220
 6532TIP3    H143791   3.426   2.738  10.284
 6532TIP3    H243792   3.467   2.724  10.139
 6533TIP3   OH243793   2.878   2.990  11.127
 6533TIP3    H143794   2.835   2.972  11.211
 6533TIP3    H243795   2.880   3.085  11.120
 6534TIP3   OH243796   2.845   3.037  10.689
 6534TIP3    H143797   2.756   3.016  10.661
 6534TIP3    H243798   2.901   2.988  10.629
 6535TIP3   OH243799   3.573   3.099  10.622
 6535TIP3    H143800   3.548   3.190  10.604
 6535TIP3    H243801   3.643   3.080  10.560
 6536TIP3   OH243802   3.432   3.094  11.722
 6536TIP3    H143803   3.417   3.008  11.761
 6536TIP3    H243804   3.501   3.133  11.776
 6537TIP3   OH243805   3.747   3.039  10.844
 6537TIP3    H143806   3.684   3.061  10.776
 6537TIP3    H243807   3.791   2.961  10.811
 6538TIP3   OH243808   2.762   2.909  11.370
 6538TIP3    H143809   2.690   2.962  11.405
 6538TIP3    H243810   2.734   2.819  11.382
 6539TIP3   OH243811   2.957   2.781  10.166
 6539TIP3    H143812   2.986   2.726  10.239
 6539TIP3    H243813   2.966   2.725  10.089
 6540TIP3   OH243814   2.334   2.538  10.769
 6540TIP3    H143815   2.411   2.556  10.823
 6540TIP3    H243816   2.358   2.567  10.681
 6541TIP3   OH243817   2.445   2.861  10.363
 6541TIP3    H143818   2.515   2.909  10.319
 6541TIP3    H243819   2.369   2.919  10.359
 6542TIP3   OH243820   3.489   3.166  11.241
 6542TIP3    H143821   3.520   3.099  11.179
 6542TIP3    H243822   3.454   3.116  11.315
 6543TIP3   OH243823   3.261   2.756  10.812
 6543TIP3    H143824   3.166   2.750  10.809
 6543TIP3    H243825   3.290   2.664  10.814
 6544TIP3   OH243826   2.586   2.986  10.595
 6544TIP3    H143827   2.525   3.056  10.573
 6544TIP3    H243828   2.566   2.916  10.533
 6545TIP3   OH243829   3.041   2.899  10.536
 6545TIP3    H143830   3.134   2.921  10.537
 6545TIP3    H243831   3.006   2.944  10.459
 6546TIP3   OH243832   3.776   2.765  11.163
 6546TIP3    H143833   3.753   2.675  11.138
 6546TIP3    H243834   3.859   2.782  11.118
 6547TIP3   OH243835   2.899   2.999  10.322
 6547TIP3    H143836   2.807   3.020  10.308
 6547TIP3    H243837   2.920   2.933  10.256
 6548TIP3   OH243838   4.246   4.453  11.706
 6548TIP3    H143839   4.258   4.502  11.624
 6548TIP3    H243840   4.318   4.482  11.762
 6549TIP3   OH243841   2.659   3.566  11.698
 6549TIP3    H143842   2.726   3.595  11.759
 6549TIP3    H243843   2.576   3.587  11.740
 6550TIP3   OH243844   3.330   2.903  11.039
 6550TIP3    H143845   3.424   2.921  11.041
 6550TIP3    H243846   3.316   2.855  10.958
 6551TIP3   OH243847   2.915   2.512  10.624
 6551TIP3    H143848   2.871   2.427  10.629
 6551TIP3    H243849   2.941   2.521  10.533
 6552TIP3   OH243850   3.143   2.987  11.218
 6552TIP3    H143851   3.061   2.977  11.170
 6552TIP3    H243852   3.211   2.960  11.156
 6553TIP3   OH243853   3.315   3.572  10.442
 6553TIP3    H143854   3.262   3.523  10.379
 6553TIP3    H243855   3.251   3.610  10.503
 6554TIP3   OH243856   4.204   3.509  11.190
 6554TIP3    H143857   4.241   3.577  11.134
 6554TIP3    H243858   4.119   3.488  11.150
 6555TIP3   OH243859   3.687   2.787  10.411
 6555TIP3    H143860   3.627   2.781  10.337
 6555TIP3    H243861   3.718   2.877  10.410
 6556TIP3   OH243862   3.485   3.870  11.480
 6556TIP3    H143863   3.455   3.836  11.564
 6556TIP3    H243864   3.423   3.940  11.459
 6557TIP3   OH243865   3.790   3.044  10.449
 6557TIP3    H143866   3.865   3.003  10.493
 6557TIP3    H243867   3.827   3.119  10.403
 6558TIP3   OH243868   2.823   3.634  10.920
 6558TIP3    H143869   2.866   3.590  10.846
 6558TIP3    H243870   2.767   3.567  10.958
 6559TIP3   OH243871   3.491   3.775  10.348
 6559TIP3    H143872   3.459   3.852  10.394
 6559TIP3    H243873   3.430   3.705  10.372
 6560TIP3   OH243874   2.315   3.393  11.423
 6560TIP3    H143875   2.298   3.347  11.505
 6560TIP3    H243876   2.238   3.376  11.369
 6561TIP3   OH243877   3.211   3.226  11.619
 6561TIP3    H143878   3.240   3.283  11.549
 6561TIP3    H243879   3.291   3.189  11.656
 6562TIP3   OH243880   3.757   3.922  11.523
 6562TIP3    H143881   3.667   3.900  11.501
 6562TIP3    H243882   3.755   3.938  11.618
 6563TIP3   OH243883   4.508   2.994  10.450
 6563TIP3    H143884   4.415   2.976  10.432
 6563TIP3    H243885   4.522   3.083  10.419
 6564TIP3   OH243886   4.466   3.629  11.563
 6564TIP3    H143887   4.395   3.666  11.511
 6564TIP3    H243888   4.536   3.611  11.500
 6565TIP3   OH243889   4.251   4.087  10.337
 6565TIP3    H143890   4.281   3.996  10.342
 6565TIP3    H243891   4.312   4.128  10.275
 6566TIP3   OH243892   3.962   3.433  11.065
 6566TIP3    H143893   3.878   3.413  11.106
 6566TIP3    H243894   3.980   3.357  11.009
 6567TIP3   OH243895   3.038   3.911  10.726
 6567TIP3    H143896   3.042   3.996  10.683
 6567TIP3    H243897   2.953   3.910  10.770
 6568TIP3   OH243898   2.522   3.289  10.283
 6568TIP3    H143899   2.547   3.378  10.309
 6568TIP3    H243900   2.427   3.292  10.279
 6569TIP3   OH243901   3.101   3.671  10.597
 6569TIP3    H143902   3.087   3.750  10.649
 6569TIP3    H243903   3.044   3.605  10.637
 6570TIP3   OH243904   3.159   4.230  11.291
 6570TIP3    H143905   3.224   4.301  11.288
 6570TIP3    H243906   3.201   4.162  11.344
 6571TIP3   OH243907   3.002   4.172  10.625
 6571TIP3    H143908   2.910   4.197  10.619
 6571TIP3    H243909   3.047   4.252  10.653
 6572TIP3   OH243910   3.475   3.713  11.248
 6572TIP3    H143911   3.477   3.769  11.326
 6572TIP3    H243912   3.565   3.682  11.238
 6573TIP3   OH243913   3.968   3.791  10.327
 6573TIP3    H143914   4.030   3.719  10.338
 6573TIP3    H243915   3.892   3.765  10.379
 6574TIP3   OH243916   4.093   4.212  11.370
 6574TIP3    H143917   4.023   4.149  11.351
 6574TIP3    H243918   4.065   4.292  11.327
 6575TIP3   OH243919   4.496   4.454  10.288
 6575TIP3    H143920   4.548   4.534  10.287
 6575TIP3    H243921   4.416   4.477  10.335
 6576TIP3   OH243922   2.670   2.653  11.420
 6576TIP3    H143923   2.585   2.684  11.452
 6576TIP3    H243924   2.693   2.582  11.479
 6577TIP3   OH243925   4.139   3.565  10.354
 6577TIP3    H143926   4.104   3.505  10.419
 6577TIP3    H243927   4.234   3.563  10.368
 6578TIP3   OH243928   2.608   4.240  11.246
 6578TIP3    H143929   2.695   4.222  11.280
 6578TIP3    H243930   2.577   4.315  11.297
 6579TIP3   OH243931   2.994   3.833  10.389
 6579TIP3    H143932   3.035   3.774  10.451
 6579TIP3    H243933   3.049   3.911  10.390
 6580TIP3   OH243934   2.589   3.544  10.380
 6580TIP3    H143935   2.516   3.605  10.393
 6580TIP3    H243936   2.658   3.597  10.339
 6581TIP3   OH243937   3.761   2.723  11.449
 6581TIP3    H143938   3.793   2.801  11.495
 6581TIP3    H243939   3.769   2.746  11.356
 6582TIP3   OH243940   3.684   2.659  10.652
 6582TIP3    H143941   3.688   2.699  10.565
 6582TIP3    H243942   3.754   2.703  10.701
 6583TIP3   OH243943   3.429   4.018  10.467
 6583TIP3    H143944   3.333   4.024  10.468
 6583TIP3    H243945   3.457   4.091  10.411
 6584TIP3   OH243946   3.332   2.907  10.588
 6584TIP3    H143947   3.407   2.965  10.601
 6584TIP3    H243948   3.319   2.865  10.673
 6585TIP3   OH243949   3.371   3.019  11.460
 6585TIP3    H143950   3.405   3.045  11.545
 6585TIP3    H243951   3.397   2.927  11.451
 6586TIP3   OH243952   3.475   2.495  10.588
 6586TIP3    H143953   3.423   2.488  10.668
 6586TIP3    H243954   3.550   2.548  10.613
 6587TIP3   OH243955   3.155   4.062  10.425
 6587TIP3    H143956   3.175   4.135  10.366
 6587TIP3    H243957   3.101   4.101  10.494
 6588TIP3   OH243958   3.053   2.653  10.394
 6588TIP3    H143959   3.035   2.727  10.452
 6588TIP3    H243960   3.149   2.644  10.396
 6589TIP3   OH243961   4.148   2.735  11.422
 6589TIP3    H143962   4.122   2.802  11.484
 6589TIP3    H243963   4.239   2.755  11.401
 6590TIP3   OH243964   3.983   3.187  10.925
 6590TIP3    H143965   3.902   3.142  10.900
 6590TIP3    H243966   4.035   3.119  10.969
 6591TIP3   OH243967   2.786   3.704  10.260
 6591TIP3    H143968   2.844   3.761  10.311
 6591TIP3    H243969   2.846   3.652  10.205
 6592TIP3   OH243970   2.626   3.040  10.246
 6592TIP3    H143971   2.593   3.127  10.268
 6592TIP3    H243972   2.632   3.040  10.150
 6593TIP3   OH243973   4.224   4.379  11.071
 6593TIP3    H143974   4.216   4.422  10.986
 6593TIP3    H243975   4.318   4.368  11.083
 6594TIP3   OH243976   2.709   2.336  10.891
 6594TIP3    H143977   2.728   2.318  10.799
 6594TIP3    H243978   2.674   2.254  10.925
 6595TIP3   OH243979   2.314   3.998  10.458
 6595TIP3    H143980   2.222   4.020  10.473
 6595TIP3    H243981   2.360   4.081  10.466
 6596TIP3   OH243982   2.330   4.474  11.823
 6596TIP3    H143983   2.404   4.450  11.878
 6596TIP3    H243984   2.254   4.468  11.882
 6597TIP3   OH243985   3.033   4.156  11.752
 6597TIP3    H143986   3.106   4.097  11.770
 6597TIP3    H243987   2.980   4.110  11.687
 6598TIP3   OH243988   3.573   3.978  10.166
 6598TIP3    H143989   3.544   3.899  10.211
 6598TIP3    H243990   3.666   3.964  10.149
 6599TIP3   OH243991   3.731   3.968  11.802
 6599TIP3    H143992   3.738   3.897  11.867
 6599TIP3    H243993   3.809   4.021  11.818
 6600TIP3   OH243994   3.970   4.070  10.313
 6600TIP3    H143995   3.966   3.974  10.313
 6600TIP3    H243996   4.064   4.089  10.321
 6601TIP3   OH243997   2.400   3.645  11.805
 6601TIP3    H143998   2.349   3.593  11.866
 6601TIP3    H243999   2.342   3.661  11.731
 6602TIP3   OH244000   2.995   3.582  10.130
 6602TIP3    H144001   3.050   3.523  10.181
 6602TIP3    H244002   3.058   3.639  10.084
 6603TIP3   OH244003   3.111   3.726  11.735
 6603TIP3    H144004   3.095   3.769  11.651
 6603TIP3    H244005   3.155   3.644  11.712
 6604TIP3   OH244006   4.004   3.662  11.531
 6604TIP3    H144007   4.087   3.688  11.493
 6604TIP3    H244008   3.949   3.740  11.526
 6605TIP3   OH244009   2.447   3.184  11.840
 6605TIP3    H144010   2.530   3.191  11.792
 6605TIP3    H244011   2.451   3.254  11.906
 6606TIP3   OH244012   3.158   3.410  10.277
 6606TIP3    H144013   3.097   3.345  10.314
 6606TIP3    H244014   3.227   3.357  10.237
 6607TIP3   OH244015   2.940   3.205  11.379
 6607TIP3    H144016   2.871   3.258  11.420
 6607TIP3    H244017   2.938   3.230  11.287
 6608TIP3   OH244018   3.353   3.246  10.182
 6608TIP3    H144019   3.356   3.181  10.112
 6608TIP3    H244020   3.441   3.245  10.220
 6609TIP3   OH244021   3.740   3.485  11.930
 6609TIP3    H144022   3.826   3.450  11.904
 6609TIP3    H244023   3.680   3.412  11.917
 6610TIP3   OH244024   4.429   3.722  19.910
 6610TIP3    H144025   4.480   3.656  19.956
 6610TIP3    H244026   4.488   3.757  19.844
 6611TIP3   OH244027   3.015   2.899  11.485
 6611TIP3    H144028   3.042   2.812  11.454
 6611TIP3    H244029   2.929   2.913  11.444
 6612TIP3   OH244030   3.064   2.648  11.360
 6612TIP3    H144031   3.132   2.662  11.294
 6612TIP3    H244032   2.985   2.630  11.310
 6613TIP3   OH244033   3.248   3.294  11.345
 6613TIP3    H144034   3.327   3.279  11.294
 6613TIP3    H244035   3.201   3.363  11.298
 6614TIP3   OH244036   3.887   3.072  11.855
 6614TIP3    H144037   3.953   3.015  11.896
 6614TIP3    H244038   3.927   3.159  11.856
 6615TIP3   OH244039   4.053   3.401  11.599
 6615TIP3    H144040   4.024   3.489  11.575
 6615TIP3    H244041   4.148   3.409  11.610
 6616TIP3   OH244042   2.943   2.868  11.754
 6616TIP3    H144043   2.858   2.826  11.748
 6616TIP3    H244044   2.968   2.885  11.663
 6617TIP3   OH244045   3.105   2.382  11.473
 6617TIP3    H144046   3.090   2.475  11.453
 6617TIP3    H244047   3.035   2.336  11.427
 6618TIP3   OH244048   3.382   2.837  11.813
 6618TIP3    H144049   3.420   2.795  11.891
 6618TIP3    H244050   3.293   2.803  11.809
 6619TIP3   OH244051   3.603   2.659  11.763
 6619TIP3    H144052   3.539   2.726  11.740
 6619TIP3    H244053   3.580   2.634  11.853
 6620TIP3   OH244054   3.915   2.526  11.806
 6620TIP3    H144055   3.918   2.433  11.826
 6620TIP3    H244056   3.891   2.567  11.889
 6621TIP3   OH244057   2.707   2.718  11.753
 6621TIP3    H144058   2.687   2.639  11.703
 6621TIP3    H244059   2.743   2.686  11.836
 6622TIP3   OH244060   3.220   2.289  11.713
 6622TIP3    H144061   3.285   2.224  11.686
 6622TIP3    H244062   3.179   2.319  11.632
 6623TIP3   OH244063   3.276   2.455  11.924
 6623TIP3    H144064   3.260   2.393  11.853
 6623TIP3    H244065   3.223   2.532  11.901
 6624TIP3   OH244066   3.242   4.281  10.282
 6624TIP3    H144067   3.336   4.264  10.281
 6624TIP3    H244068   3.229   4.351  10.219
 6625TIP3   OH244069   2.541   3.793  10.171
 6625TIP3    H144070   2.628   3.769  10.201
 6625TIP3    H244071   2.553   3.821  10.080
 6626TIP3   OH244072   2.268   4.385  10.677
 6626TIP3    H144073   2.191   4.334  10.652
 6626TIP3    H244074   2.286   4.359  10.767
 6627TIP3   OH244075   2.334   4.319  10.933
 6627TIP3    H144076   2.298   4.300  11.020
 6627TIP3    H244077   2.427   4.336  10.949
 6628TIP3   OH244078   4.486   4.359  11.171
 6628TIP3    H144079   4.445   4.329  11.251
 6628TIP3    H244080   4.528   4.442  11.195
 6629TIP3   OH244081   4.353   4.298  11.404
 6629TIP3    H144082   4.266   4.265  11.380
 6629TIP3    H244083   4.390   4.229  11.459
 6630TIP3   OH244084   4.239   3.726  11.947
 6630TIP3    H144085   4.153   3.755  11.976
 6630TIP3    H244086   4.300   3.787  11.988
 6631TIP3   OH244087   4.474   3.505  10.433
 6631TIP3    H144088   4.531   3.582  10.430
 6631TIP3    H244089   4.455   3.493  10.526
 6632TIP3   OH244090   4.415   3.436  10.694
 6632TIP3    H144091   4.329   3.401  10.716
 6632TIP3    H244092   4.471   3.414  10.769
 6633TIP3   OH244093   4.319   3.724  11.070
 6633TIP3    H144094   4.379   3.759  11.004
 6633TIP3    H244095   4.293   3.801  11.121
 6634TIP3   OH244096   4.212   3.920  11.234
 6634TIP3    H144097   4.225   4.011  11.263
 6634TIP3    H244098   4.130   3.923  11.183
 6635TIP3   OH244099   4.547   3.254  10.346
 6635TIP3    H144100   4.526   3.262  10.252
 6635TIP3    H244101   4.517   3.337  10.384
 6636TIP3   OH244102   4.246   2.939  10.370
 6636TIP3    H144103   4.196   3.003  10.320
 6636TIP3    H244104   4.258   2.865  10.310
 6637TIP3   OH244105   4.178   3.283  10.749
 6637TIP3    H144106   4.238   3.209  10.760
 6637TIP3    H244107   4.106   3.265  10.810
 6638TIP3   OH244108   2.342   3.311  11.072
 6638TIP3    H144109   2.383   3.326  10.987
 6638TIP3    H244110   2.416   3.307  11.133
 6639TIP3   OH244111   4.326   3.408  11.640
 6639TIP3    H144112   4.383   3.333  11.624
 6639TIP3    H244113   4.377   3.483  11.610
 6640TIP3   OH244114   4.483   3.175  11.624
 6640TIP3    H144115   4.427   3.137  11.692
 6640TIP3    H244116   4.514   3.101  11.573
 6641TIP3   OH244117   4.280   2.743  10.184
 6641TIP3    H144118   4.365   2.699  10.190
 6641TIP3    H244119   4.234   2.698  10.114
 6642TIP3   OH244120   4.101   2.816  10.582
 6642TIP3    H144121   4.141   2.730  10.587
 6642TIP3    H244122   4.153   2.864  10.517
 6643TIP3   OH244123   4.166   3.007  11.040
 6643TIP3    H144124   4.245   3.033  10.992
 6643TIP3    H244125   4.192   3.013  11.132
 6644TIP3   OH244126   4.276   3.068  11.290
 6644TIP3    H144127   4.207   3.105  11.345
 6644TIP3    H244128   4.323   3.144  11.255
 6645TIP3   OH244129   2.452   2.733  11.563
 6645TIP3    H144130   2.481   2.756  11.651
 6645TIP3    H244131   2.367   2.691  11.575
 6646TIP3   OH244132   4.371   2.167  11.860
 6646TIP3    H144133   4.447   2.120  11.825
 6646TIP3    H244134   4.398   2.260  11.858
 6647TIP3   OH244135   4.223   2.567  10.581
 6647TIP3    H144136   4.311   2.531  10.591
 6647TIP3    H244137   4.171   2.494  10.548
 6648TIP3   OH244138   2.581   2.589  10.897
 6648TIP3    H144139   2.623   2.503  10.898
 6648TIP3    H244140   2.650   2.649  10.924
 6649TIP3   OH244141   2.218   3.090  10.952
 6649TIP3    H144142   2.294   3.054  10.906
 6649TIP3    H244143   2.252   3.165  11.000
 6650TIP3   OH244144   4.415   2.443  11.843
 6650TIP3    H144145   4.332   2.492  11.849
 6650TIP3    H244146   4.462   2.485  11.772
 6651TIP3   OH244147   4.522   2.617  10.191
 6651TIP3    H144148   4.572   2.535  10.182
 6651TIP3    H244149   4.584   2.679  10.228
 6652TIP3   OH244150   2.356   2.634  10.505
 6652TIP3    H144151   2.263   2.655  10.502
 6652TIP3    H244152   2.399   2.710  10.465
 6653TIP3   OH244153   4.100   4.276  10.734
 6653TIP3    H144154   4.171   4.255  10.672
 6653TIP3    H244155   4.129   4.357  10.776
 6654TIP3   OH244156   2.265   2.302  11.354
 6654TIP3    H144157   2.183   2.276  11.394
 6654TIP3    H244158   2.252   2.393  11.330
 6655TIP3   OH244159   2.610   3.988  11.614
 6655TIP3    H144160   2.537   3.985  11.552
 6655TIP3    H244161   2.569   3.976  11.700
 6656TIP3   OH244162   2.880   4.228  11.353
 6656TIP3    H144163   2.858   4.321  11.354
 6656TIP3    H244164   2.973   4.225  11.331
 6657TIP3   OH244165   3.365   4.272  11.620
 6657TIP3    H144166   3.404   4.230  11.697
 6657TIP3    H244167   3.440   4.307  11.571
 6658TIP3   OH244168   3.571   4.391  11.476
 6658TIP3    H144169   3.641   4.361  11.418
 6658TIP3    H244170   3.612   4.459  11.529
 6659TIP3   OH244171   4.294   2.171  11.436
 6659TIP3    H144172   4.258   2.192  11.349
 6659TIP3    H244173   4.321   2.080  11.429
 6660TIP3   OH244174   2.515   4.477  11.364
 6660TIP3    H144175   2.428   4.502  11.332
 6660TIP3    H244176   2.515   4.503  11.456
 6661TIP3   OH244177   2.798   4.485  11.327
 6661TIP3    H144178   2.705   4.500  11.341
 6661TIP3    H244179   2.820   4.536  11.249
 6662TIP3   OH244180   3.555   4.359  11.097
 6662TIP3    H144181   3.509   4.289  11.051
 6662TIP3    H244182   3.490   4.395  11.158
 6663TIP3   OH244183   3.766   4.329  11.285
 6663TIP3    H144184   3.708   4.343  11.210
 6663TIP3    H244185   3.846   4.376  11.263
 6664TIP3   OH244186   4.022   4.445  11.239
 6664TIP3    H144187   4.049   4.536  11.254
 6664TIP3    H244188   4.080   4.414  11.169
 6665TIP3   OH244189   2.607   4.357  10.990
 6665TIP3    H144190   2.600   4.330  11.081
 6665TIP3    H244191   2.676   4.301  10.953
 6666TIP3   OH244192   2.805   4.183  10.904
 6666TIP3    H144193   2.795   4.088  10.909
 6666TIP3    H244194   2.886   4.201  10.951
 6667TIP3   OH244195   3.043   4.187  11.048
 6667TIP3    H144196   3.071   4.098  11.027
 6667TIP3    H244197   3.080   4.205  11.134
 6668TIP3   OH244198   3.334   2.486  10.832
 6668TIP3    H144199   3.261   2.428  10.852
 6668TIP3    H244200   3.401   2.464  10.897
 6669TIP3   OH244201   4.052   2.260  10.909
 6669TIP3    H144202   4.083   2.351  10.915
 6669TIP3    H244203   3.964   2.267  10.873
 6670TIP3   OH244204   4.488   2.446  10.594
 6670TIP3    H144205   4.523   2.362  10.625
 6670TIP3    H244206   4.527   2.511  10.652
 6671TIP3   OH244207   2.784   2.249  10.632
 6671TIP3    H144208   2.744   2.233  10.546
 6671TIP3    H244209   2.804   2.162  10.666
 6672TIP3   OH244210   2.383   2.427  10.314
 6672TIP3    H144211   2.476   2.408  10.299
 6672TIP3    H244212   2.381   2.476  10.396
 6673TIP3   OH244213   3.163   2.140  10.681
 6673TIP3    H144214   3.208   2.171  10.603
 6673TIP3    H244215   3.156   2.217  10.738
 6674TIP3   OH244216   3.800   2.283  10.798
 6674TIP3    H144217   3.752   2.310  10.720
 6674TIP3    H244218   3.760   2.199  10.823
 6675TIP3   OH244219   4.076   2.360  10.456
 6675TIP3    H144220   4.014   2.414  10.408
 6675TIP3    H244221   4.026   2.284  10.484
 6676TIP3   OH244222   2.403   4.269  10.465
 6676TIP3    H144223   2.356   4.313  10.393
 6676TIP3    H244224   2.369   4.310  10.544
 6677TIP3   OH244225   2.648   2.371  10.279
 6677TIP3    H144226   2.665   2.284  10.316
 6677TIP3    H244227   2.729   2.393  10.232
 6678TIP3   OH244228   3.330   2.676  10.427
 6678TIP3    H144229   3.380   2.609  10.474
 6678TIP3    H244230   3.338   2.754  10.482
 6679TIP3   OH244231   3.508   4.217  10.283
 6679TIP3    H144232   3.596   4.244  10.309
 6679TIP3    H244233   3.522   4.143  10.224
 6680TIP3   OH244234   4.307   4.261  10.548
 6680TIP3    H144235   4.286   4.195  10.482
 6680TIP3    H244236   4.295   4.345  10.503
 6681TIP3   OH244237   2.671   2.462  11.631
 6681TIP3    H144238   2.594   2.416  11.665
 6681TIP3    H244239   2.744   2.430  11.684
 6682TIP3   OH244240   2.852   2.355  11.816
 6682TIP3    H144241   2.932   2.307  11.796
 6682TIP3    H244242   2.792   2.288  11.850
 6683TIP3   OH244243   2.661   4.328  10.383
 6683TIP3    H144244   2.574   4.294  10.400
 6683TIP3    H244245   2.716   4.288  10.450
 6684TIP3   OH244246   3.918   2.242  11.796
 6684TIP3    H144247   3.889   2.178  11.861
 6684TIP3    H244248   4.000   2.205  11.761
 6685TIP3   OH244249   4.150   4.197  11.642
 6685TIP3    H144250   4.123   4.203  11.551
 6685TIP3    H244251   4.187   4.284  11.662
 6686TIP3   OH244252   6.078   3.465  10.567
 6686TIP3    H144253   6.082   3.559  10.550
 6686TIP3    H244254   5.986   3.442  10.554
 6687TIP3   OH244255   6.152   3.290  11.112
 6687TIP3    H144256   6.138   3.258  11.201
 6687TIP3    H244257   6.082   3.248  11.061
 6688TIP3   OH244258   4.831   3.211  11.175
 6688TIP3    H144259   4.852   3.118  11.179
 6688TIP3    H244260   4.882   3.250  11.247
 6689TIP3   OH244261   6.268   3.781  10.922
 6689TIP3    H144262   6.294   3.698  10.961
 6689TIP3    H244263   6.283   3.846  10.991
 6690TIP3   OH244264   5.139   3.902  10.953
 6690TIP3    H144265   5.129   3.808  10.940
 6690TIP3    H244266   5.226   3.912  10.992
 6691TIP3   OH244267   4.649   2.901  10.669
 6691TIP3    H144268   4.637   2.970  10.734
 6691TIP3    H244269   4.598   2.930  10.593
 6692TIP3   OH244270   4.629   3.356  10.871
 6692TIP3    H144271   4.646   3.262  10.880
 6692TIP3    H244272   4.697   3.387  10.810
 6693TIP3   OH244273   6.031   4.403  10.901
 6693TIP3    H144274   6.028   4.331  10.838
 6693TIP3    H244275   6.022   4.361  10.986
 6694TIP3   OH244276   5.547   3.687  11.080
 6694TIP3    H144277   5.600   3.654  11.008
 6694TIP3    H244278   5.608   3.698  11.152
 6695TIP3   OH244279   6.733   2.579  11.202
 6695TIP3    H144280   6.703   2.656  11.250
 6695TIP3    H244281   6.756   2.613  11.115
 6696TIP3   OH244282   6.015   2.994  11.092
 6696TIP3    H144283   6.046   2.905  11.106
 6696TIP3    H244284   5.987   2.996  11.001
 6697TIP3   OH244285   5.117   2.750  10.805
 6697TIP3    H144286   5.109   2.829  10.751
 6697TIP3    H244287   5.142   2.681  10.744
 6698TIP3   OH244288   6.144   2.823  10.710
 6698TIP3    H144289   6.196   2.837  10.789
 6698TIP3    H244290   6.208   2.802  10.642
 6699TIP3   OH244291   4.686   3.093  10.968
 6699TIP3    H144292   4.731   3.150  11.030
 6699TIP3    H244293   4.717   3.005  10.990
 6700TIP3   OH244294   5.412   3.243  10.768
 6700TIP3    H144295   5.504   3.224  10.787
 6700TIP3    H244296   5.383   3.169  10.713
 6701TIP3   OH244297   6.666   2.809  11.346
 6701TIP3    H144298   6.661   2.903  11.326
 6701TIP3    H244299   6.741   2.801  11.405
 6702TIP3   OH244300   5.144   2.584  11.220
 6702TIP3    H144301   5.127   2.665  11.172
 6702TIP3    H244302   5.069   2.574  11.279
 6703TIP3   OH244303   6.069   3.736  10.505
 6703TIP3    H144304   5.978   3.741  10.475
 6703TIP3    H244305   6.074   3.800  10.576
 6704TIP3   OH244306   5.325   3.531  11.148
 6704TIP3    H144307   5.266   3.587  11.198
 6704TIP3    H244308   5.400   3.587  11.127
 6705TIP3   OH244309   6.288   2.870  10.944
 6705TIP3    H144310   6.243   2.832  11.020
 6705TIP3    H244311   6.362   2.917  10.982
 6706TIP3   OH244312   5.095   2.815  11.074
 6706TIP3    H144313   5.148   2.892  11.096
 6706TIP3    H244314   5.114   2.797  10.982
 6707TIP3   OH244315   5.140   3.696  11.278
 6707TIP3    H144316   5.098   3.755  11.215
 6707TIP3    H244317   5.067   3.660  11.329
 6708TIP3   OH244318   4.659   3.722  10.410
 6708TIP3    H144319   4.697   3.737  10.323
 6708TIP3    H244320   4.647   3.810  10.446
 6709TIP3   OH244321   6.294   4.002  11.100
 6709TIP3    H144322   6.219   4.015  11.157
 6709TIP3    H244323   6.306   4.085  11.055
 6710TIP3   OH244324   6.359   2.409  11.272
 6710TIP3    H144325   6.289   2.470  11.299
 6710TIP3    H244326   6.399   2.451  11.196
 6711TIP3   OH244327   5.380   2.265  10.908
 6711TIP3    H144328   5.384   2.171  10.925
 6711TIP3    H244329   5.319   2.299  10.973
 6712TIP3   OH244330   6.061   4.175  10.732
 6712TIP3    H144331   6.080   4.081  10.728
 6712TIP3    H244332   6.143   4.218  10.709
 6713TIP3   OH244333   6.164   3.913  10.703
 6713TIP3    H144334   6.245   3.919  10.653
 6713TIP3    H244335   6.188   3.864  10.782
 6714TIP3   OH244336   6.464   3.758  11.418
 6714TIP3    H144337   6.482   3.704  11.341
 6714TIP3    H244338   6.464   3.848  11.384
 6715TIP3   OH244339   5.814   3.396  10.495
 6715TIP3    H144340   5.743   3.459  10.495
 6715TIP3    H244341   5.821   3.366  10.404
 6716TIP3   OH244342   5.881   3.244  10.264
 6716TIP3    H144343   5.966   3.285  10.250
 6716TIP3    H244344   5.901   3.159  10.304
 6717TIP3   OH244345   6.699   3.355  11.275
 6717TIP3    H144346   6.638   3.428  11.264
 6717TIP3    H244347   6.759   3.362  11.201
 6718TIP3   OH244348   6.324   3.361  10.510
 6718TIP3    H144349   6.244   3.396  10.550
 6718TIP3    H244350   6.375   3.328  10.584
 6719TIP3   OH244351   6.216   3.153  11.558
 6719TIP3    H144352   6.222   3.243  11.592
 6719TIP3    H244353   6.169   3.162  11.475
 6720TIP3   OH244354   5.251   3.467  10.711
 6720TIP3    H144355   5.181   3.426  10.660
 6720TIP3    H244356   5.313   3.395  10.728
 6721TIP3   OH244357   5.411   3.921  10.999
 6721TIP3    H144358   5.420   3.915  10.904
 6721TIP3    H244359   5.461   3.847  11.034
 6722TIP3   OH244360   5.306   3.270  11.028
 6722TIP3    H144361   5.344   3.272  10.940
 6722TIP3    H244362   5.315   3.359  11.060
 6723TIP3   OH244363   6.109   4.053  11.296
 6723TIP3    H144364   6.070   4.139  11.315
 6723TIP3    H244365   6.081   3.997  11.369
 6724TIP3   OH244366   5.271   3.810  11.498
 6724TIP3    H144367   5.213   3.884  11.517
 6724TIP3    H244368   5.233   3.769  11.421
 6725TIP3   OH244369   6.167   3.267  10.299
 6725TIP3    H144370   6.216   3.294  10.377
 6725TIP3    H244371   6.194   3.328  10.231
 6726TIP3   OH244372   4.941   3.331  11.402
 6726TIP3    H144373   4.955   3.426  11.406
 6726TIP3    H244374   4.872   3.314  11.466
 6727TIP3   OH244375   5.822   4.191  10.583
 6727TIP3    H144376   5.899   4.176  10.638
 6727TIP3    H244377   5.827   4.283  10.558
 6728TIP3   OH244378   5.105   4.027  11.540
 6728TIP3    H144379   5.099   4.091  11.470
 6728TIP3    H244380   5.014   3.997  11.552
 6729TIP3   OH244381   6.522   2.279  10.387
 6729TIP3    H144382   6.431   2.264  10.411
 6729TIP3    H244383   6.540   2.368  10.416
 6730TIP3   OH244384   5.042   3.355  10.559
 6730TIP3    H144385   5.005   3.438  10.530
 6730TIP3    H244386   4.990   3.288  10.515
 6731TIP3   OH244387   6.739   4.128  10.226
 6731TIP3    H144388   6.756   4.222  10.233
 6731TIP3    H244389   6.824   4.089  10.205
 6732TIP3   OH244390   4.659   3.528  11.394
 6732TIP3    H144391   4.643   3.489  11.308
 6732TIP3    H244392   4.678   3.453  11.451
 6733TIP3   OH244393   4.657   4.177  11.051
 6733TIP3    H144394   4.730   4.187  11.112
 6733TIP3    H244395   4.588   4.233  11.086
 6734TIP3   OH244396   6.684   4.166  11.625
 6734TIP3    H144397   6.699   4.072  11.635
 6734TIP3    H244398   6.600   4.182  11.668
 6735TIP3   OH244399   5.495   3.972  11.499
 6735TIP3    H144400   5.504   3.978  11.594
 6735TIP3    H244401   5.424   3.910  11.484
 6736TIP3   OH244402   5.855   4.462  10.505
 6736TIP3    H144403   5.825   4.437  10.418
 6736TIP3    H244404   5.808   4.543  10.525
 6737TIP3   OH244405   4.990   4.250  10.682
 6737TIP3    H144406   5.038   4.231  10.762
 6737TIP3    H244407   4.898   4.248  10.707
 6738TIP3   OH244408   6.072   4.303  10.274
 6738TIP3    H144409   6.122   4.221  10.281
 6738TIP3    H244410   6.111   4.360  10.340
 6739TIP3   OH244411   6.136   4.464  10.497
 6739TIP3    H144412   6.042   4.462  10.513
 6739TIP3    H244413   6.173   4.407  10.565
 6740TIP3   OH244414   6.426   3.006  11.672
 6740TIP3    H144415   6.350   3.058  11.645
 6740TIP3    H244416   6.418   2.925  11.623
 6741TIP3   OH244417   4.923   3.609  11.428
 6741TIP3    H144418   4.919   3.636  11.519
 6741TIP3    H244419   4.832   3.602  11.400
 6742TIP3   OH244420   5.185   2.348  11.086
 6742TIP3    H144421   5.108   2.352  11.030
 6742TIP3    H244422   5.183   2.431  11.135
 6743TIP3   OH244423   5.845   2.378  11.418
 6743TIP3    H144424   5.879   2.332  11.495
 6743TIP3    H244425   5.753   2.393  11.439
 6744TIP3   OH244426   6.197   2.865  11.513
 6744TIP3    H144427   6.111   2.827  11.535
 6744TIP3    H244428   6.183   2.959  11.518
 6745TIP3   OH244429   6.268   3.481  10.157
 6745TIP3    H144430   6.242   3.560  10.109
 6745TIP3    H244431   6.334   3.511  10.219
 6746TIP3   OH244432   5.637   2.795  10.256
 6746TIP3    H144433   5.614   2.717  10.306
 6746TIP3    H244434   5.556   2.820  10.212
 6747TIP3   OH244435   5.231   3.041  11.156
 6747TIP3    H144436   5.197   3.084  11.235
 6747TIP3    H244437   5.259   3.113  11.100
 6748TIP3   OH244438   5.098   2.963  10.626
 6748TIP3    H144439   5.077   3.056  10.636
 6748TIP3    H244440   5.184   2.962  10.584
 6749TIP3   OH244441   5.871   3.154  10.615
 6749TIP3    H144442   5.853   3.244  10.587
 6749TIP3    H244443   5.927   3.119  10.547
 6750TIP3   OH244444   5.702   2.997  11.709
 6750TIP3    H144445   5.680   2.904  11.701
 6750TIP3    H244446   5.762   3.001  11.783
 6751TIP3   OH244447   5.944   2.987  10.825
 6751TIP3    H144448   5.923   3.049  10.755
 6751TIP3    H244449   6.007   2.927  10.785
 6752TIP3   OH244450   4.858   2.935  11.157
 6752TIP3    H144451   4.848   2.903  11.246
 6752TIP3    H244452   4.935   2.890  11.123
 6753TIP3   OH244453   5.365   2.829  10.182
 6753TIP3    H144454   5.322   2.781  10.253
 6753TIP3    H244455   5.326   2.795  10.102
 6754TIP3   OH244456   4.641   2.628  10.730
 6754TIP3    H144457   4.712   2.622  10.794
 6754TIP3    H244458   4.632   2.721  10.712
 6755TIP3   OH244459   4.677   2.800  10.339
 6755TIP3    H144460   4.752   2.856  10.323
 6755TIP3    H244461   4.610   2.859  10.374
 6756TIP3   OH244462   6.057   3.129  11.328
 6756TIP3    H144463   6.045   3.080  11.247
 6756TIP3    H244464   5.994   3.091  11.389
 6757TIP3   OH244465   5.595   2.694  10.826
 6757TIP3    H144466   5.618   2.724  10.914
 6757TIP3    H244467   5.596   2.599  10.832
 6758TIP3   OH244468   4.888   2.778  10.587
 6758TIP3    H144469   4.808   2.828  10.605
 6758TIP3    H244470   4.957   2.844  10.583
 6759TIP3   OH244471   5.350   2.961  10.517
 6759TIP3    H144472   5.434   2.931  10.553
 6759TIP3    H244473   5.375   3.015  10.442
 6760TIP3   OH244474   6.107   2.730  11.122
 6760TIP3    H144475   6.077   2.694  11.206
 6760TIP3    H244476   6.093   2.659  11.059
 6761TIP3   OH244477   5.424   3.086  10.282
 6761TIP3    H144478   5.405   3.006  10.233
 6761TIP3    H244479   5.498   3.124  10.237
 6762TIP3   OH244480   6.490   4.483  11.712
 6762TIP3    H144481   6.507   4.497  11.619
 6762TIP3    H244482   6.563   4.525  11.757
 6763TIP3   OH244483   4.861   3.676  11.690
 6763TIP3    H144484   4.932   3.663  11.753
 6763TIP3    H244485   4.784   3.638  11.732
 6764TIP3   OH244486   5.665   3.138  10.802
 6764TIP3    H144487   5.727   3.148  10.729
 6764TIP3    H244488   5.712   3.086  10.867
 6765TIP3   OH244489   5.123   2.546  10.595
 6765TIP3    H144490   5.179   2.470  10.611
 6765TIP3    H244491   5.169   2.595  10.527
 6766TIP3   OH244492   5.385   2.881  11.322
 6766TIP3    H144493   5.335   2.928  11.255
 6766TIP3    H244494   5.466   2.932  11.330
 6767TIP3   OH244495   5.592   3.562  10.456
 6767TIP3    H144496   5.539   3.507  10.398
 6767TIP3    H244497   5.528   3.610  10.508
 6768TIP3   OH244498   6.550   3.590  11.213
 6768TIP3    H144499   6.627   3.620  11.164
 6768TIP3    H244500   6.483   3.575  11.146
 6769TIP3   OH244501   5.824   2.863  10.449
 6769TIP3    H144502   5.771   2.847  10.371
 6769TIP3    H244503   5.890   2.926  10.421
 6770TIP3   OH244504   5.746   3.848  11.507
 6770TIP3    H144505   5.736   3.825  11.600
 6770TIP3    H244506   5.670   3.904  11.488
 6771TIP3   OH244507   6.034   3.049  10.409
 6771TIP3    H144508   6.098   2.987  10.444
 6771TIP3    H244509   6.087   3.118  10.369
 6772TIP3   OH244510   5.174   3.630  10.924
 6772TIP3    H144511   5.191   3.579  10.846
 6772TIP3    H244512   5.215   3.581  10.995
 6773TIP3   OH244513   5.805   3.745  10.432
 6773TIP3    H144514   5.765   3.832  10.433
 6773TIP3    H244515   5.731   3.684  10.435
 6774TIP3   OH244516   4.722   3.325  11.575
 6774TIP3    H144517   4.772   3.335  11.656
 6774TIP3    H244518   4.644   3.275  11.600
 6775TIP3   OH244519   5.501   3.193  11.694
 6775TIP3    H144520   5.472   3.181  11.604
 6775TIP3    H244521   5.573   3.131  11.704
 6776TIP3   OH244522   6.022   3.905  11.518
 6776TIP3    H144523   5.931   3.881  11.501
 6776TIP3    H244524   6.022   3.936  11.608
 6777TIP3   OH244525   6.758   3.042  10.351
 6777TIP3    H144526   6.668   3.010  10.352
 6777TIP3    H244527   6.753   3.129  10.312
 6778TIP3   OH244528   6.694   3.652  11.528
 6778TIP3    H144529   6.617   3.700  11.498
 6778TIP3    H244530   6.760   3.668  11.460
 6779TIP3   OH244531   6.509   4.067  10.361
 6779TIP3    H144532   6.494   3.973  10.356
 6779TIP3    H244533   6.587   4.082  10.307
 6780TIP3   OH244534   6.340   3.523  11.039
 6780TIP3    H144535   6.263   3.488  11.084
 6780TIP3    H244536   6.373   3.449  10.988
 6781TIP3   OH244537   5.313   3.916  10.729
 6781TIP3    H144538   5.308   4.000  10.683
 6781TIP3    H244539   5.235   3.915  10.784
 6782TIP3   OH244540   4.823   3.264  10.395
 6782TIP3    H144541   4.841   3.358  10.392
 6782TIP3    H244542   4.728   3.257  10.385
 6783TIP3   OH244543   5.383   3.686  10.591
 6783TIP3    H144544   5.366   3.764  10.645
 6783TIP3    H244545   5.334   3.617  10.635
 6784TIP3   OH244546   5.403   4.184  11.344
 6784TIP3    H144547   5.447   4.258  11.387
 6784TIP3    H244548   5.437   4.107  11.387
 6785TIP3   OH244549   5.257   4.165  10.615
 6785TIP3    H144550   5.164   4.189  10.617
 6785TIP3    H244551   5.303   4.244  10.642
 6786TIP3   OH244552   5.744   3.701  11.269
 6786TIP3    H144553   5.741   3.751  11.351
 6786TIP3    H244554   5.837   3.679  11.258
 6787TIP3   OH244555   6.302   3.806  10.371
 6787TIP3    H144556   6.355   3.726  10.365
 6787TIP3    H244557   6.220   3.776  10.412
 6788TIP3   OH244558   6.307   4.224  11.470
 6788TIP3    H144559   6.212   4.222  11.465
 6788TIP3    H244560   6.332   4.294  11.409
 6789TIP3   OH244561   6.786   4.394  10.293
 6789TIP3    H144562   6.835   4.476  10.281
 6789TIP3    H244563   6.698   4.422  10.317
 6790TIP3   OH244564   4.919   2.574  11.381
 6790TIP3    H144565   4.895   2.667  11.376
 6790TIP3    H244566   4.916   2.553  11.474
 6791TIP3   OH244567   6.444   3.560  10.359
 6791TIP3    H144568   6.406   3.492  10.415
 6791TIP3    H244569   6.538   3.555  10.376
 6792TIP3   OH244570   4.860   4.264  11.223
 6792TIP3    H144571   4.940   4.227  11.259
 6792TIP3    H244572   4.846   4.344  11.273
 6793TIP3   OH244573   5.315   3.817  10.354
 6793TIP3    H144574   5.343   3.775  10.435
 6793TIP3    H244575   5.353   3.905  10.358
 6794TIP3   OH244576   4.880   3.539  10.420
 6794TIP3    H144577   4.802   3.595  10.431
 6794TIP3    H244578   4.942   3.593  10.371
 6795TIP3   OH244579   6.007   2.598  11.348
 6795TIP3    H144580   5.991   2.647  11.428
 6795TIP3    H244581   5.956   2.518  11.358
 6796TIP3   OH244582   5.913   2.668  10.625
 6796TIP3    H144583   5.885   2.735  10.562
 6796TIP3    H244584   5.994   2.704  10.663
 6797TIP3   OH244585   5.690   3.995  10.437
 6797TIP3    H144586   5.598   4.018  10.440
 6797TIP3    H244587   5.733   4.061  10.492
 6798TIP3   OH244588   5.585   2.847  10.599
 6798TIP3    H144589   5.675   2.869  10.572
 6798TIP3    H244590   5.596   2.806  10.685
 6799TIP3   OH244591   5.895   2.991  11.504
 6799TIP3    H144592   5.826   3.019  11.565
 6799TIP3    H244593   5.908   2.898  11.524
 6800TIP3   OH244594   5.725   2.468  10.594
 6800TIP3    H144595   5.691   2.456  10.682
 6800TIP3    H244596   5.798   2.529  10.604
 6801TIP3   OH244597   5.423   4.073  10.413
 6801TIP3    H144598   5.456   4.154  10.374
 6801TIP3    H244599   5.362   4.103  10.481
 6802TIP3   OH244600   5.283   2.703  10.425
 6802TIP3    H144601   5.296   2.789  10.463
 6802TIP3    H244602   5.369   2.661  10.431
 6803TIP3   OH244603   6.452   2.765  11.526
 6803TIP3    H144604   6.365   2.786  11.494
 6803TIP3    H244605   6.509   2.774  11.449
 6804TIP3   OH244606   6.381   3.251  10.963
 6804TIP3    H144607   6.299   3.259  11.012
 6804TIP3    H244608   6.423   3.173  10.999
 6805TIP3   OH244609   5.059   3.704  10.279
 6805TIP3    H144610   5.116   3.769  10.320
 6805TIP3    H244611   5.118   3.648  10.229
 6806TIP3   OH244612   4.866   3.001  10.309
 6806TIP3    H144613   4.851   3.089  10.344
 6806TIP3    H244614   4.936   3.013  10.244
 6807TIP3   OH244615   6.428   4.315  11.037
 6807TIP3    H144616   6.417   4.375  10.963
 6807TIP3    H244617   6.521   4.319  11.057
 6808TIP3   OH244618   4.956   2.341  10.931
 6808TIP3    H144619   4.928   2.322  10.841
 6808TIP3    H244620   4.938   2.261  10.979
 6809TIP3   OH244621   4.643   3.992  10.496
 6809TIP3    H144622   4.656   4.007  10.589
 6809TIP3    H244623   4.642   4.080  10.457
 6810TIP3   OH244624   4.711   4.480  11.738
 6810TIP3    H144625   4.786   4.449  11.788
 6810TIP3    H244626   4.690   4.408  11.678
 6811TIP3   OH244627   5.127   4.195  11.765
 6811TIP3    H144628   5.220   4.201  11.785
 6811TIP3    H244629   5.122   4.133  11.692
 6812TIP3   OH244630   5.764   4.069  10.181
 6812TIP3    H144631   5.735   4.035  10.265
 6812TIP3    H244632   5.836   4.011  10.155
 6813TIP3   OH244633   5.989   3.988  11.786
 6813TIP3    H144634   5.982   3.915  11.847
 6813TIP3    H244635   6.068   4.035  11.813
 6814TIP3   OH244636   6.234   4.080  10.317
 6814TIP3    H144637   6.231   3.985  10.326
 6814TIP3    H244638   6.327   4.102  10.327
 6815TIP3   OH244639   4.612   3.604  11.805
 6815TIP3    H144640   4.566   3.545  11.865
 6815TIP3    H244641   4.554   3.612  11.729
 6816TIP3   OH244642   5.290   3.592  10.186
 6816TIP3    H144643   5.349   3.524  10.218
 6816TIP3    H244644   5.320   3.672  10.228
 6817TIP3   OH244645   5.321   3.703  11.748
 6817TIP3    H144646   5.305   3.738  11.661
 6817TIP3    H244647   5.368   3.621  11.733
 6818TIP3   OH244648   6.214   3.678  11.528
 6818TIP3    H144649   6.299   3.708  11.497
 6818TIP3    H244650   6.157   3.754  11.522
 6819TIP3   OH244651   4.864   3.341  11.810
 6819TIP3    H144652   4.954   3.354  11.841
 6819TIP3    H244653   4.812   3.333  11.890
 6820TIP3   OH244654   5.448   3.387  10.293
 6820TIP3    H144655   5.393   3.314  10.322
 6820TIP3    H244656   5.514   3.345  10.237
 6821TIP3   OH244657   5.171   3.177  11.389
 6821TIP3    H144658   5.093   3.231  11.399
 6821TIP3    H244659   5.243   3.239  11.390
 6822TIP3   OH244660   5.629   3.228  10.152
 6822TIP3    H144661   5.646   3.237  10.059
 6822TIP3    H244662   5.715   3.234  10.193
 6823TIP3   OH244663   5.941   3.518  11.954
 6823TIP3    H144664   6.031   3.495  11.932
 6823TIP3    H244665   5.895   3.434  11.956
 6824TIP3   OH244666   6.740   3.621  19.811
 6824TIP3    H144667   6.653   3.652  19.786
 6824TIP3    H244668   6.723   3.551  19.875
 6825TIP3   OH244669   5.134   2.914  11.463
 6825TIP3    H144670   5.219   2.877  11.437
 6825TIP3    H244671   5.144   3.008  11.452
 6826TIP3   OH244672   5.399   2.605  11.337
 6826TIP3    H144673   5.402   2.700  11.336
 6826TIP3    H244674   5.313   2.584  11.299
 6827TIP3   OH244675   5.378   3.357  11.367
 6827TIP3    H144676   5.458   3.397  11.401
 6827TIP3    H244677   5.359   3.405  11.286
 6828TIP3   OH244678   5.906   2.977  11.899
 6828TIP3    H144679   5.919   2.910  11.966
 6828TIP3    H244680   5.987   2.975  11.847
 6829TIP3   OH244681   6.258   3.426  11.639
 6829TIP3    H144682   6.224   3.507  11.601
 6829TIP3    H244683   6.352   3.427  11.619
 6830TIP3   OH244684   4.874   2.843  11.417
 6830TIP3    H144685   4.829   2.840  11.502
 6830TIP3    H244686   4.964   2.870  11.439
 6831TIP3   OH244687   5.563   2.412  11.442
 6831TIP3    H144688   5.515   2.488  11.409
 6831TIP3    H244689   5.518   2.337  11.403
 6832TIP3   OH244690   5.668   2.720  11.681
 6832TIP3    H144691   5.641   2.688  11.767
 6832TIP3    H244692   5.611   2.674  11.620
 6833TIP3   OH244693   5.940   2.728  11.598
 6833TIP3    H144694   5.848   2.722  11.622
 6833TIP3    H244695   5.986   2.678  11.666
 6834TIP3   OH244696   6.035   2.584  11.814
 6834TIP3    H144697   6.051   2.490  11.827
 6834TIP3    H244698   6.032   2.620  11.903
 6835TIP3   OH244699   4.763   2.767  11.668
 6835TIP3    H144700   4.791   2.676  11.658
 6835TIP3    H244701   4.809   2.798  11.746
 6836TIP3   OH244702   5.530   2.326  11.706
 6836TIP3    H144703   5.587   2.249  11.706
 6836TIP3    H244704   5.543   2.365  11.619
 6837TIP3   OH244705   5.338   2.470  11.842
 6837TIP3    H144706   5.393   2.408  11.793
 6837TIP3    H244707   5.400   2.535  11.875
 6838TIP3   OH244708   5.529   4.314  10.328
 6838TIP3    H144709   5.624   4.316  10.314
 6838TIP3    H244710   5.496   4.387  10.276
 6839TIP3   OH244711   4.808   3.765  10.182
 6839TIP3    H144712   4.897   3.748  10.213
 6839TIP3    H244713   4.819   3.800  10.094
 6840TIP3   OH244714   4.520   4.399  10.668
 6840TIP3    H144715   4.451   4.335  10.654
 6840TIP3    H244716   4.582   4.355  10.726
 6841TIP3   OH244717   4.731   4.274  10.806
 6841TIP3    H144718   4.695   4.218  10.875
 6841TIP3    H244719   4.789   4.334  10.852
 6842TIP3   OH244720   6.692   4.352  11.126
 6842TIP3    H144721   6.674   4.308  11.209
 6842TIP3    H244722   6.724   4.438  11.151
 6843TIP3   OH244723   6.614   4.245  11.367
 6843TIP3    H144724   6.565   4.165  11.346
 6843TIP3    H244725   6.654   4.227  11.452
 6844TIP3   OH244726   6.536   3.788  11.908
 6844TIP3    H144727   6.445   3.806  11.934
 6844TIP3    H244728   6.587   3.857  11.950
 6845TIP3   OH244729   6.717   3.517  10.424
 6845TIP3    H144730   6.785   3.583  10.423
 6845TIP3    H244731   6.732   3.468  10.506
 6846TIP3   OH244732   6.748   3.340  10.640
 6846TIP3    H144733   6.660   3.314  10.667
 6846TIP3    H244734   6.800   3.336  10.720
 6847TIP3   OH244735   6.801   3.649  11.110
 6847TIP3    H144736   6.847   3.591  11.049
 6847TIP3    H244737   6.821   3.737  11.079
 6848TIP3   OH244738   6.447   4.022  11.331
 6848TIP3    H144739   6.386   4.074  11.383
 6848TIP3    H244740   6.403   4.010  11.247
 6849TIP3   OH244741   6.769   3.305  10.256
 6849TIP3    H144742   6.739   3.336  10.171
 6849TIP3    H244743   6.745   3.375  10.317
 6850TIP3   OH244744   6.497   2.936  10.333
 6850TIP3    H144745   6.430   2.992  10.294
 6850TIP3    H244746   6.511   2.867  10.268
 6851TIP3   OH244747   6.489   3.247  10.710
 6851TIP3    H144748   6.492   3.152  10.700
 6851TIP3    H244749   6.452   3.261  10.798
 6852TIP3   OH244750   4.632   3.398  11.151
 6852TIP3    H144751   4.627   3.412  11.056
 6852TIP3    H244752   4.705   3.337  11.161
 6853TIP3   OH244753   6.526   3.437  11.588
 6853TIP3    H144754   6.561   3.351  11.563
 6853TIP3    H244755   6.587   3.500  11.550
 6854TIP3   OH244756   6.621   3.174  11.575
 6854TIP3    H144757   6.554   3.120  11.618
 6854TIP3    H244758   6.690   3.182  11.641
 6855TIP3   OH244759   6.535   2.748  10.141
 6855TIP3    H144760   6.627   2.725  10.142
 6855TIP3    H244761   6.494   2.683  10.085
 6856TIP3   OH244762   6.341   2.771  10.521
 6856TIP3    H144763   6.378   2.683  10.528
 6856TIP3    H244764   6.405   2.819  10.468
 6857TIP3   OH244765   6.506   3.024  11.063
 6857TIP3    H144766   6.592   3.038  11.022
 6857TIP3    H244767   6.524   3.029  11.157
 6858TIP3   OH244768   6.624   3.086  11.315
 6858TIP3    H144769   6.614   3.105  11.408
 6858TIP3    H244770   6.654   3.168  11.277
 6859TIP3   OH244771   4.527   2.897  11.589
 6859TIP3    H144772   4.605   2.850  11.618
 6859TIP3    H244773   4.471   2.902  11.666
 6860TIP3   OH244774   6.786   2.249  11.856
 6860TIP3    H144775   6.844   2.204  11.794
 6860TIP3    H244776   6.713   2.280  11.802
 6861TIP3   OH244777   6.448   2.508  10.552
 6861TIP3    H144778   6.513   2.480  10.616
 6861TIP3    H244779   6.381   2.440  10.556
 6862TIP3   OH244780   4.889   2.593  10.844
 6862TIP3    H144781   4.913   2.519  10.899
 6862TIP3    H244782   4.959   2.657  10.858
 6863TIP3   OH244783   4.402   3.124  10.955
 6863TIP3    H144784   4.496   3.104  10.956
 6863TIP3    H244785   4.391   3.189  11.024
 6864TIP3   OH244786   6.571   2.353  11.707
 6864TIP3    H144787   6.565   2.448  11.722
 6864TIP3    H244788   6.574   2.344  11.611
 6865TIP3   OH244789   6.795   2.671  10.156
 6865TIP3    H144790   6.828   2.584  10.178
 6865TIP3    H244791   6.858   2.732  10.195
 6866TIP3   OH244792   4.719   2.549  10.448
 6866TIP3    H144793   4.631   2.528  10.479
 6866TIP3    H244794   4.711   2.638  10.412
 6867TIP3   OH244795   6.290   4.316  10.678
 6867TIP3    H144796   6.368   4.286  10.632
 6867TIP3    H244797   6.323   4.380  10.742
 6868TIP3   OH244798   4.548   2.347  11.379
 6868TIP3    H144799   4.476   2.291  11.407
 6868TIP3    H244800   4.506   2.422  11.338
 6869TIP3   OH244801   4.854   3.929  11.581
 6869TIP3    H144802   4.760   3.947  11.571
 6869TIP3    H244803   4.857   3.842  11.621
 6870TIP3   OH244804   5.122   4.213  11.335
 6870TIP3    H144805   5.116   4.305  11.312
 6870TIP3    H244806   5.216   4.193  11.332
 6871TIP3   OH244807   5.682   4.381  11.655
 6871TIP3    H144808   5.705   4.303  11.706
 6871TIP3    H244809   5.765   4.413  11.621
 6872TIP3   OH244810   5.924   4.478  11.556
 6872TIP3    H144811   5.979   4.423  11.500
 6872TIP3    H244812   5.982   4.507  11.626
 6873TIP3   OH244813   6.557   2.297  11.437
 6873TIP3    H144814   6.489   2.335  11.382
 6873TIP3    H244815   6.546   2.202  11.428
 6874TIP3   OH244816   4.826   4.515  11.338
 6874TIP3    H144817   4.740   4.549  11.313
 6874TIP3    H244818   4.849   4.564  11.418
 6875TIP3   OH244819   5.094   4.471  11.257
 6875TIP3    H144820   5.006   4.504  11.279
 6875TIP3    H244821   5.127   4.534  11.193
 6876TIP3   OH244822   5.906   4.453  11.164
 6876TIP3    H144823   5.898   4.493  11.078
 6876TIP3    H244824   5.862   4.514  11.223
 6877TIP3   OH244825   6.063   4.329  11.352
 6877TIP3    H144826   5.998   4.361  11.289
 6877TIP3    H244827   6.146   4.367  11.321
 6878TIP3   OH244828   6.311   4.414  11.264
 6878TIP3    H144829   6.340   4.505  11.259
 6878TIP3    H244830   6.345   4.373  11.185
 6879TIP3   OH244831   4.925   4.380  10.974
 6879TIP3    H144832   4.894   4.357  11.061
 6879TIP3    H244833   4.997   4.320  10.957
 6880TIP3   OH244834   5.110   4.181  10.923
 6880TIP3    H144835   5.097   4.086  10.934
 6880TIP3    H244836   5.192   4.199  10.969
 6881TIP3   OH244837   5.348   4.189  11.067
 6881TIP3    H144838   5.382   4.103  11.041
 6881TIP3    H244839   5.368   4.194  11.161
 6882TIP3   OH244840   5.609   2.415  10.844
 6882TIP3    H144841   5.528   2.369  10.867
 6882TIP3    H244842   5.678   2.362  10.884
 6883TIP3   OH244843   6.477   2.241  10.874
 6883TIP3    H144844   6.536   2.302  10.829
 6883TIP3    H244845   6.391   2.284  10.870
 6884TIP3   OH244846   6.648   2.395  10.714
 6884TIP3    H144847   6.695   2.316  10.689
 6884TIP3    H244848   6.717   2.458  10.735
 6885TIP3   OH244849   4.858   2.316  10.660
 6885TIP3    H144850   4.769   2.283  10.653
 6885TIP3    H244851   4.913   2.239  10.653
 6886TIP3   OH244852   4.691   2.390  10.221
 6886TIP3    H144853   4.772   2.350  10.189
 6886TIP3    H244854   4.717   2.436  10.300
 6887TIP3   OH244855   5.303   2.336  10.647
 6887TIP3    H144856   5.389   2.351  10.607
 6887TIP3    H244857   5.322   2.314  10.738
 6888TIP3   OH244858   6.219   2.329  10.841
 6888TIP3    H144859   6.187   2.348  10.753
 6888TIP3    H244860   6.165   2.256  10.871
 6889TIP3   OH244861   6.288   2.271  10.542
 6889TIP3    H144862   6.201   2.243  10.514
 6889TIP3    H244863   6.318   2.202  10.601
 6890TIP3   OH244864   4.646   4.277  10.445
 6890TIP3    H144865   4.598   4.323  10.376
 6890TIP3    H244866   4.618   4.320  10.526
 6891TIP3   OH244867   4.927   2.262  10.174
 6891TIP3    H144868   4.934   2.193  10.240
 6891TIP3    H244869   4.995   2.241  10.110
 6892TIP3   OH244870   5.543   2.619  10.453
 6892TIP3    H144871   5.604   2.553  10.486
 6892TIP3    H244872   5.559   2.696  10.507
 6893TIP3   OH244873   5.800   4.329  10.260
 6893TIP3    H144874   5.896   4.333  10.258
 6893TIP3    H244875   5.779   4.245  10.220
 6894TIP3   OH244876   6.529   4.270  10.547
 6894TIP3    H144877   6.522   4.197  10.485
 6894TIP3    H244878   6.539   4.347  10.491
 6895TIP3   OH244879   4.870   2.510  11.648
 6895TIP3    H144880   4.828   2.426  11.632
 6895TIP3    H244881   4.942   2.490  11.707
 6896TIP3   OH244882   5.066   2.421  11.817
 6896TIP3    H144883   5.158   2.444  11.826
 6896TIP3    H244884   5.063   2.326  11.830
 6897TIP3   OH244885   4.916   4.342  10.430
 6897TIP3    H144886   4.827   4.307  10.426
 6897TIP3    H244887   4.955   4.299  10.505
 6898TIP3   OH244888   6.091   2.307  11.858
 6898TIP3    H144889   6.070   2.250  11.931
 6898TIP3    H244890   6.180   2.281  11.832
 6899TIP3   OH244891   6.425   4.214  11.719
 6899TIP3    H144892   6.381   4.210  11.634
 6899TIP3    H244893   6.441   4.307  11.735
 6900TIP3   OH244894   8.284   3.535  10.592
 6900TIP3    H144895   8.274   3.629  10.573
 6900TIP3    H244896   8.198   3.498  10.575
 6901TIP3   OH244897   7.900   3.364  11.056
 6901TIP3    H144898   7.935   3.283  11.090
 6901TIP3    H244899   7.873   3.343  10.966
 6902TIP3   OH244900   7.100   3.271  11.232
 6902TIP3    H144901   7.134   3.182  11.240
 6902TIP3    H244902   7.130   3.315  11.311
 6903TIP3   OH244903   8.568   3.720  10.878
 6903TIP3    H144904   8.588   3.634  10.913
 6903TIP3    H244905   8.565   3.777  10.954
 6904TIP3   OH244906   7.372   3.877  10.919
 6904TIP3    H144907   7.361   3.782  10.908
 6904TIP3    H244908   7.450   3.886  10.974
 6905TIP3   OH244909   6.924   3.129  10.555
 6905TIP3    H144910   6.872   3.205  10.582
 6905TIP3    H244911   6.873   3.088  10.485
 6906TIP3   OH244912   6.967   3.297  10.817
 6906TIP3    H144913   6.985   3.205  10.838
 6906TIP3    H244914   7.035   3.320  10.753
 6907TIP3   OH244915   8.241   4.323  10.862
 6907TIP3    H144916   8.296   4.267  10.808
 6907TIP3    H244917   8.248   4.286  10.950
 6908TIP3   OH244918   7.819   3.617  11.155
 6908TIP3    H144919   7.853   3.533  11.122
 6908TIP3    H244920   7.898   3.667  11.176
 6909TIP3   OH244921   8.893   2.619  11.216
 6909TIP3    H144922   8.894   2.699  11.269
 6909TIP3    H244923   8.913   2.649  11.128
 6910TIP3   OH244924   8.212   2.940  11.044
 6910TIP3    H144925   8.266   2.861  11.043
 6910TIP3    H244926   8.255   2.999  10.981
 6911TIP3   OH244927   7.494   2.749  10.788
 6911TIP3    H144928   7.479   2.834  10.747
 6911TIP3    H244929   7.461   2.686  10.724
 6912TIP3   OH244930   8.460   2.963  10.651
 6912TIP3    H144931   8.483   2.920  10.733
 6912TIP3    H244932   8.543   2.971  10.604
 6913TIP3   OH244933   7.022   3.034  10.892
 6913TIP3    H144934   7.066   2.982  10.959
 6913TIP3    H244935   7.065   3.009  10.810
 6914TIP3   OH244936   7.592   3.225  10.818
 6914TIP3    H144937   7.683   3.197  10.817
 6914TIP3    H244938   7.543   3.149  10.788
 6915TIP3   OH244939   8.887   2.840  11.379
 6915TIP3    H144940   8.846   2.925  11.363
 6915TIP3    H244941   8.960   2.859  11.438
 6916TIP3   OH244942   7.314   2.641  11.202
 6916TIP3    H144943   7.310   2.700  11.127
 6916TIP3    H244944   7.249   2.676  11.263
 6917TIP3   OH244945   8.272   3.812  10.500
 6917TIP3    H144946   8.207   3.772  10.441
 6917TIP3    H244947   8.232   3.895  10.527
 6918TIP3   OH244948   7.556   3.554  11.220
 6918TIP3    H144949   7.512   3.633  11.251
 6918TIP3    H244950   7.645   3.583  11.198
 6919TIP3   OH244951   8.543   2.872  10.895
 6919TIP3    H144952   8.507   2.797  10.942
 6919TIP3    H244953   8.612   2.907  10.952
 6920TIP3   OH244954   7.314   2.808  10.985
 6920TIP3    H144955   7.353   2.886  11.025
 6920TIP3    H244956   7.378   2.780  10.919
 6921TIP3   OH244957   7.417   3.789  11.336
 6921TIP3    H144958   7.425   3.881  11.309
 6921TIP3    H244959   7.326   3.780  11.362
 6922TIP3   OH244960   6.929   3.703  10.406
 6922TIP3    H144961   6.965   3.725  10.320
 6922TIP3    H244962   6.917   3.787  10.450
 6923TIP3   OH244963   8.528   3.923  11.066
 6923TIP3    H144964   8.436   3.923  11.091
 6923TIP3    H244965   8.534   3.988  10.995
 6924TIP3   OH244966   8.666   2.513  11.345
 6924TIP3    H144967   8.579   2.539  11.314
 6924TIP3    H244968   8.726   2.548  11.280
 6925TIP3   OH244969   7.643   2.306  10.955
 6925TIP3    H144970   7.649   2.234  11.018
 6925TIP3    H244971   7.568   2.357  10.984
 6926TIP3   OH244972   8.397   4.172  10.687
 6926TIP3    H144973   8.410   4.078  10.695
 6926TIP3    H244974   8.483   4.210  10.707
 6927TIP3   OH244975   8.433   3.902  10.716
 6927TIP3    H144976   8.389   3.851  10.648
 6927TIP3    H244977   8.484   3.837  10.765
 6928TIP3   OH244978   8.795   3.722  11.424
 6928TIP3    H144979   8.788   3.657  11.354
 6928TIP3    H244980   8.767   3.804  11.384
 6929TIP3   OH244981   8.045   3.406  10.521
 6929TIP3    H144982   7.971   3.465  10.505
 6929TIP3    H244983   8.052   3.354  10.441
 6930TIP3   OH244984   8.092   3.220  10.317
 6930TIP3    H144985   8.174   3.257  10.283
 6930TIP3    H244986   8.119   3.141  10.364
 6931TIP3   OH244987   8.924   3.314  11.260
 6931TIP3    H144988   8.868   3.391  11.257
 6931TIP3    H244989   8.980   3.323  11.182
 6932TIP3   OH244990   8.505   3.405  10.503
 6932TIP3    H144991   8.434   3.448  10.551
 6932TIP3    H244992   8.554   3.357  10.570
 6933TIP3   OH244993   8.577   3.131  11.541
 6933TIP3    H144994   8.582   3.223  11.568
 6933TIP3    H244995   8.500   3.097  11.587
 6934TIP3   OH244996   7.504   3.454  10.678
 6934TIP3    H144997   7.467   3.419  10.597
 6934TIP3    H244998   7.540   3.377  10.723
 6935TIP3   OH244999   7.642   3.930  10.987
 6935TIP3    H145000   7.648   3.920  10.892
 6935TIP3    H245001   7.709   3.871  11.021
 6936TIP3   OH245002   7.537   3.279  11.091
 6936TIP3    H145003   7.561   3.270  10.999
 6936TIP3    H245004   7.549   3.372  11.110
 6937TIP3   OH245005   8.260   3.953  11.119
 6937TIP3    H145006   8.256   4.049  11.121
 6937TIP3    H245007   8.170   3.925  11.128
 6938TIP3   OH245008   7.583   3.868  11.549
 6938TIP3    H145009   7.532   3.943  11.580
 6938TIP3    H245010   7.535   3.836  11.474
 6939TIP3   OH245011   8.376   3.257  10.310
 6939TIP3    H145012   8.416   3.308  10.381
 6939TIP3    H245013   8.423   3.285  10.232
 6940TIP3   OH245014   7.152   3.362  11.500
 6940TIP3    H145015   7.166   3.440  11.554
 6940TIP3    H245016   7.057   3.352  11.497
 6941TIP3   OH245017   8.153   4.055  10.582
 6941TIP3    H145018   8.230   4.111  10.583
 6941TIP3    H245019   8.113   4.068  10.668
 6942TIP3   OH245020   7.422   4.063  11.664
 6942TIP3    H145021   7.380   4.145  11.638
 6942TIP3    H245022   7.350   4.004  11.684
 6943TIP3   OH245023   8.789   2.244  10.355
 6943TIP3    H145024   8.696   2.265  10.364
 6943TIP3    H245025   8.834   2.318  10.396
 6944TIP3   OH245026   7.391   3.356  10.437
 6944TIP3    H145027   7.315   3.413  10.423
 6944TIP3    H245028   7.364   3.271  10.403
 6945TIP3   OH245029   8.771   4.102  10.158
 6945TIP3    H145030   8.814   4.186  10.172
 6945TIP3    H245031   8.813   4.066  10.080
 6946TIP3   OH245032   6.920   3.630  11.364
 6946TIP3    H145033   6.883   3.628  11.275
 6946TIP3    H245034   6.916   3.539  11.393
 6947TIP3   OH245035   6.860   3.905  11.024
 6947TIP3    H145036   6.935   3.957  11.052
 6947TIP3    H245037   6.801   3.969  10.983
 6948TIP3   OH245038   8.934   3.998  11.558
 6948TIP3    H145039   8.928   3.918  11.611
 6948TIP3    H245040   8.862   4.053  11.590
 6949TIP3   OH245041   7.837   3.977  11.551
 6949TIP3    H145042   7.840   3.991  11.646
 6949TIP3    H245043   7.753   3.934  11.537
 6950TIP3   OH245044   8.141   4.526  10.504
 6950TIP3    H145045   8.104   4.476  10.432
 6950TIP3    H245046   8.108   4.615  10.491
 6951TIP3   OH245047   7.233   4.234  10.675
 6951TIP3    H145048   7.257   4.211  10.765
 6951TIP3    H245049   7.139   4.219  10.670
 6952TIP3   OH245050   8.344   4.323  10.281
 6952TIP3    H145051   8.395   4.246  10.256
 6952TIP3    H245052   8.389   4.358  10.358
 6953TIP3   OH245053   8.405   4.443  10.529
 6953TIP3    H145054   8.312   4.468  10.526
 6953TIP3    H245055   8.407   4.368  10.589
 6954TIP3   OH245056   8.780   2.991  11.661
 6954TIP3    H145057   8.711   3.048  11.628
 6954TIP3    H245058   8.755   2.903  11.633
 6955TIP3   OH245059   7.142   3.775  11.458
 6955TIP3    H145060   7.155   3.708  11.525
 6955TIP3    H245061   7.067   3.746  11.408
 6956TIP3   OH245062   7.410   2.419  11.060
 6956TIP3    H145063   7.346   2.412  10.990
 6956TIP3    H245064   7.385   2.499  11.107
 6957TIP3   OH245065   8.090   2.340  11.450
 6957TIP3    H145066   8.131   2.266  11.496
 6957TIP3    H245067   8.008   2.355  11.497
 6958TIP3   OH245068   8.412   2.769  11.523
 6958TIP3    H145069   8.378   2.748  11.610
 6958TIP3    H245070   8.395   2.863  11.513
 6959TIP3   OH245071   8.539   3.412  10.138
 6959TIP3    H145072   8.517   3.455  10.055
 6959TIP3    H245073   8.555   3.485  10.199
 6960TIP3   OH245074   8.007   2.747  10.214
 6960TIP3    H145075   7.941   2.710  10.273
 6960TIP3    H245076   7.987   2.708  10.129
 6961TIP3   OH245077   7.434   3.019  11.126
 6961TIP3    H145078   7.356   3.034  11.180
 6961TIP3    H245079   7.467   3.107  11.107
 6962TIP3   OH245080   7.426   3.017  10.705
 6962TIP3    H145081   7.331   3.021  10.693
 6962TIP3    H245082   7.460   2.986  10.621
 6963TIP3   OH245083   8.101   3.178  10.673
 6963TIP3    H145084   8.081   3.265  10.637
 6963TIP3    H245085   8.147   3.132  10.603
 6964TIP3   OH245086   7.867   3.108  11.581
 6964TIP3    H145087   7.824   3.031  11.619
 6964TIP3    H245088   7.950   3.114  11.628
 6965TIP3   OH245089   8.316   3.106  10.844
 6965TIP3    H145090   8.238   3.144  10.804
 6965TIP3    H245091   8.359   3.060  10.772
 6966TIP3   OH245092   7.221   3.026  11.300
 6966TIP3    H145093   7.263   3.062  11.378
 6966TIP3    H245094   7.194   2.937  11.326
 6967TIP3   OH245095   7.469   2.771  10.147
 6967TIP3    H145096   7.496   2.718  10.222
 6967TIP3    H245097   7.473   2.711  10.073
 6968TIP3   OH245098   6.867   2.562  10.743
 6968TIP3    H145099   6.943   2.589  10.795
 6968TIP3    H245100   6.891   2.584  10.653
 6969TIP3   OH245101   6.950   2.850  10.310
 6969TIP3    H145102   7.027   2.899  10.280
 6969TIP3    H245103   6.883   2.917  10.323
 6970TIP3   OH245104   7.975   3.086  11.085
 6970TIP3    H145105   8.055   3.035  11.077
 6970TIP3    H245106   7.931   3.050  11.163
 6971TIP3   OH245107   7.764   2.703  10.739
 6971TIP3    H145108   7.674   2.714  10.771
 6971TIP3    H245109   7.790   2.616  10.771
 6972TIP3   OH245110   7.146   2.993  10.645
 6972TIP3    H145111   7.077   3.047  10.607
 6972TIP3    H245112   7.138   2.909  10.601
 6973TIP3   OH245113   7.545   2.902  10.486
 6973TIP3    H145114   7.639   2.919  10.488
 6973TIP3    H245115   7.513   2.951  10.411
 6974TIP3   OH245116   8.422   2.660  11.027
 6974TIP3    H145117   8.413   2.637  11.119
 6974TIP3    H245118   8.424   2.577  10.980
 6975TIP3   OH245119   7.409   3.009  10.273
 6975TIP3    H145120   7.315   3.019  10.261
 6975TIP3    H245121   7.433   2.935  10.217
 6976TIP3   OH245122   8.732   4.429  11.659
 6976TIP3    H145123   8.739   4.460  11.569
 6976TIP3    H245124   8.792   4.485  11.709
 6977TIP3   OH245125   7.123   3.587  11.667
 6977TIP3    H145126   7.163   3.624  11.745
 6977TIP3    H245127   7.029   3.583  11.687
 6978TIP3   OH245128   7.868   3.162  10.838
 6978TIP3    H145129   7.946   3.166  10.783
 6978TIP3    H245130   7.898   3.124  10.920
 6979TIP3   OH245131   7.415   2.562  10.605
 6979TIP3    H145132   7.389   2.470  10.613
 6979TIP3    H245133   7.457   2.568  10.519
 6980TIP3   OH245134   7.594   2.886  11.314
 6980TIP3    H145135   7.545   2.921  11.239
 6980TIP3    H245136   7.682   2.922  11.304
 6981TIP3   OH245137   7.834   3.566  10.434
 6981TIP3    H145138   7.775   3.514  10.379
 6981TIP3    H245139   7.776   3.616  10.491
 6982TIP3   OH245140   8.787   3.549  11.207
 6982TIP3    H145141   8.865   3.584  11.163
 6982TIP3    H245142   8.726   3.532  11.135
 6983TIP3   OH245143   8.197   2.785  10.412
 6983TIP3    H145144   8.139   2.775  10.336
 6983TIP3    H245145   8.212   2.880  10.417
 6984TIP3   OH245146   8.085   3.887  11.478
 6984TIP3    H145147   8.090   3.822  11.548
 6984TIP3    H245148   8.000   3.930  11.490
 6985TIP3   OH245149   8.266   3.056  10.472
 6985TIP3    H145150   8.331   3.017  10.530
 6985TIP3    H245151   8.316   3.115  10.416
 6986TIP3   OH245152   7.393   3.607  10.883
 6986TIP3    H145153   7.427   3.559  10.807
 6986TIP3    H245154   7.394   3.542  10.954
 6987TIP3   OH245155   8.053   3.724  10.365
 6987TIP3    H145156   8.011   3.810  10.359
 6987TIP3    H245157   7.980   3.663  10.380
 6988TIP3   OH245158   6.878   3.365  11.491
 6988TIP3    H145159   6.849   3.326  11.573
 6988TIP3    H245160   6.809   3.343  11.428
 6989TIP3   OH245161   7.674   3.310  11.628
 6989TIP3    H145162   7.630   3.320  11.544
 6989TIP3    H245163   7.742   3.244  11.612
 6990TIP3   OH245164   8.287   4.069  11.561
 6990TIP3    H145165   8.223   4.014  11.516
 6990TIP3    H245166   8.289   4.035  11.651
 6991TIP3   OH245167   8.880   3.058  10.352
 6991TIP3    H145168   8.886   2.995  10.280
 6991TIP3    H245169   8.840   3.136  10.312
 6992TIP3   OH245170   9.017   3.630  11.569
 6992TIP3    H145171   8.939   3.669  11.530
 6992TIP3    H245172   9.081   3.627  11.498
 6993TIP3   OH245173   8.740   4.045  10.430
 6993TIP3    H145174   8.668   3.982  10.436
 6993TIP3    H245175   8.756   4.055  10.336
 6994TIP3   OH245176   8.595   3.472  11.014
 6994TIP3    H145177   8.507   3.477  11.051
 6994TIP3    H245178   8.601   3.385  10.975
 6995TIP3   OH245179   7.560   3.912  10.718
 6995TIP3    H145180   7.550   3.996  10.673
 6995TIP3    H245181   7.479   3.901  10.768
 6996TIP3   OH245182   7.054   3.284  10.278
 6996TIP3    H145183   7.089   3.367  10.311
 6996TIP3    H245184   6.959   3.296  10.278
 6997TIP3   OH245185   7.633   3.686  10.578
 6997TIP3    H145186   7.614   3.760  10.635
 6997TIP3    H245187   7.588   3.612  10.619
 6998TIP3   OH245188   7.688   4.166  11.403
 6998TIP3    H145189   7.732   4.251  11.398
 6998TIP3    H245190   7.752   4.108  11.444
 6999TIP3   OH245191   7.500   4.161  10.611
 6999TIP3    H145192   7.405   4.174  10.617
 6999TIP3    H245193   7.538   4.243  10.641
 7000TIP3   OH245194   8.057   3.765  11.226
 7000TIP3    H145195   8.062   3.812  11.309
 7000TIP3    H245196   8.145   3.730  11.212
 7001TIP3   OH245197   8.523   3.861  10.373
 7001TIP3    H145198   8.557   3.773  10.353
 7001TIP3    H245199   8.440   3.845  10.417
 7002TIP3   OH245200   8.526   4.121  11.429
 7002TIP3    H145201   8.444   4.098  11.472
 7002TIP3    H245202   8.503   4.193  11.369
 7003TIP3   OH245203   8.898   4.338  10.206
 7003TIP3    H145204   8.985   4.371  10.228
 7003TIP3    H245205   8.838   4.392  10.257
 7004TIP3   OH245206   7.132   2.770  11.378
 7004TIP3    H145207   7.039   2.790  11.378
 7004TIP3    H245208   7.144   2.710  11.452
 7005TIP3   OH245209   8.611   3.594  10.335
 7005TIP3    H145210   8.568   3.537  10.399
 7005TIP3    H245211   8.705   3.577  10.348
 7006TIP3   OH245212   7.145   4.096  11.351
 7006TIP3    H145213   7.136   4.006  11.382
 7006TIP3    H245214   7.138   4.149  11.430
 7007TIP3   OH245215   7.557   3.838  10.355
 7007TIP3    H145216   7.586   3.783  10.428
 7007TIP3    H245217   7.603   3.921  10.368
 7008TIP3   OH245218   7.161   3.523  10.382
 7008TIP3    H145219   7.086   3.574  10.412
 7008TIP3    H245220   7.218   3.587  10.339
 7009TIP3   OH245221   8.399   2.596  11.302
 7009TIP3    H145222   8.402   2.658  11.374
 7009TIP3    H245223   8.325   2.538  11.323
 7010TIP3   OH245224   8.216   2.617  10.626
 7010TIP3    H145225   8.212   2.667  10.544
 7010TIP3    H245226   8.254   2.677  10.689
 7011TIP3   OH245227   7.955   3.981  10.387
 7011TIP3    H145228   7.867   4.007  10.412
 7011TIP3    H245229   8.012   4.017  10.455
 7012TIP3   OH245230   7.818   2.889  10.550
 7012TIP3    H145231   7.870   2.960  10.588
 7012TIP3    H245232   7.801   2.830  10.624
 7013TIP3   OH245233   7.859   2.987  11.326
 7013TIP3    H145234   7.857   3.047  11.400
 7013TIP3    H245235   7.902   2.908  11.360
 7014TIP3   OH245236   7.983   2.473  10.574
 7014TIP3    H145237   7.937   2.464  10.658
 7014TIP3    H245238   8.064   2.518  10.596
 7015TIP3   OH245239   7.695   4.078  10.430
 7015TIP3    H145240   7.728   4.161  10.394
 7015TIP3    H245241   7.627   4.104  10.491
 7016TIP3   OH245242   7.558   2.646  10.378
 7016TIP3    H145243   7.545   2.727  10.426
 7016TIP3    H245244   7.652   2.630  10.381
 7017TIP3   OH245245   8.688   2.745  11.577
 7017TIP3    H145246   8.596   2.741  11.549
 7017TIP3    H245247   8.738   2.733  11.496
 7018TIP3   OH245248   8.567   3.207  10.927
 7018TIP3    H145249   8.479   3.171  10.916
 7018TIP3    H245250   8.615   3.138  10.971
 7019TIP3   OH245251   7.324   3.714  10.257
 7019TIP3    H145252   7.383   3.773  10.303
 7019TIP3    H245253   7.381   3.665  10.197
 7020TIP3   OH245254   7.138   3.035  10.213
 7020TIP3    H145255   7.110   3.120  10.246
 7020TIP3    H245256   7.134   3.043  10.118
 7021TIP3   OH245257   8.727   4.385  11.158
 7021TIP3    H145258   8.719   4.425  11.072
 7021TIP3    H245259   8.810   4.338  11.155
 7022TIP3   OH245260   7.222   2.380  10.864
 7022TIP3    H145261   7.256   2.363  10.776
 7022TIP3    H245262   7.192   2.294  10.894
 7023TIP3   OH245263   6.896   3.963  10.513
 7023TIP3    H145264   6.854   3.966  10.599
 7023TIP3    H245265   6.910   4.055  10.489
 7024TIP3   OH245266   6.865   4.382  11.666
 7024TIP3    H145267   6.953   4.344  11.662
 7024TIP3    H245268   6.806   4.308  11.648
 7025TIP3   OH245269   7.443   4.137  11.935
 7025TIP3    H145270   7.526   4.110  11.976
 7025TIP3    H245271   7.453   4.113  11.843
 7026TIP3   OH245272   8.010   4.122  10.155
 7026TIP3    H145273   7.985   4.067  10.230
 7026TIP3    H245274   8.058   4.064  10.097
 7027TIP3   OH245275   8.290   3.988  11.830
 7027TIP3    H145276   8.283   3.908  11.882
 7027TIP3    H245277   8.379   4.019  11.846
 7028TIP3   OH245278   8.501   4.102  10.230
 7028TIP3    H145279   8.499   4.019  10.277
 7028TIP3    H245280   8.590   4.108  10.195
 7029TIP3   OH245281   6.855   3.608  11.747
 7029TIP3    H145282   6.786   3.567  11.800
 7029TIP3    H245283   6.811   3.631  11.665
 7030TIP3   OH245284   7.543   3.608  10.132
 7030TIP3    H145285   7.580   3.535  10.181
 7030TIP3    H245286   7.595   3.684  10.160
 7031TIP3   OH245287   7.694   3.725  11.752
 7031TIP3    H145288   7.652   3.774  11.681
 7031TIP3    H245289   7.725   3.645  11.711
 7032TIP3   OH245290   8.633   3.652  11.637
 7032TIP3    H145291   8.684   3.684  11.563
 7032TIP3    H245292   8.656   3.710  11.709
 7033TIP3   OH245293   6.818   3.223  11.759
 7033TIP3    H145294   6.861   3.149  11.801
 7033TIP3    H245295   6.775   3.270  11.830
 7034TIP3   OH245296   7.640   3.416  10.306
 7034TIP3    H145297   7.562   3.387  10.353
 7034TIP3    H245298   7.691   3.336  10.294
 7035TIP3   OH245299   7.354   3.171  11.495
 7035TIP3    H145300   7.283   3.233  11.510
 7035TIP3    H245301   7.426   3.223  11.460
 7036TIP3   OH245302   7.815   3.206  10.276
 7036TIP3    H145303   7.809   3.122  10.229
 7036TIP3    H245304   7.910   3.219  10.286
 7037TIP3   OH245305   8.259   3.477  11.949
 7037TIP3    H145306   8.353   3.475  11.936
 7037TIP3    H245307   8.227   3.398  11.906
 7038TIP3   OH245308   8.946   3.585  19.785
 7038TIP3    H145309   8.970   3.492  19.785
 7038TIP3    H245310   9.029   3.632  19.778
 7039TIP3   OH245311   7.487   2.933  11.568
 7039TIP3    H145312   7.517   2.906  11.481
 7039TIP3    H245313   7.441   3.015  11.553
 7040TIP3   OH245314   7.563   2.600  11.322
 7040TIP3    H145315   7.591   2.691  11.330
 7040TIP3    H245316   7.475   2.605  11.285
 7041TIP3   OH245317   7.554   3.320  11.374
 7041TIP3    H145318   7.567   3.269  11.294
 7041TIP3    H245319   7.550   3.411  11.343
 7042TIP3   OH245320   8.373   3.025  11.704
 7042TIP3    H145321   8.364   2.937  11.740
 7042TIP3    H245322   8.336   3.082  11.771
 7043TIP3   OH245323   8.625   3.381  11.642
 7043TIP3    H145324   8.607   3.474  11.629
 7043TIP3    H245325   8.720   3.376  11.654
 7044TIP3   OH245326   7.429   2.807  11.810
 7044TIP3    H145327   7.375   2.731  11.788
 7044TIP3    H245328   7.442   2.853  11.727
 7045TIP3   OH245329   7.624   2.330  11.368
 7045TIP3    H145330   7.617   2.425  11.355
 7045TIP3    H245331   7.535   2.298  11.354
 7046TIP3   OH245332   7.743   2.886  11.675
 7046TIP3    H145333   7.738   2.806  11.726
 7046TIP3    H245334   7.654   2.900  11.642
 7047TIP3   OH245335   8.336   2.759  11.793
 7047TIP3    H145336   8.255   2.748  11.844
 7047TIP3    H245337   8.401   2.708  11.841
 7048TIP3   OH245338   8.507   2.615  11.966
 7048TIP3    H145339   8.500   2.524  11.996
 7048TIP3    H245340   8.464   2.667  12.034
 7049TIP3   OH245341   7.090   2.600  11.598
 7049TIP3    H145342   7.079   2.506  11.587
 7049TIP3    H245343   7.157   2.608  11.666
 7050TIP3   OH245344   7.825   2.320  11.558
 7050TIP3    H145345   7.844   2.227  11.573
 7050TIP3    H245346   7.758   2.320  11.489
 7051TIP3   OH245347   7.618   2.421  11.725
 7051TIP3    H145348   7.694   2.393  11.674
 7051TIP3    H245349   7.643   2.506  11.760
 7052TIP3   OH245350   7.801   4.316  10.339
 7052TIP3    H145351   7.895   4.332  10.340
 7052TIP3    H245352   7.770   4.361  10.260
 7053TIP3   OH245353   7.067   3.770  10.178
 7053TIP3    H145354   7.157   3.759  10.206
 7053TIP3    H245355   7.073   3.789  10.084
 7054TIP3   OH245356   6.751   4.337  10.703
 7054TIP3    H145357   6.669   4.301  10.670
 7054TIP3    H245358   6.769   4.286  10.783
 7055TIP3   OH245359   6.820   4.197  10.937
 7055TIP3    H145360   6.773   4.251  11.000
 7055TIP3    H245361   6.902   4.175  10.982
 7056TIP3   OH245362   8.978   4.266  11.177
 7056TIP3    H145363   8.975   4.179  11.216
 7056TIP3    H245364   9.043   4.314  11.230
 7057TIP3   OH245365   8.965   4.014  11.285
 7057TIP3    H145366   8.874   3.986  11.271
 7057TIP3    H245367   8.976   4.009  11.380
 7058TIP3   OH245368   8.724   3.792  11.861
 7058TIP3    H145369   8.652   3.777  11.921
 7058TIP3    H245370   8.757   3.879  11.884
 7059TIP3   OH245371   8.869   3.497  10.378
 7059TIP3    H145372   8.949   3.549  10.368
 7059TIP3    H245373   8.881   3.451  10.461
 7060TIP3   OH245374   8.903   3.361  10.616
 7060TIP3    H145375   8.816   3.322  10.630
 7060TIP3    H245376   8.927   3.397  10.702
 7061TIP3   OH245377   9.035   3.622  11.115
 7061TIP3    H145378   9.079   3.564  11.053
 7061TIP3    H245379   9.070   3.709  11.095
 7062TIP3   OH245380   8.694   3.944  11.289
 7062TIP3    H145381   8.640   4.002  11.342
 7062TIP3    H245382   8.643   3.929  11.209
 7063TIP3   OH245383   8.767   3.278  10.237
 7063TIP3    H145384   8.686   3.309  10.195
 7063TIP3    H245385   8.804   3.356  10.278
 7064TIP3   OH245386   8.874   2.888  10.132
 7064TIP3    H145387   8.834   2.932  10.056
 7064TIP3    H245388   8.828   2.804  10.137
 7065TIP3   OH245389   8.660   3.244  10.670
 7065TIP3    H145390   8.674   3.155  10.639
 7065TIP3    H245391   8.627   3.234  10.759
 7066TIP3   OH245392   6.888   3.349  11.075
 7066TIP3    H145393   6.921   3.345  10.985
 7066TIP3    H245394   6.964   3.325  11.128
 7067TIP3   OH245395   8.901   3.399  11.676
 7067TIP3    H145396   8.950   3.320  11.653
 7067TIP3    H245397   8.947   3.470  11.631
 7068TIP3   OH245398   9.009   3.140  11.605
 7068TIP3    H145399   8.925   3.104  11.633
 7068TIP3    H245400   9.063   3.063  11.586
 7069TIP3   OH245401   8.800   2.626  10.161
 7069TIP3    H145402   8.891   2.613  10.187
 7069TIP3    H245403   8.755   2.547  10.192
 7070TIP3   OH245404   8.724   2.991  10.569
 7070TIP3    H145405   8.775   2.922  10.610
 7070TIP3    H245406   8.773   3.015  10.491
 7071TIP3   OH245407   8.734   3.018  11.052
 7071TIP3    H145408   8.826   3.028  11.028
 7071TIP3    H245409   8.732   3.032  11.147
 7072TIP3   OH245410   8.769   3.086  11.326
 7072TIP3    H145411   8.700   3.108  11.389
 7072TIP3    H245412   8.817   3.168  11.314
 7073TIP3   OH245413   6.879   2.772  11.526
 7073TIP3    H145414   6.941   2.704  11.551
 7073TIP3    H245415   6.849   2.810  11.609
 7074TIP3   OH245416   9.024   2.269  11.888
 7074TIP3    H145417   9.105   2.268  11.837
 7074TIP3    H245418   8.959   2.305  11.828
 7075TIP3   OH245419   8.814   2.474  10.508
 7075TIP3    H145420   8.835   2.442  10.596
 7075TIP3    H245421   8.720   2.459  10.498
 7076TIP3   OH245422   7.104   2.635  10.872
 7076TIP3    H145423   7.146   2.549  10.872
 7076TIP3    H245424   7.170   2.693  10.910
 7077TIP3   OH245425   6.760   3.104  10.984
 7077TIP3    H145426   6.839   3.064  10.947
 7077TIP3    H245427   6.790   3.186  11.022
 7078TIP3   OH245428   8.827   2.386  11.741
 7078TIP3    H145429   8.800   2.475  11.761
 7078TIP3    H245430   8.829   2.382  11.645
 7079TIP3   OH245431   9.067   2.706  10.222
 7079TIP3    H145432   9.155   2.716  10.185
 7079TIP3    H245433   9.020   2.784  10.191
 7080TIP3   OH245434   6.875   2.638  10.471
 7080TIP3    H145435   6.784   2.666  10.482
 7080TIP3    H245436   6.916   2.709  10.422
 7081TIP3   OH245437   8.635   4.283  10.752
 7081TIP3    H145438   8.709   4.276  10.690
 7081TIP3    H245439   8.662   4.350  10.814
 7082TIP3   OH245440   6.808   2.342  11.319
 7082TIP3    H145441   6.731   2.335  11.376
 7082TIP3    H245442   6.794   2.424  11.271
 7083TIP3   OH245443   7.185   3.928  11.694
 7083TIP3    H145444   7.153   4.018  11.689
 7083TIP3    H245445   7.158   3.888  11.612
 7084TIP3   OH245446   7.448   4.065  11.316
 7084TIP3    H145447   7.376   4.120  11.348
 7084TIP3    H245448   7.527   4.105  11.354
 7085TIP3   OH245449   7.964   4.368  11.687
 7085TIP3    H145450   7.954   4.298  11.752
 7085TIP3    H245451   8.057   4.370  11.668
 7086TIP3   OH245452   8.234   4.329  11.657
 7086TIP3    H145453   8.250   4.247  11.611
 7086TIP3    H245454   8.316   4.350  11.700
 7087TIP3   OH245455   8.827   2.336  11.470
 7087TIP3    H145456   8.768   2.399  11.429
 7087TIP3    H245457   8.799   2.251  11.437
 7088TIP3   OH245458   7.157   4.490  11.446
 7088TIP3    H145459   7.075   4.481  11.397
 7088TIP3    H245460   7.158   4.415  11.506
 7089TIP3   OH245461   7.419   4.511  11.347
 7089TIP3    H145462   7.333   4.504  11.388
 7089TIP3    H245463   7.401   4.543  11.258
 7090TIP3   OH245464   8.024   4.344  11.218
 7090TIP3    H145465   7.964   4.369  11.148
 7090TIP3    H245466   7.974   4.357  11.299
 7091TIP3   OH245467   8.256   4.229  11.126
 7091TIP3    H145468   8.178   4.269  11.164
 7091TIP3    H245469   8.329   4.266  11.176
 7092TIP3   OH245470   8.475   4.339  11.263
 7092TIP3    H145471   8.460   4.424  11.303
 7092TIP3    H245472   8.560   4.347  11.219
 7093TIP3   OH245473   7.046   4.108  11.083
 7093TIP3    H145474   7.076   4.114  11.174
 7093TIP3    H245475   7.125   4.123  11.031
 7094TIP3   OH245476   7.277   4.133  10.927
 7094TIP3    H145477   7.294   4.039  10.917
 7094TIP3    H245478   7.353   4.167  10.973
 7095TIP3   OH245479   7.512   4.167  11.066
 7095TIP3    H145480   7.572   4.100  11.033
 7095TIP3    H245481   7.492   4.140  11.155
 7096TIP3   OH245482   7.847   2.446  10.825
 7096TIP3    H145483   7.771   2.404  10.865
 7096TIP3    H245484   7.917   2.439  10.890
 7097TIP3   OH245485   8.675   2.273  10.898
 7097TIP3    H145486   8.746   2.315  10.850
 7097TIP3    H245487   8.600   2.332  10.887
 7098TIP3   OH245488   8.892   2.370  10.753
 7098TIP3    H145489   8.955   2.299  10.742
 7098TIP3    H245490   8.945   2.447  10.773
 7099TIP3   OH245491   7.331   2.295  10.620
 7099TIP3    H145492   7.279   2.276  10.542
 7099TIP3    H245493   7.365   2.211  10.648
 7100TIP3   OH245494   6.899   2.441  10.274
 7100TIP3    H145495   6.993   2.428  10.258
 7100TIP3    H245496   6.896   2.492  10.355
 7101TIP3   OH245497   7.704   2.161  10.720
 7101TIP3    H145498   7.769   2.220  10.681
 7101TIP3    H245499   7.672   2.208  10.797
 7102TIP3   OH245500   8.424   2.418  10.867
 7102TIP3    H145501   8.381   2.446  10.786
 7102TIP3    H245502   8.392   2.329  10.881
 7103TIP3   OH245503   8.554   2.371  10.446
 7103TIP3    H145504   8.485   2.432  10.423
 7103TIP3    H245505   8.509   2.294  10.481
 7104TIP3   OH245506   6.915   4.253  10.494
 7104TIP3    H145507   6.869   4.293  10.420
 7104TIP3    H245508   6.868   4.285  10.571
 7105TIP3   OH245509   7.171   2.408  10.257
 7105TIP3    H145510   7.189   2.325  10.301
 7105TIP3    H245511   7.252   2.458  10.264
 7106TIP3   OH245512   7.835   2.647  10.407
 7106TIP3    H145513   7.882   2.582  10.460
 7106TIP3    H245514   7.838   2.727  10.459
 7107TIP3   OH245515   8.073   4.353  10.288
 7107TIP3    H145516   8.169   4.354  10.282
 7107TIP3    H245517   8.046   4.280  10.233
 7108TIP3   OH245518   8.827   4.278  10.548
 7108TIP3    H145519   8.804   4.192  10.513
 7108TIP3    H245520   8.794   4.340  10.483
 7109TIP3   OH245521   7.110   2.322  11.610
 7109TIP3    H145522   7.060   2.249  11.646
 7109TIP3    H245523   7.199   2.309  11.644
 7110TIP3   OH245524   7.371   2.300  11.711
 7110TIP3    H145525   7.459   2.335  11.709
 7110TIP3    H245526   7.383   2.205  11.715
 7111TIP3   OH245527   7.166   4.365  10.440
 7111TIP3    H145528   7.079   4.325  10.442
 7111TIP3    H245529   7.218   4.312  10.499
 7112TIP3   OH245530   8.393   2.144  11.741
 7112TIP3    H145531   8.365   2.115  11.828
 7112TIP3    H245532   8.488   2.153  11.749
 7113TIP3   OH245533   8.712   4.150  11.631
 7113TIP3    H145534   8.652   4.142  11.557
 7113TIP3    H245535   8.727   4.244  11.640
 7114TIP3   OH245536   9.085   3.173  10.509
 7114TIP3    H145537   9.028   3.240  10.548
 7114TIP3    H245538   9.026   3.122  10.453
 7115TIP3   OH245539   9.178   3.585  11.353
 7115TIP3    H145540   9.129   3.598  11.271
 7115TIP3    H245541   9.174   3.490  11.368
 7116TIP3   OH245542   9.134   3.880  11.099
 7116TIP3    H145543   0.002   3.926  11.093
 7116TIP3    H245544   9.085   3.929  11.165
 7117TIP3   OH245545   9.044   2.596  10.764
 7117TIP3    H145546   9.133   2.613  10.795
 7117TIP3    H245547   9.045   2.624  10.673
 7118TIP3   OH245548   9.138   3.319  11.436
 7118TIP3    H145549   9.112   3.258  11.506
 7118TIP3    H245550   9.068   3.313  11.372
 7119TIP3   OH245551   0.010   3.577  11.758
 7119TIP3    H145552   9.178   3.508  11.804
 7119TIP3    H245553   9.164   3.611  11.694
 7120TIP3   OH245554   9.045   4.376  10.685
 7120TIP3    H145555   8.976   4.340  10.630
 7120TIP3    H245556   9.039   4.325  10.766
 7121TIP3   OH245557   9.013   4.220  10.906
 7121TIP3    H145558   9.003   4.125  10.906
 7121TIP3    H245559   9.002   4.246  10.998
 7122TIP3   OH245560   9.105   3.336  11.048
 7122TIP3    H145561   9.081   3.247  11.020
 7122TIP3    H245562   9.200   3.337  11.045
 7123TIP3   OH245563   9.100   2.876  11.564
 7123TIP3    H145564   9.183   2.832  11.547
 7123TIP3    H245565   9.071   2.842  11.648
 7124TIP3   OH245566   9.019   3.058  11.054
 7124TIP3    H145567   9.106   3.037  11.021
 7124TIP3    H245568   9.026   3.045  11.149
 7125TIP3   OH245569   9.044   2.639  10.487
 7125TIP3    H145570   8.966   2.584  10.491
 7125TIP3    H245571   9.052   2.663  10.395
 7126TIP3   OH245572   9.064   2.443  11.359
 7126TIP3    H145573   8.997   2.397  11.409
 7126TIP3    H245574   9.016   2.502  11.302
 7127TIP3   OH245575   1.554   5.823  10.586
 7127TIP3    H145576   1.525   5.914  10.581
 7127TIP3    H245577   1.474   5.772  10.588
 7128TIP3   OH245578   1.541   5.596  11.160
 7128TIP3    H145579   1.557   5.531  11.228
 7128TIP3    H245580   1.462   5.565  11.115
 7129TIP3   OH245581   0.467   5.649  11.132
 7129TIP3    H145582   0.537   5.585  11.119
 7129TIP3    H245583   0.460   5.657  11.228
 7130TIP3   OH245584   1.719   5.953  10.919
 7130TIP3    H145585   1.733   5.865  10.953
 7130TIP3    H245586   1.749   6.011  10.990
 7131TIP3   OH245587   0.470   6.221  11.065
 7131TIP3    H145588   0.478   6.144  11.009
 7131TIP3    H245589   0.517   6.198  11.145
 7132TIP3   OH245590   0.160   5.378  10.475
 7132TIP3    H145591   0.191   5.455  10.428
 7132TIP3    H245592   0.065   5.392  10.483
 7133TIP3   OH245593   0.326   5.492  10.794
 7133TIP3    H145594   0.318   5.412  10.847
 7133TIP3    H245595   0.269   5.477  10.719
 7134TIP3   OH245596   1.542   6.657  10.892
 7134TIP3    H145597   1.545   6.577  10.839
 7134TIP3    H245598   1.525   6.625  10.981
 7135TIP3   OH245599   0.984   5.929  11.042
 7135TIP3    H145600   1.043   5.922  10.967
 7135TIP3    H245601   1.042   5.947  11.116
 7136TIP3   OH245602   2.127   4.785  11.213
 7136TIP3    H145603   2.117   4.871  11.254
 7136TIP3    H245604   2.163   4.804  11.126
 7137TIP3   OH245605   1.551   5.236  11.078
 7137TIP3    H145606   1.604   5.160  11.054
 7137TIP3    H245607   1.529   5.277  10.994
 7138TIP3   OH245608   0.664   5.055  10.781
 7138TIP3    H145609   0.657   5.146  10.752
 7138TIP3    H245610   0.601   5.007  10.727
 7139TIP3   OH245611   1.643   5.098  10.690
 7139TIP3    H145612   1.674   5.075  10.777
 7139TIP3    H245613   1.717   5.077  10.632
 7140TIP3   OH245614   0.301   5.247  10.917
 7140TIP3    H145615   0.355   5.188  10.971
 7140TIP3    H245616   0.312   5.214  10.828
 7141TIP3   OH245617   0.837   5.424  10.837
 7141TIP3    H145618   0.921   5.385  10.815
 7141TIP3    H245619   0.773   5.373  10.787
 7142TIP3   OH245620   2.098   5.042  11.315
 7142TIP3    H145621   2.076   5.135  11.307
 7142TIP3    H245622   2.165   5.039  11.383
 7143TIP3   OH245623   0.523   4.879  11.218
 7143TIP3    H145624   0.515   4.954  11.159
 7143TIP3    H245625   0.469   4.902  11.293
 7144TIP3   OH245626   1.449   6.086  10.553
 7144TIP3    H145627   1.379   6.040  10.506
 7144TIP3    H245628   1.427   6.178  10.545
 7145TIP3   OH245629   0.803   5.749  11.158
 7145TIP3    H145630   0.732   5.809  11.180
 7145TIP3    H245631   0.868   5.804  11.115
 7146TIP3   OH245632   1.728   5.057  10.952
 7146TIP3    H145633   1.728   4.980  11.009
 7146TIP3    H245634   1.807   5.105  10.978
 7147TIP3   OH245635   0.515   5.073  11.017
 7147TIP3    H145636   0.562   5.138  11.069
 7147TIP3    H245637   0.572   5.056  10.942
 7148TIP3   OH245638   0.605   6.163  11.299
 7148TIP3    H145639   0.620   6.252  11.330
 7148TIP3    H245640   0.544   6.126  11.363
 7149TIP3   OH245641   0.275   6.080  10.483
 7149TIP3    H145642   0.299   6.111  10.395
 7149TIP3    H245643   0.268   6.160  10.535
 7150TIP3   OH245644   1.778   6.193  11.059
 7150TIP3    H145645   1.695   6.225  11.094
 7150TIP3    H245646   1.783   6.227  10.970
 7151TIP3   OH245647   1.870   4.681  11.255
 7151TIP3    H145648   1.814   4.745  11.210
 7151TIP3    H245649   1.959   4.714  11.241
 7152TIP3   OH245650   0.858   4.602  10.954
 7152TIP3    H145651   0.889   4.552  11.030
 7152TIP3    H245652   0.772   4.633  10.980
 7153TIP3   OH245653   1.581   6.427  10.734
 7153TIP3    H145654   1.596   6.334  10.751
 7153TIP3    H245655   1.668   6.463  10.720
 7154TIP3   OH245656   1.627   6.157  10.758
 7154TIP3    H145657   1.568   6.120  10.693
 7154TIP3    H245658   1.657   6.081  10.809
 7155TIP3   OH245659   1.964   5.972  11.376
 7155TIP3    H145660   1.967   5.915  11.299
 7155TIP3    H245661   1.957   6.061  11.340
 7156TIP3   OH245662   1.359   5.625  10.508
 7156TIP3    H145663   1.295   5.672  10.455
 7156TIP3    H245664   1.430   5.605  10.447
 7157TIP3   OH245665   1.352   5.431  10.242
 7157TIP3    H145666   1.435   5.470  10.267
 7157TIP3    H245667   1.354   5.343  10.279
 7158TIP3   OH245668   2.150   5.535  11.166
 7158TIP3    H145669   2.092   5.610  11.177
 7158TIP3    H245670   2.238   5.573  11.168
 7159TIP3   OH245671   1.768   5.666  10.521
 7159TIP3    H145672   1.704   5.725  10.561
 7159TIP3    H245673   1.821   5.635  10.595
 7160TIP3   OH245674   1.806   5.433  11.444
 7160TIP3    H145675   1.789   5.511  11.497
 7160TIP3    H245676   1.723   5.416  11.400
 7161TIP3   OH245677   0.748   5.629  10.672
 7161TIP3    H145678   0.787   5.715  10.654
 7161TIP3    H245679   0.813   5.583  10.724
 7162TIP3   OH245680   0.739   5.961  10.897
 7162TIP3    H145681   0.729   6.048  10.859
 7162TIP3    H245682   0.816   5.968  10.953
 7163TIP3   OH245683   0.701   5.507  11.064
 7163TIP3    H145684   0.753   5.479  10.989
 7163TIP3    H245685   0.745   5.585  11.097
 7164TIP3   OH245686   1.548   6.303  11.153
 7164TIP3    H145687   1.532   6.397  11.144
 7164TIP3    H245688   1.464   6.266  11.181
 7165TIP3   OH245689   0.811   6.110  11.499
 7165TIP3    H145690   0.759   6.170  11.552
 7165TIP3    H245691   0.758   6.095  11.420
 7166TIP3   OH245692   1.588   5.543  10.352
 7166TIP3    H145693   1.648   5.575  10.419
 7166TIP3    H245694   1.615   5.589  10.273
 7167TIP3   OH245695   0.452   5.653  11.406
 7167TIP3    H145696   0.485   5.703  11.480
 7167TIP3    H245697   0.364   5.626  11.432
 7168TIP3   OH245698   1.353   6.403  10.572
 7168TIP3    H145699   1.429   6.407  10.631
 7168TIP3    H245700   1.330   6.494  10.557
 7169TIP3   OH245701   0.659   6.313  11.604
 7169TIP3    H145702   0.663   6.371  11.528
 7169TIP3    H245703   0.565   6.300  11.619
 7170TIP3   OH245704   2.039   4.513  10.409
 7170TIP3    H145705   1.947   4.541  10.409
 7170TIP3    H245706   2.086   4.587  10.448
 7171TIP3   OH245707   0.458   5.593  10.518
 7171TIP3    H145708   0.426   5.677  10.484
 7171TIP3    H245709   0.473   5.540  10.440
 7172TIP3   OH245710   2.216   6.397  10.226
 7172TIP3    H145711   2.220   6.492  10.235
 7172TIP3    H245712   2.279   6.377  10.156
 7173TIP3   OH245713   0.216   5.876  11.431
 7173TIP3    H145714   0.126   5.880  11.396
 7173TIP3    H245715   0.224   5.788  11.465
 7174TIP3   OH245716   0.200   6.325  11.097
 7174TIP3    H145717   0.283   6.280  11.082
 7174TIP3    H245718   0.220   6.389  11.166
 7175TIP3   OH245719   2.100   6.236  11.736
 7175TIP3    H145720   2.089   6.166  11.671
 7175TIP3    H245721   2.061   6.313  11.696
 7176TIP3   OH245722   1.021   6.291  11.484
 7176TIP3    H145723   1.030   6.311  11.577
 7176TIP3    H245724   0.951   6.227  11.480
 7177TIP3   OH245725   1.314   6.685  10.530
 7177TIP3    H145726   1.292   6.667  10.438
 7177TIP3    H245727   1.267   6.766  10.550
 7178TIP3   OH245728   0.490   6.497  10.694
 7178TIP3    H145729   0.507   6.484  10.787
 7178TIP3    H245730   0.422   6.433  10.672
 7179TIP3   OH245731   1.556   6.596  10.282
 7179TIP3    H145732   1.609   6.517  10.271
 7179TIP3    H245733   1.577   6.627  10.370
 7180TIP3   OH245734   1.598   6.694  10.540
 7180TIP3    H145735   1.505   6.689  10.560
 7180TIP3    H245736   1.640   6.640  10.608
 7181TIP3   OH245737   1.951   5.266  11.608
 7181TIP3    H145738   1.898   5.328  11.557
 7181TIP3    H245739   1.925   5.180  11.576
 7182TIP3   OH245740   0.441   6.024  11.476
 7182TIP3    H145741   0.483   5.956  11.529
 7182TIP3    H245742   0.359   5.985  11.448
 7183TIP3   OH245743   0.612   4.659  11.068
 7183TIP3    H145744   0.535   4.628  11.022
 7183TIP3    H245745   0.581   4.733  11.121
 7184TIP3   OH245746   1.301   4.662  11.465
 7184TIP3    H145747   1.344   4.591  11.512
 7184TIP3    H245748   1.214   4.668  11.505
 7185TIP3   OH245749   1.577   5.017  11.536
 7185TIP3    H145750   1.552   5.008  11.628
 7185TIP3    H245751   1.520   5.087  11.503
 7186TIP3   OH245752   1.701   5.709  10.164
 7186TIP3    H145753   1.685   5.768  10.090
 7186TIP3    H245754   1.772   5.750  10.213
 7187TIP3   OH245755   1.212   5.049  10.201
 7187TIP3    H145756   1.152   5.002  10.259
 7187TIP3    H245757   1.172   5.042  10.114
 7188TIP3   OH245758   0.652   5.253  11.172
 7188TIP3    H145759   0.592   5.260  11.247
 7188TIP3    H245760   0.667   5.344  11.144
 7189TIP3   OH245761   0.612   5.323  10.686
 7189TIP3    H145762   0.522   5.293  10.673
 7189TIP3    H245763   0.657   5.299  10.606
 7190TIP3   OH245764   1.323   5.380  10.642
 7190TIP3    H145765   1.322   5.471  10.612
 7190TIP3    H245766   1.370   5.333  10.573
 7191TIP3   OH245767   1.207   5.235  11.656
 7191TIP3    H145768   1.155   5.167  11.698
 7191TIP3    H245769   1.275   5.257  11.719
 7192TIP3   OH245770   1.535   5.322  10.816
 7192TIP3    H145771   1.458   5.350  10.768
 7192TIP3    H245772   1.566   5.244  10.769
 7193TIP3   OH245773   0.486   5.236  11.384
 7193TIP3    H145774   0.465   5.289  11.461
 7193TIP3    H245775   0.448   5.150  11.404
 7194TIP3   OH245776   0.715   5.196  10.096
 7194TIP3    H145777   0.743   5.127  10.156
 7194TIP3    H245778   0.717   5.155  10.010
 7195TIP3   OH245779   0.099   4.879  10.802
 7195TIP3    H145780   0.185   4.864  10.839
 7195TIP3    H245781   0.112   4.876  10.707
 7196TIP3   OH245782   0.192   5.114  10.407
 7196TIP3    H145783   0.229   5.117  10.319
 7196TIP3    H245784   0.167   5.205  10.425
 7197TIP3   OH245785   1.566   5.366  11.318
 7197TIP3    H145786   1.568   5.318  11.235
 7197TIP3    H245787   1.505   5.318  11.373
 7198TIP3   OH245788   0.948   5.026  10.775
 7198TIP3    H145789   0.854   5.024  10.792
 7198TIP3    H245790   0.978   4.937  10.795
 7199TIP3   OH245791   0.361   5.217  10.645
 7199TIP3    H145792   0.294   5.243  10.582
 7199TIP3    H245793   0.374   5.124  10.628
 7200TIP3   OH245794   0.756   5.230  10.472
 7200TIP3    H145795   0.848   5.208  10.486
 7200TIP3    H245796   0.758   5.295  10.402
 7201TIP3   OH245797   1.679   4.837  11.120
 7201TIP3    H145798   1.613   4.835  11.189
 7201TIP3    H245799   1.651   4.769  11.059
 7202TIP3   OH245800   0.731   5.412  10.265
 7202TIP3    H145801   0.640   5.441  10.270
 7202TIP3    H245802   0.732   5.346  10.196
 7203TIP3   OH245803   2.019   6.710  11.680
 7203TIP3    H145804   2.027   6.737  11.589
 7203TIP3    H245805   2.071   6.774  11.729
 7204TIP3   OH245806   0.505   5.805  11.638
 7204TIP3    H145807   0.569   5.776  11.703
 7204TIP3    H245808   0.423   5.813  11.687
 7205TIP3   OH245809   1.079   5.310  10.763
 7205TIP3    H145810   1.168   5.335  10.737
 7205TIP3    H245811   1.088   5.223  10.801
 7206TIP3   OH245812   0.437   4.948  10.648
 7206TIP3    H145813   0.407   4.906  10.729
 7206TIP3    H245814   0.412   4.887  10.579
 7207TIP3   OH245815   0.837   5.101  11.316
 7207TIP3    H145816   0.766   5.147  11.271
 7207TIP3    H245817   0.917   5.137  11.278
 7208TIP3   OH245818   0.987   5.852  10.406
 7208TIP3    H145819   0.961   5.774  10.356
 7208TIP3    H245820   0.943   5.841  10.491
 7209TIP3   OH245821   1.997   5.784  11.156
 7209TIP3    H145822   2.052   5.805  11.081
 7209TIP3    H245823   1.913   5.757  11.119
 7210TIP3   OH245824   1.423   5.032  10.375
 7210TIP3    H145825   1.357   5.035  10.306
 7210TIP3    H245826   1.449   5.123  10.388
 7211TIP3   OH245827   1.220   6.091  11.473
 7211TIP3    H145828   1.173   6.046  11.543
 7211TIP3    H245829   1.176   6.175  11.465
 7212TIP3   OH245830   1.513   5.285  10.456
 7212TIP3    H145831   1.579   5.239  10.509
 7212TIP3    H245832   1.558   5.364  10.426
 7213TIP3   OH245833   0.547   5.750  10.885
 7213TIP3    H145834   0.607   5.824  10.892
 7213TIP3    H245835   0.514   5.736  10.974
 7214TIP3   OH245836   1.233   5.977  10.420
 7214TIP3    H145837   1.206   6.068  10.414
 7214TIP3    H245838   1.152   5.927  10.411
 7215TIP3   OH245839   0.196   5.603  11.502
 7215TIP3    H145840   0.220   5.557  11.583
 7215TIP3    H245841   0.107   5.572  11.482
 7216TIP3   OH245842   1.039   5.458  11.689
 7216TIP3    H145843   0.953   5.441  11.651
 7216TIP3    H245844   1.093   5.385  11.662
 7217TIP3   OH245845   1.505   6.097  11.537
 7217TIP3    H145846   1.415   6.086  11.507
 7217TIP3    H245847   1.498   6.148  11.618
 7218TIP3   OH245848   2.208   5.292  10.418
 7218TIP3    H145849   2.122   5.265  10.388
 7218TIP3    H245850   2.221   5.379  10.380
 7219TIP3   OH245851   2.177   5.883  11.530
 7219TIP3    H145852   2.102   5.918  11.482
 7219TIP3    H245853   2.244   5.868  11.463
 7220TIP3   OH245854   1.987   6.335  10.365
 7220TIP3    H145855   1.956   6.244  10.356
 7220TIP3    H245856   2.065   6.339  10.311
 7221TIP3   OH245857   1.763   5.697  11.034
 7221TIP3    H145858   1.686   5.681  11.088
 7221TIP3    H245859   1.775   5.617  10.984
 7222TIP3   OH245860   0.712   6.184  10.737
 7222TIP3    H145861   0.742   6.273  10.722
 7222TIP3    H245862   0.657   6.164  10.661
 7223TIP3   OH245863   0.223   5.604  10.311
 7223TIP3    H145864   0.264   5.686  10.340
 7223TIP3    H245865   0.137   5.630  10.278
 7224TIP3   OH245866   0.833   5.888  10.640
 7224TIP3    H145867   0.812   5.963  10.584
 7224TIP3    H245868   0.801   5.913  10.726
 7225TIP3   OH245869   0.970   6.469  11.278
 7225TIP3    H145870   1.050   6.518  11.263
 7225TIP3    H245871   0.991   6.408  11.349
 7226TIP3   OH245872   0.758   6.444  10.646
 7226TIP3    H145873   0.666   6.470  10.650
 7226TIP3    H245874   0.807   6.524  10.663
 7227TIP3   OH245875   1.185   5.956  11.231
 7227TIP3    H145876   1.190   6.006  11.313
 7227TIP3    H245877   1.270   5.911  11.225
 7228TIP3   OH245878   1.835   6.096  10.354
 7228TIP3    H145879   1.857   6.005  10.332
 7228TIP3    H245880   1.784   6.089  10.434
 7229TIP3   OH245881   1.768   6.442  11.415
 7229TIP3    H145882   1.678   6.409  11.422
 7229TIP3    H245883   1.761   6.520  11.362
 7230TIP3   OH245884   2.253   6.670  10.267
 7230TIP3    H145885   2.313   6.744  10.264
 7230TIP3    H245886   2.175   6.703  10.313
 7231TIP3   OH245887   0.362   4.989  11.430
 7231TIP3    H145888   0.269   5.003  11.414
 7231TIP3    H245889   0.366   4.946  11.515
 7232TIP3   OH245890   1.897   5.820  10.332
 7232TIP3    H145891   1.853   5.768  10.399
 7232TIP3    H245892   1.990   5.810  10.350
 7233TIP3   OH245893   0.292   6.504  11.289
 7233TIP3    H145894   0.321   6.452  11.364
 7233TIP3    H245895   0.295   6.595  11.319
 7234TIP3   OH245896   0.808   6.077  10.432
 7234TIP3    H145897   0.880   6.025  10.395
 7234TIP3    H245898   0.841   6.167  10.430
 7235TIP3   OH245899   0.364   5.828  10.401
 7235TIP3    H145900   0.319   5.902  10.442
 7235TIP3    H245901   0.441   5.867  10.360
 7236TIP3   OH245902   1.501   4.829  11.338
 7236TIP3    H145903   1.533   4.885  11.408
 7236TIP3    H245904   1.432   4.776  11.379
 7237TIP3   OH245905   1.419   4.918  10.622
 7237TIP3    H145906   1.420   4.945  10.531
 7237TIP3    H245907   1.490   4.967  10.663
 7238TIP3   OH245908   1.176   6.245  10.427
 7238TIP3    H145909   1.087   6.277  10.442
 7238TIP3    H245910   1.231   6.302  10.481
 7239TIP3   OH245911   1.010   5.148  10.541
 7239TIP3    H145912   1.055   5.227  10.571
 7239TIP3    H245913   0.987   5.101  10.621
 7240TIP3   OH245914   1.384   5.198  11.446
 7240TIP3    H145915   1.321   5.220  11.515
 7240TIP3    H245916   1.333   5.149  11.382
 7241TIP3   OH245917   1.186   4.768  10.577
 7241TIP3    H145918   1.137   4.766  10.659
 7241TIP3    H245919   1.267   4.815  10.599
 7242TIP3   OH245920   0.914   6.336  10.445
 7242TIP3    H145921   0.939   6.413  10.394
 7242TIP3    H245922   0.860   6.371  10.516
 7243TIP3   OH245923   0.799   5.011  10.279
 7243TIP3    H145924   0.769   5.054  10.359
 7243TIP3    H245925   0.879   4.964  10.305
 7244TIP3   OH245926   1.856   5.026  11.506
 7244TIP3    H145927   1.761   5.016  11.513
 7244TIP3    H245928   1.876   5.007  11.414
 7245TIP3   OH245929   1.772   5.444  10.910
 7245TIP3    H145930   1.687   5.408  10.884
 7245TIP3    H245931   1.815   5.372  10.956
 7246TIP3   OH245932   0.588   5.963  10.297
 7246TIP3    H145933   0.653   6.008  10.352
 7246TIP3    H245934   0.639   5.911  10.236
 7247TIP3   OH245935   0.455   5.460  10.265
 7247TIP3    H145936   0.373   5.510  10.271
 7247TIP3    H245937   0.440   5.400  10.192
 7248TIP3   OH245938   1.941   6.638  11.059
 7248TIP3    H145939   1.934   6.687  10.977
 7248TIP3    H245940   2.035   6.627  11.072
 7249TIP3   OH245941   0.389   4.562  10.941
 7249TIP3    H145942   0.385   4.532  10.851
 7249TIP3    H245943   0.370   4.484  10.993
 7250TIP3   OH245944   0.262   6.342  10.611
 7250TIP3    H145945   0.228   6.370  10.696
 7250TIP3    H245946   0.217   6.398  10.547
 7251TIP3   OH245947   0.322   6.676  11.711
 7251TIP3    H145948   0.387   6.664  11.780
 7251TIP3    H245949   0.279   6.591  11.704
 7252TIP3   OH245950   0.677   6.419  11.861
 7252TIP3    H145951   0.745   6.371  11.909
 7252TIP3    H245952   0.680   6.383  11.773
 7253TIP3   OH245953   1.240   6.334  10.172
 7253TIP3    H145954   1.216   6.296  10.256
 7253TIP3    H245955   1.264   6.259  10.118
 7254TIP3   OH245956   1.460   6.238  11.778
 7254TIP3    H145957   1.434   6.165  11.834
 7254TIP3    H245958   1.532   6.279  11.825
 7255TIP3   OH245959   1.722   6.374  10.287
 7255TIP3    H145960   1.714   6.279  10.281
 7255TIP3    H245961   1.812   6.389  10.317
 7256TIP3   OH245962   0.272   5.837  11.789
 7256TIP3    H145963   0.281   5.765  11.852
 7256TIP3    H245964   0.179   5.837  11.767
 7257TIP3   OH245965   0.758   5.823  10.137
 7257TIP3    H145966   0.806   5.755  10.184
 7257TIP3    H245967   0.803   5.830  10.053
 7258TIP3   OH245968   1.017   6.001  11.648
 7258TIP3    H145969   0.940   6.024  11.596
 7258TIP3    H245970   0.996   5.914  11.684
 7259TIP3   OH245971   1.723   5.906  11.533
 7259TIP3    H145972   1.794   5.944  11.482
 7259TIP3    H245973   1.653   5.971  11.530
 7260TIP3   OH245974   0.293   5.483  11.733
 7260TIP3    H145975   0.386   5.460  11.737
 7260TIP3    H245976   0.279   5.540  11.808
 7261TIP3   OH245977   0.908   5.628  10.261
 7261TIP3    H145978   0.849   5.553  10.273
 7261TIP3    H245979   0.984   5.591  10.216
 7262TIP3   OH245980   0.785   5.416  11.586
 7262TIP3    H145981   0.714   5.437  11.646
 7262TIP3    H245982   0.783   5.485  11.520
 7263TIP3   OH245983   1.119   5.518  10.127
 7263TIP3    H145984   1.132   5.487  10.037
 7263TIP3    H245985   1.199   5.493  10.173
 7264TIP3   OH245986   1.390   5.757  11.911
 7264TIP3    H145987   1.476   5.725  11.884
 7264TIP3    H245988   1.337   5.678  11.921
 7265TIP3   OH245989   2.190   5.624  19.812
 7265TIP3    H145990   2.265   5.684  19.807
 7265TIP3    H245991   2.131   5.664  19.876
 7266TIP3   OH245992   0.849   5.152  11.594
 7266TIP3    H145993   0.839   5.120  11.504
 7266TIP3    H245994   0.827   5.245  11.589
 7267TIP3   OH245995   0.786   4.824  11.309
 7267TIP3    H145996   0.815   4.914  11.323
 7267TIP3    H245997   0.694   4.833  11.283
 7268TIP3   OH245998   0.855   5.603  11.391
 7268TIP3    H145999   0.947   5.625  11.404
 7268TIP3    H246000   0.831   5.648  11.311
 7269TIP3   OH246001   1.433   5.289  11.809
 7269TIP3    H146002   1.460   5.197  11.815
 7269TIP3    H246003   1.510   5.334  11.774
 7270TIP3   OH246004   1.774   5.651  11.622
 7270TIP3    H146005   1.746   5.736  11.589
 7270TIP3    H246006   1.867   5.662  11.643
 7271TIP3   OH246007   0.679   5.110  11.813
 7271TIP3    H146008   0.647   5.198  11.836
 7271TIP3    H246009   0.730   5.123  11.734
 7272TIP3   OH246010   0.859   4.563  11.362
 7272TIP3    H146011   0.846   4.656  11.346
 7272TIP3    H246012   0.773   4.524  11.350
 7273TIP3   OH246013   1.034   5.049  11.774
 7273TIP3    H146014   0.982   4.981  11.817
 7273TIP3    H246015   0.975   5.088  11.709
 7274TIP3   OH246016   1.493   5.015  11.806
 7274TIP3    H146017   1.410   4.997  11.849
 7274TIP3    H246018   1.557   4.963  11.854
 7275TIP3   OH246019   1.665   4.879  11.989
 7275TIP3    H146020   1.680   4.796  12.035
 7275TIP3    H246021   1.607   4.928  12.048
 7276TIP3   OH246022   0.305   4.861  11.675
 7276TIP3    H146023   0.314   4.771  11.642
 7276TIP3    H246024   0.330   4.856  11.767
 7277TIP3   OH246025   1.039   4.586  11.574
 7277TIP3    H146026   1.072   4.497  11.590
 7277TIP3    H246027   0.977   4.576  11.501
 7278TIP3   OH246028   0.866   4.620  11.800
 7278TIP3    H146029   0.923   4.624  11.723
 7278TIP3    H246030   0.859   4.711  11.829
 7279TIP3   OH246031   1.007   6.565  10.322
 7279TIP3    H146032   1.100   6.573  10.305
 7279TIP3    H246033   0.968   6.640  10.278
 7280TIP3   OH246034   0.380   6.133  10.234
 7280TIP3    H146035   0.454   6.076  10.252
 7280TIP3    H246036   0.394   6.163  10.144
 7281TIP3   OH246037   0.109   6.630  10.641
 7281TIP3    H146038   0.015   6.646  10.650
 7281TIP3    H246039   0.132   6.577  10.717
 7282TIP3   OH246040   0.198   6.469  10.850
 7282TIP3    H146041   0.165   6.408  10.916
 7282TIP3    H246042   0.248   6.534  10.900
 7283TIP3   OH246043   2.207   6.618  11.157
 7283TIP3    H146044   2.172   6.566  11.229
 7283TIP3    H246045   2.239   6.698  11.198
 7284TIP3   OH246046   2.086   6.467  11.351
 7284TIP3    H146047   2.050   6.389  11.309
 7284TIP3    H246048   2.070   6.453  11.445
 7285TIP3   OH246049   1.977   5.997  11.998
 7285TIP3    H146050   1.897   6.045  11.976
 7285TIP3    H246051   2.043   6.065  12.012
 7286TIP3   OH246052   2.162   5.779  10.420
 7286TIP3    H146053   2.231   5.843  10.408
 7286TIP3    H246054   2.152   5.772  10.515
 7287TIP3   OH246055   2.127   5.749  10.693
 7287TIP3    H146056   2.054   5.687  10.704
 7287TIP3    H246057   2.152   5.773  10.782
 7288TIP3   OH246058   2.201   5.824  10.967
 7288TIP3    H146059   2.270   5.773  11.010
 7288TIP3    H246060   2.235   5.913  10.966
 7289TIP3   OH246061   1.925   6.240  11.289
 7289TIP3    H146062   1.865   6.298  11.335
 7289TIP3    H246063   1.882   6.223  11.205
 7290TIP3   OH246064   2.246   5.545  10.301
 7290TIP3    H146065   2.220   5.560  10.210
 7290TIP3    H246066   2.214   5.621  10.348
 7291TIP3   OH246067   1.971   5.193  10.312
 7291TIP3    H146068   1.905   5.245  10.265
 7291TIP3    H246069   1.993   5.122  10.251
 7292TIP3   OH246070   1.932   5.549  10.715
 7292TIP3    H146071   1.988   5.473  10.701
 7292TIP3    H246072   1.874   5.523  10.787
 7293TIP3   OH246073   0.209   5.619  11.019
 7293TIP3    H146074   0.247   5.597  10.934
 7293TIP3    H246075   0.284   5.636  11.076
 7294TIP3   OH246076   2.046   5.679  11.670
 7294TIP3    H146077   2.093   5.596  11.660
 7294TIP3    H246078   2.092   5.741  11.615
 7295TIP3   OH246079   2.172   5.428  11.658
 7295TIP3    H146080   2.102   5.371  11.630
 7295TIP3    H246081   2.207   5.386  11.737
 7296TIP3   OH246082   2.020   4.996  10.131
 7296TIP3    H146083   2.105   4.954  10.144
 7296TIP3    H246084   1.978   4.943  10.063
 7297TIP3   OH246085   1.862   5.046  10.529
 7297TIP3    H146086   1.915   4.967  10.534
 7297TIP3    H246087   1.903   5.098  10.459
 7298TIP3   OH246088   1.929   5.238  11.025
 7298TIP3    H146089   2.014   5.256  10.985
 7298TIP3    H246090   1.943   5.252  11.118
 7299TIP3   OH246091   2.008   5.315  11.281
 7299TIP3    H146092   1.943   5.356  11.338
 7299TIP3    H246093   2.064   5.388  11.252
 7300TIP3   OH246094   0.132   5.079  11.667
 7300TIP3    H146095   0.175   5.132  11.733
 7300TIP3    H246096   0.180   4.996  11.667
 7301TIP3   OH246097   2.109   4.662  11.773
 7301TIP3    H146098   2.190   4.622  11.744
 7301TIP3    H246099   2.097   4.739  11.717
 7302TIP3   OH246100   2.004   4.800  10.534
 7302TIP3    H146101   2.045   4.751  10.606
 7302TIP3    H246102   1.927   4.748  10.512
 7303TIP3   OH246103   0.360   4.836  10.887
 7303TIP3    H146104   0.365   4.743  10.911
 7303TIP3    H246105   0.396   4.882  10.963
 7304TIP3   OH246106   0.052   5.380  10.994
 7304TIP3    H146107   0.123   5.317  10.977
 7304TIP3    H246108   0.097   5.460  11.019
 7305TIP3   OH246109   2.052   4.917  11.671
 7305TIP3    H146110   2.012   4.941  11.754
 7305TIP3    H246111   1.988   4.945  11.605
 7306TIP3   OH246112   2.262   4.875  10.173
 7306TIP3    H146113   2.302   4.795  10.204
 7306TIP3    H246114   2.308   4.945  10.218
 7307TIP3   OH246115   0.098   4.886  10.526
 7307TIP3    H146116   0.003   4.890  10.518
 7307TIP3    H246117   0.128   4.969  10.487
 7308TIP3   OH246118   1.811   6.567  10.697
 7308TIP3    H146119   1.890   6.540  10.650
 7308TIP3    H246120   1.841   6.639  10.753
 7309TIP3   OH246121   0.069   4.587  11.289
 7309TIP3    H146122   9.198   4.603  11.323
 7309TIP3    H246123   0.061   4.602  11.195
 7310TIP3   OH246124   0.398   6.242  11.641
 7310TIP3    H146125   0.397   6.167  11.582
 7310TIP3    H246126   0.384   6.204  11.728
 7311TIP3   OH246127   0.686   6.431  11.353
 7311TIP3    H146128   0.641   6.511  11.325
 7311TIP3    H246129   0.778   6.446  11.332
 7312TIP3   OH246130   1.187   6.667  11.664
 7312TIP3    H146131   1.210   6.581  11.700
 7312TIP3    H246132   1.270   6.711  11.651
 7313TIP3   OH246133   1.407   6.830  11.615
 7313TIP3    H146134   1.463   6.889  11.564
 7313TIP3    H246135   1.444   6.832  11.703
 7314TIP3   OH246136   2.032   4.419  11.457
 7314TIP3    H146137   1.955   4.427  11.401
 7314TIP3    H246138   2.058   4.328  11.450
 7315TIP3   OH246139   0.326   6.768  11.362
 7315TIP3    H146140   0.237   6.799  11.346
 7315TIP3    H246141   0.356   6.818  11.438
 7316TIP3   OH246142   0.574   6.668  11.267
 7316TIP3    H146143   0.492   6.704  11.300
 7316TIP3    H246144   0.606   6.733  11.205
 7317TIP3   OH246145   1.206   6.614  11.218
 7317TIP3    H146146   1.205   6.660  11.134
 7317TIP3    H246147   1.216   6.684  11.283
 7318TIP3   OH246148   1.500   6.574  11.156
 7318TIP3    H146149   1.423   6.598  11.208
 7318TIP3    H246150   1.573   6.618  11.200
 7319TIP3   OH246151   1.749   6.671  11.251
 7319TIP3    H146152   1.773   6.761  11.270
 7319TIP3    H246153   1.807   6.645  11.179
 7320TIP3   OH246154   0.350   6.612  11.034
 7320TIP3    H146155   0.330   6.582  11.122
 7320TIP3    H246156   0.433   6.570  11.012
 7321TIP3   OH246157   0.568   6.462  10.960
 7321TIP3    H146158   0.545   6.379  11.001
 7321TIP3    H246159   0.657   6.481  10.991
 7322TIP3   OH246160   0.841   6.508  11.035
 7322TIP3    H146161   0.893   6.450  10.980
 7322TIP3    H246162   0.877   6.496  11.123
 7323TIP3   OH246163   1.044   4.767  10.827
 7323TIP3    H146164   0.973   4.712  10.860
 7323TIP3    H246165   1.114   4.759  10.892
 7324TIP3   OH246166   1.943   4.512  10.860
 7324TIP3    H146167   2.007   4.567  10.813
 7324TIP3    H246168   1.864   4.565  10.863
 7325TIP3   OH246169   2.146   4.636  10.708
 7325TIP3    H146170   2.193   4.554  10.694
 7325TIP3    H246171   2.213   4.697  10.739
 7326TIP3   OH246172   0.366   4.437  10.700
 7326TIP3    H146173   0.280   4.413  10.664
 7326TIP3    H246174   0.418   4.357  10.692
 7327TIP3   OH246175   0.132   4.686  10.339
 7327TIP3    H146176   0.220   4.699  10.303
 7327TIP3    H246177   0.129   4.743  10.415
 7328TIP3   OH246178   0.858   4.422  10.733
 7328TIP3    H146179   0.910   4.470  10.668
 7328TIP3    H246180   0.850   4.482  10.807
 7329TIP3   OH246181   1.688   4.629  10.855
 7329TIP3    H146182   1.645   4.664  10.777
 7329TIP3    H246183   1.642   4.547  10.873
 7330TIP3   OH246184   1.789   4.631  10.457
 7330TIP3    H146185   1.730   4.684  10.404
 7330TIP3    H246186   1.734   4.564  10.496
 7331TIP3   OH246187   0.223   6.715  10.401
 7331TIP3    H146188   0.174   6.683  10.477
 7331TIP3    H246189   0.209   6.810  10.402
 7332TIP3   OH246190   0.392   4.717  10.254
 7332TIP3    H146191   0.408   4.623  10.252
 7332TIP3    H246192   0.477   4.756  10.232
 7333TIP3   OH246193   1.047   4.924  10.385
 7333TIP3    H146194   1.091   4.858  10.438
 7333TIP3    H246195   1.043   5.001  10.441
 7334TIP3   OH246196   1.280   6.587  10.267
 7334TIP3    H146197   1.374   6.602  10.260
 7334TIP3    H246198   1.266   6.504  10.222
 7335TIP3   OH246199   2.045   6.528  10.552
 7335TIP3    H146200   2.027   6.454  10.494
 7335TIP3    H246201   2.046   6.604  10.494
 7336TIP3   OH246202   0.370   4.598  11.624
 7336TIP3    H146203   0.321   4.533  11.673
 7336TIP3    H246204   0.454   4.604  11.669
 7337TIP3   OH246205   0.580   4.604  11.810
 7337TIP3    H146206   0.676   4.604  11.803
 7337TIP3    H246207   0.560   4.526  11.862
 7338TIP3   OH246208   0.485   6.755  10.323
 7338TIP3    H146209   0.394   6.735  10.345
 7338TIP3    H246210   0.529   6.671  10.326
 7339TIP3   OH246211   1.631   4.425  11.721
 7339TIP3    H146212   1.604   4.401  11.810
 7339TIP3    H246213   1.724   4.447  11.730
 7340TIP3   OH246214   1.977   6.446  11.607
 7340TIP3    H146215   1.895   6.448  11.558
 7340TIP3    H246216   1.984   6.534  11.646
 7341TIP3   OH246217   3.797   5.743  10.644
 7341TIP3    H146218   3.766   5.830  10.616
 7341TIP3    H246219   3.732   5.682  10.610
 7342TIP3   OH246220   3.337   5.361  11.188
 7342TIP3    H146221   3.423   5.400  11.203
 7342TIP3    H246222   3.345   5.316  11.104
 7343TIP3   OH246223   2.668   5.624  11.188
 7343TIP3    H146224   2.742   5.577  11.149
 7343TIP3    H246225   2.677   5.611  11.282
 7344TIP3   OH246226   3.971   6.047  10.861
 7344TIP3    H146227   3.976   5.952  10.863
 7344TIP3    H246228   3.988   6.074  10.951
 7345TIP3   OH246229   2.847   6.108  10.987
 7345TIP3    H146230   2.814   6.018  10.990
 7345TIP3    H246231   2.930   6.105  11.034
 7346TIP3   OH246232   2.365   5.232  10.641
 7346TIP3    H146233   2.301   5.241  10.711
 7346TIP3    H246234   2.317   5.254  10.561
 7347TIP3   OH246235   2.424   5.554  10.867
 7347TIP3    H146236   2.443   5.462  10.882
 7347TIP3    H246237   2.437   5.566  10.773
 7348TIP3   OH246238   3.762   6.713  10.796
 7348TIP3    H146239   3.796   6.638  10.747
 7348TIP3    H246240   3.686   6.679  10.843
 7349TIP3   OH246241   3.276   5.872  11.116
 7349TIP3    H146242   3.330   5.825  11.053
 7349TIP3    H246243   3.336   5.895  11.187
 7350TIP3   OH246244   4.415   4.794  11.163
 7350TIP3    H146245   4.412   4.875  11.213
 7350TIP3    H246246   4.447   4.820  11.077
 7351TIP3   OH246247   3.825   5.322  11.009
 7351TIP3    H146248   3.886   5.249  11.013
 7351TIP3    H246249   3.756   5.293  10.949
 7352TIP3   OH246250   3.011   4.994  10.804
 7352TIP3    H146251   2.973   5.075  10.770
 7352TIP3    H246252   2.982   4.926  10.744
 7353TIP3   OH246253   3.883   5.069  10.745
 7353TIP3    H146254   3.936   5.082  10.824
 7353TIP3    H246255   3.945   5.081  10.673
 7354TIP3   OH246256   2.471   5.290  10.932
 7354TIP3    H146257   2.516   5.262  11.012
 7354TIP3    H246258   2.520   5.248  10.861
 7355TIP3   OH246259   2.999   5.452  10.833
 7355TIP3    H146260   3.091   5.425  10.835
 7355TIP3    H246261   2.952   5.376  10.797
 7356TIP3   OH246262   4.408   5.018  11.323
 7356TIP3    H146263   4.398   5.113  11.313
 7356TIP3    H246264   4.485   5.008  11.380
 7357TIP3   OH246265   2.803   4.874  11.238
 7357TIP3    H146266   2.797   4.932  11.162
 7357TIP3    H246267   2.737   4.908  11.299
 7358TIP3   OH246268   3.711   5.992  10.542
 7358TIP3    H146269   3.625   6.010  10.505
 7358TIP3    H246270   3.731   6.070  10.594
 7359TIP3   OH246271   3.061   5.723  11.213
 7359TIP3    H146272   3.001   5.787  11.252
 7359TIP3    H246273   3.133   5.776  11.178
 7360TIP3   OH246274   4.023   5.124  10.983
 7360TIP3    H146275   4.032   5.047  11.039
 7360TIP3    H246276   4.104   5.174  10.999
 7361TIP3   OH246277   2.816   5.020  11.002
 7361TIP3    H146278   2.841   5.105  11.036
 7361TIP3    H246279   2.888   4.996  10.943
 7362TIP3   OH246280   2.876   5.924  11.295
 7362TIP3    H146281   2.841   5.927  11.206
 7362TIP3    H246282   2.800   5.906  11.351
 7363TIP3   OH246283   2.370   5.964  10.389
 7363TIP3    H146284   2.410   6.006  10.313
 7363TIP3    H246285   2.356   6.036  10.451
 7364TIP3   OH246286   4.007   6.192  11.109
 7364TIP3    H146287   3.935   6.207  11.171
 7364TIP3    H246288   4.004   6.268  11.051
 7365TIP3   OH246289   4.167   4.695  11.252
 7365TIP3    H146290   4.105   4.762  11.222
 7365TIP3    H246291   4.249   4.717  11.210
 7366TIP3   OH246292   3.040   4.466  10.968
 7366TIP3    H146293   3.038   4.379  11.008
 7366TIP3    H246294   2.985   4.520  11.023
 7367TIP3   OH246295   3.840   6.488  10.640
 7367TIP3    H146296   3.847   6.392  10.641
 7367TIP3    H246297   3.929   6.518  10.654
 7368TIP3   OH246298   3.883   6.209  10.652
 7368TIP3    H146299   3.929   6.171  10.578
 7368TIP3    H246300   3.913   6.158  10.728
 7369TIP3   OH246301   4.237   5.942  11.433
 7369TIP3    H146302   4.249   5.889  11.354
 7369TIP3    H246303   4.230   6.032  11.400
 7370TIP3   OH246304   3.642   5.561  10.488
 7370TIP3    H146305   3.571   5.573  10.425
 7370TIP3    H246306   3.719   5.544  10.433
 7371TIP3   OH246307   3.549   5.362  10.259
 7371TIP3    H146308   3.645   5.359  10.253
 7371TIP3    H246309   3.522   5.270  10.253
 7372TIP3   OH246310   4.396   5.548  11.262
 7372TIP3    H146311   4.349   5.631  11.254
 7372TIP3    H246312   4.482   5.565  11.224
 7373TIP3   OH246313   4.032   5.645  10.534
 7373TIP3    H146314   3.960   5.684  10.584
 7373TIP3    H246315   4.091   5.609  10.601
 7374TIP3   OH246316   3.967   5.375  11.566
 7374TIP3    H146317   3.999   5.456  11.607
 7374TIP3    H246318   3.931   5.404  11.482
 7375TIP3   OH246319   2.884   5.697  10.762
 7375TIP3    H146320   2.821   5.675  10.693
 7375TIP3    H246321   2.926   5.614  10.784
 7376TIP3   OH246322   3.121   6.091  11.039
 7376TIP3    H146323   3.130   6.083  10.944
 7376TIP3    H246324   3.174   6.019  11.074
 7377TIP3   OH246325   2.906   5.528  11.085
 7377TIP3    H146326   2.939   5.515  10.996
 7377TIP3    H246327   2.965   5.593  11.123
 7378TIP3   OH246328   3.824   6.271  11.303
 7378TIP3    H146329   3.774   6.351  11.313
 7378TIP3    H246330   3.790   6.212  11.370
 7379TIP3   OH246331   3.020   6.101  11.471
 7379TIP3    H146332   2.956   6.167  11.496
 7379TIP3    H246333   2.976   6.047  11.405
 7380TIP3   OH246334   3.881   5.507  10.350
 7380TIP3    H146335   3.938   5.546  10.416
 7380TIP3    H246336   3.896   5.561  10.272
 7381TIP3   OH246337   2.719   5.605  11.467
 7381TIP3    H146338   2.708   5.700  11.464
 7381TIP3    H246339   2.672   5.577  11.546
 7382TIP3   OH246340   3.564   6.490  10.557
 7382TIP3    H146341   3.654   6.477  10.588
 7382TIP3    H246342   3.556   6.584  10.544
 7383TIP3   OH246343   2.849   6.308  11.544
 7383TIP3    H146344   2.854   6.377  11.478
 7383TIP3    H246345   2.757   6.282  11.545
 7384TIP3   OH246346   4.282   4.521  10.451
 7384TIP3    H146347   4.191   4.551  10.446
 7384TIP3    H246348   4.319   4.572  10.523
 7385TIP3   OH246349   2.715   5.623  10.554
 7385TIP3    H146350   2.684   5.695  10.499
 7385TIP3    H246351   2.676   5.544  10.516
 7386TIP3   OH246352   4.460   6.384  10.250
 7386TIP3    H146353   4.495   6.473  10.247
 7386TIP3    H246354   4.526   6.334  10.296
 7387TIP3   OH246355   2.386   5.800  11.361
 7387TIP3    H146356   2.383   5.765  11.271
 7387TIP3    H246357   2.377   5.722  11.416
 7388TIP3   OH246358   2.393   6.436  11.066
 7388TIP3    H146359   2.461   6.449  11.132
 7388TIP3    H246360   2.322   6.494  11.093
 7389TIP3   OH246361   4.357   6.329  11.665
 7389TIP3    H146362   4.377   6.279  11.744
 7389TIP3    H246363   4.271   6.368  11.682
 7390TIP3   OH246364   3.240   6.275  11.488
 7390TIP3    H146365   3.245   6.279  11.584
 7390TIP3    H246366   3.166   6.217  11.471
 7391TIP3   OH246367   3.541   6.760  10.489
 7391TIP3    H146368   3.484   6.755  10.412
 7391TIP3    H246369   3.513   6.838  10.535
 7392TIP3   OH246370   2.860   6.524  10.708
 7392TIP3    H146371   2.859   6.477  10.791
 7392TIP3    H246372   2.775   6.506  10.669
 7393TIP3   OH246373   3.774   6.501  10.239
 7393TIP3    H146374   3.838   6.432  10.260
 7393TIP3    H246375   3.799   6.574  10.295
 7394TIP3   OH246376   3.809   6.689  10.443
 7394TIP3    H146377   3.721   6.725  10.460
 7394TIP3    H246378   3.819   6.619  10.507
 7395TIP3   OH246379   4.237   5.264  11.603
 7395TIP3    H146380   4.146   5.290  11.588
 7395TIP3    H246381   4.236   5.169  11.594
 7396TIP3   OH246382   2.646   5.871  11.443
 7396TIP3    H146383   2.632   5.915  11.526
 7396TIP3    H246384   2.558   5.860  11.406
 7397TIP3   OH246385   2.854   4.633  11.103
 7397TIP3    H146386   2.794   4.640  11.029
 7397TIP3    H246387   2.846   4.718  11.147
 7398TIP3   OH246388   3.360   4.428  11.293
 7398TIP3    H146389   3.423   4.421  11.365
 7398TIP3    H246390   3.299   4.496  11.321
 7399TIP3   OH246391   3.957   5.096  11.542
 7399TIP3    H146392   3.900   5.064  11.612
 7399TIP3    H246393   3.955   5.191  11.551
 7400TIP3   OH246394   3.960   5.704  10.174
 7400TIP3    H146395   3.950   5.758  10.095
 7400TIP3    H246396   4.019   5.754  10.230
 7401TIP3   OH246397   3.478   5.093  10.228
 7401TIP3    H146398   3.423   5.042  10.288
 7401TIP3    H246399   3.445   5.071  10.141
 7402TIP3   OH246400   2.907   5.251  11.125
 7402TIP3    H146401   2.845   5.238  11.197
 7402TIP3    H246402   2.907   5.345  11.110
 7403TIP3   OH246403   2.892   5.227  10.708
 7403TIP3    H146404   2.798   5.209  10.701
 7403TIP3    H246405   2.924   5.220  10.618
 7404TIP3   OH246406   3.591   5.298  10.576
 7404TIP3    H146407   3.591   5.392  10.561
 7404TIP3    H246408   3.666   5.265  10.527
 7405TIP3   OH246409   3.489   5.323  11.602
 7405TIP3    H146410   3.432   5.255  11.638
 7405TIP3    H246411   3.561   5.330  11.665
 7406TIP3   OH246412   3.652   5.203  10.827
 7406TIP3    H146413   3.622   5.242  10.745
 7406TIP3    H246414   3.722   5.143  10.801
 7407TIP3   OH246415   2.741   5.209  11.333
 7407TIP3    H146416   2.783   5.263  11.400
 7407TIP3    H246417   2.699   5.139  11.381
 7408TIP3   OH246418   3.043   5.079  10.136
 7408TIP3    H146419   3.041   5.024  10.214
 7408TIP3    H246420   3.017   5.021  10.065
 7409TIP3   OH246421   2.351   4.813  10.760
 7409TIP3    H146422   2.433   4.849  10.793
 7409TIP3    H246423   2.347   4.841  10.668
 7410TIP3   OH246424   2.364   5.080  10.332
 7410TIP3    H146425   2.445   5.125  10.307
 7410TIP3    H246426   2.306   5.150  10.361
 7411TIP3   OH246427   3.619   5.411  11.187
 7411TIP3    H146428   3.691   5.398  11.127
 7411TIP3    H246429   3.627   5.341  11.252
 7412TIP3   OH246430   3.286   5.024  10.807
 7412TIP3    H146431   3.191   5.015  10.815
 7412TIP3    H246432   3.319   4.935  10.818
 7413TIP3   OH246433   2.617   5.155  10.723
 7413TIP3    H146434   2.537   5.175  10.675
 7413TIP3    H246435   2.609   5.063  10.748
 7414TIP3   OH246436   3.074   5.198  10.488
 7414TIP3    H146437   3.162   5.195  10.524
 7414TIP3    H246438   3.082   5.253  10.410
 7415TIP3   OH246439   3.990   4.888  11.143
 7415TIP3    H146440   3.929   4.938  11.197
 7415TIP3    H246441   3.933   4.839  11.083
 7416TIP3   OH246442   3.101   5.326  10.240
 7416TIP3    H146443   3.040   5.384  10.195
 7416TIP3    H246444   3.090   5.241  10.197
 7417TIP3   OH246445   4.187   6.714  11.619
 7417TIP3    H146446   4.238   6.707  11.538
 7417TIP3    H246447   4.242   6.767  11.677
 7418TIP3   OH246448   2.576   5.982  11.685
 7418TIP3    H146449   2.623   5.992  11.768
 7418TIP3    H246450   2.493   5.942  11.711
 7419TIP3   OH246451   3.401   5.226  10.958
 7419TIP3    H146452   3.491   5.223  10.926
 7419TIP3    H246453   3.357   5.155  10.911
 7420TIP3   OH246454   2.925   4.807  10.623
 7420TIP3    H146455   2.867   4.731  10.627
 7420TIP3    H246456   2.941   4.820  10.530
 7421TIP3   OH246457   3.126   5.140  11.266
 7421TIP3    H146458   3.053   5.171  11.211
 7421TIP3    H246459   3.198   5.199  11.243
 7422TIP3   OH246460   3.197   5.974  10.414
 7422TIP3    H146461   3.194   5.895  10.360
 7422TIP3    H246462   3.156   5.947  10.497
 7423TIP3   OH246463   4.278   5.800  11.197
 7423TIP3    H146464   4.357   5.821  11.148
 7423TIP3    H246465   4.209   5.797  11.131
 7424TIP3   OH246466   3.699   5.010  10.381
 7424TIP3    H146467   3.629   5.032  10.320
 7424TIP3    H246468   3.750   5.091  10.390
 7425TIP3   OH246469   3.456   6.100  11.521
 7425TIP3    H146470   3.431   6.089  11.613
 7425TIP3    H246471   3.396   6.167  11.488
 7426TIP3   OH246472   3.830   5.246  10.434
 7426TIP3    H146473   3.910   5.204  10.468
 7426TIP3    H246474   3.859   5.332  10.404
 7427TIP3   OH246475   2.799   5.835  11.002
 7427TIP3    H146476   2.828   5.795  10.921
 7427TIP3    H246477   2.746   5.768  11.045
 7428TIP3   OH246478   3.461   6.074  10.445
 7428TIP3    H146479   3.445   6.166  10.425
 7428TIP3    H246480   3.375   6.033  10.436
 7429TIP3   OH246481   2.359   5.587  11.525
 7429TIP3    H146482   2.435   5.574  11.583
 7429TIP3    H246483   2.293   5.526  11.560
 7430TIP3   OH246484   3.258   5.500  11.628
 7430TIP3    H146485   3.217   5.503  11.541
 7430TIP3    H246486   3.337   5.448  11.615
 7431TIP3   OH246487   3.732   6.129  11.519
 7431TIP3    H146488   3.639   6.109  11.512
 7431TIP3    H246489   3.741   6.174  11.603
 7432TIP3   OH246490   4.474   5.310  10.416
 7432TIP3    H146491   4.384   5.284  10.396
 7432TIP3    H246492   4.483   5.398  10.380
 7433TIP3   OH246493   4.465   5.857  11.576
 7433TIP3    H146494   4.389   5.899  11.535
 7433TIP3    H246495   4.525   5.839  11.503
 7434TIP3   OH246496   4.233   6.313  10.380
 7434TIP3    H146497   4.240   6.217  10.385
 7434TIP3    H246498   4.303   6.339  10.320
 7435TIP3   OH246499   3.972   5.764  10.866
 7435TIP3    H146500   3.904   5.752  10.800
 7435TIP3    H246501   3.990   5.676  10.900
 7436TIP3   OH246502   3.014   6.117  10.767
 7436TIP3    H146503   3.009   6.204  10.728
 7436TIP3    H246504   2.943   6.116  10.832
 7437TIP3   OH246505   2.526   5.525  10.337
 7437TIP3    H146506   2.553   5.617  10.335
 7437TIP3    H246507   2.431   5.528  10.330
 7438TIP3   OH246508   3.058   5.880  10.631
 7438TIP3    H146509   3.044   5.962  10.679
 7438TIP3    H246510   3.000   5.817  10.675
 7439TIP3   OH246511   3.156   6.478  11.311
 7439TIP3    H146512   3.211   6.556  11.308
 7439TIP3    H246513   3.199   6.420  11.374
 7440TIP3   OH246514   3.055   6.641  10.563
 7440TIP3    H146515   2.993   6.600  10.623
 7440TIP3    H246516   3.087   6.718  10.610
 7441TIP3   OH246517   3.466   5.922  11.306
 7441TIP3    H146518   3.459   5.983  11.379
 7441TIP3    H246519   3.551   5.880  11.317
 7442TIP3   OH246520   3.961   6.056  10.424
 7442TIP3    H146521   4.019   5.984  10.398
 7442TIP3    H246522   3.878   6.013  10.445
 7443TIP3   OH246523   4.037   6.397  11.424
 7443TIP3    H146524   3.959   6.351  11.391
 7443TIP3    H246525   4.033   6.484  11.384
 7444TIP3   OH246526   4.547   6.647  10.303
 7444TIP3    H146527   4.605   6.723  10.303
 7444TIP3    H246528   4.461   6.683  10.326
 7445TIP3   OH246529   2.597   4.982  11.419
 7445TIP3    H146530   2.509   5.009  11.392
 7445TIP3    H246531   2.583   4.930  11.498
 7446TIP3   OH246532   4.126   5.834  10.357
 7446TIP3    H146533   4.101   5.769  10.422
 7446TIP3    H246534   4.221   5.834  10.357
 7447TIP3   OH246535   2.601   6.535  11.237
 7447TIP3    H146536   2.680   6.501  11.280
 7447TIP3    H246537   2.583   6.618  11.283
 7448TIP3   OH246538   2.994   6.155  10.347
 7448TIP3    H146539   3.063   6.091  10.364
 7448TIP3    H246540   3.035   6.240  10.366
 7449TIP3   OH246541   2.598   5.796  10.369
 7449TIP3    H146542   2.519   5.848  10.383
 7449TIP3    H246543   2.662   5.858  10.335
 7450TIP3   OH246544   3.826   5.043  11.301
 7450TIP3    H146545   3.875   5.053  11.383
 7450TIP3    H246546   3.747   5.095  11.314
 7451TIP3   OH246547   3.719   4.876  10.620
 7451TIP3    H146548   3.718   4.915  10.532
 7451TIP3    H246549   3.775   4.934  10.671
 7452TIP3   OH246550   3.405   6.347  10.387
 7452TIP3    H146551   3.458   6.387  10.456
 7452TIP3    H246552   3.442   6.381  10.306
 7453TIP3   OH246553   3.339   5.166  10.576
 7453TIP3    H146554   3.421   5.215  10.578
 7453TIP3    H246555   3.331   5.128  10.664
 7454TIP3   OH246556   3.599   5.205  11.372
 7454TIP3    H146557   3.570   5.252  11.451
 7454TIP3    H246558   3.521   5.159  11.342
 7455TIP3   OH246559   3.470   4.765  10.579
 7455TIP3    H146560   3.431   4.762  10.666
 7455TIP3    H246561   3.558   4.801  10.594
 7456TIP3   OH246562   3.136   6.397  10.414
 7456TIP3    H146563   3.225   6.368  10.392
 7456TIP3    H246564   3.142   6.422  10.506
 7457TIP3   OH246565   3.055   4.941  10.378
 7457TIP3    H146566   3.044   5.022  10.427
 7457TIP3    H246567   3.149   4.922  10.385
 7458TIP3   OH246568   4.224   4.991  11.538
 7458TIP3    H146569   4.130   4.999  11.524
 7458TIP3    H246570   4.261   4.989  11.450
 7459TIP3   OH246571   4.047   5.486  10.949
 7459TIP3    H146572   3.963   5.445  10.969
 7459TIP3    H246573   4.112   5.430  10.992
 7460TIP3   OH246574   2.780   5.992  10.264
 7460TIP3    H146575   2.840   6.056  10.302
 7460TIP3    H246576   2.837   5.932  10.215
 7461TIP3   OH246577   2.565   5.259  10.266
 7461TIP3    H146578   2.551   5.348  10.299
 7461TIP3    H246579   2.638   5.267  10.205
 7462TIP3   OH246580   4.170   6.678  11.099
 7462TIP3    H146581   4.169   6.725  11.015
 7462TIP3    H246582   4.247   6.622  11.093
 7463TIP3   OH246583   2.674   4.626  10.891
 7463TIP3    H146584   2.702   4.608  10.801
 7463TIP3    H246585   2.635   4.543  10.920
 7464TIP3   OH246586   2.611   6.523  10.603
 7464TIP3    H146587   2.539   6.517  10.666
 7464TIP3    H246588   2.568   6.532  10.518
 7465TIP3   OH246589   2.434   6.774  11.683
 7465TIP3    H146590   2.507   6.737  11.732
 7465TIP3    H246591   2.397   6.700  11.636
 7466TIP3   OH246592   2.832   6.432  11.798
 7466TIP3    H146593   2.910   6.405  11.846
 7466TIP3    H246594   2.840   6.388  11.713
 7467TIP3   OH246595   3.517   6.471  10.165
 7467TIP3    H146596   3.523   6.420  10.084
 7467TIP3    H246597   3.608   6.481  10.193
 7468TIP3   OH246598   3.720   6.259  11.765
 7468TIP3    H146599   3.711   6.188  11.828
 7468TIP3    H246600   3.790   6.314  11.800
 7469TIP3   OH246601   3.959   6.318  10.326
 7469TIP3    H146602   3.948   6.227  10.351
 7469TIP3    H246603   4.052   6.336  10.341
 7470TIP3   OH246604   2.326   5.892  11.763
 7470TIP3    H146605   2.272   5.841  11.822
 7470TIP3    H246606   2.277   5.894  11.681
 7471TIP3   OH246607   2.966   5.831  10.141
 7471TIP3    H146608   3.024   5.789  10.205
 7471TIP3    H246609   3.016   5.832  10.060
 7472TIP3   OH246610   3.140   5.984  11.689
 7472TIP3    H146611   3.097   6.019  11.611
 7472TIP3    H246612   3.163   5.894  11.665
 7473TIP3   OH246613   3.998   5.864  11.566
 7473TIP3    H146614   4.082   5.891  11.527
 7473TIP3    H246615   3.939   5.937  11.549
 7474TIP3   OH246616   2.573   5.546  11.698
 7474TIP3    H146617   2.563   5.457  11.731
 7474TIP3    H246618   2.573   5.601  11.777
 7475TIP3   OH246619   3.145   5.717  10.318
 7475TIP3    H146620   3.112   5.696  10.406
 7475TIP3    H246621   3.211   5.650  10.301
 7476TIP3   OH246622   2.912   5.403  11.457
 7476TIP3    H146623   2.849   5.475  11.462
 7476TIP3    H246624   2.991   5.443  11.422
 7477TIP3   OH246625   3.312   5.502  10.287
 7477TIP3    H146626   3.249   5.432  10.275
 7477TIP3    H246627   3.397   5.460  10.274
 7478TIP3   OH246628   3.717   5.807  11.851
 7478TIP3    H146629   3.779   5.796  11.778
 7478TIP3    H246630   3.698   5.717  11.880
 7479TIP3   OH246631   4.434   5.610  19.739
 7479TIP3    H146632   4.509   5.665  19.760
 7479TIP3    H246633   4.371   5.628  19.809
 7480TIP3   OH246634   3.072   5.193  11.537
 7480TIP3    H146635   3.094   5.154  11.453
 7480TIP3    H246636   3.018   5.269  11.515
 7481TIP3   OH246637   3.076   4.854  11.310
 7481TIP3    H146638   3.106   4.944  11.298
 7481TIP3    H246639   2.982   4.858  11.292
 7482TIP3   OH246640   3.154   5.500  11.358
 7482TIP3    H146641   3.216   5.454  11.301
 7482TIP3    H246642   3.130   5.579  11.308
 7483TIP3   OH246643   3.738   5.326  11.744
 7483TIP3    H146644   3.747   5.232  11.759
 7483TIP3    H246645   3.813   5.349  11.689
 7484TIP3   OH246646   4.060   5.613  11.666
 7484TIP3    H146647   4.025   5.696  11.633
 7484TIP3    H246648   4.154   5.629  11.677
 7485TIP3   OH246649   2.989   5.194  11.802
 7485TIP3    H146650   2.897   5.218  11.796
 7485TIP3    H246651   3.020   5.197  11.711
 7486TIP3   OH246652   3.156   4.598  11.391
 7486TIP3    H146653   3.146   4.690  11.366
 7486TIP3    H246654   3.068   4.562  11.388
 7487TIP3   OH246655   3.307   5.136  11.684
 7487TIP3    H146656   3.280   5.070  11.748
 7487TIP3    H246657   3.228   5.155  11.633
 7488TIP3   OH246658   3.782   5.051  11.754
 7488TIP3    H146659   3.702   5.000  11.766
 7488TIP3    H246660   3.841   5.020  11.824
 7489TIP3   OH246661   3.934   4.963  11.961
 7489TIP3    H146662   4.021   4.978  11.999
 7489TIP3    H246663   3.875   4.959  12.036
 7490TIP3   OH246664   2.492   4.834  11.637
 7490TIP3    H146665   2.492   4.742  11.613
 7490TIP3    H246666   2.524   4.836  11.727
 7491TIP3   OH246667   3.276   4.550  11.646
 7491TIP3    H146668   3.285   4.455  11.647
 7491TIP3    H246669   3.234   4.569  11.562
 7492TIP3   OH246670   3.333   4.754  11.835
 7492TIP3    H146671   3.314   4.685  11.771
 7492TIP3    H246672   3.261   4.817  11.825
 7493TIP3   OH246673   3.131   6.742  10.238
 7493TIP3    H146674   3.226   6.749  10.234
 7493TIP3    H246675   3.099   6.829  10.211
 7494TIP3   OH246676   2.527   6.073  10.194
 7494TIP3    H146677   2.616   6.053  10.220
 7494TIP3    H246678   2.534   6.096  10.101
 7495TIP3   OH246679   2.233   6.685  10.689
 7495TIP3    H146680   2.176   6.615  10.657
 7495TIP3    H246681   2.303   6.639  10.736
 7496TIP3   OH246682   2.440   6.544  10.817
 7496TIP3    H146683   2.401   6.486  10.883
 7496TIP3    H246684   2.516   6.583  10.861
 7497TIP3   OH246685   4.392   6.522  11.146
 7497TIP3    H146686   4.391   6.471  11.226
 7497TIP3    H246687   4.481   6.509  11.111
 7498TIP3   OH246688   4.375   6.396  11.396
 7498TIP3    H146689   4.330   6.319  11.364
 7498TIP3    H246690   4.390   6.379  11.489
 7499TIP3   OH246691   4.224   6.022  11.969
 7499TIP3    H146692   4.141   6.066  11.948
 7499TIP3    H246693   4.291   6.088  11.952
 7500TIP3   OH246694   4.407   5.810  10.393
 7500TIP3    H146695   4.478   5.873  10.384
 7500TIP3    H246696   4.397   5.797  10.487
 7501TIP3   OH246697   4.358   5.754  10.657
 7501TIP3    H146698   4.303   5.678  10.676
 7501TIP3    H246699   4.379   5.791  10.743
 7502TIP3   OH246700   4.513   5.830  11.060
 7502TIP3    H146701   4.563   5.753  11.086
 7502TIP3    H246702   4.579   5.898  11.043
 7503TIP3   OH246703   4.194   6.194  11.320
 7503TIP3    H146704   4.143   6.259  11.368
 7503TIP3    H246705   4.147   6.180  11.238
 7504TIP3   OH246706   4.503   5.564  10.304
 7504TIP3    H146707   4.504   5.579  10.209
 7504TIP3    H246708   4.466   5.644  10.341
 7505TIP3   OH246709   4.219   5.225  10.333
 7505TIP3    H146710   4.174   5.287  10.275
 7505TIP3    H246711   4.237   5.149  10.277
 7506TIP3   OH246712   4.199   5.533  10.724
 7506TIP3    H146713   4.247   5.450  10.718
 7506TIP3    H246714   4.146   5.524  10.803
 7507TIP3   OH246715   2.403   5.667  11.111
 7507TIP3    H146716   2.406   5.629  11.023
 7507TIP3    H246717   2.492   5.656  11.144
 7508TIP3   OH246718   4.328   5.660  11.710
 7508TIP3    H146719   4.381   5.581  11.700
 7508TIP3    H246720   4.377   5.728  11.664
 7509TIP3   OH246721   4.459   5.416  11.682
 7509TIP3    H146722   4.387   5.366  11.644
 7509TIP3    H246723   4.491   5.361  11.754
 7510TIP3   OH246724   4.264   5.018  10.163
 7510TIP3    H146725   4.351   4.980  10.173
 7510TIP3    H246726   4.219   4.959  10.102
 7511TIP3   OH246727   4.061   5.096  10.528
 7511TIP3    H146728   4.099   5.009  10.542
 7511TIP3    H246729   4.124   5.140  10.471
 7512TIP3   OH246730   4.243   5.293  11.042
 7512TIP3    H146731   4.326   5.292  10.994
 7512TIP3    H246732   4.268   5.289  11.134
 7513TIP3   OH246733   4.331   5.290  11.320
 7513TIP3    H146734   4.304   5.294  11.412
 7513TIP3    H246735   4.359   5.379  11.300
 7514TIP3   OH246736   2.281   4.980  11.522
 7514TIP3    H146737   2.353   4.933  11.563
 7514TIP3    H246738   2.205   4.962  11.578
 7515TIP3   OH246739   4.491   4.619  11.842
 7515TIP3    H146740   4.570   4.580  11.805
 7515TIP3    H246741   4.464   4.684  11.777
 7516TIP3   OH246742   4.176   4.839  10.569
 7516TIP3    H146743   4.246   4.795  10.618
 7516TIP3    H246744   4.119   4.768  10.540
 7517TIP3   OH246745   2.609   4.899  10.852
 7517TIP3    H146746   2.626   4.806  10.865
 7517TIP3    H246747   2.672   4.944  10.909
 7518TIP3   OH246748   2.184   5.335  10.959
 7518TIP3    H146749   2.278   5.317  10.956
 7518TIP3    H246750   2.175   5.406  11.023
 7519TIP3   OH246751   4.400   4.779  11.624
 7519TIP3    H146752   4.338   4.851  11.616
 7519TIP3    H246753   4.367   4.713  11.563
 7520TIP3   OH246754   4.510   4.905  10.197
 7520TIP3    H146755   4.553   4.823  10.220
 7520TIP3    H246756   4.568   4.973  10.230
 7521TIP3   OH246757   2.289   4.865  10.492
 7521TIP3    H146758   2.193   4.868  10.493
 7521TIP3    H246759   2.314   4.944  10.445
 7522TIP3   OH246760   4.083   6.610  10.685
 7522TIP3    H146761   4.164   6.568  10.656
 7522TIP3    H246762   4.110   6.667  10.756
 7523TIP3   OH246763   2.240   4.539  11.310
 7523TIP3    H146764   2.173   4.513  11.374
 7523TIP3    H246765   2.209   4.623  11.276
 7524TIP3   OH246766   2.590   6.229  11.560
 7524TIP3    H146767   2.498   6.256  11.551
 7524TIP3    H246768   2.585   6.142  11.600
 7525TIP3   OH246769   2.876   6.504  11.349
 7525TIP3    H146770   2.869   6.599  11.342
 7525TIP3    H246771   2.968   6.486  11.329
 7526TIP3   OH246772   3.412   6.630  11.633
 7526TIP3    H146773   3.425   6.548  11.683
 7526TIP3    H246774   3.501   6.656  11.608
 7527TIP3   OH246775   3.666   6.719  11.564
 7527TIP3    H146776   3.720   6.647  11.531
 7527TIP3    H246777   3.715   6.755  11.637
 7528TIP3   OH246778   4.314   4.570  11.456
 7528TIP3    H146779   4.255   4.606  11.390
 7528TIP3    H246780   4.327   4.479  11.429
 7529TIP3   OH246781   2.556   6.793  11.339
 7529TIP3    H146782   2.465   6.809  11.315
 7529TIP3    H246783   2.572   6.854  11.411
 7530TIP3   OH246784   2.839   6.775  11.313
 7530TIP3    H146785   2.744   6.785  11.324
 7530TIP3    H246786   2.859   6.823  11.232
 7531TIP3   OH246787   3.283   6.733  11.293
 7531TIP3    H146788   3.212   6.778  11.339
 7531TIP3    H246789   3.363   6.776  11.324
 7532TIP3   OH246790   3.753   6.538  11.346
 7532TIP3    H146791   3.685   6.595  11.309
 7532TIP3    H246792   3.835   6.583  11.327
 7533TIP3   OH246793   4.004   6.651  11.314
 7533TIP3    H146794   4.051   6.708  11.374
 7533TIP3    H246795   4.051   6.659  11.231
 7534TIP3   OH246796   2.663   6.602  10.977
 7534TIP3    H146797   2.631   6.584  11.065
 7534TIP3    H246798   2.726   6.532  10.959
 7535TIP3   OH246799   2.838   6.387  10.943
 7535TIP3    H146800   2.809   6.297  10.959
 7535TIP3    H246801   2.921   6.394  10.990
 7536TIP3   OH246802   3.076   6.366  11.071
 7536TIP3    H146803   3.105   6.275  11.074
 7536TIP3    H246804   3.109   6.404  11.152
 7537TIP3   OH246805   3.368   4.758  10.840
 7537TIP3    H146806   3.296   4.704  10.872
 7537TIP3    H246807   3.441   4.737  10.899
 7538TIP3   OH246808   4.187   4.519  10.835
 7538TIP3    H146809   4.249   4.574  10.786
 7538TIP3    H246810   4.105   4.568  10.834
 7539TIP3   OH246811   4.389   4.646  10.680
 7539TIP3    H146812   4.441   4.565  10.679
 7539TIP3    H246813   4.447   4.711  10.719
 7540TIP3   OH246814   2.756   4.573  10.626
 7540TIP3    H146815   2.708   4.588  10.545
 7540TIP3    H246816   2.768   4.479  10.630
 7541TIP3   OH246817   2.382   4.665  10.325
 7541TIP3    H146818   2.475   4.647  10.343
 7541TIP3    H246819   2.355   4.724  10.395
 7542TIP3   OH246820   3.084   4.422  10.702
 7542TIP3    H146821   3.093   4.510  10.666
 7542TIP3    H246822   3.072   4.435  10.796
 7543TIP3   OH246823   3.935   4.633  10.829
 7543TIP3    H146824   3.886   4.673  10.757
 7543TIP3    H246825   3.877   4.566  10.863
 7544TIP3   OH246826   4.022   4.620  10.478
 7544TIP3    H146827   3.962   4.659  10.414
 7544TIP3    H246828   3.972   4.549  10.519
 7545TIP3   OH246829   2.512   6.593  10.357
 7545TIP3    H146830   2.427   6.556  10.332
 7545TIP3    H246831   2.501   6.687  10.350
 7546TIP3   OH246832   2.651   4.598  10.365
 7546TIP3    H146833   2.653   4.502  10.360
 7546TIP3    H246834   2.708   4.626  10.293
 7547TIP3   OH246835   3.333   4.944  10.413
 7547TIP3    H146836   3.380   4.874  10.458
 7547TIP3    H246837   3.336   5.018  10.473
 7548TIP3   OH246838   3.415   6.721  10.234
 7548TIP3    H146839   3.477   6.770  10.180
 7548TIP3    H246840   3.437   6.629  10.217
 7549TIP3   OH246841   4.309   6.518  10.554
 7549TIP3    H146842   4.282   6.443  10.502
 7549TIP3    H246843   4.318   6.589  10.491
 7550TIP3   OH246844   2.505   4.557  11.627
 7550TIP3    H146845   2.434   4.523  11.680
 7550TIP3    H246846   2.584   4.544  11.681
 7551TIP3   OH246847   2.697   4.525  11.827
 7551TIP3    H146848   2.781   4.480  11.820
 7551TIP3    H246849   2.651   4.479  11.897
 7552TIP3   OH246850   2.790   6.634  10.324
 7552TIP3    H146851   2.773   6.729  10.325
 7552TIP3    H246852   2.703   6.594  10.330
 7553TIP3   OH246853   4.004   4.402  11.856
 7553TIP3    H146854   3.979   4.311  11.840
 7553TIP3    H246855   4.078   4.416  11.796
 7554TIP3   OH246856   4.110   6.455  11.684
 7554TIP3    H146857   4.081   6.425  11.597
 7554TIP3    H246858   4.132   6.547  11.671
 7555TIP3   OH246859   5.907   5.679  10.678
 7555TIP3    H146860   5.911   5.773  10.693
 7555TIP3    H246861   5.860   5.670  10.594
 7556TIP3   OH246862   5.939   5.597  10.954
 7556TIP3    H146863   5.871   5.540  10.988
 7556TIP3    H246864   5.909   5.623  10.867
 7557TIP3   OH246865   4.850   5.525  11.307
 7557TIP3    H146866   4.891   5.439  11.307
 7557TIP3    H246867   4.897   5.574  11.374
 7558TIP3   OH246868   6.247   5.935  10.908
 7558TIP3    H146869   6.237   5.841  10.922
 7558TIP3    H246870   6.252   5.972  10.996
 7559TIP3   OH246871   5.133   6.127  10.921
 7559TIP3    H146872   5.112   6.034  10.918
 7559TIP3    H246873   5.216   6.131  10.970
 7560TIP3   OH246874   4.653   5.270  10.628
 7560TIP3    H146875   4.593   5.269  10.703
 7560TIP3    H246876   4.596   5.287  10.552
 7561TIP3   OH246877   4.708   5.477  10.912
 7561TIP3    H146878   4.758   5.396  10.921
 7561TIP3    H246879   4.752   5.524  10.841
 7562TIP3   OH246880   6.137   6.592  10.941
 7562TIP3    H146881   6.162   6.506  10.909
 7562TIP3    H246882   6.098   6.576  11.027
 7563TIP3   OH246883   5.549   5.907  11.097
 7563TIP3    H146884   5.596   5.866  11.025
 7563TIP3    H246885   5.612   5.910  11.169
 7564TIP3   OH246886   6.646   4.842  11.196
 7564TIP3    H146887   6.667   4.922  11.244
 7564TIP3    H246888   6.659   4.866  11.104
 7565TIP3   OH246889   5.950   5.218  11.072
 7565TIP3    H146890   5.990   5.137  11.102
 7565TIP3    H246891   5.999   5.242  10.994
 7566TIP3   OH246892   5.209   5.006  10.810
 7566TIP3    H146893   5.213   5.096  10.777
 7566TIP3    H246894   5.172   4.955  10.738
 7567TIP3   OH246895   6.170   5.032  10.709
 7567TIP3    H146896   6.216   5.025  10.793
 7567TIP3    H246897   6.240   5.024  10.644
 7568TIP3   OH246898   4.828   5.232  10.911
 7568TIP3    H146899   4.886   5.179  10.966
 7568TIP3    H246900   4.860   5.218  10.822
 7569TIP3   OH246901   5.341   5.488  10.800
 7569TIP3    H146902   5.434   5.466  10.799
 7569TIP3    H246903   5.297   5.408  10.771
 7570TIP3   OH246904   6.701   5.084  11.326
 7570TIP3    H146905   6.672   5.171  11.298
 7570TIP3    H246906   6.789   5.097  11.358
 7571TIP3   OH246907   5.088   4.876  11.219
 7571TIP3    H146908   5.063   4.945  11.156
 7571TIP3    H246909   5.014   4.870  11.279
 7572TIP3   OH246910   5.913   5.953  10.675
 7572TIP3    H146911   5.864   5.987  10.600
 7572TIP3    H246912   5.983   6.017  10.690
 7573TIP3   OH246913   5.338   5.756  11.204
 7573TIP3    H146914   5.271   5.819  11.230
 7573TIP3    H246915   5.408   5.810  11.167
 7574TIP3   OH246916   6.299   5.025  10.952
 7574TIP3    H146917   6.288   4.955  11.016
 7574TIP3    H246918   6.366   5.082  10.989
 7575TIP3   OH246919   5.038   5.068  11.017
 7575TIP3    H146920   5.081   5.145  11.052
 7575TIP3    H246921   5.097   5.036  10.948
 7576TIP3   OH246922   5.140   5.946  11.265
 7576TIP3    H146923   5.121   5.980  11.178
 7576TIP3    H246924   5.054   5.928  11.303
 7577TIP3   OH246925   4.622   5.989  10.362
 7577TIP3    H146926   4.668   5.998  10.278
 7577TIP3    H246927   4.619   6.078  10.397
 7578TIP3   OH246928   6.285   6.224  11.103
 7578TIP3    H146929   6.199   6.232  11.143
 7578TIP3    H246930   6.275   6.261  11.015
 7579TIP3   OH246931   6.430   4.668  11.247
 7579TIP3    H146932   6.358   4.714  11.203
 7579TIP3    H246933   6.507   4.722  11.230
 7580TIP3   OH246934   5.383   4.516  10.944
 7580TIP3    H146935   5.379   4.432  10.990
 7580TIP3    H246936   5.315   4.569  10.986
 7581TIP3   OH246937   6.224   6.340  10.852
 7581TIP3    H146938   6.195   6.266  10.799
 7581TIP3    H246939   6.281   6.390  10.793
 7582TIP3   OH246940   6.157   6.106  10.712
 7582TIP3    H146941   6.191   6.074  10.628
 7582TIP3    H246942   6.191   6.044  10.776
 7583TIP3   OH246943   6.561   6.042  11.412
 7583TIP3    H146944   6.572   5.987  11.334
 7583TIP3    H246945   6.533   6.126  11.378
 7584TIP3   OH246946   5.782   5.667  10.432
 7584TIP3    H146947   5.702   5.719  10.427
 7584TIP3    H246948   5.848   5.719  10.386
 7585TIP3   OH246949   5.784   5.421  10.311
 7585TIP3    H146950   5.782   5.505  10.357
 7585TIP3    H246951   5.863   5.378  10.344
 7586TIP3   OH246952   6.697   5.595  11.218
 7586TIP3    H146953   6.647   5.676  11.218
 7586TIP3    H246954   6.775   5.615  11.167
 7587TIP3   OH246955   6.189   5.646  10.663
 7587TIP3    H146956   6.095   5.661  10.658
 7587TIP3    H246957   6.212   5.665  10.754
 7588TIP3   OH246958   6.396   5.394  11.472
 7588TIP3    H146959   6.390   5.482  11.508
 7588TIP3    H246960   6.308   5.375  11.439
 7589TIP3   OH246961   5.226   5.729  10.703
 7589TIP3    H146962   5.152   5.697  10.651
 7589TIP3    H246963   5.272   5.649  10.730
 7590TIP3   OH246964   5.396   6.127  11.009
 7590TIP3    H146965   5.422   6.128  10.917
 7590TIP3    H246966   5.448   6.056  11.048
 7591TIP3   OH246967   5.212   5.562  11.038
 7591TIP3    H146968   5.264   5.546  10.960
 7591TIP3    H246969   5.267   5.620  11.092
 7592TIP3   OH246970   6.035   6.280  11.204
 7592TIP3    H146971   6.037   6.376  11.202
 7592TIP3    H246972   5.948   6.257  11.171
 7593TIP3   OH246973   5.246   6.061  11.501
 7593TIP3    H146974   5.184   6.133  11.515
 7593TIP3    H246975   5.216   6.020  11.420
 7594TIP3   OH246976   6.116   5.566  10.405
 7594TIP3    H146977   6.163   5.598  10.482
 7594TIP3    H246978   6.083   5.644  10.361
 7595TIP3   OH246979   4.944   5.631  11.549
 7595TIP3    H146980   4.953   5.722  11.579
 7595TIP3    H246981   4.854   5.607  11.570
 7596TIP3   OH246982   5.909   6.579  10.610
 7596TIP3    H146983   5.869   6.492  10.608
 7596TIP3    H246984   5.835   6.639  10.602
 7597TIP3   OH246985   5.080   6.288  11.541
 7597TIP3    H146986   5.087   6.356  11.474
 7597TIP3    H246987   4.987   6.268  11.546
 7598TIP3   OH246988   6.559   4.508  10.402
 7598TIP3    H146989   6.470   4.542  10.393
 7598TIP3    H246990   6.610   4.583  10.433
 7599TIP3   OH246991   5.004   5.642  10.559
 7599TIP3    H146992   4.955   5.710  10.513
 7599TIP3    H246993   4.967   5.560  10.527
 7600TIP3   OH246994   6.732   6.484  10.148
 7600TIP3    H146995   6.733   6.572  10.185
 7600TIP3    H246996   6.762   6.494  10.058
 7601TIP3   OH246997   4.654   5.761  11.396
 7601TIP3    H146998   4.654   5.711  11.314
 7601TIP3    H246999   4.664   5.694  11.464
 7602TIP3   OH247000   4.654   6.447  11.085
 7602TIP3    H147001   4.669   6.354  11.101
 7602TIP3    H247002   4.723   6.492  11.135
 7603TIP3   OH247003   6.657   6.342  11.629
 7603TIP3    H147004   6.652   6.252  11.661
 7603TIP3    H247005   6.579   6.385  11.663
 7604TIP3   OH247006   5.455   6.244  11.512
 7604TIP3    H147007   5.493   6.231  11.599
 7604TIP3    H247008   5.392   6.173  11.503
 7605TIP3   OH247009   5.694   6.753  10.557
 7605TIP3    H147010   5.715   6.740  10.464
 7605TIP3    H247011   5.693   6.848  10.568
 7606TIP3   OH247012   5.090   6.555  10.669
 7606TIP3    H147013   5.089   6.508  10.752
 7606TIP3    H247014   5.026   6.508  10.615
 7607TIP3   OH247015   6.055   6.671  10.315
 7607TIP3    H147016   6.057   6.584  10.275
 7607TIP3    H247017   6.089   6.657  10.404
 7608TIP3   OH247018   6.163   6.670  10.585
 7608TIP3    H147019   6.076   6.634  10.603
 7608TIP3    H247020   6.224   6.610  10.627
 7609TIP3   OH247021   6.569   5.252  11.639
 7609TIP3    H147022   6.506   5.301  11.587
 7609TIP3    H247023   6.559   5.161  11.609
 7610TIP3   OH247024   4.894   5.911  11.383
 7610TIP3    H147025   4.913   5.919  11.477
 7610TIP3    H247026   4.808   5.870  11.379
 7611TIP3   OH247027   5.176   4.658  11.067
 7611TIP3    H147028   5.107   4.662  11.001
 7611TIP3    H247029   5.162   4.737  11.120
 7612TIP3   OH247030   5.796   4.626  11.351
 7612TIP3    H147031   5.828   4.586  11.431
 7612TIP3    H247032   5.707   4.654  11.371
 7613TIP3   OH247033   5.992   4.927  11.524
 7613TIP3    H147034   5.932   4.998  11.548
 7613TIP3    H247035   6.005   4.879  11.606
 7614TIP3   OH247036   6.304   5.866  10.227
 7614TIP3    H147037   6.211   5.853  10.248
 7614TIP3    H247038   6.309   5.850  10.133
 7615TIP3   OH247039   5.698   5.020  10.235
 7615TIP3    H147040   5.648   4.952  10.281
 7615TIP3    H247041   5.633   5.064  10.180
 7616TIP3   OH247042   5.161   5.296  11.121
 7616TIP3    H147043   5.100   5.309  11.194
 7616TIP3    H247044   5.175   5.383  11.085
 7617TIP3   OH247045   5.192   5.261  10.697
 7617TIP3    H147046   5.099   5.256  10.677
 7617TIP3    H247047   5.236   5.240  10.614
 7618TIP3   OH247048   5.879   5.398  10.682
 7618TIP3    H147049   5.891   5.493  10.683
 7618TIP3    H247050   5.907   5.371  10.594
 7619TIP3   OH247051   5.671   5.265  11.575
 7619TIP3    H147052   5.622   5.312  11.643
 7619TIP3    H247053   5.723   5.201  11.623
 7620TIP3   OH247054   6.079   5.269  10.832
 7620TIP3    H147055   6.008   5.312  10.784
 7620TIP3    H247056   6.099   5.191  10.781
 7621TIP3   OH247057   5.008   5.301  11.350
 7621TIP3    H147058   5.062   5.357  11.404
 7621TIP3    H247059   5.016   5.214  11.389
 7622TIP3   OH247060   5.327   5.075  10.143
 7622TIP3    H147061   5.307   5.020  10.218
 7622TIP3    H247062   5.290   5.028  10.068
 7623TIP3   OH247063   4.576   4.826  10.776
 7623TIP3    H147064   4.656   4.844  10.826
 7623TIP3    H247065   4.595   4.858  10.688
 7624TIP3   OH247066   4.646   5.106  10.335
 7624TIP3    H147067   4.728   5.151  10.317
 7624TIP3    H247068   4.585   5.175  10.359
 7625TIP3   OH247069   5.748   5.406  11.061
 7625TIP3    H147070   5.818   5.341  11.065
 7625TIP3    H247071   5.695   5.390  11.139
 7626TIP3   OH247072   5.484   4.950  10.767
 7626TIP3    H147073   5.394   4.963  10.798
 7626TIP3    H247074   5.505   4.859  10.789
 7627TIP3   OH247075   4.920   5.196  10.648
 7627TIP3    H147076   4.832   5.227  10.625
 7627TIP3    H247077   4.926   5.110  10.604
 7628TIP3   OH247078   5.336   5.186  10.474
 7628TIP3    H147079   5.425   5.170  10.505
 7628TIP3    H247080   5.347   5.247  10.401
 7629TIP3   OH247081   6.229   4.796  11.107
 7629TIP3    H147082   6.151   4.800  11.163
 7629TIP3    H247083   6.201   4.747  11.030
 7630TIP3   OH247084   5.369   5.331  10.241
 7630TIP3    H147085   5.351   5.249  10.195
 7630TIP3    H247086   5.444   5.368  10.195
 7631TIP3   OH247087   6.519   6.737  11.670
 7631TIP3    H147088   6.540   6.752  11.578
 7631TIP3    H247089   6.576   6.797  11.718
 7632TIP3   OH247090   4.931   5.885  11.659
 7632TIP3    H147091   4.997   5.919  11.720
 7632TIP3    H247092   4.847   5.907  11.700
 7633TIP3   OH247093   5.615   5.421  10.814
 7633TIP3    H147094   5.690   5.404  10.756
 7633TIP3    H247095   5.652   5.416  10.902
 7634TIP3   OH247096   5.111   4.865  10.596
 7634TIP3    H147097   5.081   4.774  10.603
 7634TIP3    H247098   5.161   4.867  10.514
 7635TIP3   OH247099   5.353   5.179  11.301
 7635TIP3    H147100   5.303   5.216  11.228
 7635TIP3    H247101   5.439   5.220  11.294
 7636TIP3   OH247102   5.551   5.822  10.410
 7636TIP3    H147103   5.500   5.758  10.361
 7636TIP3    H247104   5.488   5.866  10.466
 7637TIP3   OH247105   6.611   5.872  11.192
 7637TIP3    H147106   6.702   5.897  11.175
 7637TIP3    H247107   6.565   5.890  11.110
 7638TIP3   OH247108   5.854   5.083  10.455
 7638TIP3    H147109   5.810   5.064  10.372
 7638TIP3    H247110   5.901   5.165  10.438
 7639TIP3   OH247111   5.809   5.943  11.548
 7639TIP3    H147112   5.872   5.920  11.616
 7639TIP3    H247113   5.743   5.995  11.594
 7640TIP3   OH247114   6.013   5.319  10.443
 7640TIP3    H147115   6.089   5.266  10.466
 7640TIP3    H247116   6.049   5.405  10.422
 7641TIP3   OH247117   5.127   5.848  10.935
 7641TIP3    H147118   5.161   5.818  10.851
 7641TIP3    H247119   5.122   5.768  10.988
 7642TIP3   OH247120   5.764   6.005  10.435
 7642TIP3    H147121   5.691   5.945  10.424
 7642TIP3    H247122   5.837   5.965  10.388
 7643TIP3   OH247123   4.674   5.585  11.612
 7643TIP3    H147124   4.702   5.600  11.702
 7643TIP3    H247125   4.604   5.521  11.619
 7644TIP3   OH247126   5.417   5.675  11.703
 7644TIP3    H147127   5.410   5.647  11.612
 7644TIP3    H247128   5.446   5.597  11.750
 7645TIP3   OH247129   6.024   6.472  11.537
 7645TIP3    H147130   5.981   6.427  11.464
 7645TIP3    H247131   6.011   6.415  11.612
 7646TIP3   OH247132   6.739   5.254  10.358
 7646TIP3    H147133   6.649   5.220  10.359
 7646TIP3    H247134   6.733   5.338  10.313
 7647TIP3   OH247135   6.754   5.943  11.587
 7647TIP3    H147136   6.683   5.983  11.537
 7647TIP3    H247137   6.823   5.926  11.522
 7648TIP3   OH247138   6.599   6.374  10.360
 7648TIP3    H147139   6.554   6.293  10.334
 7648TIP3    H247140   6.645   6.402  10.282
 7649TIP3   OH247141   6.209   5.659  10.941
 7649TIP3    H147142   6.117   5.640  10.959
 7649TIP3    H247143   6.253   5.574  10.947
 7650TIP3   OH247144   5.340   6.170  10.728
 7650TIP3    H147145   5.353   6.259  10.697
 7650TIP3    H247146   5.255   6.171  10.772
 7651TIP3   OH247147   4.781   5.537  10.363
 7651TIP3    H147148   4.807   5.629  10.367
 7651TIP3    H247149   4.686   5.540  10.353
 7652TIP3   OH247150   5.355   5.941  10.567
 7652TIP3    H147151   5.361   6.014  10.629
 7652TIP3    H247152   5.312   5.871  10.617
 7653TIP3   OH247153   5.395   6.443  11.336
 7653TIP3    H147154   5.459   6.510  11.362
 7653TIP3    H247155   5.415   6.368  11.392
 7654TIP3   OH247156   5.346   6.442  10.644
 7654TIP3    H147157   5.260   6.484  10.642
 7654TIP3    H247158   5.406   6.511  10.672
 7655TIP3   OH247159   5.753   5.885  11.280
 7655TIP3    H147160   5.765   5.909  11.373
 7655TIP3    H247161   5.835   5.843  11.256
 7656TIP3   OH247162   6.086   6.158  10.277
 7656TIP3    H147163   6.144   6.133  10.349
 7656TIP3    H247164   6.038   6.078  10.256
 7657TIP3   OH247165   6.291   6.473  11.452
 7657TIP3    H147166   6.200   6.469  11.481
 7657TIP3    H247167   6.294   6.546  11.390
 7658TIP3   OH247168   6.743   6.731  10.265
 7658TIP3    H147169   6.814   6.791  10.284
 7658TIP3    H247170   6.669   6.763  10.317
 7659TIP3   OH247171   4.867   4.862  11.390
 7659TIP3    H147172   4.779   4.896  11.403
 7659TIP3    H247173   4.877   4.794  11.457
 7660TIP3   OH247174   6.226   5.999  10.467
 7660TIP3    H147175   6.147   5.948  10.447
 7660TIP3    H247176   6.293   5.963  10.409
 7661TIP3   OH247177   4.869   6.552  11.222
 7661TIP3    H147178   4.946   6.513  11.264
 7661TIP3    H247179   4.853   6.633  11.272
 7662TIP3   OH247180   5.234   6.110  10.378
 7662TIP3    H147181   5.276   6.049  10.439
 7662TIP3    H247182   5.292   6.186  10.376
 7663TIP3   OH247183   4.844   5.806  10.396
 7663TIP3    H147184   4.768   5.865  10.400
 7663TIP3    H247185   4.911   5.857  10.351
 7664TIP3   OH247186   6.010   4.799  11.278
 7664TIP3    H147187   6.015   4.851  11.358
 7664TIP3    H247188   5.935   4.740  11.292
 7665TIP3   OH247189   5.940   4.888  10.630
 7665TIP3    H147190   5.908   4.950  10.565
 7665TIP3    H247191   6.018   4.929  10.666
 7666TIP3   OH247192   5.672   6.244  10.327
 7666TIP3    H147193   5.582   6.250  10.359
 7666TIP3    H247194   5.707   6.165  10.368
 7667TIP3   OH247195   5.581   5.099  10.561
 7667TIP3    H147196   5.675   5.117  10.566
 7667TIP3    H247197   5.560   5.062  10.646
 7668TIP3   OH247198   5.621   5.278  11.303
 7668TIP3    H147199   5.634   5.286  11.397
 7668TIP3    H247200   5.679   5.207  11.276
 7669TIP3   OH247201   5.728   4.707  10.589
 7669TIP3    H147202   5.680   4.703  10.671
 7669TIP3    H247203   5.803   4.763  10.607
 7670TIP3   OH247204   5.408   6.327  10.398
 7670TIP3    H147205   5.436   6.401  10.344
 7670TIP3    H247206   5.391   6.365  10.484
 7671TIP3   OH247207   5.291   4.928  10.380
 7671TIP3    H147208   5.296   5.014  10.423
 7671TIP3    H247209   5.378   4.890  10.392
 7672TIP3   OH247210   6.537   4.995  11.527
 7672TIP3    H147211   6.461   4.952  11.488
 7672TIP3    H247212   6.591   5.020  11.452
 7673TIP3   OH247213   6.316   5.398  10.911
 7673TIP3    H147214   6.236   5.352  10.887
 7673TIP3    H247215   6.370   5.332  10.954
 7674TIP3   OH247216   5.034   5.961  10.262
 7674TIP3    H147217   5.087   6.025  10.308
 7674TIP3    H247218   5.097   5.904  10.218
 7675TIP3   OH247219   4.857   5.278  10.303
 7675TIP3    H147220   4.831   5.367  10.326
 7675TIP3    H247221   4.949   5.286  10.279
 7676TIP3   OH247222   6.514   6.702  11.123
 7676TIP3    H147223   6.491   6.725  11.033
 7676TIP3    H247224   6.602   6.666  11.117
 7677TIP3   OH247225   4.965   4.642  10.889
 7677TIP3    H147226   4.978   4.634  10.795
 7677TIP3    H247227   4.942   4.554  10.918
 7678TIP3   OH247228   4.614   6.256  10.453
 7678TIP3    H147229   4.569   6.259  10.537
 7678TIP3    H247230   4.672   6.332  10.453
 7679TIP3   OH247231   4.698   6.741  11.786
 7679TIP3    H147232   4.774   6.687  11.808
 7679TIP3    H247233   4.633   6.720  11.853
 7680TIP3   OH247234   5.098   6.385  11.804
 7680TIP3    H147235   5.190   6.384  11.828
 7680TIP3    H247236   5.097   6.358  11.711
 7681TIP3   OH247237   5.772   6.449  10.182
 7681TIP3    H147238   5.741   6.370  10.226
 7681TIP3    H247239   5.867   6.436  10.174
 7682TIP3   OH247240   5.998   6.313  11.768
 7682TIP3    H147241   5.996   6.230  11.815
 7682TIP3    H247242   6.075   6.359  11.804
 7683TIP3   OH247243   6.050   6.416  10.193
 7683TIP3    H147244   6.056   6.329  10.234
 7683TIP3    H247245   6.104   6.408  10.114
 7684TIP3   OH247246   4.671   5.893  11.765
 7684TIP3    H147247   4.691   5.807  11.802
 7684TIP3    H247248   4.598   5.877  11.706
 7685TIP3   OH247249   5.258   5.837  10.167
 7685TIP3    H147250   5.306   5.759  10.196
 7685TIP3    H247251   5.323   5.907  10.173
 7686TIP3   OH247252   5.367   5.951  11.727
 7686TIP3    H147253   5.333   5.973  11.640
 7686TIP3    H247254   5.390   5.858  11.722
 7687TIP3   OH247255   6.342   5.910  11.522
 7687TIP3    H147256   6.419   5.956  11.488
 7687TIP3    H247257   6.291   5.978  11.565
 7688TIP3   OH247258   4.788   5.650  11.853
 7688TIP3    H147259   4.882   5.652  11.834
 7688TIP3    H247260   4.783   5.628  11.946
 7689TIP3   OH247261   5.413   5.626  10.263
 7689TIP3    H147262   5.361   5.554  10.298
 7689TIP3    H247263   5.480   5.584  10.209
 7690TIP3   OH247264   5.162   5.465  11.503
 7690TIP3    H147265   5.098   5.530  11.530
 7690TIP3    H247266   5.241   5.515  11.484
 7691TIP3   OH247267   5.589   5.457  10.128
 7691TIP3    H147268   5.638   5.476  10.049
 7691TIP3    H247269   5.656   5.437  10.194
 7692TIP3   OH247270   5.958   5.861  11.780
 7692TIP3    H147271   6.049   5.829  11.777
 7692TIP3    H247272   5.906   5.782  11.797
 7693TIP3   OH247273   6.603   5.598  19.901
 7693TIP3    H147274   6.527   5.541  19.909
 7693TIP3    H247275   6.566   5.687  19.903
 7694TIP3   OH247276   5.212   5.196  11.545
 7694TIP3    H147277   5.267   5.176  11.469
 7694TIP3    H247278   5.204   5.291  11.545
 7695TIP3   OH247279   5.352   4.897  11.322
 7695TIP3    H147280   5.363   4.992  11.320
 7695TIP3    H247281   5.263   4.882  11.293
 7696TIP3   OH247282   5.392   5.600  11.430
 7696TIP3    H147283   5.473   5.555  11.405
 7696TIP3    H247284   5.372   5.656  11.354
 7697TIP3   OH247285   5.980   5.216  11.897
 7697TIP3    H147286   5.922   5.171  11.835
 7697TIP3    H247287   6.035   5.271  11.842
 7698TIP3   OH247288   6.374   5.646  11.575
 7698TIP3    H147289   6.351   5.732  11.540
 7698TIP3    H247290   6.461   5.658  11.612
 7699TIP3   OH247291   5.299   5.154  11.805
 7699TIP3    H147292   5.258   5.155  11.719
 7699TIP3    H247293   5.357   5.230  11.805
 7700TIP3   OH247294   5.521   4.687  11.397
 7700TIP3    H147295   5.479   4.772  11.384
 7700TIP3    H247296   5.465   4.626  11.349
 7701TIP3   OH247297   5.581   5.078  11.866
 7701TIP3    H147298   5.568   5.173  11.860
 7701TIP3    H247299   5.495   5.041  11.843
 7702TIP3   OH247300   5.821   5.054  11.733
 7702TIP3    H147301   5.737   5.051  11.778
 7702TIP3    H247302   5.861   4.969  11.750
 7703TIP3   OH247303   5.985   4.823  11.785
 7703TIP3    H147304   6.012   4.731  11.787
 7703TIP3    H247305   5.998   4.853  11.875
 7704TIP3   OH247306   4.817   4.993  11.681
 7704TIP3    H147307   4.886   5.039  11.632
 7704TIP3    H247308   4.863   4.947  11.751
 7705TIP3   OH247309   5.495   4.586  11.663
 7705TIP3    H147310   5.558   4.513  11.663
 7705TIP3    H247311   5.509   4.629  11.579
 7706TIP3   OH247312   5.310   4.627  11.861
 7706TIP3    H147313   5.374   4.618  11.790
 7706TIP3    H247314   5.306   4.721  11.879
 7707TIP3   OH247315   5.517   6.541  10.260
 7707TIP3    H147316   5.552   6.625  10.288
 7707TIP3    H247317   5.589   6.500  10.211
 7708TIP3   OH247318   4.791   6.023  10.150
 7708TIP3    H147319   4.878   6.005  10.186
 7708TIP3    H247320   4.807   6.045  10.058
 7709TIP3   OH247321   4.467   6.699  10.701
 7709TIP3    H147322   4.422   6.623  10.664
 7709TIP3    H247323   4.541   6.662  10.750
 7710TIP3   OH247324   4.676   6.575  10.835
 7710TIP3    H147325   4.649   6.525  10.912
 7710TIP3    H247326   4.764   6.607  10.856
 7711TIP3   OH247327   6.778   6.615  11.165
 7711TIP3    H147328   6.752   6.554  11.234
 7711TIP3    H247329   6.815   6.690  11.212
 7712TIP3   OH247330   6.659   6.465  11.377
 7712TIP3    H147331   6.596   6.405  11.337
 7712TIP3    H247332   6.678   6.427  11.463
 7713TIP3   OH247333   6.524   6.112  11.866
 7713TIP3    H147334   6.437   6.133  11.901
 7713TIP3    H247335   6.584   6.165  11.918
 7714TIP3   OH247336   6.850   5.640  10.436
 7714TIP3    H147337   6.883   5.728  10.453
 7714TIP3    H247338   6.808   5.614  10.519
 7715TIP3   OH247339   6.734   5.536  10.668
 7715TIP3    H147340   6.638   5.535  10.673
 7715TIP3    H247341   6.762   5.539  10.759
 7716TIP3   OH247342   6.874   5.926  11.147
 7716TIP3    H147343   6.912   5.849  11.104
 7716TIP3    H247344   6.934   5.997  11.124
 7717TIP3   OH247345   6.453   6.284  11.314
 7717TIP3    H147346   6.392   6.338  11.365
 7717TIP3    H247347   6.404   6.261  11.236
 7718TIP3   OH247348   6.712   5.501  10.244
 7718TIP3    H147349   6.653   5.563  10.203
 7718TIP3    H247350   6.762   5.553  10.307
 7719TIP3   OH247351   6.481   5.157  10.318
 7719TIP3    H147352   6.426   5.222  10.274
 7719TIP3    H247353   6.498   5.090  10.252
 7720TIP3   OH247354   6.459   5.533  10.708
 7720TIP3    H147355   6.386   5.578  10.665
 7720TIP3    H247356   6.418   5.483  10.779
 7721TIP3   OH247357   4.648   5.604  11.148
 7721TIP3    H147358   4.661   5.563  11.063
 7721TIP3    H247359   4.721   5.574  11.202
 7722TIP3   OH247360   6.624   5.707  11.671
 7722TIP3    H147361   6.680   5.629  11.671
 7722TIP3    H247362   6.681   5.776  11.638
 7723TIP3   OH247363   6.760   5.458  11.658
 7723TIP3    H147364   6.699   5.385  11.651
 7723TIP3    H247365   6.821   5.432  11.728
 7724TIP3   OH247366   6.535   4.971  10.128
 7724TIP3    H147367   6.623   4.935  10.143
 7724TIP3    H247368   6.500   4.919  10.056
 7725TIP3   OH247369   6.381   5.005  10.531
 7725TIP3    H147370   6.451   4.940  10.541
 7725TIP3    H247371   6.415   5.065  10.465
 7726TIP3   OH247372   6.491   5.212  11.045
 7726TIP3    H147373   6.578   5.208  11.004
 7726TIP3    H247374   6.507   5.252  11.130
 7727TIP3   OH247375   6.588   5.340  11.277
 7727TIP3    H147376   6.526   5.361  11.346
 7727TIP3    H247377   6.627   5.424  11.254
 7728TIP3   OH247378   4.608   4.941  11.508
 7728TIP3    H147379   4.674   4.966  11.573
 7728TIP3    H247380   4.549   4.881  11.556
 7729TIP3   OH247381   6.744   4.596  11.790
 7729TIP3    H147382   6.795   4.534  11.737
 7729TIP3    H247383   6.746   4.677  11.740
 7730TIP3   OH247384   6.554   4.778  10.538
 7730TIP3    H147385   6.581   4.725  10.613
 7730TIP3    H247386   6.472   4.738  10.509
 7731TIP3   OH247387   4.817   4.878  10.909
 7731TIP3    H147388   4.867   4.796  10.906
 7731TIP3    H247389   4.878   4.941  10.948
 7732TIP3   OH247390   4.500   5.291  10.915
 7732TIP3    H147391   4.561   5.219  10.934
 7732TIP3    H247392   4.554   5.369  10.916
 7733TIP3   OH247393   6.713   4.867  11.701
 7733TIP3    H147394   6.685   4.904  11.785
 7733TIP3    H247395   6.650   4.902  11.637
 7734TIP3   OH247396   6.783   4.865  10.173
 7734TIP3    H147397   6.819   4.780  10.199
 7734TIP3    H247398   6.840   4.929  10.216
 7735TIP3   OH247399   4.577   4.899  10.505
 7735TIP3    H147400   4.484   4.908  10.489
 7735TIP3    H247401   4.617   4.971  10.458
 7736TIP3   OH247402   6.372   6.538  10.717
 7736TIP3    H147403   6.449   6.532  10.662
 7736TIP3    H247404   6.396   6.601  10.785
 7737TIP3   OH247405   4.559   4.598  11.298
 7737TIP3    H147406   4.501   4.598  11.374
 7737TIP3    H247407   4.526   4.668  11.242
 7738TIP3   OH247408   4.820   6.229  11.608
 7738TIP3    H147409   4.725   6.227  11.609
 7738TIP3    H247410   4.846   6.202  11.697
 7739TIP3   OH247411   5.119   6.492  11.352
 7739TIP3    H147412   5.118   6.586  11.337
 7739TIP3    H247413   5.210   6.466  11.340
 7740TIP3   OH247414   5.674   6.628  11.596
 7740TIP3    H147415   5.686   6.543  11.639
 7740TIP3    H247416   5.763   6.664  11.590
 7741TIP3   OH247417   5.933   6.738  11.584
 7741TIP3    H147418   5.975   6.656  11.560
 7741TIP3    H247419   5.989   6.774  11.653
 7742TIP3   OH247420   6.554   4.511  11.445
 7742TIP3    H147421   6.503   4.559  11.379
 7742TIP3    H247422   6.566   4.424  11.408
 7743TIP3   OH247423   4.830   6.796  11.351
 7743TIP3    H147424   4.737   6.811  11.337
 7743TIP3    H247425   4.847   6.829  11.439
 7744TIP3   OH247426   5.101   6.755  11.284
 7744TIP3    H147427   5.013   6.787  11.301
 7744TIP3    H247428   5.134   6.811  11.213
 7745TIP3   OH247429   5.870   6.759  11.201
 7745TIP3    H147430   5.813   6.793  11.132
 7745TIP3    H247431   5.863   6.824  11.271
 7746TIP3   OH247432   6.045   6.552  11.202
 7746TIP3    H147433   5.979   6.621  11.206
 7746TIP3    H247434   6.126   6.595  11.232
 7747TIP3   OH247435   6.282   6.679  11.270
 7747TIP3    H147436   6.259   6.772  11.268
 7747TIP3    H247437   6.358   6.672  11.212
 7748TIP3   OH247438   4.925   6.620  10.958
 7748TIP3    H147439   4.905   6.608  11.051
 7748TIP3    H247440   4.987   6.550  10.937
 7749TIP3   OH247441   5.098   6.407  10.904
 7749TIP3    H147442   5.083   6.313  10.904
 7749TIP3    H247443   5.173   6.420  10.962
 7750TIP3   OH247444   5.313   6.386  11.074
 7750TIP3    H147445   5.352   6.300  11.059
 7750TIP3    H247446   5.343   6.410  11.162
 7751TIP3   OH247447   5.574   4.691  10.834
 7751TIP3    H147448   5.508   4.630  10.865
 7751TIP3    H247449   5.628   4.710  10.912
 7752TIP3   OH247450   6.408   4.509  10.838
 7752TIP3    H147451   6.485   4.556  10.808
 7752TIP3    H247452   6.342   4.577  10.853
 7753TIP3   OH247453   6.659   4.605  10.731
 7753TIP3    H147454   6.694   4.517  10.721
 7753TIP3    H247455   6.734   4.658  10.756
 7754TIP3   OH247456   5.004   4.597  10.617
 7754TIP3    H147457   4.953   4.608  10.536
 7754TIP3    H247458   5.032   4.506  10.615
 7755TIP3   OH247459   4.641   4.690  10.328
 7755TIP3    H147460   4.733   4.663  10.335
 7755TIP3    H247461   4.628   4.747  10.404
 7756TIP3   OH247462   5.375   4.401  10.688
 7756TIP3    H147463   5.454   4.432  10.644
 7756TIP3    H247464   5.375   4.446  10.772
 7757TIP3   OH247465   6.161   4.647  10.878
 7757TIP3    H147466   6.114   4.694  10.808
 7757TIP3    H247467   6.116   4.563  10.885
 7758TIP3   OH247468   6.323   4.656  10.438
 7758TIP3    H147469   6.272   4.730  10.406
 7758TIP3    H247470   6.259   4.588  10.459
 7759TIP3   OH247471   4.725   6.510  10.463
 7759TIP3    H147472   4.666   6.557  10.404
 7759TIP3    H247473   4.722   6.559  10.545
 7760TIP3   OH247474   4.903   4.601  10.353
 7760TIP3    H147475   4.907   4.507  10.367
 7760TIP3    H247476   4.971   4.619  10.288
 7761TIP3   OH247477   5.559   4.863  10.420
 7761TIP3    H147478   5.613   4.798  10.465
 7761TIP3    H247479   5.569   4.942  10.473
 7762TIP3   OH247480   5.777   6.696  10.302
 7762TIP3    H147481   5.871   6.714  10.304
 7762TIP3    H247482   5.769   6.614  10.253
 7763TIP3   OH247483   6.594   6.563  10.555
 7763TIP3    H147484   6.597   6.491  10.493
 7763TIP3    H247485   6.579   6.641  10.501
 7764TIP3   OH247486   4.870   4.651  11.576
 7764TIP3    H147487   4.801   4.614  11.631
 7764TIP3    H247488   4.948   4.649  11.630
 7765TIP3   OH247489   5.045   4.603  11.787
 7765TIP3    H147490   5.138   4.604  11.808
 7765TIP3    H247491   5.014   4.518  11.817
 7766TIP3   OH247492   4.974   6.550  10.340
 7766TIP3    H147493   4.889   6.521  10.371
 7766TIP3    H247494   5.014   6.471  10.302
 7767TIP3   OH247495   6.101   4.548  11.767
 7767TIP3    H147496   6.095   4.479  11.833
 7767TIP3    H247497   6.195   4.558  11.751
 7768TIP3   OH247498   6.424   6.481  11.694
 7768TIP3    H147499   6.380   6.472  11.610
 7768TIP3    H247500   6.456   6.571  11.695
 7769TIP3   OH247501   8.284   5.788  10.595
 7769TIP3    H147502   8.269   5.881  10.576
 7769TIP3    H247503   8.202   5.745  10.570
 7770TIP3   OH247504   7.907   5.502  11.208
 7770TIP3    H147505   7.995   5.493  11.243
 7770TIP3    H247506   7.902   5.435  11.140
 7771TIP3   OH247507   7.165   5.589  11.203
 7771TIP3    H147508   7.246   5.564  11.160
 7771TIP3    H247509   7.184   5.583  11.297
 7772TIP3   OH247510   8.576   5.964  10.868
 7772TIP3    H147511   8.577   5.878  10.908
 7772TIP3    H247512   8.580   6.025  10.942
 7773TIP3   OH247513   7.408   6.119  11.058
 7773TIP3    H147514   7.397   6.053  10.990
 7773TIP3    H247515   7.500   6.146  11.051
 7774TIP3   OH247516   6.892   5.316  10.584
 7774TIP3    H147517   6.835   5.387  10.616
 7774TIP3    H247518   6.848   5.284  10.505
 7775TIP3   OH247519   6.945   5.484  10.865
 7775TIP3    H147520   6.982   5.405  10.904
 7775TIP3    H247521   6.973   5.480  10.773
 7776TIP3   OH247522   8.233   6.568  10.838
 7776TIP3    H147523   8.296   6.514  10.790
 7776TIP3    H247524   8.245   6.542  10.930
 7777TIP3   OH247525   7.828   5.775  11.187
 7777TIP3    H147526   7.867   5.687  11.187
 7777TIP3    H247527   7.899   5.833  11.213
 7778TIP3   OH247528   8.894   4.870  11.229
 7778TIP3    H147529   8.906   4.953  11.276
 7778TIP3    H247530   8.925   4.888  11.140
 7779TIP3   OH247531   8.235   5.264  11.055
 7779TIP3    H147532   8.278   5.179  11.063
 7779TIP3    H247533   8.265   5.299  10.971
 7780TIP3   OH247534   7.438   5.007  10.815
 7780TIP3    H147535   7.435   5.089  10.765
 7780TIP3    H247536   7.420   4.939  10.751
 7781TIP3   OH247537   8.480   5.167  10.617
 7781TIP3    H147538   8.501   5.138  10.706
 7781TIP3    H247539   8.564   5.191  10.579
 7782TIP3   OH247540   7.046   5.240  10.944
 7782TIP3    H147541   7.109   5.198  11.002
 7782TIP3    H247542   7.079   5.220  10.856
 7783TIP3   OH247543   7.507   5.477  10.829
 7783TIP3    H147544   7.593   5.438  10.844
 7783TIP3    H247545   7.456   5.408  10.787
 7784TIP3   OH247546   8.913   5.111  11.362
 7784TIP3    H147547   8.883   5.198  11.335
 7784TIP3    H247548   8.983   5.127  11.425
 7785TIP3   OH247549   7.334   4.874  11.215
 7785TIP3    H147550   7.310   4.940  11.150
 7785TIP3    H247551   7.281   4.896  11.292
 7786TIP3   OH247552   8.276   6.075  10.503
 7786TIP3    H147553   8.213   6.032  10.446
 7786TIP3    H247554   8.233   6.156  10.530
 7787TIP3   OH247555   7.560   5.733  11.215
 7787TIP3    H147556   7.519   5.813  11.248
 7787TIP3    H247557   7.650   5.759  11.197
 7788TIP3   OH247558   8.551   5.127  10.878
 7788TIP3    H147559   8.491   5.087  10.941
 7788TIP3    H247560   8.619   5.168  10.931
 7789TIP3   OH247561   7.275   5.075  11.020
 7789TIP3    H147562   7.324   5.142  11.069
 7789TIP3    H247563   7.336   5.046  10.952
 7790TIP3   OH247564   7.432   5.971  11.302
 7790TIP3    H147565   7.402   6.023  11.227
 7790TIP3    H247566   7.351   5.940  11.343
 7791TIP3   OH247567   6.976   5.889  10.463
 7791TIP3    H147568   7.001   5.942  10.388
 7791TIP3    H247569   6.948   5.952  10.529
 7792TIP3   OH247570   8.565   6.183  11.041
 7792TIP3    H147571   8.475   6.194  11.070
 7792TIP3    H247572   8.573   6.239  10.964
 7793TIP3   OH247573   8.654   4.748  11.303
 7793TIP3    H147574   8.582   4.811  11.294
 7793TIP3    H247575   8.731   4.796  11.271
 7794TIP3   OH247576   7.518   4.434  10.967
 7794TIP3    H147577   7.518   4.352  11.017
 7794TIP3    H247578   7.468   4.495  11.021
 7795TIP3   OH247579   8.406   6.423  10.676
 7795TIP3    H147580   8.423   6.329  10.687
 7795TIP3    H247581   8.488   6.465  10.701
 7796TIP3   OH247582   8.450   6.154  10.710
 7796TIP3    H147583   8.398   6.107  10.645
 7796TIP3    H247584   8.497   6.085  10.757
 7797TIP3   OH247585   8.805   5.966  11.378
 7797TIP3    H147586   8.804   5.909  11.301
 7797TIP3    H247587   8.783   6.053  11.344
 7798TIP3   OH247588   8.059   5.651  10.501
 7798TIP3    H147589   7.983   5.708  10.489
 7798TIP3    H247590   8.068   5.605  10.417
 7799TIP3   OH247591   8.107   5.484  10.283
 7799TIP3    H147592   8.198   5.512  10.272
 7799TIP3    H247593   8.109   5.389  10.272
 7800TIP3   OH247594   8.961   5.579  11.211
 7800TIP3    H147595   8.895   5.649  11.204
 7800TIP3    H247596   9.038   5.614  11.166
 7801TIP3   OH247597   8.507   5.668  10.496
 7801TIP3    H147598   8.436   5.705  10.548
 7801TIP3    H247599   8.559   5.618  10.559
 7802TIP3   OH247600   8.543   5.403  11.478
 7802TIP3    H147601   8.567   5.479  11.531
 7802TIP3    H247602   8.465   5.430  11.431
 7803TIP3   OH247603   7.492   5.721  10.687
 7803TIP3    H147604   7.470   5.683  10.602
 7803TIP3    H247605   7.502   5.645  10.745
 7804TIP3   OH247606   7.667   6.206  10.999
 7804TIP3    H147607   7.647   6.193  10.906
 7804TIP3    H247608   7.740   6.146  11.016
 7805TIP3   OH247609   7.413   5.533  11.091
 7805TIP3    H147610   7.443   5.527  11.000
 7805TIP3    H247611   7.466   5.603  11.129
 7806TIP3   OH247612   8.307   6.236  11.109
 7806TIP3    H147613   8.289   6.330  11.106
 7806TIP3    H247614   8.224   6.197  11.138
 7807TIP3   OH247615   7.544   6.093  11.526
 7807TIP3    H147616   7.478   6.160  11.543
 7807TIP3    H247617   7.512   6.047  11.449
 7808TIP3   OH247618   8.387   5.536  10.287
 7808TIP3    H147619   8.422   5.582  10.363
 7808TIP3    H247620   8.436   5.571  10.213
 7809TIP3   OH247621   7.253   5.603  11.473
 7809TIP3    H147622   7.257   5.698  11.466
 7809TIP3    H247623   7.192   5.587  11.546
 7810TIP3   OH247624   8.158   6.321  10.581
 7810TIP3    H147625   8.242   6.366  10.589
 7810TIP3    H247626   8.108   6.351  10.658
 7811TIP3   OH247627   7.371   6.305  11.583
 7811TIP3    H147628   7.387   6.368  11.513
 7811TIP3    H247629   7.280   6.278  11.571
 7812TIP3   OH247630   8.737   4.483  10.377
 7812TIP3    H147631   8.641   4.489  10.380
 7812TIP3    H247632   8.767   4.565  10.418
 7813TIP3   OH247633   7.427   5.591  10.441
 7813TIP3    H147634   7.354   5.651  10.425
 7813TIP3    H247635   7.398   5.508  10.404
 7814TIP3   OH247636   8.769   6.379  10.155
 7814TIP3    H147637   8.812   6.462  10.175
 7814TIP3    H247638   8.811   6.348  10.075
 7815TIP3   OH247639   6.950   5.872  11.407
 7815TIP3    H147640   6.922   5.892  11.318
 7815TIP3    H247641   6.923   5.782  11.422
 7816TIP3   OH247642   7.032   6.153  11.108
 7816TIP3    H147643   6.994   6.222  11.053
 7816TIP3    H247644   7.092   6.199  11.166
 7817TIP3   OH247645   8.891   6.318  11.579
 7817TIP3    H147646   8.907   6.247  11.642
 7817TIP3    H247647   8.807   6.355  11.606
 7818TIP3   OH247648   7.773   6.248  11.520
 7818TIP3    H147649   7.773   6.266  11.614
 7818TIP3    H247650   7.699   6.187  11.508
 7819TIP3   OH247651   8.145   6.774  10.485
 7819TIP3    H147652   8.111   6.721  10.413
 7819TIP3    H247653   8.106   6.861  10.471
 7820TIP3   OH247654   7.297   6.419  10.730
 7820TIP3    H147655   7.306   6.411  10.825
 7820TIP3    H247656   7.214   6.466  10.718
 7821TIP3   OH247657   8.353   6.598  10.257
 7821TIP3    H147658   8.398   6.517  10.235
 7821TIP3    H247659   8.396   6.629  10.337
 7822TIP3   OH247660   8.412   6.699  10.516
 7822TIP3    H147661   8.318   6.720  10.511
 7822TIP3    H247662   8.416   6.622  10.572
 7823TIP3   OH247663   8.743   5.288  11.675
 7823TIP3    H147664   8.667   5.333  11.639
 7823TIP3    H247665   8.737   5.199  11.640
 7824TIP3   OH247666   7.220   5.884  11.458
 7824TIP3    H147667   7.219   5.921  11.546
 7824TIP3    H247668   7.128   5.881  11.432
 7825TIP3   OH247669   7.349   4.622  11.096
 7825TIP3    H147670   7.286   4.632  11.025
 7825TIP3    H247671   7.352   4.708  11.137
 7826TIP3   OH247672   7.849   4.394  11.430
 7826TIP3    H147673   7.888   4.388  11.517
 7826TIP3    H247674   7.790   4.469  11.434
 7827TIP3   OH247675   8.471   5.126  11.484
 7827TIP3    H147676   8.403   5.111  11.550
 7827TIP3    H247677   8.485   5.220  11.484
 7828TIP3   OH247678   8.559   5.706  10.138
 7828TIP3    H147679   8.540   5.755  10.058
 7828TIP3    H247680   8.572   5.774  10.205
 7829TIP3   OH247681   7.946   5.169  10.243
 7829TIP3    H147682   7.926   5.111  10.317
 7829TIP3    H247683   7.892   5.137  10.172
 7830TIP3   OH247684   7.421   5.263  11.162
 7830TIP3    H147685   7.360   5.253  11.235
 7830TIP3    H247686   7.419   5.356  11.141
 7831TIP3   OH247687   7.394   5.259  10.693
 7831TIP3    H147688   7.301   5.242  10.679
 7831TIP3    H247689   7.433   5.250  10.606
 7832TIP3   OH247690   8.134   5.407  10.618
 7832TIP3    H147691   8.102   5.494  10.594
 7832TIP3    H247692   8.183   5.377  10.541
 7833TIP3   OH247693   8.023   5.175  11.741
 7833TIP3    H147694   7.930   5.156  11.753
 7833TIP3    H247695   8.054   5.201  11.828
 7834TIP3   OH247696   8.327   5.337  10.803
 7834TIP3    H147697   8.254   5.373  10.753
 7834TIP3    H247698   8.368   5.274  10.744
 7835TIP3   OH247699   7.266   5.201  11.372
 7835TIP3    H147700   7.307   5.247  11.445
 7835TIP3    H247701   7.241   5.116  11.409
 7836TIP3   OH247702   7.745   5.056  10.093
 7836TIP3    H147703   7.699   5.035  10.174
 7836TIP3    H247704   7.702   5.003  10.026
 7837TIP3   OH247705   6.890   4.764  10.755
 7837TIP3    H147706   6.947   4.832  10.791
 7837TIP3    H247707   6.878   4.788  10.663
 7838TIP3   OH247708   6.920   5.052  10.330
 7838TIP3    H147709   7.002   5.099  10.317
 7838TIP3    H247710   6.854   5.122  10.339
 7839TIP3   OH247711   8.165   5.423  11.278
 7839TIP3    H147712   8.194   5.369  11.204
 7839TIP3    H247713   8.153   5.361  11.350
 7840TIP3   OH247714   7.913   5.058  10.877
 7840TIP3    H147715   7.820   5.035  10.881
 7840TIP3    H247716   7.958   4.975  10.862
 7841TIP3   OH247717   7.121   5.187  10.681
 7841TIP3    H147718   7.044   5.225  10.638
 7841TIP3    H247719   7.099   5.094  10.691
 7842TIP3   OH247720   7.541   5.246  10.453
 7842TIP3    H147721   7.619   5.301  10.445
 7842TIP3    H247722   7.479   5.283  10.389
 7843TIP3   OH247723   8.366   5.016  11.055
 7843TIP3    H147724   8.394   4.984  11.141
 7843TIP3    H247725   8.314   4.945  11.018
 7844TIP3   OH247726   7.359   5.364  10.285
 7844TIP3    H147727   7.273   5.322  10.286
 7844TIP3    H247728   7.370   5.394  10.195
 7845TIP3   OH247729   8.620   6.691  11.640
 7845TIP3    H147730   8.655   6.708  11.553
 7845TIP3    H247731   8.689   6.717  11.700
 7846TIP3   OH247732   7.183   6.004  11.706
 7846TIP3    H147733   7.245   5.999  11.779
 7846TIP3    H247734   7.099   5.980  11.744
 7847TIP3   OH247735   7.955   5.287  11.035
 7847TIP3    H147736   8.050   5.283  11.046
 7847TIP3    H247737   7.934   5.211  10.982
 7848TIP3   OH247738   7.372   4.813  10.627
 7848TIP3    H147739   7.336   4.726  10.643
 7848TIP3    H247740   7.381   4.819  10.532
 7849TIP3   OH247741   7.611   5.127  11.323
 7849TIP3    H147742   7.543   5.164  11.267
 7849TIP3    H247743   7.691   5.173  11.297
 7850TIP3   OH247744   7.842   5.816  10.436
 7850TIP3    H147745   7.783   5.763  10.383
 7850TIP3    H247746   7.785   5.864  10.495
 7851TIP3   OH247747   8.802   5.803  11.146
 7851TIP3    H147748   8.850   5.854  11.081
 7851TIP3    H247749   8.722   5.777  11.102
 7852TIP3   OH247750   8.206   5.073  10.325
 7852TIP3    H147751   8.123   5.092  10.280
 7852TIP3    H247752   8.237   5.157  10.357
 7853TIP3   OH247753   8.025   6.139  11.473
 7853TIP3    H147754   8.027   6.100  11.560
 7853TIP3    H247755   7.942   6.187  11.470
 7854TIP3   OH247756   8.311   5.306  10.428
 7854TIP3    H147757   8.380   5.267  10.482
 7854TIP3    H247758   8.356   5.374  10.378
 7855TIP3   OH247759   7.387   5.920  10.861
 7855TIP3    H147760   7.429   5.860  10.800
 7855TIP3    H247761   7.312   5.871  10.894
 7856TIP3   OH247762   8.061   5.975  10.370
 7856TIP3    H147763   8.020   6.061  10.361
 7856TIP3    H247764   7.988   5.915  10.386
 7857TIP3   OH247765   6.842   5.628  11.454
 7857TIP3    H147766   6.827   5.562  11.521
 7857TIP3    H247767   6.789   5.600  11.380
 7858TIP3   OH247768   7.788   5.457  11.605
 7858TIP3    H147769   7.731   5.477  11.530
 7858TIP3    H247770   7.877   5.467  11.572
 7859TIP3   OH247771   8.274   6.271  11.503
 7859TIP3    H147772   8.192   6.233  11.470
 7859TIP3    H247773   8.266   6.269  11.598
 7860TIP3   OH247774   8.883   5.332  10.336
 7860TIP3    H147775   8.869   5.266  10.268
 7860TIP3    H247776   8.848   5.413  10.298
 7861TIP3   OH247777   9.010   5.874  11.549
 7861TIP3    H147778   8.934   5.917  11.509
 7861TIP3    H247779   9.072   5.864  11.477
 7862TIP3   OH247780   8.735   6.322  10.427
 7862TIP3    H147781   8.664   6.258  10.433
 7862TIP3    H247782   8.750   6.331  10.333
 7863TIP3   OH247783   8.572   5.719  11.010
 7863TIP3    H147784   8.483   5.722  11.045
 7863TIP3    H247785   8.578   5.635  10.965
 7864TIP3   OH247786   7.572   6.164  10.743
 7864TIP3    H147787   7.574   6.250  10.701
 7864TIP3    H247788   7.479   6.141  10.746
 7865TIP3   OH247789   7.074   5.528  10.319
 7865TIP3    H147790   7.132   5.604  10.331
 7865TIP3    H247791   6.991   5.556  10.357
 7866TIP3   OH247792   7.651   5.938  10.596
 7866TIP3    H147793   7.637   6.009  10.658
 7866TIP3    H247794   7.600   5.865  10.632
 7867TIP3   OH247795   7.696   6.469  11.367
 7867TIP3    H147796   7.745   6.540  11.409
 7867TIP3    H247797   7.726   6.389  11.411
 7868TIP3   OH247798   7.551   6.423  10.638
 7868TIP3    H147799   7.458   6.415  10.658
 7868TIP3    H247800   7.572   6.514  10.659
 7869TIP3   OH247801   8.037   5.939  11.277
 7869TIP3    H147802   8.026   6.011  11.338
 7869TIP3    H247803   8.127   5.909  11.290
 7870TIP3   OH247804   8.523   6.133  10.373
 7870TIP3    H147805   8.562   6.047  10.360
 7870TIP3    H247806   8.441   6.116  10.417
 7871TIP3   OH247807   8.517   6.358  11.402
 7871TIP3    H147808   8.432   6.322  11.428
 7871TIP3    H247809   8.495   6.435  11.349
 7872TIP3   OH247810   8.897   6.610  10.225
 7872TIP3    H147811   8.984   6.631  10.258
 7872TIP3    H247812   8.838   6.665  10.275
 7873TIP3   OH247813   7.187   4.939  11.443
 7873TIP3    H147814   7.096   4.957  11.467
 7873TIP3    H247815   7.212   4.866  11.499
 7874TIP3   OH247816   8.622   5.870  10.353
 7874TIP3    H147817   8.573   5.809  10.407
 7874TIP3    H247818   8.714   5.854  10.374
 7875TIP3   OH247819   7.181   6.323  11.280
 7875TIP3    H147820   7.263   6.369  11.297
 7875TIP3    H247821   7.157   6.284  11.364
 7876TIP3   OH247822   7.556   6.112  10.395
 7876TIP3    H147823   7.596   6.050  10.456
 7876TIP3    H247824   7.614   6.189  10.398
 7877TIP3   OH247825   7.217   5.760  10.386
 7877TIP3    H147826   7.139   5.800  10.424
 7877TIP3    H247827   7.262   5.833  10.344
 7878TIP3   OH247828   8.430   4.921  11.307
 7878TIP3    H147829   8.448   4.997  11.362
 7878TIP3    H247830   8.368   4.869  11.357
 7879TIP3   OH247831   8.337   4.918  10.511
 7879TIP3    H147832   8.294   4.957  10.435
 7879TIP3    H247833   8.383   4.990  10.553
 7880TIP3   OH247834   7.974   6.237  10.383
 7880TIP3    H147835   7.886   6.264  10.409
 7880TIP3    H247836   8.032   6.274  10.450
 7881TIP3   OH247837   7.972   5.179  10.632
 7881TIP3    H147838   8.022   5.261  10.635
 7881TIP3    H247839   7.958   5.156  10.723
 7882TIP3   OH247840   8.131   5.246  11.487
 7882TIP3    H147841   8.071   5.248  11.561
 7882TIP3    H247842   8.190   5.173  11.505
 7883TIP3   OH247843   8.078   4.803  10.547
 7883TIP3    H147844   8.057   4.809  10.640
 7883TIP3    H247845   8.167   4.839  10.540
 7884TIP3   OH247846   7.723   6.339  10.441
 7884TIP3    H147847   7.748   6.420  10.397
 7884TIP3    H247848   7.664   6.367  10.511
 7885TIP3   OH247849   7.637   5.006  10.341
 7885TIP3    H147850   7.595   5.076  10.391
 7885TIP3    H247851   7.719   4.989  10.387
 7886TIP3   OH247852   8.724   5.042  11.552
 7886TIP3    H147853   8.634   5.051  11.521
 7886TIP3    H247854   8.778   5.051  11.473
 7887TIP3   OH247855   8.556   5.462  10.904
 7887TIP3    H147856   8.474   5.419  10.881
 7887TIP3    H247857   8.606   5.395  10.951
 7888TIP3   OH247858   7.354   5.974  10.268
 7888TIP3    H147859   7.414   6.033  10.315
 7888TIP3    H247860   7.411   5.923  10.210
 7889TIP3   OH247861   7.095   5.269  10.244
 7889TIP3    H147862   7.080   5.356  10.281
 7889TIP3    H247863   7.043   5.268  10.163
 7890TIP3   OH247864   8.717   6.645  11.130
 7890TIP3    H147865   8.707   6.691  11.047
 7890TIP3    H247866   8.807   6.612  11.128
 7891TIP3   OH247867   7.165   4.663  10.881
 7891TIP3    H147868   7.201   4.626  10.801
 7891TIP3    H247869   7.071   4.644  10.876
 7892TIP3   OH247870   7.076   6.580  10.694
 7892TIP3    H147871   7.009   6.585  10.762
 7892TIP3    H247872   7.027   6.588  10.612
 7893TIP3   OH247873   6.932   6.700  11.751
 7893TIP3    H147874   7.005   6.664  11.800
 7893TIP3    H247875   6.895   6.625  11.704
 7894TIP3   OH247876   7.360   6.405  11.844
 7894TIP3    H147877   7.446   6.403  11.886
 7894TIP3    H247878   7.376   6.371  11.756
 7895TIP3   OH247879   8.023   6.370  10.146
 7895TIP3    H147880   8.002   6.317  10.223
 7895TIP3    H247881   8.068   6.309  10.087
 7896TIP3   OH247882   8.234   6.256  11.781
 7896TIP3    H147883   8.229   6.182  11.842
 7896TIP3    H247884   8.310   6.306  11.809
 7897TIP3   OH247885   8.497   6.367  10.219
 7897TIP3    H147886   8.495   6.285  10.269
 7897TIP3    H247887   8.587   6.374  10.187
 7898TIP3   OH247888   6.930   5.944  11.801
 7898TIP3    H147889   6.917   5.856  11.836
 7898TIP3    H247890   6.862   5.953  11.733
 7899TIP3   OH247891   7.543   5.827  10.134
 7899TIP3    H147892   7.585   5.764  10.193
 7899TIP3    H247893   7.610   5.848  10.069
 7900TIP3   OH247894   7.607   6.009  11.780
 7900TIP3    H147895   7.582   6.032  11.691
 7900TIP3    H247896   7.637   5.919  11.775
 7901TIP3   OH247897   8.606   5.878  11.550
 7901TIP3    H147898   8.675   5.909  11.492
 7901TIP3    H247899   8.570   5.957  11.589
 7902TIP3   OH247900   7.081   5.582  11.689
 7902TIP3    H147901   7.053   5.508  11.744
 7902TIP3    H247902   7.020   5.653  11.711
 7903TIP3   OH247903   7.664   5.647  10.306
 7903TIP3    H147904   7.588   5.623  10.359
 7903TIP3    H247905   7.713   5.566  10.296
 7904TIP3   OH247906   7.444   5.398  11.492
 7904TIP3    H147907   7.378   5.467  11.490
 7904TIP3    H247908   7.519   5.434  11.444
 7905TIP3   OH247909   7.828   5.424  10.288
 7905TIP3    H147910   7.848   5.333  10.270
 7905TIP3    H247911   7.913   5.469  10.284
 7906TIP3   OH247912   8.297   5.794  11.992
 7906TIP3    H147913   8.375   5.762  11.946
 7906TIP3    H247914   8.272   5.722  12.050
 7907TIP3   OH247915   8.916   5.797  19.914
 7907TIP3    H147916   8.927   5.717  19.966
 7907TIP3    H247917   9.005   5.827  19.897
 7908TIP3   OH247918   7.552   5.164  11.598
 7908TIP3    H147919   7.574   5.130  11.511
 7908TIP3    H247920   7.521   5.253  11.582
 7909TIP3   OH247921   7.586   4.847  11.347
 7909TIP3    H147922   7.606   4.940  11.344
 7909TIP3    H247923   7.503   4.839  11.301
 7910TIP3   OH247924   7.666   5.515  11.358
 7910TIP3    H147925   7.746   5.505  11.306
 7910TIP3    H247926   7.621   5.589  11.318
 7911TIP3   OH247927   8.144   5.224  11.989
 7911TIP3    H147928   8.183   5.148  12.033
 7911TIP3    H247929   8.207   5.295  12.004
 7912TIP3   OH247930   8.625   5.617  11.625
 7912TIP3    H147931   8.604   5.706  11.595
 7912TIP3    H247932   8.717   5.621  11.650
 7913TIP3   OH247933   7.396   5.071  11.811
 7913TIP3    H147934   7.311   5.038  11.781
 7913TIP3    H247935   7.439   5.101  11.731
 7914TIP3   OH247936   7.660   4.598  11.458
 7914TIP3    H147937   7.652   4.688  11.428
 7914TIP3    H247938   7.579   4.555  11.429
 7915TIP3   OH247939   7.750   5.099  11.796
 7915TIP3    H147940   7.700   5.037  11.849
 7915TIP3    H247941   7.694   5.117  11.721
 7916TIP3   OH247942   8.267   5.064  11.657
 7916TIP3    H147943   8.181   5.094  11.688
 7916TIP3    H247944   8.302   5.013  11.730
 7917TIP3   OH247945   8.366   4.943  11.884
 7917TIP3    H147946   8.458   4.919  11.898
 7917TIP3    H247947   8.336   4.975  11.969
 7918TIP3   OH247948   7.150   4.938  11.758
 7918TIP3    H147949   7.170   4.857  11.712
 7918TIP3    H247950   7.148   4.914  11.851
 7919TIP3   OH247951   7.778   4.581  11.716
 7919TIP3    H147952   7.841   4.510  11.702
 7919TIP3    H247953   7.733   4.591  11.632
 7920TIP3   OH247954   7.767   4.714  11.953
 7920TIP3    H147955   7.771   4.669  11.869
 7920TIP3    H247956   7.695   4.776  11.944
 7921TIP3   OH247957   7.809   6.573  10.323
 7921TIP3    H147958   7.903   6.590  10.319
 7921TIP3    H247959   7.775   6.604  10.240
 7922TIP3   OH247960   7.086   6.039  10.264
 7922TIP3    H147961   7.181   6.023  10.262
 7922TIP3    H247962   7.070   6.094  10.188
 7923TIP3   OH247963   6.745   6.721  10.727
 7923TIP3    H147964   6.703   6.650  10.678
 7923TIP3    H247965   6.799   6.676  10.792
 7924TIP3   OH247966   6.906   6.595  10.918
 7924TIP3    H147967   6.844   6.597  10.991
 7924TIP3    H247968   6.992   6.588  10.960
 7925TIP3   OH247969   8.983   6.582  11.174
 7925TIP3    H147970   8.985   6.506  11.231
 7925TIP3    H247971   9.008   6.655  11.230
 7926TIP3   OH247972   8.966   6.340  11.311
 7926TIP3    H147973   8.887   6.295  11.282
 7926TIP3    H247974   8.960   6.339  11.407
 7927TIP3   OH247975   8.780   6.072  11.894
 7927TIP3    H147976   8.687   6.081  11.915
 7927TIP3    H247977   8.822   6.146  11.939
 7928TIP3   OH247978   8.876   5.774  10.418
 7928TIP3    H147979   8.945   5.840  10.428
 7928TIP3    H247980   8.892   5.711  10.489
 7929TIP3   OH247981   8.925   5.591  10.622
 7929TIP3    H147982   8.834   5.563  10.627
 7929TIP3    H247983   8.957   5.583  10.712
 7930TIP3   OH247984   9.101   5.980  11.095
 7930TIP3    H147985   9.105   5.983  11.191
 7930TIP3    H247986   9.110   6.071  11.068
 7931TIP3   OH247987   8.719   6.209  11.271
 7931TIP3    H147988   8.656   6.258  11.325
 7931TIP3    H247989   8.674   6.197  11.187
 7932TIP3   OH247990   8.783   5.570  10.246
 7932TIP3    H147991   8.705   5.603  10.201
 7932TIP3    H247992   8.814   5.644  10.298
 7933TIP3   OH247993   8.822   5.142  10.147
 7933TIP3    H147994   8.759   5.143  10.076
 7933TIP3    H247995   8.838   5.049  10.165
 7934TIP3   OH247996   8.666   5.501  10.654
 7934TIP3    H147997   8.680   5.411  10.623
 7934TIP3    H247998   8.629   5.490  10.742
 7935TIP3   OH247999   6.932   5.660  11.078
 7935TIP3    H148000   6.937   5.607  10.999
 7935TIP3    H248001   7.011   5.637  11.127
 7936TIP3   OH248002   8.894   5.658  11.678
 7936TIP3    H148003   8.946   5.579  11.666
 7936TIP3    H248004   8.941   5.726  11.630
 7937TIP3   OH248005   8.992   5.392  11.610
 7937TIP3    H148006   8.904   5.367  11.640
 7937TIP3    H248007   9.041   5.309  11.609
 7938TIP3   OH248008   8.858   4.873  10.186
 7938TIP3    H148009   8.946   4.838  10.196
 7938TIP3    H248010   8.802   4.807  10.227
 7939TIP3   OH248011   8.736   5.249  10.554
 7939TIP3    H148012   8.796   5.186  10.594
 7939TIP3    H248013   8.782   5.279  10.475
 7940TIP3   OH248014   8.728   5.281  11.032
 7940TIP3    H148015   8.816   5.303  11.001
 7940TIP3    H248016   8.734   5.289  11.128
 7941TIP3   OH248017   8.786   5.354  11.301
 7941TIP3    H148018   8.715   5.380  11.360
 7941TIP3    H248019   8.836   5.434  11.287
 7942TIP3   OH248020   6.942   4.978  11.575
 7942TIP3    H148021   7.006   4.981  11.646
 7942TIP3    H248022   6.866   4.935  11.613
 7943TIP3   OH248023   8.960   4.659  11.739
 7943TIP3    H148024   9.017   4.627  11.669
 7943TIP3    H248025   8.944   4.750  11.717
 7944TIP3   OH248026   8.798   4.719  10.514
 7944TIP3    H148027   8.822   4.681  10.599
 7944TIP3    H248028   8.703   4.729  10.519
 7945TIP3   OH248029   7.101   4.934  10.840
 7945TIP3    H148030   7.142   4.848  10.848
 7945TIP3    H248031   7.143   4.987  10.907
 7946TIP3   OH248032   6.765   5.247  10.993
 7946TIP3    H148033   6.854   5.220  10.974
 7946TIP3    H248034   6.771   5.341  11.012
 7947TIP3   OH248035   8.918   4.932  11.710
 7947TIP3    H148036   8.891   4.952  11.799
 7947TIP3    H248037   8.844   4.961  11.656
 7948TIP3   OH248038   9.123   4.798  10.225
 7948TIP3    H148039   9.192   4.743  10.262
 7948TIP3    H248040   9.162   4.837  10.147
 7949TIP3   OH248041   6.830   4.841  10.495
 7949TIP3    H148042   6.735   4.846  10.496
 7949TIP3    H248043   6.858   4.920  10.447
 7950TIP3   OH248044   8.632   6.549  10.751
 7950TIP3    H148045   8.709   6.538  10.694
 7950TIP3    H248046   8.655   6.622  10.808
 7951TIP3   OH248047   6.755   4.588  11.255
 7951TIP3    H148048   6.720   4.576  11.343
 7951TIP3    H248049   6.734   4.679  11.233
 7952TIP3   OH248050   7.117   6.211  11.532
 7952TIP3    H148051   7.021   6.213  11.533
 7952TIP3    H248052   7.140   6.136  11.588
 7953TIP3   OH248053   7.411   6.470  11.368
 7953TIP3    H148054   7.392   6.563  11.362
 7953TIP3    H248055   7.507   6.465  11.359
 7954TIP3   OH248056   7.895   6.606  11.605
 7954TIP3    H148057   7.917   6.527  11.655
 7954TIP3    H248058   7.979   6.651  11.593
 7955TIP3   OH248059   8.140   6.734  11.573
 7955TIP3    H148060   8.193   6.681  11.514
 7955TIP3    H248061   8.201   6.766  11.639
 7956TIP3   OH248062   8.763   4.519  11.399
 7956TIP3    H148063   8.718   4.600  11.376
 7956TIP3    H248064   8.752   4.463  11.321
 7957TIP3   OH248065   7.111   6.817  11.402
 7957TIP3    H148066   7.026   6.819  11.358
 7957TIP3    H248067   7.097   6.867  11.483
 7958TIP3   OH248068   7.372   6.741  11.348
 7958TIP3    H148069   7.283   6.765  11.374
 7958TIP3    H248070   7.386   6.789  11.266
 7959TIP3   OH248071   8.049   6.664  11.180
 7959TIP3    H148072   7.974   6.660  11.120
 7959TIP3    H248073   8.020   6.723  11.249
 7960TIP3   OH248074   8.261   6.507  11.109
 7960TIP3    H148075   8.186   6.559  11.138
 7960TIP3    H248076   8.335   6.539  11.161
 7961TIP3   OH248077   8.477   6.598  11.257
 7961TIP3    H148078   8.475   6.683  11.301
 7961TIP3    H248079   8.557   6.601  11.203
 7962TIP3   OH248080   7.145   6.578  11.056
 7962TIP3    H148081   7.127   6.557  11.148
 7962TIP3    H248082   7.214   6.517  11.031
 7963TIP3   OH248083   7.344   6.393  11.004
 7963TIP3    H148084   7.341   6.302  11.033
 7963TIP3    H248085   7.428   6.426  11.037
 7964TIP3   OH248086   7.601   6.460  11.101
 7964TIP3    H148087   7.634   6.378  11.065
 7964TIP3    H248088   7.639   6.465  11.189
 7965TIP3   OH248089   8.002   4.794  10.825
 7965TIP3    H148090   7.921   4.752  10.855
 7965TIP3    H248091   8.066   4.723  10.820
 7966TIP3   OH248092   8.700   4.504  10.909
 7966TIP3    H148093   8.773   4.539  10.858
 7966TIP3    H248094   8.629   4.566  10.895
 7967TIP3   OH248095   8.897   4.605  10.748
 7967TIP3    H148096   8.959   4.535  10.727
 7967TIP3    H248097   8.952   4.681  10.768
 7968TIP3   OH248098   7.261   4.553  10.645
 7968TIP3    H148099   7.211   4.524  10.569
 7968TIP3    H248100   7.312   4.476  10.671
 7969TIP3   OH248101   6.902   4.647  10.310
 7969TIP3    H148102   6.997   4.639  10.305
 7969TIP3    H248103   6.886   4.705  10.385
 7970TIP3   OH248104   7.573   4.406  10.703
 7970TIP3    H148105   7.642   4.469  10.685
 7970TIP3    H248106   7.555   4.416  10.797
 7971TIP3   OH248107   8.147   4.569  10.780
 7971TIP3    H148108   8.144   4.549  10.687
 7971TIP3    H248109   8.178   4.488  10.821
 7972TIP3   OH248110   8.525   4.698  10.515
 7972TIP3    H148111   8.456   4.764  10.511
 7972TIP3    H248112   8.478   4.615  10.525
 7973TIP3   OH248113   6.955   6.613  10.448
 7973TIP3    H148114   6.877   6.573  10.409
 7973TIP3    H248115   6.945   6.707  10.429
 7974TIP3   OH248116   7.172   4.603  10.308
 7974TIP3    H148117   7.174   4.515  10.346
 7974TIP3    H248118   7.252   4.609  10.255
 7975TIP3   OH248119   7.892   4.994  10.450
 7975TIP3    H148120   7.950   4.919  10.467
 7975TIP3    H248121   7.917   5.058  10.516
 7976TIP3   OH248122   8.081   6.610  10.265
 7976TIP3    H148123   8.176   6.616  10.255
 7976TIP3    H248124   8.057   6.531  10.215
 7977TIP3   OH248125   8.833   6.542  10.558
 7977TIP3    H148126   8.806   6.460  10.518
 7977TIP3    H248127   8.801   6.610  10.497
 7978TIP3   OH248128   7.213   4.712  11.609
 7978TIP3    H148129   7.186   4.652  11.539
 7978TIP3    H248130   7.253   4.655  11.675
 7979TIP3   OH248131   7.300   4.496  11.758
 7979TIP3    H148132   7.382   4.457  11.788
 7979TIP3    H248133   7.248   4.422  11.725
 7980TIP3   OH248134   7.227   6.622  10.392
 7980TIP3    H148135   7.134   6.605  10.408
 7980TIP3    H248136   7.272   6.543  10.422
 7981TIP3   OH248137   8.482   4.352  11.778
 7981TIP3    H148138   8.504   4.267  11.815
 7981TIP3    H248139   8.564   4.385  11.742
 7982TIP3   OH248140   8.635   6.412  11.647
 7982TIP3    H148141   8.595   6.387  11.564
 7982TIP3    H248142   8.625   6.507  11.650
 7983TIP3   OH248143   9.106   5.436  10.468
 7983TIP3    H148144   9.054   5.495  10.522
 7983TIP3    H248145   9.042   5.388  10.415
 7984TIP3   OH248146   9.177   5.805  11.344
 7984TIP3    H148147   9.179   5.781  11.251
 7984TIP3    H248148   9.176   5.721  11.390
 7985TIP3   OH248149   9.141   6.259  11.093
 7985TIP3    H148150   0.017   6.281  11.103
 7985TIP3    H248151   9.100   6.291  11.173
 7986TIP3   OH248152   9.048   4.830  10.767
 7986TIP3    H148153   9.136   4.850  10.798
 7986TIP3    H248154   9.047   4.859  10.675
 7987TIP3   OH248155   9.137   5.549  11.437
 7987TIP3    H148156   9.097   5.493  11.505
 7987TIP3    H248157   9.080   5.539  11.361
 7988TIP3   OH248158   9.210   5.833  11.751
 7988TIP3    H148159   9.153   5.814  11.825
 7988TIP3    H248160   9.151   5.859  11.680
 7989TIP3   OH248161   9.051   6.636  10.699
 7989TIP3    H148162   8.981   6.594  10.648
 7989TIP3    H248163   9.058   6.583  10.778
 7990TIP3   OH248164   9.065   6.484  10.927
 7990TIP3    H148165   9.086   6.395  10.956
 7990TIP3    H248166   9.036   6.528  11.007
 7991TIP3   OH248167   9.169   5.709  11.086
 7991TIP3    H148168   9.157   5.798  11.054
 7991TIP3    H248169   0.039   5.684  11.054
 7992TIP3   OH248170   9.086   5.128  11.587
 7992TIP3    H148171   9.179   5.116  11.607
 7992TIP3    H248172   9.042   5.056  11.632
 7993TIP3   OH248173   8.986   5.381  11.003
 7993TIP3    H148174   9.080   5.367  10.989
 7993TIP3    H248175   8.981   5.442  11.076
 7994TIP3   OH248176   9.037   4.862  10.485
 7994TIP3    H148177   8.951   4.822  10.494
 7994TIP3    H248178   9.058   4.852  10.392
 7995TIP3   OH248179   9.015   4.638  11.345
 7995TIP3    H148180   8.938   4.589  11.371
 7995TIP3    H248181   8.979   4.719  11.307
 7996TIP3   OH248182   1.530   8.020  10.624
 7996TIP3    H148183   1.517   8.115  10.620
 7996TIP3    H248184   1.448   7.984  10.591
 7997TIP3   OH248185   1.174   7.736  11.102
 7997TIP3    H148186   1.254   7.707  11.146
 7997TIP3    H248187   1.163   7.675  11.029
 7998TIP3   OH248188   0.412   7.905  11.124
 7998TIP3    H148189   0.476   7.835  11.119
 7998TIP3    H248190   0.410   7.929  11.217
 7999TIP3   OH248191   1.747   8.245  10.849
 7999TIP3    H148192   1.756   8.152  10.830
 7999TIP3    H248193   1.711   8.249  10.937
 8000TIP3   OH248194   0.489   8.305  11.136
 8000TIP3    H148195   0.531   8.225  11.104
 8000TIP3    H248196   0.524   8.374  11.079
 8001TIP3   OH248197   0.155   7.710  10.499
 8001TIP3    H148198   0.192   7.730  10.586
 8001TIP3    H248199   0.061   7.703  10.514
 8002TIP3   OH248200   0.284   7.755  10.744
 8002TIP3    H148201   0.318   7.674  10.782
 8002TIP3    H248202   0.362   7.803  10.715
 8003TIP3   OH248203   1.483   8.806  10.827
 8003TIP3    H148204   1.572   8.769  10.834
 8003TIP3    H248205   1.447   8.796  10.915
 8004TIP3   OH248206   1.083   7.995  11.148
 8004TIP3    H148207   1.122   7.910  11.127
 8004TIP3    H248208   1.157   8.052  11.166
 8005TIP3   OH248209   2.130   7.085  11.243
 8005TIP3    H148210   2.116   7.168  11.289
 8005TIP3    H248211   2.139   7.109  11.151
 8006TIP3   OH248212   1.575   7.542  11.016
 8006TIP3    H148213   1.630   7.464  11.003
 8006TIP3    H248214   1.503   7.531  10.954
 8007TIP3   OH248215   0.705   7.271  10.783
 8007TIP3    H148216   0.701   7.359  10.746
 8007TIP3    H248217   0.649   7.219  10.726
 8008TIP3   OH248218   1.590   7.308  10.717
 8008TIP3    H148219   1.644   7.312  10.796
 8008TIP3    H248220   1.652   7.318  10.645
 8009TIP3   OH248221   0.362   7.512  10.848
 8009TIP3    H148222   0.395   7.447  10.910
 8009TIP3    H248223   0.373   7.471  10.762
 8010TIP3   OH248224   0.758   7.697  10.836
 8010TIP3    H148225   0.850   7.670  10.843
 8010TIP3    H248226   0.720   7.636  10.774
 8011TIP3   OH248227   2.070   7.342  11.335
 8011TIP3    H148228   2.056   7.420  11.282
 8011TIP3    H248229   2.087   7.376  11.423
 8012TIP3   OH248230   0.583   7.118  11.214
 8012TIP3    H148231   0.546   7.178  11.149
 8012TIP3    H248232   0.523   7.124  11.289
 8013TIP3   OH248233   1.512   8.376  10.530
 8013TIP3    H148234   1.429   8.332  10.510
 8013TIP3    H248235   1.486   8.465  10.556
 8014TIP3   OH248236   0.817   7.932  11.151
 8014TIP3    H148237   0.762   8.004  11.121
 8014TIP3    H248238   0.906   7.967  11.149
 8015TIP3   OH248239   1.756   7.339  10.944
 8015TIP3    H148240   1.771   7.255  10.988
 8015TIP3    H248241   1.836   7.389  10.960
 8016TIP3   OH248242   0.524   7.292  10.993
 8016TIP3    H148243   0.554   7.361  11.052
 8016TIP3    H248244   0.595   7.281  10.930
 8017TIP3   OH248245   0.691   8.420  11.484
 8017TIP3    H148246   0.674   8.508  11.449
 8017TIP3    H248247   0.605   8.381  11.495
 8018TIP3   OH248248   0.228   8.325  10.448
 8018TIP3    H148249   0.263   8.355  10.364
 8018TIP3    H248250   0.210   8.405  10.496
 8019TIP3   OH248251   1.716   8.600  11.198
 8019TIP3    H148252   1.628   8.561  11.194
 8019TIP3    H248253   1.729   8.637  11.110
 8020TIP3   OH248254   1.899   6.921  11.251
 8020TIP3    H148255   1.848   6.969  11.186
 8020TIP3    H248256   1.977   6.975  11.264
 8021TIP3   OH248257   0.860   6.778  10.956
 8021TIP3    H148258   0.856   6.687  10.986
 8021TIP3    H248259   0.787   6.822  11.001
 8022TIP3   OH248260   1.733   8.701  10.813
 8022TIP3    H148261   1.748   8.620  10.765
 8022TIP3    H248262   1.795   8.764  10.775
 8023TIP3   OH248263   1.751   8.461  10.674
 8023TIP3    H148264   1.678   8.435  10.618
 8023TIP3    H248265   1.762   8.389  10.736
 8024TIP3   OH248266   2.020   8.252  11.468
 8024TIP3    H148267   2.051   8.200  11.395
 8024TIP3    H248268   1.989   8.334  11.428
 8025TIP3   OH248269   1.300   7.912  10.502
 8025TIP3    H148270   1.220   7.964  10.509
 8025TIP3    H248271   1.294   7.870  10.417
 8026TIP3   OH248272   1.311   7.751  10.270
 8026TIP3    H148273   1.394   7.790  10.243
 8026TIP3    H248274   1.335   7.663  10.301
 8027TIP3   OH248275   2.202   7.838  11.268
 8027TIP3    H148276   2.160   7.925  11.271
 8027TIP3    H248277   2.280   7.851  11.215
 8028TIP3   OH248278   1.722   7.883  10.479
 8028TIP3    H148279   1.659   7.929  10.535
 8028TIP3    H248280   1.771   7.827  10.538
 8029TIP3   OH248281   1.865   7.662  11.478
 8029TIP3    H148282   1.855   7.747  11.522
 8029TIP3    H248283   1.795   7.608  11.515
 8030TIP3   OH248284   0.686   7.962  10.787
 8030TIP3    H148285   0.613   7.944  10.727
 8030TIP3    H248286   0.722   7.876  10.807
 8031TIP3   OH248287   0.646   8.462  10.960
 8031TIP3    H148288   0.659   8.474  10.865
 8031TIP3    H248289   0.723   8.413  10.988
 8032TIP3   OH248290   0.631   7.742  11.081
 8032TIP3    H148291   0.663   7.719  10.994
 8032TIP3    H248292   0.696   7.804  11.115
 8033TIP3   OH248293   1.462   8.496  11.163
 8033TIP3    H148294   1.414   8.485  11.081
 8033TIP3    H248295   1.437   8.420  11.215
 8034TIP3   OH248296   0.898   8.499  11.647
 8034TIP3    H148297   0.842   8.567  11.684
 8034TIP3    H248298   0.840   8.450  11.588
 8035TIP3   OH248299   1.588   7.798  10.256
 8035TIP3    H148300   1.633   7.824  10.337
 8035TIP3    H248301   1.613   7.865  10.192
 8036TIP3   OH248302   0.399   7.979  11.393
 8036TIP3    H148303   0.432   8.008  11.478
 8036TIP3    H248304   0.310   7.949  11.410
 8037TIP3   OH248305   1.434   8.634  10.609
 8037TIP3    H148306   1.443   8.678  10.694
 8037TIP3    H248307   1.374   8.690  10.560
 8038TIP3   OH248308   0.697   8.682  11.693
 8038TIP3    H148309   0.685   8.696  11.599
 8038TIP3    H248310   0.616   8.641  11.723
 8039TIP3   OH248311   2.046   6.774  10.420
 8039TIP3    H148312   1.954   6.798  10.406
 8039TIP3    H248313   2.075   6.830  10.492
 8040TIP3   OH248314   0.481   7.906  10.614
 8040TIP3    H148315   0.449   7.988  10.578
 8040TIP3    H248316   0.485   7.847  10.539
 8041TIP3   OH248317   2.048   8.624  10.227
 8041TIP3    H148318   2.087   8.710  10.208
 8041TIP3    H248319   2.112   8.561  10.194
 8042TIP3   OH248320   0.160   8.182  11.358
 8042TIP3    H148321   0.068   8.186  11.332
 8042TIP3    H248322   0.168   8.099  11.405
 8043TIP3   OH248323   0.044   8.603  10.985
 8043TIP3    H148324   0.091   8.607  10.902
 8043TIP3    H248325   0.107   8.638  11.049
 8044TIP3   OH248326   2.160   8.725  11.629
 8044TIP3    H148327   2.179   8.631  11.624
 8044TIP3    H248328   2.069   8.730  11.657
 8045TIP3   OH248329   1.094   8.615  11.486
 8045TIP3    H148330   1.128   8.692  11.532
 8045TIP3    H248331   1.030   8.577  11.546
 8046TIP3   OH248332   1.295   8.843  10.485
 8046TIP3    H148333   1.285   8.855  10.390
 8046TIP3    H248334   1.211   8.872  10.521
 8047TIP3   OH248335   0.488   8.829  10.744
 8047TIP3    H148336   0.522   8.804  10.830
 8047TIP3    H248337   0.411   8.774  10.731
 8048TIP3   OH248338   1.537   8.768  10.248
 8048TIP3    H148339   1.604   8.704  10.226
 8048TIP3    H248340   1.569   8.809  10.329
 8049TIP3   OH248341   1.568   8.884  10.511
 8049TIP3    H148342   1.473   8.884  10.505
 8049TIP3    H248343   1.590   8.804  10.558
 8050TIP3   OH248344   2.052   7.482  11.571
 8050TIP3    H148345   1.990   7.547  11.537
 8050TIP3    H248346   2.005   7.441  11.644
 8051TIP3   OH248347   0.429   8.327  11.532
 8051TIP3    H148348   0.437   8.240  11.571
 8051TIP3    H248349   0.409   8.385  11.605
 8052TIP3   OH248350   0.639   6.877  11.090
 8052TIP3    H148351   0.564   6.875  11.030
 8052TIP3    H248352   0.630   6.960  11.137
 8053TIP3   OH248353   1.236   6.828  11.381
 8053TIP3    H148354   1.275   6.829  11.469
 8053TIP3    H248355   1.150   6.868  11.393
 8054TIP3   OH248356   1.635   7.260  11.515
 8054TIP3    H148357   1.549   7.248  11.555
 8054TIP3    H248358   1.666   7.344  11.549
 8055TIP3   OH248359   1.686   8.034  10.146
 8055TIP3    H148360   1.657   8.119  10.112
 8055TIP3    H248361   1.753   8.055  10.211
 8056TIP3   OH248362   1.136   7.258  10.235
 8056TIP3    H148363   1.104   7.179  10.279
 8056TIP3    H248364   1.061   7.289  10.184
 8057TIP3   OH248365   0.605   7.481  11.170
 8057TIP3    H148366   0.551   7.472  11.249
 8057TIP3    H248367   0.603   7.574  11.150
 8058TIP3   OH248368   0.660   7.514  10.655
 8058TIP3    H148369   0.568   7.497  10.633
 8058TIP3    H248370   0.709   7.483  10.579
 8059TIP3   OH248371   1.414   7.677  10.607
 8059TIP3    H148372   1.372   7.760  10.586
 8059TIP3    H248373   1.439   7.640  10.522
 8060TIP3   OH248374   1.203   7.558  11.687
 8060TIP3    H148375   1.161   7.473  11.686
 8060TIP3    H248376   1.276   7.548  11.749
 8061TIP3   OH248377   1.399   7.492  10.807
 8061TIP3    H148378   1.401   7.562  10.741
 8061TIP3    H248379   1.452   7.422  10.769
 8062TIP3   OH248380   0.458   7.414  11.392
 8062TIP3    H148381   0.401   7.447  11.461
 8062TIP3    H248382   0.459   7.319  11.405
 8063TIP3   OH248383   0.884   7.323  10.142
 8063TIP3    H148384   0.820   7.261  10.179
 8063TIP3    H248385   0.850   7.409  10.166
 8064TIP3   OH248386   0.098   7.205  10.787
 8064TIP3    H148387   0.182   7.174  10.820
 8064TIP3    H248388   0.111   7.210  10.692
 8065TIP3   OH248389   0.204   7.454  10.407
 8065TIP3    H148390   0.219   7.464  10.313
 8065TIP3    H248391   0.185   7.542  10.438
 8066TIP3   OH248392   1.395   7.629  11.218
 8066TIP3    H148393   1.470   7.598  11.167
 8066TIP3    H248394   1.397   7.577  11.299
 8067TIP3   OH248395   0.985   7.240  10.807
 8067TIP3    H148396   0.889   7.247  10.810
 8067TIP3    H248397   1.003   7.148  10.822
 8068TIP3   OH248398   0.409   7.415  10.595
 8068TIP3    H148399   0.340   7.418  10.529
 8068TIP3    H248400   0.437   7.323  10.596
 8069TIP3   OH248401   0.803   7.401  10.451
 8069TIP3    H148402   0.891   7.380  10.482
 8069TIP3    H248403   0.817   7.463  10.380
 8070TIP3   OH248404   1.761   7.081  11.064
 8070TIP3    H148405   1.693   7.103  11.128
 8070TIP3    H248406   1.717   7.022  11.002
 8071TIP3   OH248407   0.827   7.579  10.242
 8071TIP3    H148408   0.758   7.646  10.242
 8071TIP3    H248409   0.907   7.628  10.222
 8072TIP3   OH248410   1.871   9.014  11.751
 8072TIP3    H148411   1.905   9.054  11.671
 8072TIP3    H248412   1.938   9.033  11.817
 8073TIP3   OH248413   0.433   8.082  11.655
 8073TIP3    H148414   0.497   8.069  11.725
 8073TIP3    H248415   0.348   8.082  11.700
 8074TIP3   OH248416   1.143   7.535  10.910
 8074TIP3    H148417   1.232   7.522  10.876
 8074TIP3    H248418   1.101   7.449  10.900
 8075TIP3   OH248419   0.502   7.159  10.627
 8075TIP3    H148420   0.442   7.119  10.691
 8075TIP3    H248421   0.498   7.100  10.552
 8076TIP3   OH248422   0.857   7.420  11.264
 8076TIP3    H148423   0.770   7.432  11.226
 8076TIP3    H248424   0.903   7.502  11.246
 8077TIP3   OH248425   1.061   8.057  10.470
 8077TIP3    H148426   1.008   8.016  10.402
 8077TIP3    H248427   0.998   8.084  10.536
 8078TIP3   OH248428   2.128   8.116  11.239
 8078TIP3    H148429   2.216   8.145  11.213
 8078TIP3    H248430   2.073   8.135  11.163
 8079TIP3   OH248431   1.299   7.354  10.434
 8079TIP3    H148432   1.252   7.325  10.356
 8079TIP3    H248433   1.360   7.421  10.402
 8080TIP3   OH248434   1.270   8.393  11.522
 8080TIP3    H148435   1.233   8.375  11.608
 8080TIP3    H248436   1.222   8.471  11.492
 8081TIP3   OH248437   1.497   7.555  10.364
 8081TIP3    H148438   1.567   7.495  10.388
 8081TIP3    H248439   1.540   7.625  10.316
 8082TIP3   OH248440   0.607   8.080  11.026
 8082TIP3    H148441   0.636   8.051  10.939
 8082TIP3    H248442   0.534   8.022  11.047
 8083TIP3   OH248443   1.258   8.267  10.477
 8083TIP3    H148444   1.201   8.340  10.452
 8083TIP3    H248445   1.201   8.190  10.476
 8084TIP3   OH248446   0.139   7.927  11.474
 8084TIP3    H148447   0.170   7.883  11.553
 8084TIP3    H248448   0.048   7.899  11.465
 8085TIP3   OH248449   1.004   7.753  11.702
 8085TIP3    H148450   0.949   7.726  11.628
 8085TIP3    H248451   1.082   7.698  11.696
 8086TIP3   OH248452   1.548   8.344  11.577
 8086TIP3    H148453   1.459   8.355  11.544
 8086TIP3    H248454   1.552   8.397  11.657
 8087TIP3   OH248455   2.214   7.584  10.430
 8087TIP3    H148456   2.123   7.560  10.413
 8087TIP3    H248457   2.225   7.669  10.387
 8088TIP3   OH248458   2.253   8.250  11.631
 8088TIP3    H148459   2.163   8.251  11.596
 8088TIP3    H248460   2.307   8.223  11.557
 8089TIP3   OH248461   2.061   8.627  10.503
 8089TIP3    H148462   1.988   8.579  10.543
 8089TIP3    H248463   2.042   8.623  10.409
 8090TIP3   OH248464   1.748   7.972  10.800
 8090TIP3    H148465   1.664   7.973  10.754
 8090TIP3    H248466   1.750   7.886  10.843
 8091TIP3   OH248467   0.716   8.513  10.700
 8091TIP3    H148468   0.726   8.605  10.676
 8091TIP3    H248469   0.736   8.465  10.620
 8092TIP3   OH248470   0.390   7.826  10.360
 8092TIP3    H148471   0.376   7.921  10.368
 8092TIP3    H248472   0.307   7.788  10.389
 8093TIP3   OH248473   0.848   8.131  10.628
 8093TIP3    H148474   0.794   8.210  10.625
 8093TIP3    H248475   0.801   8.073  10.688
 8094TIP3   OH248476   0.924   8.707  11.284
 8094TIP3    H148477   0.926   8.798  11.315
 8094TIP3    H248478   0.992   8.663  11.336
 8095TIP3   OH248479   0.734   8.782  10.619
 8095TIP3    H148480   0.643   8.799  10.646
 8095TIP3    H248481   0.778   8.866  10.629
 8096TIP3   OH248482   1.377   8.272  11.299
 8096TIP3    H148483   1.328   8.308  11.373
 8096TIP3    H248484   1.434   8.205  11.339
 8097TIP3   OH248485   1.711   8.337  10.327
 8097TIP3    H148486   1.762   8.258  10.347
 8097TIP3    H248487   1.645   8.341  10.395
 8098TIP3   OH248488   1.798   8.740  11.429
 8098TIP3    H148489   1.758   8.691  11.357
 8098TIP3    H248490   1.798   8.831  11.398
 8099TIP3   OH248491   2.180   8.870  10.197
 8099TIP3    H148492   2.200   8.926  10.122
 8099TIP3    H248493   2.129   8.926  10.255
 8100TIP3   OH248494   0.423   7.137  11.445
 8100TIP3    H148495   0.346   7.175  11.490
 8100TIP3    H248496   0.432   7.050  11.484
 8101TIP3   OH248497   1.860   8.094  10.355
 8101TIP3    H148498   1.824   8.022  10.407
 8101TIP3    H248499   1.954   8.090  10.369
 8102TIP3   OH248500   0.305   8.539  11.289
 8102TIP3    H148501   0.306   8.590  11.208
 8102TIP3    H248502   0.299   8.605  11.359
 8103TIP3   OH248503   0.801   8.401  10.456
 8103TIP3    H148504   0.883   8.354  10.441
 8103TIP3    H248505   0.821   8.491  10.431
 8104TIP3   OH248506   0.394   8.101  10.433
 8104TIP3    H148507   0.324   8.165  10.448
 8104TIP3    H248508   0.464   8.152  10.393
 8105TIP3   OH248509   1.583   7.155  11.260
 8105TIP3    H148510   1.615   7.188  11.344
 8105TIP3    H248511   1.490   7.177  11.259
 8106TIP3   OH248512   1.365   7.157  10.620
 8106TIP3    H148513   1.343   7.221  10.552
 8106TIP3    H248514   1.442   7.195  10.663
 8107TIP3   OH248515   1.091   8.471  10.385
 8107TIP3    H148516   1.029   8.540  10.408
 8107TIP3    H248517   1.148   8.512  10.319
 8108TIP3   OH248518   1.045   7.324  10.552
 8108TIP3    H148519   1.137   7.347  10.535
 8108TIP3    H248520   1.042   7.306  10.646
 8109TIP3   OH248521   1.369   7.486  11.459
 8109TIP3    H148522   1.307   7.536  11.513
 8109TIP3    H248523   1.380   7.403  11.506
 8110TIP3   OH248524   1.181   6.945  10.602
 8110TIP3    H148525   1.137   6.951  10.687
 8110TIP3    H248526   1.251   7.010  10.607
 8111TIP3   OH248527   0.893   8.663  10.425
 8111TIP3    H148528   0.936   8.735  10.379
 8111TIP3    H248529   0.837   8.705  10.490
 8112TIP3   OH248530   0.746   7.153  10.335
 8112TIP3    H148531   0.747   7.234  10.386
 8112TIP3    H248532   0.828   7.109  10.356
 8113TIP3   OH248533   1.917   7.191  11.529
 8113TIP3    H148534   1.821   7.196  11.528
 8113TIP3    H248535   1.944   7.233  11.447
 8114TIP3   OH248536   1.776   7.700  10.897
 8114TIP3    H148537   1.697   7.666  10.940
 8114TIP3    H248538   1.847   7.648  10.935
 8115TIP3   OH248539   0.594   8.266  10.321
 8115TIP3    H148540   0.653   8.316  10.377
 8115TIP3    H248541   0.652   8.223  10.258
 8116TIP3   OH248542   0.643   7.793  10.240
 8116TIP3    H148543   0.562   7.792  10.292
 8116TIP3    H248544   0.618   7.829  10.156
 8117TIP3   OH248545   1.936   9.018  11.096
 8117TIP3    H148546   1.900   9.053  11.015
 8117TIP3    H248547   2.030   9.016  11.081
 8118TIP3   OH248548   0.411   6.861  10.934
 8118TIP3    H148549   0.404   6.835  10.842
 8118TIP3    H248550   0.378   6.786  10.983
 8119TIP3   OH248551   0.200   8.583  10.556
 8119TIP3    H148552   0.213   8.612  10.646
 8119TIP3    H248553   0.193   8.664  10.505
 8120TIP3   OH248554   0.289   8.862  11.593
 8120TIP3    H148555   0.345   8.863  11.671
 8120TIP3    H248556   0.202   8.884  11.626
 8121TIP3   OH248557   0.686   8.872  11.900
 8121TIP3    H148558   0.757   8.873  11.964
 8121TIP3    H248559   0.717   8.812  11.832
 8122TIP3   OH248560   1.359   8.552  19.696
 8122TIP3    H148561   1.296   8.491  19.734
 8122TIP3    H248562   1.440   8.502  19.689
 8123TIP3   OH248563   1.501   8.502  11.807
 8123TIP3    H148564   1.490   8.429  11.867
 8123TIP3    H248565   1.576   8.550  11.841
 8124TIP3   OH248566   1.754   8.595  10.230
 8124TIP3    H148567   1.738   8.504  10.258
 8124TIP3    H248568   1.849   8.601  10.221
 8125TIP3   OH248569   0.191   8.110  11.795
 8125TIP3    H148570   0.189   8.031  11.850
 8125TIP3    H248571   0.099   8.126  11.773
 8126TIP3   OH248572   0.789   8.153  10.165
 8126TIP3    H148573   0.829   8.079  10.209
 8126TIP3    H248574   0.851   8.178  10.097
 8127TIP3   OH248575   0.828   7.974  11.671
 8127TIP3    H148576   0.877   8.038  11.620
 8127TIP3    H248577   0.891   7.905  11.692
 8128TIP3   OH248578   1.768   8.149  11.570
 8128TIP3    H148579   1.845   8.198  11.543
 8128TIP3    H248580   1.698   8.214  11.572
 8129TIP3   OH248581   0.255   7.805  11.691
 8129TIP3    H148582   0.348   7.780  11.693
 8129TIP3    H248583   0.234   7.824  11.782
 8130TIP3   OH248584   0.893   7.926  10.280
 8130TIP3    H148585   0.809   7.882  10.289
 8130TIP3    H248586   0.951   7.860  10.241
 8131TIP3   OH248587   0.842   7.697  11.488
 8131TIP3    H148588   0.774   7.763  11.485
 8131TIP3    H248589   0.878   7.694  11.399
 8132TIP3   OH248590   1.053   7.729  10.170
 8132TIP3    H148591   1.074   7.697  10.082
 8132TIP3    H248592   1.138   7.741  10.212
 8133TIP3   OH248593   1.512   8.021  11.955
 8133TIP3    H148594   1.597   7.982  11.935
 8133TIP3    H248595   1.455   7.947  11.975
 8134TIP3   OH248596   2.145   7.961  19.720
 8134TIP3    H148597   2.228   7.993  19.756
 8134TIP3    H248598   2.081   8.029  19.741
 8135TIP3   OH248599   0.875   7.428  11.543
 8135TIP3    H148600   0.869   7.395  11.453
 8135TIP3    H248601   0.865   7.523  11.535
 8136TIP3   OH248602   0.851   7.141  11.290
 8136TIP3    H148603   0.870   7.234  11.277
 8136TIP3    H248604   0.760   7.131  11.264
 8137TIP3   OH248605   0.935   7.692  11.231
 8137TIP3    H148606   1.023   7.697  11.195
 8137TIP3    H248607   0.891   7.771  11.199
 8138TIP3   OH248608   1.725   7.488  11.650
 8138TIP3    H148609   1.667   7.536  11.709
 8138TIP3    H248610   1.794   7.454  11.707
 8139TIP3   OH248611   1.844   7.892  11.639
 8139TIP3    H148612   1.810   7.977  11.612
 8139TIP3    H248613   1.936   7.909  11.660
 8140TIP3   OH248614   0.756   7.414  11.791
 8140TIP3    H148615   0.665   7.386  11.776
 8140TIP3    H248616   0.794   7.422  11.704
 8141TIP3   OH248617   0.971   6.915  11.391
 8141TIP3    H148618   0.941   7.002  11.362
 8141TIP3    H248619   0.905   6.855  11.355
 8142TIP3   OH248620   1.089   7.307  11.681
 8142TIP3    H148621   1.048   7.255  11.750
 8142TIP3    H248622   1.017   7.334  11.625
 8143TIP3   OH248623   1.372   7.261  11.632
 8143TIP3    H148624   1.276   7.261  11.641
 8143TIP3    H248625   1.403   7.208  11.705
 8144TIP3   OH248626   1.462   7.112  11.844
 8144TIP3    H148627   1.479   7.019  11.863
 8144TIP3    H248628   1.459   7.153  11.931
 8145TIP3   OH248629   0.513   7.277  11.725
 8145TIP3    H148630   0.547   7.217  11.659
 8145TIP3    H248631   0.532   7.234  11.808
 8146TIP3   OH248632   0.988   6.853  11.661
 8146TIP3    H148633   1.052   6.783  11.663
 8146TIP3    H248634   0.982   6.878  11.569
 8147TIP3   OH248635   0.865   6.927  11.888
 8147TIP3    H148636   0.908   6.898  11.808
 8147TIP3    H248637   0.891   7.019  11.898
 8148TIP3   OH248638   1.033   8.869  10.310
 8148TIP3    H148639   1.115   8.867  10.261
 8148TIP3    H248640   1.004   8.961  10.304
 8149TIP3   OH248641   0.373   8.406  10.228
 8149TIP3    H148642   0.451   8.356  10.254
 8149TIP3    H248643   0.407   8.488  10.193
 8150TIP3   OH248644   0.134   8.932  10.670
 8150TIP3    H148645   0.038   8.935  10.671
 8150TIP3    H248646   0.156   8.899  10.583
 8151TIP3   OH248647   0.234   8.715  10.805
 8151TIP3    H148648   0.192   8.795  10.774
 8151TIP3    H248649   0.256   8.733  10.896
 8152TIP3   OH248650   2.212   9.006  11.069
 8152TIP3    H148651   2.272   9.042  11.135
 8152TIP3    H248652   2.267   8.950  11.015
 8153TIP3   OH248653   2.178   8.923  11.428
 8153TIP3    H148654   2.163   8.871  11.349
 8153TIP3    H248655   2.184   8.858  11.498
 8154TIP3   OH248656   1.997   8.266  12.046
 8154TIP3    H148657   1.918   8.318  12.028
 8154TIP3    H248658   2.066   8.331  12.058
 8155TIP3   OH248659   2.143   8.060  10.422
 8155TIP3    H148660   2.209   8.128  10.435
 8155TIP3    H248661   2.107   8.045  10.510
 8156TIP3   OH248662   1.990   7.971  10.639
 8156TIP3    H148663   1.971   7.878  10.632
 8156TIP3    H248664   1.923   8.005  10.699
 8157TIP3   OH248665   2.392   8.164  11.163
 8157TIP3    H148666   2.415   8.077  11.132
 8157TIP3    H248667   2.466   8.219  11.137
 8158TIP3   OH248668   1.919   8.485  11.360
 8158TIP3    H148669   1.906   8.560  11.418
 8158TIP3    H248670   1.856   8.499  11.289
 8159TIP3   OH248671   2.255   7.835  10.311
 8159TIP3    H148672   2.241   7.853  10.218
 8159TIP3    H248673   2.215   7.909  10.356
 8160TIP3   OH248674   1.951   7.511  10.361
 8160TIP3    H148675   1.901   7.580  10.318
 8160TIP3    H248676   1.967   7.446  10.293
 8161TIP3   OH248677   1.871   7.713  10.638
 8161TIP3    H148678   1.889   7.623  10.613
 8161TIP3    H248679   1.836   7.707  10.727
 8162TIP3   OH248680   0.178   7.842  10.984
 8162TIP3    H148681   0.216   7.825  10.898
 8162TIP3    H248682   0.252   7.869  11.038
 8163TIP3   OH248683   2.114   7.915  11.712
 8163TIP3    H148684   2.138   7.825  11.736
 8163TIP3    H248685   2.180   7.941  11.648
 8164TIP3   OH248686   2.192   7.650  11.741
 8164TIP3    H148687   2.156   7.602  11.666
 8164TIP3    H248688   2.212   7.582  11.805
 8165TIP3   OH248689   1.994   7.335  10.159
 8165TIP3    H148690   2.077   7.289  10.177
 8165TIP3    H248691   1.955   7.286  10.087
 8166TIP3   OH248692   1.788   7.336  10.523
 8166TIP3    H148693   1.825   7.248  10.527
 8166TIP3    H248694   1.852   7.386  10.472
 8167TIP3   OH248695   1.976   7.520  10.993
 8167TIP3    H148696   2.065   7.510  10.959
 8167TIP3    H248697   1.988   7.551  11.083
 8168TIP3   OH248698   2.026   7.614  11.251
 8168TIP3    H148699   1.962   7.633  11.319
 8168TIP3    H248700   2.089   7.686  11.257
 8169TIP3   OH248701   0.255   7.265  11.625
 8169TIP3    H148702   0.336   7.285  11.671
 8169TIP3    H248703   0.200   7.221  11.690
 8170TIP3   OH248704   2.206   6.902  11.786
 8170TIP3    H148705   2.290   6.871  11.753
 8170TIP3    H248706   2.189   6.982  11.738
 8171TIP3   OH248707   1.897   7.078  10.537
 8171TIP3    H148708   1.970   7.035  10.581
 8171TIP3    H248709   1.850   7.008  10.493
 8172TIP3   OH248710   0.350   7.119  10.861
 8172TIP3    H148711   0.365   7.031  10.896
 8172TIP3    H248712   0.403   7.176  10.916
 8173TIP3   OH248713   0.001   7.623  10.952
 8173TIP3    H148714   0.048   7.543  10.930
 8173TIP3    H248715   0.069   7.686  10.975
 8174TIP3   OH248716   2.148   7.147  11.677
 8174TIP3    H148717   2.150   7.222  11.736
 8174TIP3    H248718   2.067   7.157  11.627
 8175TIP3   OH248719   2.229   7.208  10.216
 8175TIP3    H148720   2.250   7.127  10.262
 8175TIP3    H248721   2.287   7.274  10.254
 8176TIP3   OH248722   0.101   7.217  10.511
 8176TIP3    H148723   0.008   7.206  10.489
 8176TIP3    H248724   0.125   7.301  10.471
 8177TIP3   OH248725   1.885   8.915  10.709
 8177TIP3    H148726   1.979   8.910  10.690
 8177TIP3    H248727   1.877   8.985  10.773
 8178TIP3   OH248728   0.061   6.834  11.297
 8178TIP3    H148729   9.186   6.833  11.325
 8178TIP3    H248730   0.057   6.841  11.202
 8179TIP3   OH248731   0.459   8.579  11.784
 8179TIP3    H148732   0.402   8.653  11.804
 8179TIP3    H248733   0.408   8.502  11.810
 8180TIP3   OH248734   0.675   8.689  11.410
 8180TIP3    H148735   0.632   8.767  11.375
 8180TIP3    H248736   0.758   8.682  11.362
 8181TIP3   OH248737   1.190   8.830  11.639
 8181TIP3    H148738   1.209   8.766  11.707
 8181TIP3    H248739   1.267   8.887  11.637
 8182TIP3   OH248740   1.428   8.985  11.636
 8182TIP3    H148741   1.493   8.925  11.601
 8182TIP3    H248742   1.472   9.029  11.709
 8183TIP3   OH248743   2.044   6.743  11.408
 8183TIP3    H148744   1.982   6.793  11.355
 8183TIP3    H248745   2.036   6.653  11.375
 8184TIP3   OH248746   0.302   8.885  11.316
 8184TIP3    H148747   0.229   8.943  11.296
 8184TIP3    H248748   0.302   8.877  11.411
 8185TIP3   OH248749   0.582   8.927  11.296
 8185TIP3    H148750   0.488   8.916  11.307
 8185TIP3    H248751   0.591   9.004  11.239
 8186TIP3   OH248752   1.297   8.996  11.211
 8186TIP3    H148753   1.259   9.059  11.149
 8186TIP3    H248754   1.293   9.040  11.296
 8187TIP3   OH248755   1.401   8.772  11.085
 8187TIP3    H148756   1.365   8.844  11.136
 8187TIP3    H248757   1.413   8.701  11.148
 8188TIP3   OH248758   1.788   8.996  11.321
 8188TIP3    H148759   1.705   9.036  11.295
 8188TIP3    H248760   1.842   8.999  11.242
 8189TIP3   OH248761   0.306   8.734  11.081
 8189TIP3    H148762   0.301   8.796  11.153
 8189TIP3    H248763   0.398   8.735  11.054
 8190TIP3   OH248764   0.568   8.727  10.990
 8190TIP3    H148765   0.587   8.633  10.984
 8190TIP3    H248766   0.651   8.767  11.015
 8191TIP3   OH248767   0.837   8.792  11.036
 8191TIP3    H148768   0.895   8.753  10.970
 8191TIP3    H248769   0.866   8.754  11.119
 8192TIP3   OH248770   1.045   6.964  10.854
 8192TIP3    H148771   0.977   6.904  10.884
 8192TIP3    H248772   1.104   6.972  10.928
 8193TIP3   OH248773   1.909   6.793  10.827
 8193TIP3    H148774   1.968   6.850  10.778
 8193TIP3    H248775   1.831   6.848  10.843
 8194TIP3   OH248776   2.112   6.925  10.654
 8194TIP3    H148777   2.156   6.842  10.673
 8194TIP3    H248778   2.178   6.992  10.672
 8195TIP3   OH248779   0.368   6.750  10.690
 8195TIP3    H148780   0.281   6.726  10.660
 8195TIP3    H248781   0.422   6.672  10.675
 8196TIP3   OH248782   0.218   6.994  10.394
 8196TIP3    H148783   0.312   7.008  10.386
 8196TIP3    H248784   0.188   7.068  10.447
 8197TIP3   OH248785   0.884   6.680  10.696
 8197TIP3    H148786   0.940   6.741  10.648
 8197TIP3    H248787   0.871   6.722  10.781
 8198TIP3   OH248788   1.655   6.907  10.870
 8198TIP3    H148789   1.603   6.945  10.799
 8198TIP3    H248790   1.617   6.820  10.884
 8199TIP3   OH248791   1.780   6.854  10.412
 8199TIP3    H148792   1.736   6.858  10.327
 8199TIP3    H248793   1.722   6.802  10.467
 8200TIP3   OH248794   0.224   8.841  10.425
 8200TIP3    H148795   0.296   8.803  10.375
 8200TIP3    H248796   0.213   8.929  10.388
 8201TIP3   OH248797   0.498   7.023  10.386
 8201TIP3    H148798   0.505   6.931  10.361
 8201TIP3    H248799   0.579   7.063  10.354
 8202TIP3   OH248800   1.007   7.083  10.421
 8202TIP3    H148801   1.061   7.020  10.469
 8202TIP3    H248802   1.017   7.165  10.470
 8203TIP3   OH248803   1.291   8.879  10.207
 8203TIP3    H148804   1.372   8.828  10.213
 8203TIP3    H248805   1.309   8.944  10.138
 8204TIP3   OH248806   2.134   8.884  10.582
 8204TIP3    H148807   2.117   8.794  10.557
 8204TIP3    H248808   2.112   8.936  10.505
 8205TIP3   OH248809   0.424   6.902  11.596
 8205TIP3    H148810   0.372   6.830  11.632
 8205TIP3    H248811   0.496   6.913  11.658
 8206TIP3   OH248812   0.599   6.889  11.818
 8206TIP3    H148813   0.693   6.891  11.836
 8206TIP3    H248814   0.571   6.803  11.848
 8207TIP3   OH248815   0.428   8.863  10.236
 8207TIP3    H148816   0.380   8.945  10.243
 8207TIP3    H248817   0.516   8.889  10.211
 8208TIP3   OH248818   1.546   6.831  11.858
 8208TIP3    H148819   1.528   6.752  11.908
 8208TIP3    H248820   1.641   6.833  11.847
 8209TIP3   OH248821   1.891   8.740  11.692
 8209TIP3    H148822   1.848   8.733  11.607
 8209TIP3    H248823   1.872   8.830  11.721
 8210TIP3   OH248824   3.789   8.054  10.574
 8210TIP3    H148825   3.773   8.148  10.566
 8210TIP3    H248826   3.702   8.015  10.576
 8211TIP3   OH248827   3.671   7.790  10.972
 8211TIP3    H148828   3.617   7.731  11.024
 8211TIP3    H248829   3.665   7.756  10.882
 8212TIP3   OH248830   2.671   7.848  11.253
 8212TIP3    H148831   2.758   7.826  11.218
 8212TIP3    H248832   2.686   7.857  11.348
 8213TIP3   OH248833   3.938   8.227  10.931
 8213TIP3    H148834   3.926   8.133  10.939
 8213TIP3    H248835   3.948   8.258  11.021
 8214TIP3   OH248836   2.859   8.385  10.920
 8214TIP3    H148837   2.833   8.293  10.914
 8214TIP3    H248838   2.949   8.382  10.952
 8215TIP3   OH248839   2.364   7.603  10.660
 8215TIP3    H148840   2.306   7.568  10.728
 8215TIP3    H248841   2.310   7.604  10.581
 8216TIP3   OH248842   2.460   7.722  10.905
 8216TIP3    H148843   2.506   7.639  10.914
 8216TIP3    H248844   2.439   7.729  10.812
 8217TIP3   OH248845   3.729   8.886  10.862
 8217TIP3    H148846   3.783   8.817  10.824
 8217TIP3    H248847   3.699   8.851  10.946
 8218TIP3   OH248848   3.273   8.155  11.101
 8218TIP3    H148849   3.325   8.106  11.037
 8218TIP3    H248850   3.338   8.188  11.163
 8219TIP3   OH248851   4.478   7.088  11.243
 8219TIP3    H148852   4.457   7.176  11.273
 8219TIP3    H248853   4.530   7.102  11.164
 8220TIP3   OH248854   3.713   7.425  11.057
 8220TIP3    H148855   3.751   7.337  11.065
 8220TIP3    H248856   3.766   7.468  10.990
 8221TIP3   OH248857   2.942   7.235  10.806
 8221TIP3    H148858   2.925   7.313  10.753
 8221TIP3    H248859   2.918   7.162  10.749
 8222TIP3   OH248860   3.905   7.306  10.707
 8222TIP3    H148861   3.973   7.300  10.774
 8222TIP3    H248862   3.954   7.311  10.624
 8223TIP3   OH248863   2.542   7.456  10.884
 8223TIP3    H148864   2.608   7.409  10.935
 8223TIP3    H248865   2.573   7.450  10.793
 8224TIP3   OH248866   3.033   7.730  10.876
 8224TIP3    H148867   3.119   7.701  10.907
 8224TIP3    H248868   2.998   7.654  10.830
 8225TIP3   OH248869   4.428   7.349  11.326
 8225TIP3    H148870   4.401   7.439  11.308
 8225TIP3    H248871   4.492   7.357  11.397
 8226TIP3   OH248872   2.768   7.151  11.229
 8226TIP3    H148873   2.747   7.213  11.159
 8226TIP3    H248874   2.706   7.173  11.299
 8227TIP3   OH248875   3.751   8.333  10.506
 8227TIP3    H148876   3.678   8.286  10.467
 8227TIP3    H248877   3.717   8.419  10.527
 8228TIP3   OH248878   3.050   8.028  11.213
 8228TIP3    H148879   2.985   8.095  11.235
 8228TIP3    H248880   3.121   8.076  11.171
 8229TIP3   OH248881   4.111   7.318  10.888
 8229TIP3    H148882   4.154   7.242  10.927
 8229TIP3    H248883   4.155   7.394  10.927
 8230TIP3   OH248884   2.757   7.317  11.000
 8230TIP3    H148885   2.801   7.387  11.049
 8230TIP3    H248886   2.824   7.284  10.940
 8231TIP3   OH248887   2.862   8.229  11.271
 8231TIP3    H148888   2.809   8.256  11.196
 8231TIP3    H248889   2.799   8.219  11.343
 8232TIP3   OH248890   2.381   8.252  10.399
 8232TIP3    H148891   2.428   8.263  10.317
 8232TIP3    H248892   2.359   8.341  10.426
 8233TIP3   OH248893   3.973   8.452  11.126
 8233TIP3    H148894   3.911   8.510  11.170
 8233TIP3    H248895   3.974   8.483  11.035
 8234TIP3   OH248896   3.973   7.196  11.307
 8234TIP3    H148897   3.931   7.210  11.222
 8234TIP3    H248898   3.989   7.102  11.311
 8235TIP3   OH248899   3.132   6.862  11.001
 8235TIP3    H148900   3.161   6.800  11.068
 8235TIP3    H248901   3.047   6.893  11.032
 8236TIP3   OH248902   3.897   8.707  10.735
 8236TIP3    H148903   3.912   8.612  10.740
 8236TIP3    H248904   3.985   8.744  10.740
 8237TIP3   OH248905   3.891   8.429  10.745
 8237TIP3    H148906   3.862   8.382  10.666
 8237TIP3    H248907   3.910   8.359  10.808
 8238TIP3   OH248908   4.283   8.259  11.456
 8238TIP3    H148909   4.292   8.198  11.384
 8238TIP3    H248910   4.243   8.337  11.417
 8239TIP3   OH248911   3.547   7.907  10.553
 8239TIP3    H148912   3.466   7.957  10.554
 8239TIP3    H248913   3.551   7.869  10.465
 8240TIP3   OH248914   3.604   7.753  10.322
 8240TIP3    H148915   3.692   7.785  10.304
 8240TIP3    H248916   3.617   7.662  10.350
 8241TIP3   OH248917   4.427   7.838  11.243
 8241TIP3    H148918   4.385   7.924  11.238
 8241TIP3    H248919   4.510   7.849  11.195
 8242TIP3   OH248920   4.016   7.926  10.502
 8242TIP3    H148921   3.941   7.973  10.539
 8242TIP3    H248922   4.061   7.889  10.579
 8243TIP3   OH248923   4.109   7.686  11.461
 8243TIP3    H148924   4.112   7.763  11.518
 8243TIP3    H248925   4.025   7.692  11.416
 8244TIP3   OH248926   2.961   7.977  10.749
 8244TIP3    H148927   2.915   7.948  10.671
 8244TIP3    H248928   2.995   7.896  10.788
 8245TIP3   OH248929   3.133   8.344  10.951
 8245TIP3    H148930   3.153   8.305  10.866
 8245TIP3    H248931   3.178   8.288  11.015
 8246TIP3   OH248932   2.921   7.792  11.130
 8246TIP3    H148933   2.955   7.777  11.042
 8246TIP3    H248934   2.967   7.870  11.160
 8247TIP3   OH248935   3.805   8.632  11.260
 8247TIP3    H148936   3.765   8.705  11.213
 8247TIP3    H248937   3.733   8.593  11.310
 8248TIP3   OH248938   3.029   8.330  11.482
 8248TIP3    H148939   2.993   8.418  11.495
 8248TIP3    H248940   2.986   8.298  11.403
 8249TIP3   OH248941   3.882   7.784  10.309
 8249TIP3    H148942   3.927   7.829  10.381
 8249TIP3    H248943   3.908   7.831  10.231
 8250TIP3   OH248944   2.703   7.865  11.532
 8250TIP3    H148945   2.722   7.943  11.585
 8250TIP3    H248946   2.634   7.819  11.581
 8251TIP3   OH248947   3.644   8.578  10.593
 8251TIP3    H148948   3.702   8.582  10.669
 8251TIP3    H248949   3.629   8.670  10.569
 8252TIP3   OH248950   2.911   8.580  11.527
 8252TIP3    H148951   2.914   8.625  11.443
 8252TIP3    H248952   2.819   8.556  11.538
 8253TIP3   OH248953   4.320   6.760  10.418
 8253TIP3    H148954   4.228   6.785  10.419
 8253TIP3    H248955   4.363   6.825  10.474
 8254TIP3   OH248956   2.819   7.905  10.516
 8254TIP3    H148957   2.760   7.976  10.489
 8254TIP3    H248958   2.768   7.825  10.504
 8255TIP3   OH248959   4.384   8.666  10.203
 8255TIP3    H148960   4.424   8.752  10.209
 8255TIP3    H248961   4.456   8.607  10.182
 8256TIP3   OH248962   2.415   8.143  11.437
 8256TIP3    H148963   2.399   8.147  11.342
 8256TIP3    H248964   2.387   8.056  11.462
 8257TIP3   OH248965   2.621   8.333  11.109
 8257TIP3    H148966   2.670   8.346  11.027
 8257TIP3    H248967   2.624   8.419  11.151
 8258TIP3   OH248968   4.405   8.632  11.726
 8258TIP3    H148969   4.399   8.549  11.678
 8258TIP3    H248970   4.316   8.668  11.725
 8259TIP3   OH248971   3.356   8.634  11.466
 8259TIP3    H148972   3.420   8.698  11.497
 8259TIP3    H248973   3.281   8.645  11.524
 8260TIP3   OH248974   3.588   8.836  10.507
 8260TIP3    H148975   3.587   8.818  10.413
 8260TIP3    H248976   3.502   8.873  10.526
 8261TIP3   OH248977   2.775   8.793  10.675
 8261TIP3    H148978   2.791   8.751  10.759
 8261TIP3    H248979   2.728   8.728  10.623
 8262TIP3   OH248980   3.876   8.820  10.292
 8262TIP3    H148981   3.941   8.750  10.284
 8262TIP3    H248982   3.875   8.841  10.385
 8263TIP3   OH248983   3.847   8.923  10.553
 8263TIP3    H148984   3.754   8.901  10.549
 8263TIP3    H248985   3.882   8.863  10.618
 8264TIP3   OH248986   4.253   7.502  11.611
 8264TIP3    H148987   4.200   7.570  11.569
 8264TIP3    H248988   4.227   7.421  11.567
 8265TIP3   OH248989   2.674   8.224  11.471
 8265TIP3    H148990   2.701   8.177  11.550
 8265TIP3    H248991   2.584   8.194  11.455
 8266TIP3   OH248992   2.876   6.935  11.089
 8266TIP3    H148993   2.809   6.918  11.023
 8266TIP3    H248994   2.846   7.012  11.135
 8267TIP3   OH248995   3.490   6.886  11.428
 8267TIP3    H148996   3.556   6.833  11.472
 8267TIP3    H248997   3.426   6.906  11.497
 8268TIP3   OH248998   3.718   7.270  11.414
 8268TIP3    H148999   3.711   7.278  11.509
 8268TIP3    H249000   3.812   7.259  11.398
 8269TIP3   OH249001   3.982   7.971  10.132
 8269TIP3    H149002   3.967   8.031  10.059
 8269TIP3    H249003   4.036   8.020  10.194
 8270TIP3   OH249004   3.492   7.273  10.257
 8270TIP3    H149005   3.428   7.215  10.299
 8270TIP3    H249006   3.478   7.261  10.164
 8271TIP3   OH249007   2.878   7.510  11.165
 8271TIP3    H149008   2.819   7.498  11.239
 8271TIP3    H249009   2.888   7.605  11.156
 8272TIP3   OH249010   2.888   7.463  10.663
 8272TIP3    H149011   2.796   7.478  10.639
 8272TIP3    H249012   2.935   7.463  10.580
 8273TIP3   OH249013   3.685   7.698  10.682
 8273TIP3    H149014   3.638   7.776  10.653
 8273TIP3    H249015   3.715   7.657  10.601
 8274TIP3   OH249016   3.470   7.582  11.655
 8274TIP3    H149017   3.410   7.655  11.671
 8274TIP3    H249018   3.529   7.582  11.730
 8275TIP3   OH249019   3.844   7.540  10.843
 8275TIP3    H149020   3.788   7.596  10.789
 8275TIP3    H249021   3.859   7.462  10.790
 8276TIP3   OH249022   2.708   7.463  11.374
 8276TIP3    H149023   2.648   7.525  11.415
 8276TIP3    H249024   2.678   7.377  11.405
 8277TIP3   OH249025   2.967   6.986  10.175
 8277TIP3    H149026   3.002   7.062  10.221
 8277TIP3    H249027   2.946   7.018  10.088
 8278TIP3   OH249028   2.315   7.116  10.710
 8278TIP3    H149029   2.393   7.102  10.763
 8278TIP3    H249030   2.278   7.198  10.742
 8279TIP3   OH249031   2.387   7.374  10.371
 8279TIP3    H149032   2.465   7.426  10.347
 8279TIP3    H249033   2.323   7.440  10.399
 8280TIP3   OH249034   3.496   7.575  11.129
 8280TIP3    H149035   3.569   7.521  11.099
 8280TIP3    H249036   3.483   7.548  11.220
 8281TIP3   OH249037   3.225   7.259  10.798
 8281TIP3    H149038   3.130   7.252  10.812
 8281TIP3    H249039   3.260   7.176  10.829
 8282TIP3   OH249040   2.613   7.498  10.603
 8282TIP3    H149041   2.530   7.541  10.623
 8282TIP3    H249042   2.615   7.493  10.507
 8283TIP3   OH249043   3.063   7.452  10.441
 8283TIP3    H149044   3.145   7.430  10.484
 8283TIP3    H249045   3.082   7.532  10.392
 8284TIP3   OH249046   3.820   7.160  11.075
 8284TIP3    H149047   3.749   7.116  11.121
 8284TIP3    H249048   3.842   7.101  11.002
 8285TIP3   OH249049   3.122   7.678  10.287
 8285TIP3    H149050   3.079   7.669  10.202
 8285TIP3    H249051   3.210   7.709  10.266
 8286TIP3   OH249052   4.120   8.986  11.723
 8286TIP3    H149053   4.132   9.034  11.641
 8286TIP3    H249054   4.206   8.989  11.765
 8287TIP3   OH249055   2.717   8.091  11.706
 8287TIP3    H149056   2.785   8.114  11.769
 8287TIP3    H249057   2.635   8.117  11.748
 8288TIP3   OH249058   3.274   7.612  10.959
 8288TIP3    H149059   3.306   7.551  10.893
 8288TIP3    H249060   3.344   7.616  11.025
 8289TIP3   OH249061   2.896   7.007  10.646
 8289TIP3    H149062   2.831   6.937  10.651
 8289TIP3    H249063   2.980   6.963  10.661
 8290TIP3   OH249064   3.109   7.372  11.236
 8290TIP3    H149065   3.028   7.418  11.213
 8290TIP3    H249066   3.170   7.393  11.165
 8291TIP3   OH249067   3.306   8.057  10.529
 8291TIP3    H149068   3.235   8.008  10.489
 8291TIP3    H249069   3.264   8.112  10.595
 8292TIP3   OH249070   4.339   8.107  11.223
 8292TIP3    H149071   4.427   8.129  11.192
 8292TIP3    H249072   4.280   8.143  11.157
 8293TIP3   OH249073   3.573   7.391  10.492
 8293TIP3    H149074   3.553   7.356  10.405
 8293TIP3    H249075   3.648   7.448  10.478
 8294TIP3   OH249076   3.524   8.412  11.469
 8294TIP3    H149077   3.503   8.385  11.559
 8294TIP3    H249078   3.469   8.489  11.454
 8295TIP3   OH249079   3.795   7.557  10.448
 8295TIP3    H149080   3.866   7.493  10.456
 8295TIP3    H249081   3.833   7.628  10.396
 8296TIP3   OH249082   2.807   8.120  10.927
 8296TIP3    H149083   2.861   8.070  10.866
 8296TIP3    H249084   2.761   8.053  10.978
 8297TIP3   OH249085   3.516   8.216  10.426
 8297TIP3    H149086   3.475   8.302  10.421
 8297TIP3    H249087   3.446   8.158  10.457
 8298TIP3   OH249088   2.324   7.898  11.521
 8298TIP3    H149089   2.378   7.836  11.570
 8298TIP3    H249090   2.285   7.846  11.450
 8299TIP3   OH249091   3.260   7.765  11.670
 8299TIP3    H149092   3.187   7.714  11.636
 8299TIP3    H249093   3.270   7.837  11.608
 8300TIP3   OH249094   3.798   8.351  11.556
 8300TIP3    H149095   3.716   8.370  11.509
 8300TIP3    H249096   3.784   8.388  11.643
 8301TIP3   OH249097   4.503   7.563  10.404
 8301TIP3    H149098   4.416   7.528  10.384
 8301TIP3    H249099   4.505   7.649  10.361
 8302TIP3   OH249100   4.509   8.212  11.605
 8302TIP3    H149101   4.429   8.244  11.564
 8302TIP3    H249102   4.565   8.185  11.532
 8303TIP3   OH249103   4.292   8.654  10.459
 8303TIP3    H149104   4.198   8.637  10.450
 8303TIP3    H249105   4.324   8.657  10.369
 8304TIP3   OH249106   3.906   7.949  10.975
 8304TIP3    H149107   3.819   7.909  10.979
 8304TIP3    H249108   3.965   7.874  10.967
 8305TIP3   OH249109   2.995   8.458  10.675
 8305TIP3    H149110   3.031   8.547  10.682
 8305TIP3    H249111   2.941   8.448  10.754
 8306TIP3   OH249112   2.536   7.819  10.359
 8306TIP3    H149113   2.565   7.909  10.372
 8306TIP3    H249114   2.441   7.826  10.351
 8307TIP3   OH249115   3.132   8.202  10.703
 8307TIP3    H149116   3.080   8.276  10.671
 8307TIP3    H249117   3.067   8.132  10.717
 8308TIP3   OH249118   3.190   8.691  11.249
 8308TIP3    H149119   3.191   8.783  11.273
 8308TIP3    H249120   3.254   8.650  11.307
 8309TIP3   OH249121   3.056   8.750  10.648
 8309TIP3    H149122   2.965   8.778  10.644
 8309TIP3    H249123   3.100   8.821  10.696
 8310TIP3   OH249124   3.485   8.230  11.259
 8310TIP3    H149125   3.491   8.295  11.329
 8310TIP3    H249126   3.575   8.200  11.246
 8311TIP3   OH249127   3.992   8.355  10.344
 8311TIP3    H149128   4.038   8.271  10.339
 8311TIP3    H249129   3.915   8.336  10.398
 8312TIP3   OH249130   4.031   8.712  11.413
 8312TIP3    H149131   3.951   8.679  11.372
 8312TIP3    H249132   4.045   8.798  11.375
 8313TIP3   OH249133   4.498   8.909  10.279
 8313TIP3    H149134   4.570   8.968  10.299
 8313TIP3    H249135   4.419   8.958  10.299
 8314TIP3   OH249136   2.601   7.217  11.457
 8314TIP3    H149137   2.532   7.250  11.514
 8314TIP3    H249138   2.611   7.125  11.482
 8315TIP3   OH249139   4.132   8.104  10.325
 8315TIP3    H149140   4.098   8.044  10.392
 8315TIP3    H249141   4.227   8.096  10.331
 8316TIP3   OH249142   2.664   8.582  11.234
 8316TIP3    H149143   2.755   8.613  11.240
 8316TIP3    H249144   2.641   8.560  11.324
 8317TIP3   OH249145   2.992   8.437  10.399
 8317TIP3    H149146   2.985   8.436  10.494
 8317TIP3    H249147   3.062   8.500  10.381
 8318TIP3   OH249148   2.624   8.082  10.414
 8318TIP3    H149149   2.544   8.132  10.429
 8318TIP3    H249150   2.683   8.143  10.370
 8319TIP3   OH249151   3.631   7.058  11.250
 8319TIP3    H149152   3.647   7.132  11.308
 8319TIP3    H249153   3.578   6.998  11.303
 8320TIP3   OH249154   3.661   7.180  10.650
 8320TIP3    H149155   3.625   7.252  10.598
 8320TIP3    H249156   3.745   7.213  10.681
 8321TIP3   OH249157   3.422   8.470  10.442
 8321TIP3    H149158   3.342   8.524  10.442
 8321TIP3    H249159   3.481   8.515  10.502
 8322TIP3   OH249160   3.300   7.371  10.559
 8322TIP3    H149161   3.393   7.394  10.557
 8322TIP3    H249162   3.283   7.343  10.649
 8323TIP3   OH249163   3.517   7.460  11.396
 8323TIP3    H149164   3.549   7.528  11.456
 8323TIP3    H249165   3.593   7.404  11.381
 8324TIP3   OH249166   3.456   6.997  10.621
 8324TIP3    H149167   3.419   6.999  10.710
 8324TIP3    H249168   3.535   7.052  10.627
 8325TIP3   OH249169   3.197   8.639  10.434
 8325TIP3    H149170   3.241   8.712  10.390
 8325TIP3    H249171   3.151   8.680  10.507
 8326TIP3   OH249172   3.071   7.203  10.299
 8326TIP3    H149173   3.052   7.286  10.343
 8326TIP3    H249174   3.153   7.174  10.338
 8327TIP3   OH249175   4.196   7.275  11.460
 8327TIP3    H149176   4.117   7.257  11.409
 8327TIP3    H249177   4.264   7.290  11.395
 8328TIP3   OH249178   4.052   7.702  10.930
 8328TIP3    H149179   3.976   7.646  10.911
 8328TIP3    H249180   4.117   7.643  10.967
 8329TIP3   OH249181   2.807   8.259  10.287
 8329TIP3    H149182   2.855   8.332  10.327
 8329TIP3    H249183   2.875   8.202  10.251
 8330TIP3   OH249184   2.593   7.553  10.323
 8330TIP3    H149185   2.573   7.645  10.339
 8330TIP3    H249186   2.639   7.553  10.239
 8331TIP3   OH249187   4.181   9.014  11.063
 8331TIP3    H149188   4.152   9.050  10.979
 8331TIP3    H249189   4.274   8.997  11.051
 8332TIP3   OH249190   2.676   6.870  10.910
 8332TIP3    H149191   2.697   6.853  10.818
 8332TIP3    H249192   2.660   6.783  10.947
 8333TIP3   OH249193   2.321   8.527  10.439
 8333TIP3    H149194   2.237   8.555  10.477
 8333TIP3    H249195   2.364   8.609  10.414
 8334TIP3   OH249196   2.268   8.870  11.846
 8334TIP3    H149197   2.363   8.878  11.843
 8334TIP3    H249198   2.245   8.822  11.766
 8335TIP3   OH249199   3.148   8.689  11.642
 8335TIP3    H149200   3.176   8.636  11.718
 8335TIP3    H249201   3.064   8.651  11.617
 8336TIP3   OH249202   3.584   8.615  19.752
 8336TIP3    H149203   3.527   8.545  19.719
 8336TIP3    H249204   3.617   8.581  19.835
 8337TIP3   OH249205   3.729   8.466  11.805
 8337TIP3    H149206   3.734   8.399  11.873
 8337TIP3    H249207   3.800   8.527  11.828
 8338TIP3   OH249208   4.063   8.615  10.289
 8338TIP3    H149209   4.034   8.525  10.307
 8338TIP3    H249210   4.134   8.606  10.227
 8339TIP3   OH249211   2.457   8.163  11.798
 8339TIP3    H149212   2.435   8.074  11.825
 8339TIP3    H249213   2.383   8.191  11.744
 8340TIP3   OH249214   3.041   8.125  10.231
 8340TIP3    H149215   3.063   8.055  10.292
 8340TIP3    H249216   3.108   8.192  10.247
 8341TIP3   OH249217   3.132   8.268  11.726
 8341TIP3    H149218   3.096   8.290  11.640
 8341TIP3    H249219   3.191   8.194  11.709
 8342TIP3   OH249220   4.013   8.162  11.548
 8342TIP3    H149221   4.091   8.216  11.532
 8342TIP3    H249222   3.941   8.225  11.549
 8343TIP3   OH249223   2.502   7.755  11.692
 8343TIP3    H149224   2.498   7.668  11.731
 8343TIP3    H249225   2.483   7.815  11.765
 8344TIP3   OH249226   3.083   7.924  10.419
 8344TIP3    H149227   2.995   7.920  10.455
 8344TIP3    H249228   3.098   7.837  10.383
 8345TIP3   OH249229   3.053   7.655  11.520
 8345TIP3    H149230   2.959   7.673  11.522
 8345TIP3    H249231   3.088   7.722  11.462
 8346TIP3   OH249232   3.356   7.791  10.207
 8346TIP3    H149233   3.369   7.871  10.157
 8346TIP3    H249234   3.442   7.773  10.246
 8347TIP3   OH249235   3.764   8.024  11.929
 8347TIP3    H149236   3.853   7.994  11.911
 8347TIP3    H249237   3.714   7.943  11.941
 8348TIP3   OH249238   4.519   7.885  19.816
 8348TIP3    H149239   4.602   7.929  19.797
 8348TIP3    H249240   4.492   7.921  19.901
 8349TIP3   OH249241   3.203   7.422  11.495
 8349TIP3    H149242   3.175   7.393  11.408
 8349TIP3    H249243   3.149   7.499  11.513
 8350TIP3   OH249244   3.027   7.119  11.329
 8350TIP3    H149245   3.068   7.201  11.301
 8350TIP3    H249246   2.935   7.127  11.302
 8351TIP3   OH249247   3.184   7.855  11.385
 8351TIP3    H149248   3.261   7.843  11.329
 8351TIP3    H249249   3.131   7.920  11.338
 8352TIP3   OH249250   3.638   7.535  11.867
 8352TIP3    H149251   3.638   7.470  11.938
 8352TIP3    H249252   3.655   7.618  11.911
 8353TIP3   OH249253   4.100   7.911  11.619
 8353TIP3    H149254   4.058   7.993  11.593
 8353TIP3    H249255   4.191   7.935  11.635
 8354TIP3   OH249256   2.922   7.332  11.817
 8354TIP3    H149257   2.829   7.312  11.832
 8354TIP3    H249258   2.928   7.342  11.722
 8355TIP3   OH249259   3.082   6.868  11.426
 8355TIP3    H149260   3.071   6.959  11.399
 8355TIP3    H249261   2.998   6.827  11.405
 8356TIP3   OH249262   3.342   7.250  11.782
 8356TIP3    H149263   3.404   7.217  11.847
 8356TIP3    H249264   3.256   7.221  11.813
 8357TIP3   OH249265   3.629   7.319  11.674
 8357TIP3    H149266   3.649   7.388  11.738
 8357TIP3    H249267   3.652   7.238  11.719
 8358TIP3   OH249268   3.683   7.079  11.797
 8358TIP3    H149269   3.719   6.991  11.791
 8358TIP3    H249270   3.623   7.076  11.872
 8359TIP3   OH249271   2.643   7.289  11.819
 8359TIP3    H149272   2.578   7.259  11.756
 8359TIP3    H249273   2.610   7.374  11.848
 8360TIP3   OH249274   3.281   6.867  11.626
 8360TIP3    H149275   3.312   6.777  11.629
 8360TIP3    H249276   3.206   6.864  11.566
 8361TIP3   OH249277   3.286   6.923  11.902
 8361TIP3    H149278   3.291   6.898  11.809
 8361TIP3    H249279   3.216   6.988  11.905
 8362TIP3   OH249280   3.347   8.842  10.316
 8362TIP3    H149281   3.430   8.819  10.274
 8362TIP3    H249282   3.321   8.923  10.271
 8363TIP3   OH249283   2.552   8.293  10.186
 8363TIP3    H149284   2.642   8.286  10.217
 8363TIP3    H249285   2.559   8.334  10.100
 8364TIP3   OH249286   2.379   8.952  10.689
 8364TIP3    H149287   2.293   8.928  10.654
 8364TIP3    H249288   2.380   8.916  10.777
 8365TIP3   OH249289   2.383   8.830  10.936
 8365TIP3    H149290   2.350   8.740  10.938
 8365TIP3    H249291   2.470   8.824  10.975
 8366TIP3   OH249292   4.454   8.968  11.044
 8366TIP3    H149293   4.502   8.989  11.125
 8366TIP3    H249294   4.519   8.925  10.988
 8367TIP3   OH249295   4.422   8.894  11.480
 8367TIP3    H149296   4.393   8.804  11.463
 8367TIP3    H249297   4.472   8.888  11.562
 8368TIP3   OH249298   4.266   8.299  11.917
 8368TIP3    H149299   4.181   8.330  11.948
 8368TIP3    H249300   4.328   8.367  11.945
 8369TIP3   OH249301   4.412   8.050  10.374
 8369TIP3    H149302   4.481   8.116  10.371
 8369TIP3    H249303   4.392   8.040  10.467
 8370TIP3   OH249304   4.332   8.007  10.631
 8370TIP3    H149305   4.277   7.932  10.653
 8370TIP3    H249306   4.319   8.068  10.704
 8371TIP3   OH249307   4.600   8.121  11.138
 8371TIP3    H149308   4.633   8.032  11.123
 8371TIP3    H249309   4.654   8.177  11.083
 8372TIP3   OH249310   4.155   8.468  11.337
 8372TIP3    H149311   4.124   8.551  11.373
 8372TIP3    H249312   4.099   8.452  11.261
 8373TIP3   OH249313   4.513   7.813  10.278
 8373TIP3    H149314   4.492   7.823  10.185
 8373TIP3    H249315   4.476   7.890  10.319
 8374TIP3   OH249316   4.246   7.478  10.321
 8374TIP3    H149317   4.192   7.541  10.273
 8374TIP3    H249318   4.269   7.411  10.256
 8375TIP3   OH249319   4.164   7.796  10.698
 8375TIP3    H149320   4.189   7.709  10.668
 8375TIP3    H249321   4.122   7.782  10.783
 8376TIP3   OH249322   2.436   7.893  11.122
 8376TIP3    H149323   2.444   7.839  11.043
 8376TIP3    H249324   2.516   7.875  11.171
 8377TIP3   OH249325   4.366   7.980  11.660
 8377TIP3    H149326   4.426   7.922  11.613
 8377TIP3    H249327   4.405   8.067  11.650
 8378TIP3   OH249328   4.519   7.581  11.574
 8378TIP3    H149329   4.428   7.561  11.594
 8378TIP3    H249330   4.563   7.496  11.575
 8379TIP3   OH249331   4.311   7.297  10.129
 8379TIP3    H149332   4.397   7.267  10.157
 8379TIP3    H249333   4.284   7.235  10.062
 8380TIP3   OH249334   4.061   7.329  10.481
 8380TIP3    H149335   4.094   7.240  10.494
 8380TIP3    H249336   4.131   7.374  10.434
 8381TIP3   OH249337   4.260   7.522  11.008
 8381TIP3    H149338   4.348   7.518  10.973
 8381TIP3    H249339   4.272   7.541  11.101
 8382TIP3   OH249340   4.304   7.596  11.276
 8382TIP3    H149341   4.236   7.618  11.339
 8382TIP3    H249342   4.352   7.678  11.263
 8383TIP3   OH249343   2.410   7.259  11.659
 8383TIP3    H149344   2.371   7.313  11.728
 8383TIP3    H249345   2.340   7.198  11.634
 8384TIP3   OH249346   4.526   6.978  11.811
 8384TIP3    H149347   4.590   6.914  11.779
 8384TIP3    H249348   4.501   7.028  11.733
 8385TIP3   OH249349   4.153   7.070  10.543
 8385TIP3    H149350   4.227   7.042  10.597
 8385TIP3    H249351   4.110   6.989  10.518
 8386TIP3   OH249352   2.538   7.110  10.875
 8386TIP3    H149353   2.578   7.025  10.893
 8386TIP3    H249354   2.597   7.173  10.917
 8387TIP3   OH249355   2.256   7.517  10.913
 8387TIP3    H149356   2.337   7.466  10.918
 8387TIP3    H249357   2.281   7.604  10.946
 8388TIP3   OH249358   4.371   7.168  11.651
 8388TIP3    H149359   4.322   7.173  11.733
 8388TIP3    H249360   4.308   7.191  11.583
 8389TIP3   OH249361   4.552   7.212  10.220
 8389TIP3    H149362   4.563   7.134  10.276
 8389TIP3    H249363   4.617   7.274  10.253
 8390TIP3   OH249364   2.382   7.099  10.438
 8390TIP3    H149365   2.359   7.094  10.531
 8390TIP3    H249366   2.397   7.192  10.422
 8391TIP3   OH249367   4.118   8.872  10.722
 8391TIP3    H149368   4.208   8.873  10.692
 8391TIP3    H249369   4.105   8.958  10.763
 8392TIP3   OH249370   2.279   6.850  11.309
 8392TIP3    H149371   2.209   6.816  11.364
 8392TIP3    H249372   2.248   6.937  11.283
 8393TIP3   OH249373   2.645   8.494  11.500
 8393TIP3    H149374   2.660   8.401  11.486
 8393TIP3    H249375   2.572   8.498  11.562
 8394TIP3   OH249376   2.912   8.691  11.276
 8394TIP3    H149377   2.899   8.785  11.265
 8394TIP3    H249378   3.004   8.677  11.253
 8395TIP3   OH249379   3.519   8.803  11.602
 8395TIP3    H149380   3.516   8.751  11.682
 8395TIP3    H249381   3.582   8.872  11.621
 8396TIP3   OH249382   3.693   9.018  11.628
 8396TIP3    H149383   3.767   9.010  11.568
 8396TIP3    H249384   3.733   9.045  11.711
 8397TIP3   OH249385   4.326   6.675  11.384
 8397TIP3    H149386   4.315   6.679  11.289
 8397TIP3    H249387   4.353   6.585  11.401
 8398TIP3   OH249388   2.634   9.024  11.356
 8398TIP3    H149389   2.546   9.044  11.323
 8398TIP3    H249390   2.626   9.030  11.451
 8399TIP3   OH249391   2.878   8.962  11.249
 8399TIP3    H149392   2.793   8.984  11.285
 8399TIP3    H249393   2.887   9.019  11.172
 8400TIP3   OH249394   3.461   8.988  11.213
 8400TIP3    H149395   3.386   9.025  11.166
 8400TIP3    H249396   3.453   9.022  11.302
 8401TIP3   OH249397   3.685   8.851  11.139
 8401TIP3    H149398   3.599   8.882  11.165
 8401TIP3    H249399   3.738   8.931  11.130
 8402TIP3   OH249400   4.045   8.964  11.291
 8402TIP3    H149401   3.976   9.029  11.276
 8402TIP3    H249402   4.099   8.968  11.212
 8403TIP3   OH249403   2.633   8.797  11.043
 8403TIP3    H149404   2.627   8.744  11.122
 8403TIP3    H249405   2.705   8.758  10.993
 8404TIP3   OH249406   2.833   8.660  10.909
 8404TIP3    H149407   2.818   8.566  10.915
 8404TIP3    H249408   2.923   8.672  10.940
 8405TIP3   OH249409   3.088   8.616  11.001
 8405TIP3    H149410   3.119   8.528  10.983
 8405TIP3    H249411   3.135   8.643  11.080
 8406TIP3   OH249412   3.333   7.009  10.878
 8406TIP3    H149413   3.265   6.961  10.925
 8406TIP3    H249414   3.402   7.023  10.942
 8407TIP3   OH249415   4.153   6.820  10.853
 8407TIP3    H149416   4.219   6.874  10.810
 8407TIP3    H249417   4.074   6.875  10.853
 8408TIP3   OH249418   4.363   6.951  10.695
 8408TIP3    H149419   4.402   6.864  10.701
 8408TIP3    H249420   4.437   7.011  10.709
 8409TIP3   OH249421   2.744   6.777  10.659
 8409TIP3    H149422   2.669   6.737  10.615
 8409TIP3    H249423   2.799   6.703  10.686
 8410TIP3   OH249424   2.472   6.863  10.323
 8410TIP3    H149425   2.564   6.886  10.313
 8410TIP3    H249426   2.432   6.940  10.363
 8411TIP3   OH249427   3.124   6.860  10.719
 8411TIP3    H149428   3.208   6.905  10.710
 8411TIP3    H249429   3.114   6.848  10.814
 8412TIP3   OH249430   3.901   6.951  10.835
 8412TIP3    H149431   3.878   7.001  10.757
 8412TIP3    H249432   3.852   6.869  10.827
 8413TIP3   OH249433   4.055   6.811  10.492
 8413TIP3    H149434   3.972   6.790  10.450
 8413TIP3    H249435   4.064   6.747  10.563
 8414TIP3   OH249436   2.389   8.793  10.365
 8414TIP3    H149437   2.319   8.812  10.302
 8414TIP3    H249438   2.416   8.879  10.396
 8415TIP3   OH249439   2.752   6.909  10.337
 8415TIP3    H149440   2.821   6.936  10.276
 8415TIP3    H249441   2.771   6.957  10.417
 8416TIP3   OH249442   3.313   7.134  10.420
 8416TIP3    H149443   3.357   7.073  10.479
 8416TIP3    H249444   3.305   7.215  10.471
 8417TIP3   OH249445   3.607   8.776  10.236
 8417TIP3    H149446   3.699   8.803  10.239
 8417TIP3    H249447   3.608   8.691  10.194
 8418TIP3   OH249448   4.366   8.891  10.582
 8418TIP3    H149449   4.346   8.805  10.544
 8418TIP3    H249450   4.340   8.953  10.514
 8419TIP3   OH249451   2.599   6.959  11.556
 8419TIP3    H149452   2.528   6.915  11.603
 8419TIP3    H249453   2.677   6.945  11.610
 8420TIP3   OH249454   2.791   6.882  11.736
 8420TIP3    H149455   2.886   6.869  11.738
 8420TIP3    H249456   2.754   6.795  11.755
 8421TIP3   OH249457   2.555   9.137  10.209
 8421TIP3    H149458   2.514   9.105  10.289
 8421TIP3    H249459   2.618   9.068  10.186
 8422TIP3   OH249460   3.806   6.818  11.784
 8422TIP3    H149461   3.792   6.753  11.854
 8422TIP3    H249462   3.901   6.828  11.780
 8423TIP3   OH249463   4.133   8.709  11.684
 8423TIP3    H149464   4.095   8.698  11.597
 8423TIP3    H249465   4.122   8.802  11.703
 8424TIP3   OH249466   6.071   7.986  10.648
 8424TIP3    H149467   6.067   8.078  10.624
 8424TIP3    H249468   5.983   7.952  10.627
 8425TIP3   OH249469   5.652   7.736  11.176
 8425TIP3    H149470   5.742   7.719  11.200
 8425TIP3    H249471   5.636   7.681  11.099
 8426TIP3   OH249472   4.855   7.781  11.328
 8426TIP3    H149473   4.892   7.693  11.327
 8426TIP3    H249474   4.890   7.820  11.409
 8427TIP3   OH249475   6.279   8.261  10.873
 8427TIP3    H149476   6.279   8.165  10.863
 8427TIP3    H249477   6.271   8.275  10.967
 8428TIP3   OH249478   5.145   8.392  10.852
 8428TIP3    H149479   5.117   8.300  10.850
 8428TIP3    H249480   5.223   8.391  10.908
 8429TIP3   OH249481   4.634   7.589  10.648
 8429TIP3    H149482   4.572   7.561  10.715
 8429TIP3    H249483   4.583   7.587  10.566
 8430TIP3   OH249484   4.732   7.717  10.901
 8430TIP3    H149485   4.777   7.634  10.910
 8430TIP3    H249486   4.724   7.730  10.806
 8431TIP3   OH249487   5.971   8.842  10.844
 8431TIP3    H149488   6.048   8.795  10.812
 8431TIP3    H249489   5.969   8.822  10.938
 8432TIP3   OH249490   5.608   8.028  11.167
 8432TIP3    H149491   5.647   7.940  11.167
 8432TIP3    H249492   5.673   8.082  11.212
 8433TIP3   OH249493   6.856   7.130  11.256
 8433TIP3    H149494   6.796   7.200  11.283
 8433TIP3    H249495   6.860   7.138  11.161
 8434TIP3   OH249496   6.081   7.543  11.027
 8434TIP3    H149497   6.102   7.452  11.046
 8434TIP3    H249498   6.013   7.539  10.960
 8435TIP3   OH249499   5.233   7.292  10.812
 8435TIP3    H149500   5.203   7.371  10.767
 8435TIP3    H249501   5.213   7.220  10.752
 8436TIP3   OH249502   6.090   7.334  10.710
 8436TIP3    H149503   6.117   7.262  10.767
 8436TIP3    H249504   6.170   7.363  10.668
 8437TIP3   OH249505   4.808   7.449  10.893
 8437TIP3    H149506   4.873   7.402  10.944
 8437TIP3    H249507   4.837   7.441  10.802
 8438TIP3   OH249508   5.302   7.725  10.777
 8438TIP3    H149509   5.388   7.683  10.780
 8438TIP3    H249510   5.242   7.656  10.751
 8439TIP3   OH249511   6.699   7.346  11.335
 8439TIP3    H149512   6.653   7.427  11.312
 8439TIP3    H249513   6.726   7.359  11.426
 8440TIP3   OH249514   5.088   7.155  11.226
 8440TIP3    H149515   5.062   7.210  11.152
 8440TIP3    H249516   5.033   7.186  11.299
 8441TIP3   OH249517   6.060   8.252  10.570
 8441TIP3    H149518   5.975   8.259  10.527
 8441TIP3    H249519   6.061   8.322  10.635
 8442TIP3   OH249520   5.342   7.981  11.170
 8442TIP3    H149521   5.301   8.067  11.185
 8442TIP3    H249522   5.435   8.001  11.159
 8443TIP3   OH249523   6.200   7.110  10.843
 8443TIP3    H149524   6.177   7.017  10.844
 8443TIP3    H249525   6.270   7.116  10.779
 8444TIP3   OH249526   5.030   7.310  10.998
 8444TIP3    H149527   5.066   7.386  11.045
 8444TIP3    H249528   5.098   7.287  10.935
 8445TIP3   OH249529   5.130   8.392  11.379
 8445TIP3    H149530   5.098   8.475  11.344
 8445TIP3    H249531   5.052   8.339  11.392
 8446TIP3   OH249532   4.624   8.234  10.366
 8446TIP3    H149533   4.674   8.265  10.291
 8446TIP3    H249534   4.589   8.314  10.406
 8447TIP3   OH249535   6.270   8.443  11.109
 8447TIP3    H149536   6.178   8.466  11.127
 8447TIP3    H249537   6.288   8.484  11.025
 8448TIP3   OH249538   6.235   6.945  11.225
 8448TIP3    H149539   6.162   6.999  11.253
 8448TIP3    H249540   6.267   6.987  11.145
 8449TIP3   OH249541   5.397   6.866  10.929
 8449TIP3    H149542   5.395   6.771  10.939
 8449TIP3    H249543   5.321   6.897  10.978
 8450TIP3   OH249544   6.186   8.737  10.710
 8450TIP3    H149545   6.212   8.645  10.702
 8450TIP3    H249546   6.268   8.786  10.700
 8451TIP3   OH249547   6.258   8.467  10.689
 8451TIP3    H149548   6.288   8.429  10.607
 8451TIP3    H249549   6.269   8.397  10.754
 8452TIP3   OH249550   6.503   8.240  11.487
 8452TIP3    H149551   6.528   8.179  11.419
 8452TIP3    H249552   6.477   8.319  11.440
 8453TIP3   OH249553   5.821   7.900  10.544
 8453TIP3    H149554   5.754   7.969  10.542
 8453TIP3    H249555   5.828   7.872  10.453
 8454TIP3   OH249556   5.830   7.792  10.287
 8454TIP3    H149557   5.918   7.823  10.266
 8454TIP3    H249558   5.840   7.697  10.297
 8455TIP3   OH249559   6.722   7.831  11.302
 8455TIP3    H149560   6.668   7.909  11.293
 8455TIP3    H249561   6.791   7.841  11.237
 8456TIP3   OH249562   6.276   7.882  10.500
 8456TIP3    H149563   6.210   7.919  10.558
 8456TIP3    H249564   6.323   7.818  10.554
 8457TIP3   OH249565   6.349   7.691  11.447
 8457TIP3    H149566   6.357   7.767  11.504
 8457TIP3    H249567   6.268   7.707  11.397
 8458TIP3   OH249568   5.231   7.968  10.662
 8458TIP3    H149569   5.169   7.938  10.595
 8458TIP3    H249570   5.264   7.888  10.702
 8459TIP3   OH249571   5.414   8.385  10.945
 8459TIP3    H149572   5.427   8.389  10.850
 8459TIP3    H249573   5.482   8.325  10.976
 8460TIP3   OH249574   5.220   7.766  11.043
 8460TIP3    H149575   5.254   7.767  10.953
 8460TIP3    H249576   5.263   7.840  11.086
 8461TIP3   OH249577   6.014   8.535  11.142
 8461TIP3    H149578   5.992   8.628  11.132
 8461TIP3    H249579   5.929   8.493  11.160
 8462TIP3   OH249580   5.322   8.486  11.551
 8462TIP3    H149581   5.262   8.543  11.600
 8462TIP3    H249582   5.269   8.449  11.481
 8463TIP3   OH249583   6.114   7.813  10.289
 8463TIP3    H149584   6.167   7.836  10.365
 8463TIP3    H249585   6.148   7.867  10.218
 8464TIP3   OH249586   4.995   7.853  11.574
 8464TIP3    H149587   4.997   7.948  11.589
 8464TIP3    H249588   4.966   7.816  11.657
 8465TIP3   OH249589   5.788   8.714  10.670
 8465TIP3    H149590   5.840   8.741  10.746
 8465TIP3    H249591   5.780   8.793  10.617
 8466TIP3   OH249592   5.094   8.636  11.621
 8466TIP3    H149593   5.099   8.663  11.529
 8466TIP3    H249594   5.019   8.577  11.625
 8467TIP3   OH249595   6.552   6.820  10.445
 8467TIP3    H149596   6.459   6.842  10.438
 8467TIP3    H249597   6.584   6.874  10.517
 8468TIP3   OH249598   5.058   7.887  10.461
 8468TIP3    H149599   5.002   7.961  10.439
 8468TIP3    H249600   4.999   7.811  10.459
 8469TIP3   OH249601   6.727   8.652  10.216
 8469TIP3    H149602   6.765   8.740  10.218
 8469TIP3    H249603   6.802   8.593  10.214
 8470TIP3   OH249604   4.665   8.094  11.412
 8470TIP3    H149605   4.638   8.097  11.320
 8470TIP3    H249606   4.644   8.005  11.440
 8471TIP3   OH249607   4.725   8.593  11.028
 8471TIP3    H149608   4.779   8.519  11.003
 8471TIP3    H249609   4.765   8.627  11.108
 8472TIP3   OH249610   6.690   8.740  11.613
 8472TIP3    H149611   6.706   8.646  11.610
 8472TIP3    H249612   6.602   8.748  11.650
 8473TIP3   OH249613   5.576   8.585  11.475
 8473TIP3    H149614   5.601   8.663  11.525
 8473TIP3    H249615   5.498   8.552  11.520
 8474TIP3   OH249616   5.796   8.929  10.498
 8474TIP3    H149617   5.792   8.874  10.420
 8474TIP3    H249618   5.724   8.992  10.488
 8475TIP3   OH249619   5.022   8.806  10.652
 8475TIP3    H149620   5.041   8.759  10.734
 8475TIP3    H249621   4.975   8.742  10.599
 8476TIP3   OH249622   6.096   8.751  10.315
 8476TIP3    H149623   6.176   8.699  10.324
 8476TIP3    H249624   6.101   8.815  10.387
 8477TIP3   OH249625   6.072   8.924  10.534
 8477TIP3    H149626   5.976   8.925  10.532
 8477TIP3    H249627   6.093   8.856  10.598
 8478TIP3   OH249628   6.420   7.508  11.640
 8478TIP3    H149629   6.388   7.574  11.578
 8478TIP3    H249630   6.405   7.424  11.595
 8479TIP3   OH249631   4.898   8.246  11.447
 8479TIP3    H149632   4.937   8.195  11.517
 8479TIP3    H249633   4.818   8.199  11.423
 8480TIP3   OH249634   5.166   6.932  11.075
 8480TIP3    H149635   5.096   6.925  11.010
 8480TIP3    H249636   5.143   7.010  11.126
 8481TIP3   OH249637   5.834   6.941  11.407
 8481TIP3    H149638   5.860   6.880  11.476
 8481TIP3    H249639   5.740   6.952  11.420
 8482TIP3   OH249640   6.081   7.299  11.502
 8482TIP3    H149641   6.066   7.286  11.595
 8482TIP3    H249642   6.024   7.372  11.479
 8483TIP3   OH249643   6.249   8.003  10.143
 8483TIP3    H149644   6.252   8.071  10.075
 8483TIP3    H249645   6.305   8.037  10.213
 8484TIP3   OH249646   5.632   7.338  10.216
 8484TIP3    H149647   5.608   7.277  10.286
 8484TIP3    H249648   5.550   7.358  10.172
 8485TIP3   OH249649   5.145   7.519  11.133
 8485TIP3    H149650   5.086   7.538  11.206
 8485TIP3    H249651   5.169   7.605  11.099
 8486TIP3   OH249652   5.142   7.519  10.682
 8486TIP3    H149653   5.051   7.504  10.658
 8486TIP3    H249654   5.191   7.498  10.602
 8487TIP3   OH249655   5.802   7.617  10.590
 8487TIP3    H149656   5.799   7.713  10.595
 8487TIP3    H249657   5.868   7.599  10.523
 8488TIP3   OH249658   5.751   7.607  11.678
 8488TIP3    H149659   5.693   7.535  11.703
 8488TIP3    H249660   5.795   7.631  11.760
 8489TIP3   OH249661   5.892   7.499  10.825
 8489TIP3    H149662   5.857   7.543  10.748
 8489TIP3    H249663   5.953   7.434  10.790
 8490TIP3   OH249664   4.991   7.539  11.358
 8490TIP3    H149665   5.060   7.572  11.415
 8490TIP3    H249666   4.972   7.452  11.391
 8491TIP3   OH249667   5.359   7.363  10.165
 8491TIP3    H149668   5.319   7.290  10.212
 8491TIP3    H249669   5.297   7.436  10.177
 8492TIP3   OH249670   4.587   7.130  10.739
 8492TIP3    H149671   4.667   7.112  10.788
 8492TIP3    H249672   4.555   7.213  10.776
 8493TIP3   OH249673   4.719   7.384  10.380
 8493TIP3    H149674   4.787   7.435  10.337
 8493TIP3    H249675   4.646   7.444  10.391
 8494TIP3   OH249676   5.910   7.654  11.226
 8494TIP3    H149677   5.976   7.623  11.163
 8494TIP3    H249678   5.921   7.598  11.302
 8495TIP3   OH249679   5.508   7.337  10.830
 8495TIP3    H149680   5.413   7.327  10.833
 8495TIP3    H249681   5.543   7.248  10.840
 8496TIP3   OH249682   4.876   7.463  10.620
 8496TIP3    H149683   4.798   7.518  10.623
 8496TIP3    H249684   4.860   7.402  10.548
 8497TIP3   OH249685   5.311   7.457  10.478
 8497TIP3    H149686   5.405   7.460  10.497
 8497TIP3    H249687   5.302   7.501  10.393
 8498TIP3   OH249688   6.112   7.270  11.064
 8498TIP3    H149689   6.078   7.213  11.133
 8498TIP3    H249690   6.141   7.209  10.995
 8499TIP3   OH249691   5.193   7.571  10.248
 8499TIP3    H149692   5.098   7.566  10.259
 8499TIP3    H249693   5.212   7.665  10.244
 8500TIP3   OH249694   6.403   9.037  11.714
 8500TIP3    H149695   6.420   9.071  11.626
 8500TIP3    H249696   6.471   9.076  11.769
 8501TIP3   OH249697   4.975   8.115  11.672
 8501TIP3    H149698   5.040   8.141  11.737
 8501TIP3    H249699   4.891   8.124  11.717
 8502TIP3   OH249700   5.645   7.545  10.964
 8502TIP3    H149701   5.734   7.534  10.932
 8502TIP3    H249702   5.595   7.474  10.924
 8503TIP3   OH249703   5.160   7.102  10.630
 8503TIP3    H149704   5.132   7.010  10.633
 8503TIP3    H249705   5.191   7.114  10.540
 8504TIP3   OH249706   5.370   7.415  11.267
 8504TIP3    H149707   5.291   7.444  11.220
 8504TIP3    H249708   5.442   7.459  11.221
 8505TIP3   OH249709   5.618   8.075  10.449
 8505TIP3    H149710   5.592   8.012  10.382
 8505TIP3    H249711   5.536   8.112  10.482
 8506TIP3   OH249712   6.594   8.084  11.267
 8506TIP3    H149713   6.678   8.116  11.233
 8506TIP3    H249714   6.534   8.096  11.194
 8507TIP3   OH249715   5.881   7.334  10.337
 8507TIP3    H149716   5.803   7.332  10.282
 8507TIP3    H249717   5.911   7.424  10.335
 8508TIP3   OH249718   5.749   8.367  11.524
 8508TIP3    H149719   5.711   8.355  11.611
 8508TIP3    H249720   5.705   8.443  11.488
 8509TIP3   OH249721   6.002   7.582  10.394
 8509TIP3    H149722   6.071   7.528  10.431
 8509TIP3    H249723   6.047   7.656  10.354
 8510TIP3   OH249724   5.113   8.119  10.862
 8510TIP3    H149725   5.155   8.073  10.789
 8510TIP3    H249726   5.092   8.049  10.925
 8511TIP3   OH249727   5.813   8.277  10.464
 8511TIP3    H149728   5.769   8.362  10.463
 8511TIP3    H249729   5.743   8.213  10.453
 8512TIP3   OH249730   4.544   7.847  11.494
 8512TIP3    H149731   4.557   7.759  11.530
 8512TIP3    H249732   4.501   7.832  11.410
 8513TIP3   OH249733   5.511   7.763  11.631
 8513TIP3    H149734   5.487   7.774  11.539
 8513TIP3    H249735   5.594   7.716  11.629
 8514TIP3   OH249736   6.030   8.316  11.579
 8514TIP3    H149737   5.939   8.327  11.550
 8514TIP3    H249738   6.038   8.376  11.653
 8515TIP3   OH249739   6.731   7.586  10.434
 8515TIP3    H149740   6.641   7.557  10.416
 8515TIP3    H249741   6.742   7.665  10.380
 8516TIP3   OH249742   6.729   8.237  11.653
 8516TIP3    H149743   6.643   8.237  11.611
 8516TIP3    H249744   6.791   8.236  11.581
 8517TIP3   OH249745   6.579   8.653  10.445
 8517TIP3    H149746   6.487   8.635  10.426
 8517TIP3    H249747   6.622   8.650  10.360
 8518TIP3   OH249748   6.268   7.980  10.847
 8518TIP3    H149749   6.193   7.976  10.787
 8518TIP3    H249750   6.275   7.891  10.883
 8519TIP3   OH249751   5.370   8.412  10.672
 8519TIP3    H149752   5.390   8.482  10.610
 8519TIP3    H249753   5.281   8.432  10.703
 8520TIP3   OH249754   4.791   7.805  10.328
 8520TIP3    H149755   4.814   7.897  10.338
 8520TIP3    H249756   4.695   7.805  10.319
 8521TIP3   OH249757   5.377   8.172  10.539
 8521TIP3    H149758   5.380   8.246  10.599
 8521TIP3    H249759   5.327   8.105  10.586
 8522TIP3   OH249760   5.399   8.681  11.282
 8522TIP3    H149761   5.414   8.775  11.292
 8522TIP3    H249762   5.468   8.640  11.334
 8523TIP3   OH249763   5.303   8.802  10.615
 8523TIP3    H149764   5.208   8.813  10.622
 8523TIP3    H249765   5.339   8.873  10.668
 8524TIP3   OH249766   5.789   8.188  11.310
 8524TIP3    H149767   5.765   8.246  11.382
 8524TIP3    H249768   5.884   8.176  11.320
 8525TIP3   OH249769   6.289   8.331  10.437
 8525TIP3    H149770   6.338   8.254  10.407
 8525TIP3    H249771   6.207   8.295  10.471
 8526TIP3   OH249772   6.320   8.729  11.421
 8526TIP3    H149773   6.230   8.697  11.411
 8526TIP3    H249774   6.321   8.812  11.374
 8527TIP3   OH249775   6.818   8.906  10.285
 8527TIP3    H149776   6.877   8.977  10.309
 8527TIP3    H249777   6.731   8.946  10.289
 8528TIP3   OH249778   4.907   7.276  11.416
 8528TIP3    H149779   4.818   7.285  11.381
 8528TIP3    H249780   4.895   7.236  11.502
 8529TIP3   OH249781   6.405   8.086  10.359
 8529TIP3    H149782   6.368   8.016  10.413
 8529TIP3    H249783   6.500   8.077  10.369
 8530TIP3   OH249784   4.875   8.706  11.232
 8530TIP3    H149785   4.958   8.679  11.271
 8530TIP3    H249786   4.844   8.777  11.289
 8531TIP3   OH249787   5.265   8.368  10.366
 8531TIP3    H149788   5.310   8.298  10.414
 8531TIP3    H249789   5.315   8.447  10.388
 8532TIP3   OH249790   4.862   8.069  10.377
 8532TIP3    H149791   4.781   8.119  10.391
 8532TIP3    H249792   4.921   8.132  10.336
 8533TIP3   OH249793   6.028   7.115  11.295
 8533TIP3    H149794   6.047   7.177  11.365
 8533TIP3    H249795   5.959   7.059  11.329
 8534TIP3   OH249796   5.878   7.206  10.580
 8534TIP3    H149797   5.880   7.241  10.491
 8534TIP3    H249798   5.951   7.249  10.624
 8535TIP3   OH249799   5.702   8.532  10.482
 8535TIP3    H149800   5.607   8.547  10.482
 8535TIP3    H249801   5.734   8.583  10.556
 8536TIP3   OH249802   5.573   7.445  10.580
 8536TIP3    H149803   5.652   7.500  10.582
 8536TIP3    H249804   5.562   7.414  10.670
 8537TIP3   OH249805   5.881   7.491  11.458
 8537TIP3    H149806   5.851   7.544  11.532
 8537TIP3    H249807   5.804   7.443  11.429
 8538TIP3   OH249808   5.680   7.024  10.613
 8538TIP3    H149809   5.647   7.041  10.701
 8538TIP3    H249810   5.758   7.079  10.605
 8539TIP3   OH249811   5.419   8.602  10.468
 8539TIP3    H149812   5.456   8.647  10.392
 8539TIP3    H249813   5.379   8.671  10.521
 8540TIP3   OH249814   5.279   7.196  10.391
 8540TIP3    H149815   5.272   7.284  10.429
 8540TIP3    H249816   5.372   7.173  10.399
 8541TIP3   OH249817   6.361   7.280  11.494
 8541TIP3    H149818   6.265   7.279  11.494
 8541TIP3    H249819   6.385   7.262  11.403
 8542TIP3   OH249820   6.295   7.705  10.922
 8542TIP3    H149821   6.222   7.656  10.961
 8542TIP3    H249822   6.373   7.669  10.964
 8543TIP3   OH249823   5.046   8.240  10.253
 8543TIP3    H149824   5.114   8.294  10.294
 8543TIP3    H249825   5.095   8.177  10.200
 8544TIP3   OH249826   4.902   7.566  10.257
 8544TIP3    H149827   4.866   7.650  10.287
 8544TIP3    H249828   4.888   7.567  10.162
 8545TIP3   OH249829   6.445   9.019  11.060
 8545TIP3    H149830   6.415   9.065  10.982
 8545TIP3    H249831   6.539   9.012  11.050
 8546TIP3   OH249832   4.969   6.886  10.885
 8546TIP3    H149833   5.002   6.877  10.795
 8546TIP3    H249834   4.947   6.796  10.911
 8547TIP3   OH249835   4.527   8.481  10.450
 8547TIP3    H149836   4.441   8.515  10.477
 8547TIP3    H249837   4.584   8.557  10.452
 8548TIP3   OH249838   4.600   8.839  11.715
 8548TIP3    H149839   4.674   8.835  11.776
 8548TIP3    H249840   4.552   8.758  11.730
 8549TIP3   OH249841   5.097   8.755  11.868
 8549TIP3    H149842   5.169   8.711  11.913
 8549TIP3    H249843   5.096   8.717  11.780
 8550TIP3   OH249844   5.878   8.579  19.675
 8550TIP3    H149845   5.851   8.560  19.585
 8550TIP3    H249846   5.918   8.497  19.705
 8551TIP3   OH249847   6.028   8.482  11.802
 8551TIP3    H149848   6.011   8.413  11.866
 8551TIP3    H249849   6.103   8.530  11.837
 8552TIP3   OH249850   6.325   8.586  10.338
 8552TIP3    H149851   6.308   8.501  10.377
 8552TIP3    H249852   6.346   8.566  10.247
 8553TIP3   OH249853   4.718   8.151  11.778
 8553TIP3    H149854   4.700   8.069  11.825
 8553TIP3    H249855   4.641   8.165  11.723
 8554TIP3   OH249856   5.190   8.051  10.116
 8554TIP3    H149857   5.213   7.972  10.165
 8554TIP3    H249858   5.254   8.053  10.044
 8555TIP3   OH249859   5.374   8.247  11.673
 8555TIP3    H149860   5.358   8.332  11.632
 8555TIP3    H249861   5.376   8.185  11.601
 8556TIP3   OH249862   6.266   8.158  11.628
 8556TIP3    H149863   6.338   8.202  11.583
 8556TIP3    H249864   6.188   8.209  11.606
 8557TIP3   OH249865   4.918   7.812  11.838
 8557TIP3    H149866   4.975   7.834  11.912
 8557TIP3    H249867   4.831   7.843  11.865
 8558TIP3   OH249868   5.268   7.840  10.280
 8558TIP3    H149869   5.211   7.863  10.353
 8558TIP3    H249870   5.357   7.855  10.312
 8559TIP3   OH249871   5.198   7.679  11.483
 8559TIP3    H149872   5.139   7.747  11.515
 8559TIP3    H249873   5.270   7.726  11.441
 8560TIP3   OH249874   5.561   7.866  10.269
 8560TIP3    H149875   5.536   7.828  10.185
 8560TIP3    H249876   5.654   7.843  10.280
 8561TIP3   OH249877   5.953   7.959  11.895
 8561TIP3    H149878   5.964   7.969  11.800
 8561TIP3    H249879   5.925   7.868  11.906
 8562TIP3   OH249880   6.687   7.858  19.717
 8562TIP3    H149881   6.759   7.911  19.753
 8562TIP3    H249882   6.621   7.857  19.787
 8563TIP3   OH249883   5.351   7.458  11.548
 8563TIP3    H149884   5.365   7.423  11.459
 8563TIP3    H249885   5.305   7.541  11.534
 8564TIP3   OH249886   5.361   7.140  11.314
 8564TIP3    H149887   5.375   7.234  11.300
 8564TIP3    H249888   5.269   7.126  11.291
 8565TIP3   OH249889   5.434   7.787  11.355
 8565TIP3    H149890   5.511   7.760  11.304
 8565TIP3    H249891   5.392   7.854  11.301
 8566TIP3   OH249892   6.126   7.503  11.907
 8566TIP3    H149893   6.101   7.432  11.848
 8566TIP3    H249894   6.221   7.508  11.901
 8567TIP3   OH249895   6.369   7.901  11.618
 8567TIP3    H149896   6.330   7.988  11.625
 8567TIP3    H249897   6.456   7.911  11.656
 8568TIP3   OH249898   5.246   7.420  11.800
 8568TIP3    H149899   5.155   7.446  11.792
 8568TIP3    H249900   5.283   7.432  11.713
 8569TIP3   OH249901   5.546   6.953  11.402
 8569TIP3    H149902   5.491   7.029  11.381
 8569TIP3    H249903   5.506   6.880  11.355
 8570TIP3   OH249904   5.572   7.404  11.721
 8570TIP3    H149905   5.541   7.334  11.779
 8570TIP3    H249906   5.498   7.419  11.661
 8571TIP3   OH249907   6.029   7.273  11.776
 8571TIP3    H149908   5.938   7.255  11.799
 8571TIP3    H249909   6.078   7.201  11.815
 8572TIP3   OH249910   6.147   7.063  11.911
 8572TIP3    H149911   6.131   6.977  11.873
 8572TIP3    H249912   6.104   7.060  11.996
 8573TIP3   OH249913   4.806   7.155  11.649
 8573TIP3    H149914   4.815   7.065  11.619
 8573TIP3    H249915   4.823   7.150  11.743
 8574TIP3   OH249916   5.534   6.854  11.664
 8574TIP3    H149917   5.574   6.769  11.646
 8574TIP3    H249918   5.534   6.899  11.580
 8575TIP3   OH249919   5.558   6.965  11.912
 8575TIP3    H149920   5.551   6.922  11.826
 8575TIP3    H249921   5.507   7.046  11.902
 8576TIP3   OH249922   5.547   8.747  10.272
 8576TIP3    H149923   5.642   8.739  10.277
 8576TIP3    H249924   5.531   8.793  10.189
 8577TIP3   OH249925   4.796   8.319  10.169
 8577TIP3    H149926   4.885   8.298  10.199
 8577TIP3    H249927   4.809   8.358  10.083
 8578TIP3   OH249928   4.630   8.934  10.651
 8578TIP3    H149929   4.535   8.930  10.636
 8578TIP3    H249930   4.641   8.902  10.741
 8579TIP3   OH249931   4.665   8.836  10.906
 8579TIP3    H149932   4.653   8.745  10.935
 8579TIP3    H249933   4.753   8.859  10.936
 8580TIP3   OH249934   6.722   8.998  11.046
 8580TIP3    H149935   6.777   9.037  11.114
 8580TIP3    H249936   6.783   8.951  10.990
 8581TIP3   OH249937   6.684   8.919  11.399
 8581TIP3    H149938   6.661   8.861  11.327
 8581TIP3    H249939   6.692   8.860  11.475
 8582TIP3   OH249940   6.663   8.254  11.925
 8582TIP3    H149941   6.681   8.261  11.832
 8582TIP3    H249942   6.689   8.339  11.961
 8583TIP3   OH249943   6.678   8.040  10.413
 8583TIP3    H149944   6.749   8.103  10.424
 8583TIP3    H249945   6.658   8.010  10.502
 8584TIP3   OH249946   6.570   7.924  10.644
 8584TIP3    H149947   6.530   7.837  10.643
 8584TIP3    H249948   6.527   7.969  10.716
 8585TIP3   OH249949   6.848   8.135  11.171
 8585TIP3    H149950   6.882   8.047  11.156
 8585TIP3    H249951   6.881   8.186  11.097
 8586TIP3   OH249952   6.420   8.462  11.346
 8586TIP3    H149953   6.399   8.551  11.373
 8586TIP3    H249954   6.372   8.450  11.264
 8587TIP3   OH249955   6.769   7.818  10.282
 8587TIP3    H149956   6.745   7.834  10.191
 8587TIP3    H249957   6.736   7.894  10.329
 8588TIP3   OH249958   6.475   7.494  10.359
 8588TIP3    H149959   6.422   7.557  10.311
 8588TIP3    H249960   6.495   7.426  10.295
 8589TIP3   OH249961   6.396   7.694  10.664
 8589TIP3    H149962   6.395   7.601  10.644
 8589TIP3    H249963   6.362   7.700  10.753
 8590TIP3   OH249964   4.681   7.862  11.131
 8590TIP3    H149965   4.707   7.814  11.052
 8590TIP3    H249966   4.743   7.834  11.198
 8591TIP3   OH249967   6.637   7.890  11.712
 8591TIP3    H149968   6.647   7.795  11.708
 8591TIP3    H249969   6.701   7.924  11.650
 8592TIP3   OH249970   6.672   7.618  11.674
 8592TIP3    H149971   6.583   7.583  11.665
 8592TIP3    H249972   6.729   7.544  11.652
 8593TIP3   OH249973   6.530   7.311  10.165
 8593TIP3    H149974   6.616   7.273  10.186
 8593TIP3    H249975   6.496   7.257  10.095
 8594TIP3   OH249976   6.336   7.382  10.580
 8594TIP3    H149977   6.361   7.290  10.592
 8594TIP3    H249978   6.389   7.411  10.505
 8595TIP3   OH249979   6.527   7.595  11.025
 8595TIP3    H149980   6.608   7.560  10.988
 8595TIP3    H249981   6.539   7.587  11.120
 8596TIP3   OH249982   6.571   7.596  11.303
 8596TIP3    H149983   6.494   7.620  11.353
 8596TIP3    H249984   6.630   7.671  11.311
 8597TIP3   OH249985   4.591   7.310  11.558
 8597TIP3    H149986   4.669   7.267  11.592
 8597TIP3    H249987   4.518   7.260  11.594
 8598TIP3   OH249988   6.727   6.891  11.792
 8598TIP3    H149989   6.800   6.829  11.786
 8598TIP3    H249990   6.749   6.959  11.728
 8599TIP3   OH249991   6.383   7.099  10.626
 8599TIP3    H149992   6.468   7.059  10.647
 8599TIP3    H249993   6.342   7.036  10.567
 8600TIP3   OH249994   4.819   7.119  10.892
 8600TIP3    H149995   4.863   7.034  10.890
 8600TIP3    H249996   4.884   7.179  10.929
 8601TIP3   OH249997   4.529   7.520  10.912
 8601TIP3    H149998   4.608   7.466  10.919
 8601TIP3    H249999   4.559   7.609  10.931
 8602TIP3   OH250000   6.562   7.208  11.677
 8602TIP3    H150001   6.511   7.200  11.757
 8602TIP3    H250002   6.497   7.220  11.608
 8603TIP3   OH250003   6.770   7.203  10.235
 8603TIP3    H150004   6.786   7.125  10.288
 8603TIP3    H250005   6.824   7.271  10.274
 8604TIP3   OH250006   4.656   7.112  10.467
 8604TIP3    H150007   4.631   7.111  10.560
 8604TIP3    H250008   4.689   7.200  10.452
 8605TIP3   OH250009   6.390   8.931  10.674
 8605TIP3    H150010   6.484   8.917  10.664
 8605TIP3    H250011   6.383   9.003  10.737
 8606TIP3   OH250012   4.559   6.846  11.351
 8606TIP3    H150013   4.481   6.795  11.373
 8606TIP3    H250014   4.525   6.929  11.319
 8607TIP3   OH250015   4.881   8.465  11.617
 8607TIP3    H150016   4.883   8.395  11.552
 8607TIP3    H250017   4.817   8.437  11.682
 8608TIP3   OH250018   5.129   8.686  11.345
 8608TIP3    H150019   5.122   8.781  11.332
 8608TIP3    H250020   5.219   8.665  11.322
 8609TIP3   OH250021   5.669   8.815  11.617
 8609TIP3    H150022   5.699   8.745  11.676
 8609TIP3    H250023   5.738   8.881  11.622
 8610TIP3   OH250024   5.911   8.970  11.620
 8610TIP3    H150025   5.951   8.884  11.610
 8610TIP3    H250026   5.969   9.016  11.680
 8611TIP3   OH250027   6.599   6.737  11.399
 8611TIP3    H150028   6.545   6.750  11.320
 8611TIP3    H250029   6.617   6.643  11.400
 8612TIP3   OH250030   4.824   8.933  11.383
 8612TIP3    H150031   4.747   8.971  11.340
 8612TIP3    H250032   4.803   8.933  11.476
 8613TIP3   OH250033   5.097   8.957  11.300
 8613TIP3    H150034   5.007   8.964  11.332
 8613TIP3    H250035   5.105   9.028  11.236
 8614TIP3   OH250036   5.783   8.986  11.210
 8614TIP3    H150037   5.702   9.009  11.165
 8614TIP3    H250038   5.783   9.041  11.289
 8615TIP3   OH250039   5.972   8.809  11.122
 8615TIP3    H150040   5.896   8.860  11.150
 8615TIP3    H250041   6.047   8.855  11.159
 8616TIP3   OH250042   6.303   8.974  11.286
 8616TIP3    H150043   6.238   9.043  11.278
 8616TIP3    H250044   6.355   8.980  11.206
 8617TIP3   OH250045   4.925   8.851  11.001
 8617TIP3    H150046   4.908   8.808  11.085
 8617TIP3    H250047   4.982   8.790  10.954
 8618TIP3   OH250048   5.086   8.661  10.877
 8618TIP3    H150049   5.082   8.567  10.859
 8618TIP3    H250050   5.165   8.672  10.929
 8619TIP3   OH250051   5.310   8.630  11.027
 8619TIP3    H150052   5.356   8.549  11.003
 8619TIP3    H250053   5.344   8.650  11.114
 8620TIP3   OH250054   5.577   7.068  10.868
 8620TIP3    H150055   5.507   7.004  10.880
 8620TIP3    H250056   5.632   7.058  10.946
 8621TIP3   OH250057   6.449   6.775  10.862
 8621TIP3    H150058   6.503   6.835  10.810
 8621TIP3    H250059   6.360   6.807  10.850
 8622TIP3   OH250060   6.624   6.958  10.686
 8622TIP3    H150061   6.671   6.876  10.701
 8622TIP3    H250062   6.687   7.027  10.710
 8623TIP3   OH250063   5.064   6.834  10.630
 8623TIP3    H150064   5.029   6.836  10.540
 8623TIP3    H250065   5.089   6.742  10.644
 8624TIP3   OH250066   4.707   6.862  10.356
 8624TIP3    H150067   4.803   6.854  10.358
 8624TIP3    H250068   4.689   6.947  10.396
 8625TIP3   OH250069   5.476   6.678  10.709
 8625TIP3    H150070   5.554   6.694  10.656
 8625TIP3    H250071   5.450   6.764  10.740
 8626TIP3   OH250072   6.181   6.833  10.817
 8626TIP3    H150073   6.159   6.802  10.729
 8626TIP3    H250074   6.158   6.760  10.875
 8627TIP3   OH250075   6.281   6.888  10.463
 8627TIP3    H150076   6.225   6.903  10.387
 8627TIP3    H250077   6.243   6.813  10.507
 8628TIP3   OH250078   4.641   8.733  10.448
 8628TIP3    H150079   4.594   8.786  10.384
 8628TIP3    H250080   4.649   8.790  10.525
 8629TIP3   OH250081   4.984   6.821  10.363
 8629TIP3    H150082   4.986   6.726  10.350
 8629TIP3    H250083   5.047   6.855  10.300
 8630TIP3   OH250084   5.549   7.200  10.441
 8630TIP3    H150085   5.593   7.129  10.489
 8630TIP3    H250086   5.569   7.278  10.492
 8631TIP3   OH250087   5.820   8.729  10.306
 8631TIP3    H150088   5.914   8.734  10.290
 8631TIP3    H250089   5.808   8.646  10.352
 8632TIP3   OH250090   6.649   8.892  10.568
 8632TIP3    H150091   6.630   8.803  10.538
 8632TIP3    H250092   6.630   8.947  10.492
 8633TIP3   OH250093   4.851   6.886  11.610
 8633TIP3    H150094   4.786   6.834  11.657
 8633TIP3    H250095   4.931   6.876  11.661
 8634TIP3   OH250096   5.045   6.843  11.804
 8634TIP3    H150097   5.139   6.829  11.795
 8634TIP3    H250098   5.011   6.758  11.832
 8635TIP3   OH250099   4.884   9.072  10.215
 8635TIP3    H150100   4.815   9.064  10.281
 8635TIP3    H250101   4.919   8.983  10.205
 8636TIP3   OH250102   6.118   6.808  11.793
 8636TIP3    H150103   6.089   6.740  11.854
 8636TIP3    H250104   6.207   6.782  11.768
 8637TIP3   OH250105   6.419   8.761  11.683
 8637TIP3    H150106   6.383   8.749  11.595
 8637TIP3    H250107   6.408   8.854  11.701
 8638TIP3   OH250108   8.296   8.068  10.553
 8638TIP3    H150109   8.268   8.159  10.551
 8638TIP3    H250110   8.216   8.019  10.534
 8639TIP3   OH250111   7.905   7.701  11.223
 8639TIP3    H150112   7.993   7.692  11.259
 8639TIP3    H250113   7.903   7.639  11.150
 8640TIP3   OH250114   7.180   7.841  11.246
 8640TIP3    H150115   7.259   7.811  11.201
 8640TIP3    H250116   7.203   7.835  11.339
 8641TIP3   OH250117   8.520   8.243  10.892
 8641TIP3    H150118   8.533   8.150  10.912
 8641TIP3    H250119   8.541   8.288  10.974
 8642TIP3   OH250120   7.393   8.420  10.906
 8642TIP3    H150121   7.362   8.330  10.896
 8642TIP3    H250122   7.469   8.412  10.964
 8643TIP3   OH250123   6.871   7.622  10.669
 8643TIP3    H150124   6.815   7.587  10.738
 8643TIP3    H250125   6.817   7.619  10.590
 8644TIP3   OH250126   6.992   7.739  10.898
 8644TIP3    H150127   7.041   7.658  10.911
 8644TIP3    H250128   6.962   7.735  10.808
 8645TIP3   OH250129   8.262   8.880  10.934
 8645TIP3    H150130   8.290   8.800  10.889
 8645TIP3    H250131   8.234   8.849  11.021
 8646TIP3   OH250132   7.852   7.977  11.205
 8646TIP3    H150133   7.881   7.886  11.205
 8646TIP3    H250134   7.923   8.025  11.249
 8647TIP3   OH250135   8.860   7.078  11.244
 8647TIP3    H150136   8.849   7.158  11.296
 8647TIP3    H250137   8.887   7.111  11.158
 8648TIP3   OH250138   8.221   7.481  11.021
 8648TIP3    H150139   8.270   7.400  11.038
 8648TIP3    H250140   8.260   7.515  10.940
 8649TIP3   OH250141   7.386   7.248  10.723
 8649TIP3    H150142   7.437   7.299  10.660
 8649TIP3    H250143   7.362   7.169  10.675
 8650TIP3   OH250144   8.477   7.353  10.654
 8650TIP3    H150145   8.512   7.346  10.743
 8650TIP3    H250146   8.552   7.336  10.597
 8651TIP3   OH250147   7.064   7.464  10.891
 8651TIP3    H150148   7.127   7.407  10.935
 8651TIP3    H250149   7.092   7.464  10.799
 8652TIP3   OH250150   7.495   7.780  10.818
 8652TIP3    H150151   7.575   7.730  10.830
 8652TIP3    H250152   7.443   7.729  10.756
 8653TIP3   OH250153   8.818   7.315  11.380
 8653TIP3    H150154   8.774   7.396  11.357
 8653TIP3    H250155   8.901   7.342  11.418
 8654TIP3   OH250156   7.318   7.143  11.205
 8654TIP3    H150157   7.302   7.199  11.129
 8654TIP3    H250158   7.249   7.166  11.267
 8655TIP3   OH250159   8.243   8.348  10.504
 8655TIP3    H150160   8.176   8.310  10.447
 8655TIP3    H250161   8.210   8.435  10.527
 8656TIP3   OH250162   7.582   7.969  11.216
 8656TIP3    H150163   7.551   8.054  11.246
 8656TIP3    H250164   7.675   7.981  11.201
 8657TIP3   OH250165   8.562   7.356  10.914
 8657TIP3    H150166   8.498   7.316  10.973
 8657TIP3    H250167   8.612   7.416  10.969
 8658TIP3   OH250168   7.281   7.300  10.971
 8658TIP3    H150169   7.338   7.368  11.007
 8658TIP3    H250170   7.320   7.278  10.886
 8659TIP3   OH250171   7.398   8.399  11.403
 8659TIP3    H150172   7.380   8.490  11.377
 8659TIP3    H250173   7.312   8.364  11.426
 8660TIP3   OH250174   6.897   8.222  10.410
 8660TIP3    H150175   6.941   8.246  10.328
 8660TIP3    H250176   6.869   8.305  10.448
 8661TIP3   OH250177   8.540   8.611  11.067
 8661TIP3    H150178   8.471   8.619  11.133
 8661TIP3    H250179   8.569   8.700  11.051
 8662TIP3   OH250180   8.607   6.968  11.302
 8662TIP3    H150181   8.539   7.036  11.307
 8662TIP3    H250182   8.685   7.015  11.274
 8663TIP3   OH250183   7.577   6.717  10.982
 8663TIP3    H150184   7.584   6.635  11.031
 8663TIP3    H250185   7.524   6.774  11.038
 8664TIP3   OH250186   8.372   8.698  10.729
 8664TIP3    H150187   8.388   8.605  10.744
 8664TIP3    H250188   8.460   8.737  10.726
 8665TIP3   OH250189   8.425   8.425  10.710
 8665TIP3    H150190   8.363   8.377  10.655
 8665TIP3    H250191   8.454   8.361  10.775
 8666TIP3   OH250192   8.749   8.244  11.373
 8666TIP3    H150193   8.751   8.179  11.303
 8666TIP3    H250194   8.740   8.328  11.328
 8667TIP3   OH250195   8.061   7.929  10.483
 8667TIP3    H150196   7.985   7.987  10.481
 8667TIP3    H250197   8.053   7.876  10.404
 8668TIP3   OH250198   8.068   7.765  10.257
 8668TIP3    H150199   8.098   7.818  10.184
 8668TIP3    H250200   8.140   7.705  10.275
 8669TIP3   OH250201   8.960   7.855  11.193
 8669TIP3    H150202   8.884   7.913  11.197
 8669TIP3    H250203   9.011   7.887  11.119
 8670TIP3   OH250204   8.551   7.981  10.508
 8670TIP3    H150205   8.465   8.008  10.540
 8670TIP3    H250206   8.576   7.908  10.565
 8671TIP3   OH250207   8.403   7.607  11.430
 8671TIP3    H150208   8.390   7.676  11.495
 8671TIP3    H250209   8.330   7.617  11.369
 8672TIP3   OH250210   7.491   8.022  10.677
 8672TIP3    H150211   7.456   7.986  10.595
 8672TIP3    H250212   7.506   7.945  10.732
 8673TIP3   OH250213   7.667   8.435  10.978
 8673TIP3    H150214   7.674   8.433  10.883
 8673TIP3    H250215   7.739   8.379  11.009
 8674TIP3   OH250216   7.417   7.783  11.092
 8674TIP3    H150217   7.433   7.795  10.998
 8674TIP3    H250218   7.475   7.847  11.134
 8675TIP3   OH250219   8.369   8.604  11.292
 8675TIP3    H150220   8.291   8.648  11.260
 8675TIP3    H250221   8.336   8.535  11.350
 8676TIP3   OH250222   7.589   8.408  11.610
 8676TIP3    H150223   7.560   8.499  11.623
 8676TIP3    H250224   7.541   8.378  11.533
 8677TIP3   OH250225   8.419   7.879  10.284
 8677TIP3    H150226   8.466   7.906  10.363
 8677TIP3    H250227   8.422   7.956  10.226
 8678TIP3   OH250228   7.223   7.839  11.530
 8678TIP3    H150229   7.229   7.929  11.564
 8678TIP3    H250230   7.151   7.799  11.578
 8679TIP3   OH250231   8.147   8.605  10.575
 8679TIP3    H150232   8.218   8.626  10.635
 8679TIP3    H250233   8.098   8.687  10.566
 8680TIP3   OH250234   7.464   8.658  11.623
 8680TIP3    H150235   7.447   8.680  11.531
 8680TIP3    H250236   7.383   8.617  11.653
 8681TIP3   OH250237   8.742   6.759  10.400
 8681TIP3    H150238   8.647   6.761  10.409
 8681TIP3    H250239   8.771   6.846  10.425
 8682TIP3   OH250240   7.383   7.882  10.462
 8682TIP3    H150241   7.301   7.924  10.436
 8682TIP3    H250242   7.356   7.799  10.500
 8683TIP3   OH250243   8.737   8.553  10.249
 8683TIP3    H150244   8.761   8.645  10.261
 8683TIP3    H250245   8.780   8.527  10.168
 8684TIP3   OH250246   6.906   8.182  11.443
 8684TIP3    H150247   6.886   8.177  11.350
 8684TIP3    H250248   6.895   8.093  11.476
 8685TIP3   OH250249   6.975   8.619  11.038
 8685TIP3    H150250   7.006   8.531  11.019
 8685TIP3    H250251   7.026   8.648  11.114
 8686TIP3   OH250252   8.830   8.602  11.611
 8686TIP3    H150253   8.859   8.535  11.673
 8686TIP3    H250254   8.751   8.639  11.650
 8687TIP3   OH250255   7.878   8.619  11.425
 8687TIP3    H150256   7.959   8.668  11.409
 8687TIP3    H250257   7.885   8.590  11.516
 8688TIP3   OH250258   8.030   8.853  10.529
 8688TIP3    H150259   8.013   8.844  10.435
 8688TIP3    H250260   7.951   8.897  10.563
 8689TIP3   OH250261   7.284   8.779  10.632
 8689TIP3    H150262   7.303   8.748  10.720
 8689TIP3    H250263   7.222   8.715  10.597
 8690TIP3   OH250264   8.296   8.829  10.291
 8690TIP3    H150265   8.353   8.755  10.270
 8690TIP3    H250266   8.316   8.851  10.382
 8691TIP3   OH250267   8.297   8.916  10.563
 8691TIP3    H150268   8.202   8.904  10.554
 8691TIP3    H250269   8.325   8.844  10.620
 8692TIP3   OH250270   8.689   7.572  11.698
 8692TIP3    H150271   8.625   7.583  11.769
 8692TIP3    H250272   8.678   7.481  11.671
 8693TIP3   OH250273   7.154   8.300  11.508
 8693TIP3    H150274   7.182   8.224  11.557
 8693TIP3    H250275   7.067   8.277  11.475
 8694TIP3   OH250276   7.394   6.889  11.117
 8694TIP3    H150277   7.320   6.876  11.059
 8694TIP3    H250278   7.383   6.977  11.151
 8695TIP3   OH250279   7.943   6.828  11.372
 8695TIP3    H150280   7.987   6.821  11.456
 8695TIP3    H250281   7.853   6.852  11.393
 8696TIP3   OH250282   8.385   7.343  11.524
 8696TIP3    H150283   8.316   7.334  11.590
 8696TIP3    H250284   8.381   7.435  11.498
 8697TIP3   OH250285   8.517   8.118  10.161
 8697TIP3    H150286   8.519   8.126  10.066
 8697TIP3    H250287   8.596   8.069  10.182
 8698TIP3   OH250288   7.992   7.298  10.206
 8698TIP3    H150289   7.938   7.260  10.275
 8698TIP3    H250290   7.950   7.271  10.124
 8699TIP3   OH250291   7.431   7.502  11.106
 8699TIP3    H150292   7.372   7.482  11.179
 8699TIP3    H250293   7.427   7.597  11.097
 8700TIP3   OH250294   7.373   7.623  10.626
 8700TIP3    H150295   7.285   7.587  10.631
 8700TIP3    H250296   7.429   7.548  10.605
 8701TIP3   OH250297   8.208   7.702  10.584
 8701TIP3    H150298   8.157   7.781  10.572
 8701TIP3    H250299   8.237   7.679  10.495
 8702TIP3   OH250300   7.971   7.579  11.648
 8702TIP3    H150301   7.924   7.500  11.675
 8702TIP3    H250302   8.046   7.584  11.708
 8703TIP3   OH250303   8.341   7.566  10.784
 8703TIP3    H150304   8.289   7.616  10.721
 8703TIP3    H250305   8.376   7.493  10.733
 8704TIP3   OH250306   7.274   7.449  11.317
 8704TIP3    H150307   7.299   7.497  11.395
 8704TIP3    H250308   7.210   7.385  11.347
 8705TIP3   OH250309   7.529   7.343  10.114
 8705TIP3    H150310   7.551   7.276  10.178
 8705TIP3    H250311   7.508   7.294  10.034
 8706TIP3   OH250312   6.830   7.139  10.763
 8706TIP3    H150313   6.907   7.111  10.813
 8706TIP3    H250314   6.805   7.223  10.801
 8707TIP3   OH250315   6.912   7.380  10.397
 8707TIP3    H150316   6.986   7.426  10.357
 8707TIP3    H250317   6.848   7.449  10.416
 8708TIP3   OH250318   8.181   7.610  11.264
 8708TIP3    H150319   8.196   7.571  11.178
 8708TIP3    H250320   8.136   7.542  11.314
 8709TIP3   OH250321   7.870   7.274  10.870
 8709TIP3    H150322   7.799   7.243  10.925
 8709TIP3    H250323   7.921   7.196  10.850
 8710TIP3   OH250324   7.119   7.513  10.619
 8710TIP3    H150325   7.035   7.558  10.628
 8710TIP3    H250326   7.115   7.473  10.532
 8711TIP3   OH250327   7.547   7.410  10.552
 8711TIP3    H150328   7.637   7.394  10.579
 8711TIP3    H250329   7.553   7.446  10.464
 8712TIP3   OH250330   8.362   7.243  11.073
 8712TIP3    H150331   8.377   7.219  11.164
 8712TIP3    H250332   8.321   7.166  11.033
 8713TIP3   OH250333   7.573   7.533  10.305
 8713TIP3    H150334   7.519   7.608  10.281
 8713TIP3    H250335   7.561   7.470  10.234
 8714TIP3   OH250336   8.681   8.987  11.682
 8714TIP3    H150337   8.724   8.988  11.597
 8714TIP3    H250338   8.744   9.026  11.742
 8715TIP3   OH250339   7.190   8.083  11.678
 8715TIP3    H150340   7.250   8.095  11.752
 8715TIP3    H250341   7.102   8.089  11.717
 8716TIP3   OH250342   7.942   7.501  11.029
 8716TIP3    H150343   8.037   7.498  11.027
 8716TIP3    H250344   7.914   7.430  10.971
 8717TIP3   OH250345   7.324   7.015  10.583
 8717TIP3    H150346   7.310   6.939  10.640
 8717TIP3    H250347   7.285   6.990  10.500
 8718TIP3   OH250348   7.642   7.394  11.264
 8718TIP3    H150349   7.573   7.429  11.207
 8718TIP3    H250350   7.721   7.439  11.235
 8719TIP3   OH250351   7.835   8.093  10.424
 8719TIP3    H150352   7.770   8.042  10.376
 8719TIP3    H250353   7.783   8.147  10.484
 8720TIP3   OH250354   8.765   8.061  11.162
 8720TIP3    H150355   8.837   8.095  11.108
 8720TIP3    H250356   8.698   8.035  11.098
 8721TIP3   OH250357   8.227   7.353  10.337
 8721TIP3    H150358   8.152   7.327  10.284
 8721TIP3    H250359   8.223   7.449  10.339
 8722TIP3   OH250360   8.119   8.220  11.583
 8722TIP3    H150361   8.140   8.144  11.637
 8722TIP3    H250362   8.081   8.284  11.643
 8723TIP3   OH250363   8.306   7.635  10.326
 8723TIP3    H150364   8.377   7.571  10.316
 8723TIP3    H250365   8.348   7.719  10.307
 8724TIP3   OH250366   7.344   8.154  10.872
 8724TIP3    H150367   7.394   8.116  10.799
 8724TIP3    H250368   7.298   8.079  10.910
 8725TIP3   OH250369   8.045   8.257  10.345
 8725TIP3    H150370   8.003   8.341  10.328
 8725TIP3    H250371   7.972   8.198  10.363
 8726TIP3   OH250372   6.848   7.926  11.530
 8726TIP3    H150373   6.906   7.864  11.575
 8726TIP3    H250374   6.809   7.875  11.459
 8727TIP3   OH250375   7.754   7.753  11.649
 8727TIP3    H150376   7.718   7.758  11.560
 8727TIP3    H250377   7.832   7.698  11.640
 8728TIP3   OH250378   8.308   8.413  11.492
 8728TIP3    H150379   8.243   8.342  11.497
 8728TIP3    H250380   8.300   8.459  11.575
 8729TIP3   OH250381   8.873   7.517  10.463
 8729TIP3    H150382   8.866   7.519  10.368
 8729TIP3    H250383   8.958   7.556  10.482
 8730TIP3   OH250384   8.968   8.185  11.534
 8730TIP3    H150385   8.889   8.221  11.493
 8730TIP3    H250386   9.029   8.172  11.462
 8731TIP3   OH250387   8.632   8.552  10.585
 8731TIP3    H150388   8.565   8.512  10.641
 8731TIP3    H250389   8.643   8.641  10.620
 8732TIP3   OH250390   8.555   7.978  10.993
 8732TIP3    H150391   8.478   7.970  11.049
 8732TIP3    H250392   8.562   7.893  10.949
 8733TIP3   OH250393   7.591   8.462  10.711
 8733TIP3    H150394   7.590   8.550  10.673
 8733TIP3    H250395   7.507   8.456  10.758
 8734TIP3   OH250396   7.050   7.796  10.314
 8734TIP3    H150397   7.083   7.883  10.337
 8734TIP3    H250398   6.955   7.808  10.308
 8735TIP3   OH250399   7.650   8.230  10.576
 8735TIP3    H150400   7.636   8.308  10.629
 8735TIP3    H250401   7.596   8.163  10.617
 8736TIP3   OH250402   7.669   8.727  11.292
 8736TIP3    H150403   7.680   8.814  11.331
 8736TIP3    H250404   7.739   8.675  11.331
 8737TIP3   OH250405   7.561   8.721  10.605
 8737TIP3    H150406   7.468   8.741  10.601
 8737TIP3    H250407   7.603   8.805  10.625
 8738TIP3   OH250408   8.068   8.091  11.339
 8738TIP3    H150409   8.063   8.143  11.420
 8738TIP3    H250410   8.160   8.069  11.330
 8739TIP3   OH250411   8.464   8.336  10.330
 8739TIP3    H150412   8.467   8.258  10.275
 8739TIP3    H250413   8.385   8.326  10.383
 8740TIP3   OH250414   8.456   8.795  11.477
 8740TIP3    H150415   8.422   8.725  11.421
 8740TIP3    H250416   8.496   8.857  11.417
 8741TIP3   OH250417   8.810   8.820  10.247
 8741TIP3    H150418   8.879   8.850  10.188
 8741TIP3    H250419   8.760   8.899  10.268
 8742TIP3   OH250420   7.099   7.229  11.369
 8742TIP3    H150421   7.023   7.195  11.321
 8742TIP3    H250422   7.072   7.225  11.461
 8743TIP3   OH250423   8.725   8.185  10.440
 8743TIP3    H150424   8.658   8.120  10.462
 8743TIP3    H250425   8.804   8.133  10.425
 8744TIP3   OH250426   7.145   8.721  11.234
 8744TIP3    H150427   7.225   8.687  11.274
 8744TIP3    H250428   7.122   8.798  11.286
 8745TIP3   OH250429   7.529   8.378  10.369
 8745TIP3    H150430   7.573   8.320  10.431
 8745TIP3    H250431   7.585   8.456  10.366
 8746TIP3   OH250432   7.149   8.046  10.391
 8746TIP3    H150433   7.072   8.096  10.419
 8746TIP3    H250434   7.206   8.111  10.349
 8747TIP3   OH250435   8.391   7.147  11.332
 8747TIP3    H150436   8.395   7.219  11.395
 8747TIP3    H250437   8.327   7.086  11.369
 8748TIP3   OH250438   8.321   7.164  10.516
 8748TIP3    H150439   8.292   7.220  10.444
 8748TIP3    H250440   8.367   7.223  10.575
 8749TIP3   OH250441   7.964   8.523  10.364
 8749TIP3    H150442   7.871   8.541  10.379
 8749TIP3    H250443   8.005   8.541  10.449
 8750TIP3   OH250444   7.820   7.379  10.618
 8750TIP3    H150445   7.876   7.456  10.613
 8750TIP3    H250446   7.834   7.345  10.706
 8751TIP3   OH250447   8.048   7.437  11.425
 8751TIP3    H150448   8.019   7.498  11.494
 8751TIP3    H250449   8.024   7.351  11.459
 8752TIP3   OH250450   8.063   7.048  10.534
 8752TIP3    H150451   8.042   7.044  10.627
 8752TIP3    H250452   8.152   7.083  10.531
 8753TIP3   OH250453   7.699   8.604  10.397
 8753TIP3    H150454   7.708   8.677  10.336
 8753TIP3    H250455   7.652   8.640  10.472
 8754TIP3   OH250456   7.597   7.166  10.310
 8754TIP3    H150457   7.544   7.147  10.388
 8754TIP3    H250458   7.687   7.166  10.341
 8755TIP3   OH250459   8.648   7.311  11.605
 8755TIP3    H150460   8.557   7.312  11.576
 8755TIP3    H250461   8.698   7.294  11.525
 8756TIP3   OH250462   8.548   7.713  10.899
 8756TIP3    H150463   8.471   7.664  10.873
 8756TIP3    H250464   8.593   7.655  10.961
 8757TIP3   OH250465   7.311   8.240  10.264
 8757TIP3    H150466   7.372   8.300  10.308
 8757TIP3    H250467   7.366   8.190  10.204
 8758TIP3   OH250468   7.116   7.533  10.303
 8758TIP3    H150469   7.096   7.626  10.311
 8758TIP3    H250470   7.167   7.526  10.222
 8759TIP3   OH250471   8.644   8.869  11.043
 8759TIP3    H150472   8.626   8.929  10.970
 8759TIP3    H250473   8.739   8.868  11.051
 8760TIP3   OH250474   7.176   6.844  10.955
 8760TIP3    H150475   7.210   6.825  10.867
 8760TIP3    H250476   7.153   6.759  10.991
 8761TIP3   OH250477   6.818   8.483  10.480
 8761TIP3    H150478   6.730   8.519  10.489
 8761TIP3    H250479   6.876   8.559  10.483
 8762TIP3   OH250480   6.811   8.929  11.791
 8762TIP3    H150481   6.906   8.939  11.796
 8762TIP3    H250482   6.797   8.870  11.716
 8763TIP3   OH250483   7.694   8.799  11.729
 8763TIP3    H150484   7.736   8.737  11.789
 8763TIP3    H250485   7.617   8.752  11.697
 8764TIP3   OH250486   8.204   8.614  19.738
 8764TIP3    H150487   8.178   8.558  19.665
 8764TIP3    H250488   8.284   8.573  19.771
 8765TIP3   OH250489   8.243   8.498  11.752
 8765TIP3    H150490   8.202   8.428  11.803
 8765TIP3    H250491   8.308   8.535  11.811
 8766TIP3   OH250492   8.457   8.609  10.258
 8766TIP3    H150493   8.432   8.518  10.272
 8766TIP3    H250494   8.551   8.606  10.239
 8767TIP3   OH250495   6.941   8.115  11.802
 8767TIP3    H150496   6.914   8.034  11.846
 8767TIP3    H250497   6.863   8.142  11.753
 8768TIP3   OH250498   7.504   8.109  10.122
 8768TIP3    H150499   7.544   8.052  10.188
 8768TIP3    H250500   7.579   8.150  10.078
 8769TIP3   OH250501   7.729   8.353  11.838
 8769TIP3    H150502   7.680   8.364  11.756
 8769TIP3    H250503   7.808   8.305  11.813
 8770TIP3   OH250504   8.492   8.192  11.476
 8770TIP3    H150505   8.580   8.217  11.449
 8770TIP3    H250506   8.444   8.275  11.479
 8771TIP3   OH250507   7.005   7.764  11.694
 8771TIP3    H150508   6.980   7.674  11.714
 8771TIP3    H250509   6.990   7.811  11.776
 8772TIP3   OH250510   7.618   7.951  10.316
 8772TIP3    H150511   7.543   7.922  10.368
 8772TIP3    H250512   7.671   7.872  10.304
 8773TIP3   OH250513   7.424   7.643  11.485
 8773TIP3    H150514   7.361   7.713  11.504
 8773TIP3    H250515   7.499   7.688  11.447
 8774TIP3   OH250516   7.786   7.739  10.284
 8774TIP3    H150517   7.759   7.648  10.289
 8774TIP3    H250518   7.881   7.736  10.273
 8775TIP3   OH250519   8.151   8.041  11.797
 8775TIP3    H150520   8.239   8.036  11.833
 8775TIP3    H250521   8.112   7.956  11.818
 8776TIP3   OH250522   8.950   7.954  19.714
 8776TIP3    H150523   8.873   7.988  19.760
 8776TIP3    H250524   9.014   8.024  19.721
 8777TIP3   OH250525   7.600   7.436  11.541
 8777TIP3    H150526   7.620   7.404  11.453
 8777TIP3    H250527   7.539   7.509  11.527
 8778TIP3   OH250528   7.575   7.126  11.316
 8778TIP3    H150529   7.609   7.214  11.303
 8778TIP3    H250530   7.485   7.129  11.284
 8779TIP3   OH250531   7.664   7.752  11.377
 8779TIP3    H150532   7.745   7.727  11.333
 8779TIP3    H250533   7.633   7.828  11.328
 8780TIP3   OH250534   8.196   7.549  11.812
 8780TIP3    H150535   8.191   7.459  11.780
 8780TIP3    H250536   8.279   7.553  11.860
 8781TIP3   OH250537   8.532   8.017  11.686
 8781TIP3    H150538   8.508   8.072  11.611
 8781TIP3    H250539   8.627   8.010  11.681
 8782TIP3   OH250540   7.531   7.451  11.812
 8782TIP3    H150541   7.437   7.464  11.798
 8782TIP3    H250542   7.569   7.452  11.724
 8783TIP3   OH250543   7.665   6.887  11.424
 8783TIP3    H150544   7.644   6.974  11.390
 8783TIP3    H250545   7.588   6.834  11.404
 8784TIP3   OH250546   7.830   7.349  11.682
 8784TIP3    H150547   7.798   7.292  11.753
 8784TIP3    H250548   7.752   7.368  11.630
 8785TIP3   OH250549   8.188   7.282  11.725
 8785TIP3    H150550   8.111   7.263  11.779
 8785TIP3    H250551   8.245   7.206  11.738
 8786TIP3   OH250552   8.334   7.059  11.789
 8786TIP3    H150553   8.344   6.965  11.772
 8786TIP3    H250554   8.349   7.067  11.883
 8787TIP3   OH250555   7.005   7.198  11.633
 8787TIP3    H150556   7.016   7.103  11.634
 8787TIP3    H250557   7.049   7.228  11.712
 8788TIP3   OH250558   7.767   6.841  11.681
 8788TIP3    H150559   7.803   6.754  11.664
 8788TIP3    H250560   7.726   6.867  11.598
 8789TIP3   OH250561   7.841   6.987  11.903
 8789TIP3    H150562   7.821   6.934  11.826
 8789TIP3    H250563   7.780   7.061  11.898
 8790TIP3   OH250564   7.756   8.826  10.247
 8790TIP3    H150565   7.851   8.818  10.240
 8790TIP3    H250566   7.735   8.906  10.199
 8791TIP3   OH250567   7.051   8.297  10.194
 8791TIP3    H150568   7.143   8.286  10.221
 8791TIP3    H250569   7.056   8.313  10.099
 8792TIP3   OH250570   6.905   8.951  10.650
 8792TIP3    H150571   6.813   8.939  10.629
 8792TIP3    H250572   6.913   8.926  10.742
 8793TIP3   OH250573   6.926   8.860  10.909
 8793TIP3    H150574   6.912   8.770  10.939
 8793TIP3    H250575   7.015   8.881  10.937
 8794TIP3   OH250576   8.915   8.856  11.131
 8794TIP3    H150577   8.900   8.800  11.207
 8794TIP3    H250578   8.955   8.935  11.167
 8795TIP3   OH250579   8.848   8.701  11.355
 8795TIP3    H150580   8.801   8.628  11.315
 8795TIP3    H250581   8.862   8.673  11.446
 8796TIP3   OH250582   8.772   8.377  11.953
 8796TIP3    H150583   8.687   8.371  11.997
 8796TIP3    H250584   8.801   8.467  11.970
 8797TIP3   OH250585   8.929   7.999  10.403
 8797TIP3    H150586   9.023   8.010  10.389
 8797TIP3    H250587   8.923   7.945  10.481
 8798TIP3   OH250588   8.909   7.853  10.638
 8798TIP3    H150589   8.819   7.818  10.636
 8798TIP3    H250590   8.915   7.897  10.723
 8799TIP3   OH250591   9.004   8.131  11.051
 8799TIP3    H150592   9.057   8.073  10.997
 8799TIP3    H250593   9.036   8.219  11.031
 8800TIP3   OH250594   8.680   8.492  11.269
 8800TIP3    H150595   8.609   8.509  11.330
 8800TIP3    H250596   8.646   8.521  11.184
 8801TIP3   OH250597   8.736   7.958  10.204
 8801TIP3    H150598   8.732   7.863  10.197
 8801TIP3    H250599   8.805   7.975  10.268
 8802TIP3   OH250600   8.846   7.498  10.188
 8802TIP3    H150601   8.881   7.495  10.099
 8802TIP3    H250602   8.793   7.419  10.196
 8803TIP3   OH250603   8.651   7.756  10.647
 8803TIP3    H150604   8.650   7.668  10.609
 8803TIP3    H250605   8.614   7.744  10.735
 8804TIP3   OH250606   6.938   7.880  11.128
 8804TIP3    H150607   6.952   7.838  11.044
 8804TIP3    H250608   7.019   7.867  11.176
 8805TIP3   OH250609   8.807   8.006  11.669
 8805TIP3    H150610   8.839   7.917  11.653
 8805TIP3    H250611   8.865   8.062  11.618
 8806TIP3   OH250612   8.905   7.743  11.650
 8806TIP3    H150613   8.828   7.687  11.659
 8806TIP3    H250614   8.944   7.745  11.738
 8807TIP3   OH250615   8.701   7.269  10.225
 8807TIP3    H150616   8.670   7.182  10.202
 8807TIP3    H250617   8.685   7.275  10.320
 8808TIP3   OH250618   8.703   7.300  10.503
 8808TIP3    H150619   8.754   7.221  10.524
 8808TIP3    H250620   8.768   7.370  10.501
 8809TIP3   OH250621   8.688   7.545  11.075
 8809TIP3    H150622   8.782   7.559  11.061
 8809TIP3    H250623   8.678   7.547  11.170
 8810TIP3   OH250624   8.668   7.553  11.359
 8810TIP3    H150625   8.574   7.560  11.374
 8810TIP3    H250626   8.708   7.606  11.428
 8811TIP3   OH250627   6.777   7.363  11.603
 8811TIP3    H150628   6.855   7.310  11.611
 8811TIP3    H250629   6.706   7.307  11.636
 8812TIP3   OH250630   8.842   6.770  11.785
 8812TIP3    H150631   8.931   6.760  11.750
 8812TIP3    H250632   8.833   6.864  11.802
 8813TIP3   OH250633   8.789   7.023  10.522
 8813TIP3    H150634   8.821   6.974  10.599
 8813TIP3    H250635   8.695   7.009  10.523
 8814TIP3   OH250636   7.052   7.097  10.927
 8814TIP3    H150637   7.087   7.009  10.941
 8814TIP3    H250638   7.127   7.155  10.941
 8815TIP3   OH250639   6.792   7.535  10.932
 8815TIP3    H150640   6.874   7.485  10.930
 8815TIP3    H250641   6.818   7.622  10.962
 8816TIP3   OH250642   8.838   7.047  11.814
 8816TIP3    H150643   8.763   7.103  11.833
 8816TIP3    H250644   8.885   7.092  11.744
 8817TIP3   OH250645   9.187   6.992  10.269
 8817TIP3    H150646   0.058   6.986  10.308
 8817TIP3    H250647   9.197   6.953  10.182
 8818TIP3   OH250648   6.883   7.118  10.489
 8818TIP3    H150649   6.867   7.119  10.584
 8818TIP3    H250650   6.903   7.209  10.467
 8819TIP3   OH250651   8.622   8.817  10.688
 8819TIP3    H150652   8.699   8.841  10.638
 8819TIP3    H250653   8.606   8.893  10.745
 8820TIP3   OH250654   6.845   6.850  11.316
 8820TIP3    H150655   6.760   6.833  11.356
 8820TIP3    H250656   6.845   6.944  11.298
 8821TIP3   OH250657   7.223   8.525  11.661
 8821TIP3    H150658   7.201   8.452  11.603
 8821TIP3    H250659   7.165   8.513  11.737
 8822TIP3   OH250660   7.403   8.692  11.346
 8822TIP3    H150661   7.392   8.786  11.332
 8822TIP3    H250662   7.493   8.675  11.320
 8823TIP3   OH250663   8.119   8.754  11.479
 8823TIP3    H150664   8.082   8.705  11.552
 8823TIP3    H250665   8.159   8.831  11.518
 8824TIP3   OH250666   8.262   8.968  11.584
 8824TIP3    H150667   8.333   8.911  11.552
 8824TIP3    H250668   8.300   9.014  11.658
 8825TIP3   OH250669   8.731   6.745  11.391
 8825TIP3    H150670   8.685   6.827  11.370
 8825TIP3    H250671   8.729   6.695  11.309
 8826TIP3   OH250672   7.105   8.970  11.351
 8826TIP3    H150673   7.031   9.011  11.307
 8826TIP3    H250674   7.094   8.991  11.444
 8827TIP3   OH250675   7.378   8.964  11.291
 8827TIP3    H150676   7.286   8.978  11.310
 8827TIP3    H250677   7.396   9.017  11.214
 8828TIP3   OH250678   7.983   8.996  11.203
 8828TIP3    H150679   7.901   9.037  11.174
 8828TIP3    H250680   8.001   9.037  11.288
 8829TIP3   OH250681   8.168   8.793  11.210
 8829TIP3    H150682   8.105   8.862  11.187
 8829TIP3    H250683   8.153   8.777  11.303
 8830TIP3   OH250684   8.549   8.965  11.281
 8830TIP3    H150685   8.481   9.029  11.259
 8830TIP3    H250686   8.577   8.928  11.197
 8831TIP3   OH250687   7.187   8.864  11.000
 8831TIP3    H150688   7.171   8.820  11.083
 8831TIP3    H250689   7.247   8.807  10.953
 8832TIP3   OH250690   7.360   8.689  10.881
 8832TIP3    H150691   7.353   8.594  10.890
 8832TIP3    H250692   7.442   8.711  10.925
 8833TIP3   OH250693   7.592   8.698  11.030
 8833TIP3    H150694   7.624   8.609  11.012
 8833TIP3    H250695   7.619   8.715  11.120
 8834TIP3   OH250696   7.972   7.020  10.809
 8834TIP3    H150697   7.896   6.970  10.835
 8834TIP3    H250698   8.044   6.956  10.805
 8835TIP3   OH250699   8.698   6.782  10.888
 8835TIP3    H150700   8.773   6.813  10.838
 8835TIP3    H250701   8.630   6.848  10.875
 8836TIP3   OH250702   8.903   6.873  10.729
 8836TIP3    H150703   8.960   6.797  10.717
 8836TIP3    H250704   8.963   6.945  10.748
 8837TIP3   OH250705   7.284   6.768  10.712
 8837TIP3    H150706   7.220   6.700  10.692
 8837TIP3    H250707   7.369   6.725  10.705
 8838TIP3   OH250708   6.951   6.881  10.370
 8838TIP3    H150709   7.045   6.893  10.357
 8838TIP3    H250710   6.923   6.960  10.417
 8839TIP3   OH250711   7.556   6.691  10.713
 8839TIP3    H150712   7.607   6.763  10.678
 8839TIP3    H250713   7.565   6.697  10.808
 8840TIP3   OH250714   8.140   6.814  10.760
 8840TIP3    H150715   8.143   6.795  10.666
 8840TIP3    H250716   8.171   6.733  10.801
 8841TIP3   OH250717   8.523   6.956  10.512
 8841TIP3    H150718   8.451   7.020  10.509
 8841TIP3    H250719   8.479   6.871  10.519
 8842TIP3   OH250720   6.942   8.734  10.471
 8842TIP3    H150721   6.903   8.781  10.398
 8842TIP3    H250722   6.940   8.796  10.544
 8843TIP3   OH250723   7.230   6.891  10.347
 8843TIP3    H150724   7.236   6.798  10.367
 8843TIP3    H250725   7.284   6.902  10.269
 8844TIP3   OH250726   7.852   7.187  10.417
 8844TIP3    H150727   7.921   7.129  10.450
 8844TIP3    H250728   7.840   7.252  10.487
 8845TIP3   OH250729   8.026   8.781  10.261
 8845TIP3    H150730   8.119   8.801  10.251
 8845TIP3    H250731   8.022   8.686  10.267
 8846TIP3   OH250732   8.830   8.898  10.523
 8846TIP3    H150733   8.850   8.837  10.452
 8846TIP3    H250734   8.795   8.975  10.479
 8847TIP3   OH250735   7.057   6.928  11.658
 8847TIP3    H150736   7.003   6.852  11.681
 8847TIP3    H250737   7.139   6.914  11.705
 8848TIP3   OH250738   7.268   6.839  11.814
 8848TIP3    H150739   7.356   6.822  11.782
 8848TIP3    H250740   7.234   6.753  11.839
 8849TIP3   OH250741   7.156   9.144  10.221
 8849TIP3    H150742   7.090   9.123  10.288
 8849TIP3    H250743   7.192   9.059  10.197
 8850TIP3   OH250744   8.367   6.778  11.740
 8850TIP3    H150745   8.355   6.721  11.816
 8850TIP3    H250746   8.452   6.752  11.704
 8851TIP3   OH250747   8.599   8.722  11.706
 8851TIP3    H150748   8.538   8.732  11.633
 8851TIP3    H250749   8.632   8.811  11.722
 8852TIP3   OH250750   9.102   7.662  10.576
 8852TIP3    H150751   9.038   7.731  10.594
 8852TIP3    H250752   9.105   7.611  10.656
 8853TIP3   OH250753   9.112   8.113  11.312
 8853TIP3    H150754   9.070   8.116  11.226
 8853TIP3    H250755   9.105   8.022  11.340
 8854TIP3   OH250756   9.079   8.393  11.022
 8854TIP3    H150757   9.151   8.454  11.005
 8854TIP3    H250758   9.008   8.448  11.055
 8855TIP3   OH250759   9.068   7.089  10.742
 8855TIP3    H150760   9.148   7.128  10.778
 8855TIP3    H250761   9.069   7.112  10.649
 8856TIP3   OH250762   9.083   7.853  11.442
 8856TIP3    H150763   9.028   7.816  11.512
 8856TIP3    H250764   9.036   7.830  11.362
 8857TIP3   OH250765   9.136   8.143  11.758
 8857TIP3    H150766   9.068   8.138  11.825
 8857TIP3    H250767   9.088   8.164  11.678
 8858TIP3   OH250768   9.077   8.905  10.665
 8858TIP3    H150769   8.991   8.907  10.623
 8858TIP3    H250770   9.062   8.858  10.747
 8859TIP3   OH250771   9.045   8.769  10.901
 8859TIP3    H150772   9.112   8.710  10.937
 8859TIP3    H250773   8.997   8.801  10.978
 8860TIP3   OH250774   9.125   7.895  10.965
 8860TIP3    H150775   9.114   7.804  10.937
 8860TIP3    H250776   0.002   7.904  10.978
 8861TIP3   OH250777   9.056   7.392  11.496
 8861TIP3    H150778   9.144   7.356  11.481
 8861TIP3    H250779   9.071   7.467  11.553
 8862TIP3   OH250780   8.955   7.610  11.058
 8862TIP3    H150781   9.045   7.598  11.026
 8862TIP3    H250782   8.961   7.684  11.118
 8863TIP3   OH250783   9.050   7.128  10.464
 8863TIP3    H150784   8.960   7.096  10.469
 8863TIP3    H250785   9.089   7.079  10.391
 8864TIP3   OH250786   8.991   6.834  11.323
 8864TIP3    H150787   8.916   6.797  11.370
 8864TIP3    H250788   8.960   6.918  11.291
 8865TIP3   OH250789   0.872   9.068  11.080
 8865TIP3    H150790   0.862   8.978  11.049
 8865TIP3    H250791   0.783   9.102  11.086
 8866TIP3   OH250792   2.043   9.035  10.366
 8866TIP3    H150793   1.951   9.039  10.392
 8866TIP3    H250794   2.066   9.126  10.346
 8867TIP3   OH250795   0.614   9.151  11.134
 8867TIP3    H150796   0.530   9.154  11.087
 8867TIP3    H250797   0.632   0.025  11.157
 8868TIP3   OH250798   1.269   9.131  11.453
 8868TIP3    H150799   1.331   9.096  11.516
 8868TIP3    H250800   1.183   9.109  11.488
 8869TIP3   OH250801   0.368   9.164  11.003
 8869TIP3    H150802   0.361   9.135  10.912
 8869TIP3    H250803   0.283   9.141  11.042
 8870TIP3   OH250804   0.861   8.969  11.344
 8870TIP3    H150805   0.878   9.018  11.264
 8870TIP3    H250806   0.765   8.962  11.348
 8871TIP3   OH250807   1.028   9.045  11.550
 8871TIP3    H150808   1.062   8.965  11.591
 8871TIP3    H250809   0.964   9.014  11.486
 8872TIP3   OH250810   2.085   9.058  11.926
 8872TIP3    H150811   2.149   8.993  11.897
 8872TIP3    H250812   2.136   9.136  11.945
 8873TIP3   OH250813   0.086   9.047  11.257
 8873TIP3    H150814   9.209   9.029  11.264
 8873TIP3    H250815   0.091   9.143  11.251
 8874TIP3   OH250816   1.973   9.092  11.503
 8874TIP3    H150817   1.904   9.064  11.443
 8874TIP3    H250818   2.048   9.037  11.480
 8875TIP3   OH250819   1.811   9.131  10.870
 8875TIP3    H150820   1.816   0.004  10.902
 8875TIP3    H250821   1.723   9.123  10.835
 8876TIP3   OH250822   0.358   9.082  10.738
 8876TIP3    H150823   0.273   9.047  10.711
 8876TIP3    H250824   0.418   9.008  10.728
 8877TIP3   OH250825   0.263   9.086  10.284
 8877TIP3    H150826   0.201   9.115  10.218
 8877TIP3    H250827   0.295   9.166  10.324
 8878TIP3   OH250828   0.827   9.039  10.649
 8878TIP3    H150829   0.906   9.089  10.670
 8878TIP3    H250830   0.756   9.103  10.654
 8879TIP3   OH250831   1.559   9.063  10.740
 8879TIP3    H150832   1.578   9.028  10.653
 8879TIP3    H250833   1.522   8.988  10.788
 8880TIP3   OH250834   1.791   9.052  10.486
 8880TIP3    H150835   1.710   9.006  10.465
 8880TIP3    H250836   1.824   9.008  10.565
 8881TIP3   OH250837   0.573   9.111  11.789
 8881TIP3    H150838   0.637   9.052  11.828
 8881TIP3    H250839   0.490   9.062  11.791
 8882TIP3   OH250840   1.611   9.066  11.838
 8882TIP3    H150841   1.597   8.992  11.897
 8882TIP3    H250842   1.700   9.053  11.805
 8883TIP3   OH250843   3.215   9.054  11.062
 8883TIP3    H150844   3.243   9.007  10.983
 8883TIP3    H250845   3.122   9.071  11.048
 8884TIP3   OH250846   4.294   9.069  10.379
 8884TIP3    H150847   4.198   9.069  10.378
 8884TIP3    H250848   4.319   9.161  10.374
 8885TIP3   OH250849   2.952   9.121  11.025
 8885TIP3    H150850   2.862   9.106  10.995
 8885TIP3    H250851   2.957   9.216  11.038
 8886TIP3   OH250852   3.447   9.084  11.480
 8886TIP3    H150853   3.526   9.065  11.530
 8886TIP3    H250854   3.377   9.041  11.529
 8887TIP3   OH250855   2.690   9.074  10.967
 8887TIP3    H150856   2.668   9.062  10.875
 8887TIP3    H250857   2.657   8.995  11.010
 8888TIP3   OH250858   3.144   8.957  11.315
 8888TIP3    H150859   3.179   8.998  11.236
 8888TIP3    H250860   3.049   8.962  11.304
 8889TIP3   OH250861   3.192   8.982  11.586
 8889TIP3    H150862   3.185   8.893  11.621
 8889TIP3    H250863   3.176   8.972  11.492
 8890TIP3   OH250864   4.385   9.002  11.785
 8890TIP3    H150865   4.465   8.952  11.768
 8890TIP3    H250866   4.413   9.074  11.841
 8891TIP3   OH250867   2.367   9.093  11.290
 8891TIP3    H150868   2.302   9.058  11.351
 8891TIP3    H250869   2.355   9.188  11.295
 8892TIP3   OH250870   4.213   9.083  11.479
 8892TIP3    H150871   4.159   9.043  11.411
 8892TIP3    H250872   4.291   9.028  11.483
 8893TIP3   OH250873   4.071   9.127  10.828
 8893TIP3    H150874   4.109   9.214  10.817
 8893TIP3    H250875   3.977   9.139  10.814
 8894TIP3   OH250876   2.645   9.040  10.699
 8894TIP3    H150877   2.554   9.012  10.686
 8894TIP3    H250878   2.697   8.963  10.677
 8895TIP3   OH250879   2.434   9.073  10.448
 8895TIP3    H150880   2.426   9.167  10.463
 8895TIP3    H250881   2.413   9.034  10.533
 8896TIP3   OH250882   3.134   8.998  10.772
 8896TIP3    H150883   3.187   9.069  10.737
 8896TIP3    H250884   3.055   9.040  10.805
 8897TIP3   OH250885   3.795   9.129  10.753
 8897TIP3    H150886   3.815   9.091  10.667
 8897TIP3    H250887   3.760   9.056  10.804
 8898TIP3   OH250888   4.012   9.072  10.382
 8898TIP3    H150889   3.981   9.022  10.307
 8898TIP3    H250890   3.968   9.033  10.457
 8899TIP3   OH250891   2.696   9.001  11.684
 8899TIP3    H150892   2.762   8.933  11.679
 8899TIP3    H250893   2.636   8.971  11.752
 8900TIP3   OH250894   3.874   9.058  11.843
 8900TIP3    H150895   3.852   8.986  11.902
 8900TIP3    H250896   3.961   9.035  11.810
 8901TIP3   OH250897   5.397   9.068  11.037
 8901TIP3    H150898   5.393   9.032  10.948
 8901TIP3    H250899   5.306   9.093  11.057
 8902TIP3   OH250900   6.585   9.049  10.350
 8902TIP3    H150901   6.490   9.044  10.355
 8902TIP3    H250902   6.604   9.142  10.339
 8903TIP3   OH250903   5.146   9.154  11.109
 8903TIP3    H150904   5.075   9.143  11.047
 8903TIP3    H250905   5.152   0.032  11.123
 8904TIP3   OH250906   5.760   9.136  11.446
 8904TIP3    H150907   5.820   9.093  11.507
 8904TIP3    H250908   5.673   9.115  11.479
 8905TIP3   OH250909   4.938   9.116  10.936
 8905TIP3    H150910   4.922   9.106  10.842
 8905TIP3    H250911   4.927   9.028  10.973
 8906TIP3   OH250912   5.382   8.958  11.298
 8906TIP3    H150913   5.399   8.995  11.211
 8906TIP3    H250914   5.287   8.963  11.308
 8907TIP3   OH250915   5.515   9.037  11.529
 8907TIP3    H150916   5.546   8.957  11.571
 8907TIP3    H250917   5.467   9.007  11.452
 8908TIP3   OH250918   6.643   9.152  11.794
 8908TIP3    H150919   6.704   9.079  11.803
 8908TIP3    H250920   6.699   0.014  11.798
 8909TIP3   OH250921   4.580   9.025  11.292
 8909TIP3    H150922   4.518   8.984  11.353
 8909TIP3    H250923   4.563   9.119  11.300
 8910TIP3   OH250924   6.486   9.105  11.460
 8910TIP3    H150925   6.422   9.068  11.399
 8910TIP3    H250926   6.566   9.054  11.445
 8911TIP3   OH250927   6.333   9.153  10.838
 8911TIP3    H150928   6.349   0.030  10.844
 8911TIP3    H250929   6.239   9.145  10.820
 8912TIP3   OH250930   4.892   9.052  10.674
 8912TIP3    H150931   4.802   9.021  10.662
 8912TIP3    H250932   4.947   8.974  10.658
 8913TIP3   OH250933   4.685   9.067  10.408
 8913TIP3    H150934   4.695   9.161  10.421
 8913TIP3    H250935   4.667   9.032  10.495
 8914TIP3   OH250936   5.363   9.045  10.751
 8914TIP3    H150937   5.437   9.097  10.722
 8914TIP3    H250938   5.286   9.095  10.723
 8915TIP3   OH250939   6.065   9.099  10.760
 8915TIP3    H150940   6.078   9.065  10.672
 8915TIP3    H250941   6.019   9.030  10.807
 8916TIP3   OH250942   6.313   9.053  10.436
 8916TIP3    H150943   6.225   9.020  10.420
 8916TIP3    H250944   6.341   9.010  10.517
 8917TIP3   OH250945   5.031   9.026  11.846
 8917TIP3    H150946   5.070   8.939  11.843
 8917TIP3    H250947   4.937   9.009  11.851
 8918TIP3   OH250948   6.130   9.039  11.786
 8918TIP3    H150949   6.128   8.982  11.863
 8918TIP3    H250950   6.223   9.043  11.762
 8919TIP3   OH250951   7.711   9.048  11.095
 8919TIP3    H150952   7.730   8.970  11.044
 8919TIP3    H250953   7.618   9.065  11.081
 8920TIP3   OH250954   8.709   9.067  10.333
 8920TIP3    H150955   8.618   9.077  10.360
 8920TIP3    H250956   8.736   9.154  10.305
 8921TIP3   OH250957   7.449   9.126  11.078
 8921TIP3    H150958   7.382   9.113  11.011
 8921TIP3    H250959   7.462   0.004  11.081
 8922TIP3   OH250960   8.037   9.091  11.461
 8922TIP3    H150961   8.114   9.056  11.506
 8922TIP3    H250962   7.964   9.069  11.518
 8923TIP3   OH250963   7.240   9.111  10.901
 8923TIP3    H150964   7.225   9.095  10.808
 8923TIP3    H250965   7.211   9.031  10.944
 8924TIP3   OH250966   7.648   8.998  11.365
 8924TIP3    H150967   7.677   9.024  11.277
 8924TIP3    H250968   7.553   8.992  11.357
 8925TIP3   OH250969   7.798   9.027  11.597
 8925TIP3    H150970   7.772   8.953  11.653
 8925TIP3    H250971   7.744   9.018  11.519
 8926TIP3   OH250972   8.858   9.096  11.854
 8926TIP3    H150973   8.882   9.038  11.926
 8926TIP3    H250974   8.908   9.176  11.871
 8927TIP3   OH250975   6.867   9.087  11.276
 8927TIP3    H150976   6.800   9.040  11.326
 8927TIP3    H250977   6.849   9.179  11.293
 8928TIP3   OH250978   8.790   8.968  11.421
 8928TIP3    H150979   8.706   8.978  11.375
 8928TIP3    H250980   8.813   8.876  11.407
 8929TIP3   OH250981   8.571   9.046  10.838
 8929TIP3    H150982   8.613   9.131  10.848
 8929TIP3    H250983   8.478   9.066  10.824
 8930TIP3   OH250984   7.186   9.039  10.642
 8930TIP3    H150985   7.093   9.018  10.634
 8930TIP3    H250986   7.231   8.956  10.626
 8931TIP3   OH250987   6.963   9.102  10.418
 8931TIP3    H150988   6.965   9.196  10.438
 8931TIP3    H250989   6.938   9.061  10.501
 8932TIP3   OH250990   7.637   8.985  10.640
 8932TIP3    H150991   7.698   9.055  10.662
 8932TIP3    H250992   7.557   9.031  10.615
 8933TIP3   OH250993   8.302   9.103  10.774
 8933TIP3    H150994   8.293   9.051  10.694
 8933TIP3    H250995   8.273   9.045  10.844
 8934TIP3   OH250996   8.444   9.109  10.411
 8934TIP3    H150997   8.386   9.098  10.335
 8934TIP3    H250998   8.406   9.052  10.478
 8935TIP3   OH250999   7.292   9.116  11.808
 8935TIP3    H151000   7.351   9.041  11.801
 8935TIP3    H251001   7.211   9.079  11.845
 8936TIP3   OH251002   8.433   9.057  11.789
 8936TIP3    H151003   8.421   8.991  11.857
 8936TIP3    H251004   8.517   9.035  11.749
 8937TIP3   OH251005   9.012   9.074  11.280
 8937TIP3    H151006   8.945   9.051  11.344
 8937TIP3    H251007   9.010   9.169  11.275
 8938TIP3   OH251008   1.518   1.164  12.465
 8938TIP3    H151009   1.499   1.258  12.469
 8938TIP3    H251010   1.440   1.125  12.425
 8939TIP3   OH251011   1.722   1.433  12.690
 8939TIP3    H151012   1.644   1.484  12.712
 8939TIP3    H251013   1.770   1.427  12.772
 8940TIP3   OH251014   0.595   1.578  12.845
 8940TIP3    H151015   0.569   1.492  12.813
 8940TIP3    H251016   0.549   1.588  12.928
 8941TIP3   OH251017   0.144   0.820  12.557
 8941TIP3    H151018   0.179   0.892  12.610
 8941TIP3    H251019   0.053   0.844  12.540
 8942TIP3   OH251020   0.238   0.975  12.773
 8942TIP3    H151021   0.238   0.889  12.816
 8942TIP3    H251022   0.300   1.027  12.824
 8943TIP3   OH251023   1.617   0.452  12.712
 8943TIP3    H151024   1.693   0.394  12.705
 8943TIP3    H251025   1.577   0.450  12.625
 8944TIP3   OH251026   0.177   0.690  12.801
 8944TIP3    H151027   0.223   0.606  12.794
 8944TIP3    H251028   0.163   0.717  12.710
 8945TIP3   OH251029   0.732   0.983  12.639
 8945TIP3    H151030   0.767   0.941  12.718
 8945TIP3    H251031   0.703   0.910  12.584
 8946TIP3   OH251032   1.452   1.441  12.451
 8946TIP3    H151033   1.392   1.464  12.381
 8946TIP3    H251034   1.433   1.503  12.521
 8947TIP3   OH251035   0.305   1.637  12.173
 8947TIP3    H151036   0.306   1.664  12.081
 8947TIP3    H251037   0.316   1.719  12.222
 8948TIP3   OH251038   1.728   1.422  12.399
 8948TIP3    H151039   1.633   1.430  12.404
 8948TIP3    H251040   1.757   1.423  12.490
 8949TIP3   OH251041   1.303   1.052  12.326
 8949TIP3    H151042   1.210   1.076  12.331
 8949TIP3    H251043   1.323   1.056  12.232
 8950TIP3   OH251044   1.366   1.050  12.057
 8950TIP3    H151045   1.455   1.015  12.063
 8950TIP3    H251046   1.319   0.988  12.001
 8951TIP3   OH251047   1.737   1.070  12.325
 8951TIP3    H151048   1.667   1.105  12.380
 8951TIP3    H251049   1.792   1.019  12.385
 8952TIP3   OH251050   0.664   1.235  12.563
 8952TIP3    H151051   0.607   1.226  12.486
 8952TIP3    H251052   0.689   1.146  12.585
 8953TIP3   OH251053   1.629   0.980  12.089
 8953TIP3    H151054   1.670   1.014  12.168
 8953TIP3    H251055   1.691   0.999  12.019
 8954TIP3   OH251056   2.039   0.207  12.192
 8954TIP3    H151057   1.965   0.147  12.189
 8954TIP3    H251058   2.045   0.241  12.102
 8955TIP3   OH251059   0.498   1.198  12.348
 8955TIP3    H151060   0.457   1.265  12.292
 8955TIP3    H251061   0.444   1.120  12.335
 8956TIP3   OH251062   2.199   1.726  11.968
 8956TIP3    H151063   2.217   1.802  12.023
 8956TIP3    H251064   2.281   1.677  11.968
 8957TIP3   OH251065   9.213   1.722  12.838
 8957TIP3    H151066   9.164   1.707  12.918
 8957TIP3    H251067   0.008   1.635  12.799
 8958TIP3   OH251068   0.520   1.981  12.488
 8958TIP3    H151069   0.529   1.925  12.566
 8958TIP3    H251070   0.463   1.931  12.429
 8959TIP3   OH251071   1.816   1.043  11.883
 8959TIP3    H151072   1.794   1.055  11.791
 8959TIP3    H251073   1.838   0.950  11.891
 8960TIP3   OH251074   1.312   0.503  12.005
 8960TIP3    H151075   1.264   0.477  12.083
 8960TIP3    H251076   1.247   0.545  11.949
 8961TIP3   OH251077   0.661   0.760  12.483
 8961TIP3    H151078   0.684   0.675  12.521
 8961TIP3    H251079   0.671   0.747  12.388
 8962TIP3   OH251080   1.392   0.806  12.433
 8962TIP3    H151081   1.361   0.891  12.403
 8962TIP3    H251082   1.464   0.784  12.374
 8963TIP3   OH251083   0.864   0.496  11.856
 8963TIP3    H151084   0.846   0.403  11.843
 8963TIP3    H251085   0.828   0.539  11.779
 8964TIP3   OH251086   1.126   0.450  12.732
 8964TIP3    H151087   1.031   0.448  12.728
 8964TIP3    H251088   1.147   0.428  12.823
 8965TIP3   OH251089   0.689   0.700  12.212
 8965TIP3    H151090   0.756   0.640  12.179
 8965TIP3    H251091   0.681   0.767  12.144
 8966TIP3   OH251092   0.674   0.870  11.997
 8966TIP3    H151093   0.638   0.826  11.920
 8966TIP3    H251094   0.733   0.937  11.961
 8967TIP3   OH251095   0.836   0.858  12.862
 8967TIP3    H151096   0.866   0.767  12.869
 8967TIP3    H251097   0.850   0.894  12.950
 8968TIP3   OH251098   1.028   1.390  12.248
 8968TIP3    H151099   0.997   1.311  12.205
 8968TIP3    H251100   0.988   1.388  12.335
 8969TIP3   OH251101   1.525   0.488  12.192
 8969TIP3    H151102   1.450   0.492  12.133
 8969TIP3    H251103   1.546   0.579  12.210
 8970TIP3   OH251104   1.598   0.751  12.247
 8970TIP3    H151105   1.691   0.741  12.265
 8970TIP3    H251106   1.594   0.821  12.181
 8971TIP3   OH251107   0.520   1.320  12.786
 8971TIP3    H151108   0.559   1.293  12.703
 8971TIP3    H251109   0.482   1.241  12.822
 8972TIP3   OH251110   1.281   1.510  12.245
 8972TIP3    H151111   1.300   1.514  12.151
 8972TIP3    H251112   1.194   1.470  12.250
 8973TIP3   OH251113   2.102   0.864  12.182
 8973TIP3    H151114   2.116   0.801  12.112
 8973TIP3    H251115   2.127   0.948  12.144
 8974TIP3   OH251116   1.931   1.739  12.061
 8974TIP3    H151117   1.932   1.762  12.153
 8974TIP3    H251118   2.022   1.747  12.032
 8975TIP3   OH251119   0.816   1.650  12.445
 8975TIP3    H151120   0.810   1.700  12.364
 8975TIP3    H251121   0.821   1.716  12.514
 8976TIP3   OH251122   0.210   1.192  12.029
 8976TIP3    H151123   0.267   1.247  12.083
 8976TIP3    H251124   0.124   1.197  12.070
 8977TIP3   OH251125   0.885   1.388  12.486
 8977TIP3    H151126   0.854   1.478  12.474
 8977TIP3    H251127   0.807   1.339  12.511
 8978TIP3   OH251128   0.782   2.032  12.399
 8978TIP3    H151129   0.689   2.040  12.421
 8978TIP3    H251130   0.820   2.116  12.425
 8979TIP3   OH251131   1.664   1.355  11.942
 8979TIP3    H151132   1.676   1.351  12.037
 8979TIP3    H251133   1.572   1.333  11.927
 8980TIP3   OH251134   2.168   1.961  12.129
 8980TIP3    H151135   2.110   2.025  12.090
 8980TIP3    H251136   2.157   1.973  12.224
 8981TIP3   OH251137   1.812   1.283  12.167
 8981TIP3    H151138   1.798   1.201  12.215
 8981TIP3    H251139   1.804   1.351  12.234
 8982TIP3   OH251140   1.084   1.581  11.863
 8982TIP3    H151141   1.027   1.529  11.806
 8982TIP3    H251142   1.035   1.590  11.945
 8983TIP3   OH251143   0.943   1.606  12.092
 8983TIP3    H151144   0.967   1.535  12.152
 8983TIP3    H251145   0.907   1.675  12.148
 8984TIP3   OH251146   0.371   1.370  12.167
 8984TIP3    H151147   0.331   1.453  12.192
 8984TIP3    H251148   0.443   1.394  12.109
 8985TIP3   OH251149   1.480   0.427  12.467
 8985TIP3    H151150   1.510   0.426  12.376
 8985TIP3    H251151   1.407   0.489  12.467
 8986TIP3   OH251152   1.251   0.576  12.490
 8986TIP3    H151153   1.286   0.664  12.480
 8986TIP3    H251154   1.204   0.577  12.573
 8987TIP3   OH251155   1.269   0.271  12.571
 8987TIP3    H151156   1.220   0.340  12.616
 8987TIP3    H251157   1.343   0.316  12.531
 8988TIP3   OH251158   0.823   1.821  12.222
 8988TIP3    H151159   0.795   1.844  12.133
 8988TIP3    H251160   0.810   1.900  12.273
 8989TIP3   OH251161   0.566   1.472  12.000
 8989TIP3    H151162   0.636   1.526  12.036
 8989TIP3    H251163   0.610   1.410  11.942
 8990TIP3   OH251164   0.313   1.882  12.320
 8990TIP3    H151165   0.237   1.873  12.378
 8990TIP3    H251166   0.302   1.969  12.281
 8991TIP3   OH251167   1.206   1.831  11.849
 8991TIP3    H151168   1.156   1.750  11.850
 8991TIP3    H251169   1.296   1.804  11.828
 8992TIP3   OH251170   1.711   1.822  11.909
 8992TIP3    H151171   1.777   1.787  11.969
 8992TIP3    H251172   1.762   1.867  11.841
 8993TIP3   OH251173   0.691   1.300  11.828
 8993TIP3    H151174   0.728   1.213  11.848
 8993TIP3    H251175   0.765   1.348  11.790
 8994TIP3   OH251176   1.335   1.532  11.965
 8994TIP3    H151177   1.248   1.544  11.927
 8994TIP3    H251178   1.359   1.442  11.944
 8995TIP3   OH251179   0.917   1.159  12.138
 8995TIP3    H151180   0.848   1.120  12.191
 8995TIP3    H251181   0.911   1.116  12.053
 8996TIP3   OH251182   0.870   1.048  11.877
 8996TIP3    H151183   0.913   1.113  11.822
 8996TIP3    H251184   0.898   0.964  11.841
 8997TIP3   OH251185   2.096   1.218  11.827
 8997TIP3    H151186   2.092   1.145  11.765
 8997TIP3    H251187   2.142   1.287  11.779
 8998TIP3   OH251188   0.357   1.608  11.875
 8998TIP3    H151189   0.429   1.564  11.920
 8998TIP3    H251190   0.299   1.536  11.849
 8999TIP3   OH251191   0.139   2.100  12.511
 8999TIP3    H151192   0.048   2.132  12.515
 8999TIP3    H251193   0.147   2.043  12.588
 9000TIP3   OH251194   0.137   1.940  12.739
 9000TIP3    H151195   0.102   1.861  12.780
 9000TIP3    H251196   0.220   1.956  12.784
 9001TIP3   OH251197   2.270   1.238  12.273
 9001TIP3    H151198   2.311   1.324  12.271
 9001TIP3    H251199   2.287   1.204  12.361
 9002TIP3   OH251200   2.300   1.133  12.535
 9002TIP3    H151201   2.265   1.206  12.586
 9002TIP3    H251202   2.362   1.090  12.593
 9003TIP3   OH251203   2.470   1.559  13.040
 9003TIP3    H151204   2.535   1.498  13.006
 9003TIP3    H251205   2.435   1.516  13.117
 9004TIP3   OH251206   2.186   1.093  12.061
 9004TIP3    H151207   2.157   1.149  11.989
 9004TIP3    H251208   2.205   1.154  12.132
 9005TIP3   OH251209   2.113   0.690  11.972
 9005TIP3    H151210   2.121   0.736  11.888
 9005TIP3    H251211   2.034   0.636  11.962
 9006TIP3   OH251212   1.889   0.897  12.483
 9006TIP3    H151213   1.875   0.827  12.419
 9006TIP3    H251214   1.984   0.904  12.491
 9007TIP3   OH251215   0.408   1.113  12.951
 9007TIP3    H151216   0.384   1.184  13.010
 9007TIP3    H251217   0.450   1.048  13.007
 9008TIP3   OH251218   1.902   0.508  11.955
 9008TIP3    H151219   1.968   0.440  11.943
 9008TIP3    H251220   1.821   0.461  11.970
 9009TIP3   OH251221   1.876   0.725  12.265
 9009TIP3    H151222   1.895   0.637  12.232
 9009TIP3    H251223   1.949   0.779  12.234
 9010TIP3   OH251224   1.877   0.213  12.429
 9010TIP3    H151225   1.954   0.237  12.378
 9010TIP3    H251226   1.828   0.154  12.371
 9011TIP3   OH251227   9.198   0.790  12.970
 9011TIP3    H151228   0.041   0.753  12.905
 9011TIP3    H251229   0.027   0.780  13.053
 9012TIP3   OH251230   2.114   0.324  11.948
 9012TIP3    H151231   2.166   0.282  11.879
 9012TIP3    H251232   2.176   0.381  11.993
 9013TIP3   OH251233   0.387   1.980  12.856
 9013TIP3    H151234   0.417   1.995  12.945
 9013TIP3    H251235   0.457   1.930  12.814
 9014TIP3   OH251236   0.584   1.829  12.721
 9014TIP3    H151237   0.583   1.740  12.756
 9014TIP3    H251238   0.675   1.844  12.694
 9015TIP3   OH251239   0.840   1.871  12.615
 9015TIP3    H151240   0.824   1.928  12.540
 9015TIP3    H251241   0.918   1.906  12.657
 9016TIP3   OH251242   1.819   0.261  12.692
 9016TIP3    H151243   1.878   0.196  12.732
 9016TIP3    H251244   1.833   0.252  12.598
 9017TIP3   OH251245   0.192   9.151  12.235
 9017TIP3    H151246   0.106   9.125  12.271
 9017TIP3    H251247   0.227   9.212  12.300
 9018TIP3   OH251248   1.087   0.221  12.369
 9018TIP3    H151249   1.150   0.224  12.442
 9018TIP3    H251250   1.043   0.137  12.381
 9019TIP3   OH251251   1.807   0.049  12.206
 9019TIP3    H151252   1.740   0.059  12.139
 9019TIP3    H251253   1.799   9.175  12.235
 9020TIP3   OH251254   0.248   2.145  12.255
 9020TIP3    H151255   0.205   2.141  12.340
 9020TIP3    H251256   0.258   2.238  12.237
 9021TIP3   OH251257   1.192   0.446  12.245
 9021TIP3    H151258   1.147   0.366  12.274
 9021TIP3    H251259   1.205   0.496  12.326
 9022TIP3   OH251260   2.097   2.066  12.376
 9022TIP3    H151261   2.036   2.050  12.448
 9022TIP3    H251262   2.047   2.119  12.314
 9023TIP3   OH251263   0.286   2.212  11.971
 9023TIP3    H151264   0.267   2.287  12.028
 9023TIP3    H251265   0.280   2.136  12.028
 9024TIP3   OH251266   3.818   1.279  12.421
 9024TIP3    H151267   3.778   1.355  12.377
 9024TIP3    H251268   3.769   1.204  12.388
 9025TIP3   OH251269   3.943   1.376  12.648
 9025TIP3    H151270   3.891   1.332  12.581
 9025TIP3    H251271   3.989   1.445  12.601
 9026TIP3   OH251272   2.166   0.900  12.454
 9026TIP3    H151273   2.212   0.982  12.471
 9026TIP3    H251274   2.157   0.897  12.358
 9027TIP3   OH251275   2.449   1.027  12.740
 9027TIP3    H151276   2.447   0.936  12.770
 9027TIP3    H251277   2.505   1.072  12.803
 9028TIP3   OH251278   3.283   1.410  13.069
 9028TIP3    H151279   3.371   1.386  13.095
 9028TIP3    H251280   3.288   1.503  13.046
 9029TIP3   OH251281   2.848   0.507  12.712
 9029TIP3    H151282   2.927   0.546  12.674
 9029TIP3    H251283   2.859   0.413  12.699
 9030TIP3   OH251284   3.938   0.238  12.440
 9030TIP3    H151285   3.864   0.226  12.500
 9030TIP3    H251286   4.014   0.245  12.498
 9031TIP3   OH251287   2.436   0.755  12.810
 9031TIP3    H151288   2.502   0.687  12.824
 9031TIP3    H251289   2.392   0.729  12.729
 9032TIP3   OH251290   3.269   0.606  12.791
 9032TIP3    H151291   3.324   0.670  12.836
 9032TIP3    H251292   3.309   0.522  12.812
 9033TIP3   OH251293   3.693   1.490  12.291
 9033TIP3    H151294   3.628   1.486  12.221
 9033TIP3    H251295   3.703   1.583  12.310
 9034TIP3   OH251296   2.623   0.550  12.857
 9034TIP3    H151297   2.662   0.558  12.944
 9034TIP3    H251298   2.698   0.543  12.798
 9035TIP3   OH251299   2.403   1.476  12.234
 9035TIP3    H151300   2.399   1.515  12.147
 9035TIP3    H251301   2.408   1.551  12.294
 9036TIP3   OH251302   3.715   1.061  12.278
 9036TIP3    H151303   3.638   1.058  12.221
 9036TIP3    H251304   3.789   1.042  12.219
 9037TIP3   OH251305   3.691   0.955  11.990
 9037TIP3    H151306   3.779   0.949  12.028
 9037TIP3    H251307   3.673   0.868  11.956
 9038TIP3   OH251308   4.047   1.161  12.307
 9038TIP3    H151309   3.977   1.203  12.357
 9038TIP3    H251310   4.088   1.101  12.369
 9039TIP3   OH251311   3.939   0.989  12.121
 9039TIP3    H151312   3.987   1.048  12.179
 9039TIP3    H251313   3.969   1.011  12.033
 9040TIP3   OH251314   3.679   1.763  12.350
 9040TIP3    H151315   3.644   1.771  12.439
 9040TIP3    H251316   3.622   1.819  12.297
 9041TIP3   OH251317   4.289   0.086  12.129
 9041TIP3    H151318   4.197   0.095  12.154
 9041TIP3    H251319   4.319   0.175  12.115
 9042TIP3   OH251320   2.825   1.153  12.159
 9042TIP3    H151321   2.741   1.198  12.151
 9042TIP3    H251322   2.817   1.102  12.240
 9043TIP3   OH251323   3.455   2.278  12.357
 9043TIP3    H151324   3.432   2.252  12.268
 9043TIP3    H251325   3.471   2.372  12.351
 9044TIP3   OH251326   2.866   1.955  12.623
 9044TIP3    H151327   2.867   1.979  12.716
 9044TIP3    H251328   2.784   1.907  12.612
 9045TIP3   OH251329   3.839   2.043  11.979
 9045TIP3    H151330   3.881   1.960  11.956
 9045TIP3    H251331   3.840   2.045  12.075
 9046TIP3   OH251332   3.805   2.013  12.260
 9046TIP3    H151333   3.710   2.019  12.256
 9046TIP3    H251334   3.821   1.924  12.293
 9047TIP3   OH251335   2.861   0.234  12.677
 9047TIP3    H151336   2.911   0.162  12.714
 9047TIP3    H251337   2.773   0.198  12.665
 9048TIP3   OH251338   4.012   1.076  11.873
 9048TIP3    H151339   4.005   1.049  11.782
 9048TIP3    H251340   4.103   1.104  11.884
 9049TIP3   OH251341   3.077   0.627  12.603
 9049TIP3    H151342   3.067   0.722  12.599
 9049TIP3    H251343   3.145   0.612  12.669
 9050TIP3   OH251344   3.758   0.844  12.453
 9050TIP3    H151345   3.732   0.923  12.405
 9050TIP3    H251346   3.807   0.793  12.390
 9051TIP3   OH251347   3.603   0.782  12.678
 9051TIP3    H151348   3.653   0.815  12.603
 9051TIP3    H251349   3.636   0.693  12.692
 9052TIP3   OH251350   3.157   0.496  11.878
 9052TIP3    H151351   3.161   0.401  11.865
 9052TIP3    H251352   3.065   0.518  11.863
 9053TIP3   OH251353   2.288   0.498  12.070
 9053TIP3    H151354   2.366   0.516  12.018
 9053TIP3    H251355   2.231   0.574  12.054
 9054TIP3   OH251356   2.302   0.692  12.575
 9054TIP3    H151357   2.250   0.765  12.542
 9054TIP3    H251358   2.351   0.660  12.499
 9055TIP3   OH251359   2.991   0.769  12.018
 9055TIP3    H151360   2.957   0.713  11.948
 9055TIP3    H251361   3.017   0.850  11.973
 9056TIP3   OH251362   3.434   0.800  12.905
 9056TIP3    H151363   3.494   0.811  12.831
 9056TIP3    H251364   3.485   0.825  12.981
 9057TIP3   OH251365   3.255   1.391  12.043
 9057TIP3    H151366   3.192   1.323  12.020
 9057TIP3    H251367   3.212   1.442  12.112
 9058TIP3   OH251368   3.804   0.522  12.111
 9058TIP3    H151369   3.762   0.462  12.172
 9058TIP3    H251370   3.841   0.590  12.167
 9059TIP3   OH251371   3.924   0.740  12.248
 9059TIP3    H151372   4.014   0.725  12.274
 9059TIP3    H251373   3.927   0.819  12.194
 9060TIP3   OH251374   3.502   1.519  12.080
 9060TIP3    H151375   3.457   1.603  12.078
 9060TIP3    H251376   3.434   1.454  12.062
 9061TIP3   OH251377   4.396   0.789  12.128
 9061TIP3    H151378   4.357   0.753  12.048
 9061TIP3    H251379   4.419   0.879  12.105
 9062TIP3   OH251380   3.022   1.722  12.405
 9062TIP3    H151381   3.043   1.816  12.404
 9062TIP3    H251382   2.973   1.709  12.486
 9063TIP3   OH251383   2.445   1.131  11.958
 9063TIP3    H151384   2.496   1.175  12.026
 9063TIP3    H251385   2.366   1.100  12.004
 9064TIP3   OH251386   3.174   1.554  12.255
 9064TIP3    H151387   3.112   1.612  12.299
 9064TIP3    H251388   3.210   1.499  12.326
 9065TIP3   OH251389   3.067   1.994  12.431
 9065TIP3    H151390   2.996   1.991  12.496
 9065TIP3    H251391   3.125   2.063  12.462
 9066TIP3   OH251392   4.027   1.544  11.994
 9066TIP3    H151393   4.065   1.487  12.061
 9066TIP3    H251394   3.935   1.517  11.989
 9067TIP3   OH251395   4.169   1.360  12.153
 9067TIP3    H151396   4.118   1.294  12.200
 9067TIP3    H251397   4.260   1.332  12.165
 9068TIP3   OH251398   3.295   1.666  11.801
 9068TIP3    H151399   3.252   1.580  11.790
 9068TIP3    H251400   3.293   1.681  11.895
 9069TIP3   OH251401   3.301   1.725  12.076
 9069TIP3    H151402   3.254   1.666  12.135
 9069TIP3    H251403   3.287   1.812  12.114
 9070TIP3   OH251404   2.589   1.298  12.127
 9070TIP3    H151405   2.527   1.342  12.185
 9070TIP3    H251406   2.633   1.369  12.080
 9071TIP3   OH251407   3.703   0.341  12.296
 9071TIP3    H151408   3.783   0.309  12.337
 9071TIP3    H251409   3.633   0.289  12.335
 9072TIP3   OH251410   3.532   1.954  12.217
 9072TIP3    H151411   3.438   1.954  12.236
 9072TIP3    H251412   3.539   1.988  12.128
 9073TIP3   OH251413   3.254   1.974  12.211
 9073TIP3    H151414   3.261   2.063  12.178
 9073TIP3    H251415   3.187   1.979  12.279
 9074TIP3   OH251416   2.717   1.513  12.004
 9074TIP3    H151417   2.775   1.563  12.062
 9074TIP3    H251418   2.777   1.475  11.939
 9075TIP3   OH251419   2.480   0.574  11.889
 9075TIP3    H151420   2.557   0.521  11.865
 9075TIP3    H251421   2.513   0.665  11.886
 9076TIP3   OH251422   2.609   0.119  12.654
 9076TIP3    H151423   2.562   0.131  12.571
 9076TIP3    H251424   2.583   0.032  12.683
 9077TIP3   OH251425   2.420   1.719  12.362
 9077TIP3    H151426   2.420   1.770  12.442
 9077TIP3    H251427   2.435   1.783  12.292
 9078TIP3   OH251428   3.490   1.873  11.769
 9078TIP3    H151429   3.420   1.808  11.780
 9078TIP3    H251430   3.571   1.822  11.769
 9079TIP3   OH251431   3.966   1.805  11.904
 9079TIP3    H151432   3.990   1.721  11.944
 9079TIP3    H251433   4.032   1.818  11.835
 9080TIP3   OH251434   2.909   1.390  11.841
 9080TIP3    H151435   2.945   1.323  11.899
 9080TIP3    H251436   2.984   1.424  11.794
 9081TIP3   OH251437   3.747   1.489  11.945
 9081TIP3    H151438   3.667   1.498  11.997
 9081TIP3    H251439   3.756   1.395  11.930
 9082TIP3   OH251440   3.041   1.206  11.998
 9082TIP3    H151441   2.973   1.183  12.061
 9082TIP3    H251442   3.064   1.122  11.957
 9083TIP3   OH251443   3.096   0.979  11.840
 9083TIP3    H151444   3.118   1.040  11.770
 9083TIP3    H251445   3.137   0.896  11.814
 9084TIP3   OH251446   4.275   1.158  11.864
 9084TIP3    H151447   4.293   1.124  11.776
 9084TIP3    H251448   4.260   1.252  11.851
 9085TIP3   OH251449   3.363   2.223  12.098
 9085TIP3    H151450   3.426   2.178  12.042
 9085TIP3    H251451   3.332   2.296  12.044
 9086TIP3   OH251452   2.436   1.566  11.968
 9086TIP3    H151453   2.529   1.583  11.986
 9086TIP3    H251454   2.437   1.498  11.901
 9087TIP3   OH251455   2.373   2.113  12.422
 9087TIP3    H151456   2.279   2.100  12.410
 9087TIP3    H251457   2.400   2.039  12.477
 9088TIP3   OH251458   2.432   1.887  12.592
 9088TIP3    H151459   2.370   1.888  12.664
 9088TIP3    H251460   2.513   1.854  12.630
 9089TIP3   OH251461   4.421   1.241  12.229
 9089TIP3    H151462   4.510   1.277  12.235
 9089TIP3    H251463   4.414   1.180  12.302
 9090TIP3   OH251464   4.419   1.051  12.431
 9090TIP3    H151465   4.330   1.024  12.455
 9090TIP3    H251466   4.456   1.087  12.511
 9091TIP3   OH251467   4.459   1.044  12.038
 9091TIP3    H151468   4.397   1.071  11.970
 9091TIP3    H251469   4.450   1.111  12.106
 9092TIP3   OH251470   4.307   0.686  11.894
 9092TIP3    H151471   4.323   0.725  11.808
 9092TIP3    H251472   4.273   0.599  11.874
 9093TIP3   OH251473   4.153   0.954  12.464
 9093TIP3    H151474   4.170   0.877  12.410
 9093TIP3    H251475   4.094   0.922  12.533
 9094TIP3   OH251476   4.219   0.423  11.849
 9094TIP3    H151477   4.261   0.384  11.925
 9094TIP3    H251478   4.125   0.412  11.864
 9095TIP3   OH251479   4.195   0.723  12.316
 9095TIP3    H151480   4.211   0.632  12.343
 9095TIP3    H251481   4.264   0.742  12.253
 9096TIP3   OH251482   4.227   0.449  12.377
 9096TIP3    H151483   4.236   0.396  12.456
 9096TIP3    H251484   4.163   0.402  12.324
 9097TIP3   OH251485   2.478   0.316  12.802
 9097TIP3    H151486   2.532   0.253  12.755
 9097TIP3    H251487   2.536   0.390  12.820
 9098TIP3   OH251488   4.400   0.330  12.045
 9098TIP3    H151489   4.461   0.289  11.984
 9098TIP3    H251490   4.446   0.407  12.078
 9099TIP3   OH251491   2.313   0.258  12.216
 9099TIP3    H151492   2.221   0.233  12.225
 9099TIP3    H251493   2.311   0.349  12.186
 9100TIP3   OH251494   4.201   0.093  12.790
 9100TIP3    H151495   4.110   0.101  12.760
 9100TIP3    H251496   4.194   0.075  12.884
 9101TIP3   OH251497   4.272   0.275  12.588
 9101TIP3    H151498   4.249   0.206  12.649
 9101TIP3    H251499   4.368   0.280  12.593
 9102TIP3   OH251500   2.468   0.129  12.418
 9102TIP3    H151501   2.418   0.178  12.353
 9102TIP3    H251502   2.469   0.039  12.385
 9103TIP3   OH251503   2.458   0.134  12.014
 9103TIP3    H151504   2.415   0.170  11.937
 9103TIP3    H251505   2.415   0.177  12.088
 9104TIP3   OH251506   3.720   0.214  12.607
 9104TIP3    H151507   3.651   0.201  12.542
 9104TIP3    H251508   3.673   0.243  12.686
 9105TIP3   OH251509   4.024   0.085  12.218
 9105TIP3    H151510   3.987   0.136  12.290
 9105TIP3    H251511   4.015   9.211  12.247
 9106TIP3   OH251512   2.440   1.906  12.161
 9106TIP3    H151513   2.350   1.934  12.144
 9106TIP3    H251514   2.491   1.986  12.157
 9107TIP3   OH251515   2.725   0.194  11.946
 9107TIP3    H151516   2.747   0.131  11.877
 9107TIP3    H251517   2.642   0.162  11.982
 9108TIP3   OH251518   3.554   2.063  11.964
 9108TIP3    H151519   3.649   2.068  11.954
 9108TIP3    H251520   3.526   2.004  11.894
 9109TIP3   OH251521   2.661   2.167  11.899
 9109TIP3    H151522   2.632   2.154  11.989
 9109TIP3    H251523   2.704   2.085  11.876
 9110TIP3   OH251524   4.586   0.839  12.349
 9110TIP3    H151525   4.540   0.916  12.382
 9110TIP3    H251526   4.533   0.808  12.276
 9111TIP3   OH251527   4.540   1.156  12.652
 9111TIP3    H151528   4.553   1.123  12.741
 9111TIP3    H251529   4.597   1.232  12.645
 9112TIP3   OH251530   6.189   0.532  12.382
 9112TIP3    H151531   6.185   0.530  12.478
 9112TIP3    H251532   6.279   0.557  12.362
 9113TIP3   OH251533   4.837   0.671  12.708
 9113TIP3    H151534   4.874   0.588  12.739
 9113TIP3    H251535   4.824   0.658  12.614
 9114TIP3   OH251536   5.200   0.816  12.742
 9114TIP3    H151537   5.282   0.856  12.714
 9114TIP3    H251538   5.165   0.774  12.664
 9115TIP3   OH251539   6.202   0.545  12.654
 9115TIP3    H151540   6.197   0.498  12.737
 9115TIP3    H251541   6.226   0.634  12.679
 9116TIP3   OH251542   4.682   1.334  12.244
 9116TIP3    H151543   4.697   1.401  12.178
 9116TIP3    H251544   4.709   1.375  12.327
 9117TIP3   OH251545   5.568   0.074  12.738
 9117TIP3    H151546   5.583   9.200  12.765
 9117TIP3    H251547   5.510   0.068  12.661
 9118TIP3   OH251548   5.816   1.051  12.147
 9118TIP3    H151549   5.736   1.100  12.166
 9118TIP3    H251550   5.887   1.111  12.171
 9119TIP3   OH251551   5.867   0.960  11.888
 9119TIP3    H151552   5.844   0.982  11.979
 9119TIP3    H251553   5.940   0.899  11.896
 9120TIP3   OH251554   5.081   1.084  12.512
 9120TIP3    H151555   5.096   1.060  12.421
 9120TIP3    H251556   5.118   1.172  12.520
 9121TIP3   OH251557   6.637   0.017  12.139
 9121TIP3    H151558   6.556   0.036  12.186
 9121TIP3    H251559   6.654   0.096  12.088
 9122TIP3   OH251560   5.120   1.031  12.242
 9122TIP3    H151561   5.038   1.039  12.194
 9122TIP3    H251562   5.141   0.938  12.238
 9123TIP3   OH251563   6.723   1.650  11.987
 9123TIP3    H151564   6.702   1.655  11.894
 9123TIP3    H251565   6.812   1.614  11.990
 9124TIP3   OH251566   4.883   2.048  12.459
 9124TIP3    H151567   4.973   2.023  12.480
 9124TIP3    H251568   4.861   2.115  12.524
 9125TIP3   OH251569   6.075   2.098  12.050
 9125TIP3    H151570   6.142   2.044  12.008
 9125TIP3    H251571   6.098   2.097  12.143
 9126TIP3   OH251572   6.130   1.954  12.431
 9126TIP3    H151573   6.070   1.882  12.450
 9126TIP3    H251574   6.215   1.922  12.460
 9127TIP3   OH251575   5.732   0.392  12.035
 9127TIP3    H151576   5.690   0.405  12.120
 9127TIP3    H251577   5.659   0.392  11.973
 9128TIP3   OH251578   5.076   0.755  12.502
 9128TIP3    H151579   4.993   0.724  12.466
 9128TIP3    H251580   5.136   0.754  12.428
 9129TIP3   OH251581   5.757   0.790  12.240
 9129TIP3    H151582   5.783   0.878  12.211
 9129TIP3    H251583   5.837   0.738  12.233
 9130TIP3   OH251584   5.270   0.451  11.983
 9130TIP3    H151585   5.294   0.411  12.067
 9130TIP3    H251586   5.263   0.545  12.003
 9131TIP3   OH251587   4.551   0.309  12.598
 9131TIP3    H151588   4.644   0.285  12.597
 9131TIP3    H251589   4.540   0.365  12.521
 9132TIP3   OH251590   4.551   0.557  12.116
 9132TIP3    H151591   4.623   0.580  12.058
 9132TIP3    H251592   4.496   0.635  12.119
 9133TIP3   OH251593   5.407   0.285  12.844
 9133TIP3    H151594   5.337   0.265  12.782
 9133TIP3    H251595   5.477   0.223  12.821
 9134TIP3   OH251596   4.807   0.689  12.431
 9134TIP3    H151597   4.735   0.749  12.409
 9134TIP3    H251598   4.796   0.616  12.371
 9135TIP3   OH251599   5.249   0.768  12.284
 9135TIP3    H151600   5.338   0.747  12.310
 9135TIP3    H251601   5.244   0.743  12.192
 9136TIP3   OH251602   6.164   0.402  12.894
 9136TIP3    H151603   6.125   0.466  12.953
 9136TIP3    H251604   6.096   0.336  12.881
 9137TIP3   OH251605   5.252   0.732  12.010
 9137TIP3    H151606   5.203   0.731  11.928
 9137TIP3    H251607   5.321   0.797  11.995
 9138TIP3   OH251608   5.602   1.212  12.215
 9138TIP3    H151609   5.519   1.192  12.173
 9138TIP3    H251610   5.578   1.256  12.296
 9139TIP3   OH251611   5.999   0.407  12.088
 9139TIP3    H151612   5.908   0.388  12.066
 9139TIP3    H251613   5.995   0.492  12.132
 9140TIP3   OH251614   6.008   0.658  12.215
 9140TIP3    H151615   6.065   0.620  12.282
 9140TIP3    H251616   6.067   0.706  12.157
 9141TIP3   OH251617   4.741   1.354  12.666
 9141TIP3    H151618   4.784   1.440  12.657
 9141TIP3    H251619   4.746   1.335  12.759
 9142TIP3   OH251620   5.913   1.428  12.174
 9142TIP3    H151621   5.962   1.453  12.252
 9142TIP3    H251622   5.827   1.402  12.206
 9143TIP3   OH251623   6.605   0.683  12.117
 9143TIP3    H151624   6.561   0.677  12.032
 9143TIP3    H251625   6.659   0.763  12.110
 9144TIP3   OH251626   6.636   1.754  12.226
 9144TIP3    H151627   6.622   1.849  12.225
 9144TIP3    H251628   6.665   1.732  12.138
 9145TIP3   OH251629   6.267   0.813  12.710
 9145TIP3    H151630   6.228   0.892  12.673
 9145TIP3    H251631   6.223   0.801  12.794
 9146TIP3   OH251632   4.722   0.964  11.960
 9146TIP3    H151633   4.777   1.018  12.017
 9146TIP3    H251634   4.632   0.986  11.987
 9147TIP3   OH251635   5.630   1.617  11.796
 9147TIP3    H151636   5.565   1.548  11.802
 9147TIP3    H251637   5.711   1.578  11.830
 9148TIP3   OH251638   4.867   1.151  12.124
 9148TIP3    H151639   4.796   1.190  12.175
 9148TIP3    H251640   4.921   1.225  12.097
 9149TIP3   OH251641   6.180   0.276  12.257
 9149TIP3    H151642   6.110   0.301  12.197
 9149TIP3    H251643   6.194   0.353  12.312
 9150TIP3   OH251644   5.522   0.704  12.349
 9150TIP3    H151645   5.596   0.742  12.303
 9150TIP3    H251646   5.557   0.683  12.436
 9151TIP3   OH251647   5.729   0.449  12.540
 9151TIP3    H151648   5.729   0.386  12.611
 9151TIP3    H251649   5.820   0.479  12.534
 9152TIP3   OH251650   5.362   0.337  12.211
 9152TIP3    H151651   5.329   0.309  12.295
 9152TIP3    H251652   5.454   0.361  12.228
 9153TIP3   OH251653   5.005   1.399  12.079
 9153TIP3    H151654   5.038   1.445  12.156
 9153TIP3    H251655   5.082   1.382  12.026
 9154TIP3   OH251656   4.735   0.674  11.944
 9154TIP3    H151657   4.741   0.769  11.944
 9154TIP3    H251658   4.803   0.646  11.883
 9155TIP3   OH251659   5.756   1.870  11.787
 9155TIP3    H151660   5.694   1.798  11.797
 9155TIP3    H251661   5.836   1.829  11.755
 9156TIP3   OH251662   6.269   1.975  11.896
 9156TIP3    H151663   6.251   1.913  11.826
 9156TIP3    H251664   6.292   2.056  11.851
 9157TIP3   OH251665   5.251   1.357  11.970
 9157TIP3    H151666   5.293   1.285  12.016
 9157TIP3    H251667   5.315   1.384  11.904
 9158TIP3   OH251668   5.865   1.491  11.899
 9158TIP3    H151669   5.886   1.481  11.992
 9158TIP3    H251670   5.871   1.402  11.864
 9159TIP3   OH251671   5.351   1.138  12.114
 9159TIP3    H151672   5.275   1.106  12.163
 9159TIP3    H251673   5.380   1.063  12.063
 9160TIP3   OH251674   5.450   0.924  11.967
 9160TIP3    H151675   5.459   0.949  11.875
 9160TIP3    H251676   5.534   0.884  11.990
 9161TIP3   OH251677   4.751   1.511  12.045
 9161TIP3    H151678   4.842   1.480  12.045
 9161TIP3    H251679   4.728   1.519  11.952
 9162TIP3   OH251680   6.707   0.912  12.370
 9162TIP3    H151681   6.624   0.884  12.409
 9162TIP3    H251682   6.768   0.915  12.444
 9163TIP3   OH251683   6.770   0.925  12.103
 9163TIP3    H151684   6.703   0.985  12.070
 9163TIP3    H251685   6.758   0.924  12.198
 9164TIP3   OH251686   6.491   0.655  11.871
 9164TIP3    H151687   6.484   0.682  11.779
 9164TIP3    H251688   6.480   0.560  11.869
 9165TIP3   OH251689   6.476   0.815  12.498
 9165TIP3    H151690   6.462   0.734  12.449
 9165TIP3    H251691   6.420   0.806  12.575
 9166TIP3   OH251692   6.466   0.380  11.868
 9166TIP3    H151693   6.514   0.325  11.930
 9166TIP3    H251694   6.374   0.357  11.881
 9167TIP3   OH251695   6.452   0.594  12.327
 9167TIP3    H151696   6.475   0.501  12.327
 9167TIP3    H251697   6.502   0.632  12.255
 9168TIP3   OH251698   6.519   0.330  12.311
 9168TIP3    H151699   6.571   0.304  12.387
 9168TIP3    H251700   6.478   0.249  12.281
 9169TIP3   OH251701   4.603   0.659  12.865
 9169TIP3    H151702   4.682   0.657  12.811
 9169TIP3    H251703   4.568   0.747  12.853
 9170TIP3   OH251704   6.682   0.251  12.003
 9170TIP3    H151705   6.745   0.222  11.936
 9170TIP3    H251706   6.724   0.325  12.045
 9171TIP3   OH251707   4.508   0.454  12.371
 9171TIP3    H151708   4.413   0.458  12.366
 9171TIP3    H251709   4.538   0.485  12.285
 9172TIP3   OH251710   5.764   0.270  12.758
 9172TIP3    H151711   5.703   0.197  12.746
 9172TIP3    H251712   5.848   0.228  12.777
 9173TIP3   OH251713   6.382   0.228  12.872
 9173TIP3    H151714   6.317   0.299  12.876
 9173TIP3    H251715   6.330   0.148  12.883
 9174TIP3   OH251716   6.681   0.276  12.529
 9174TIP3    H151717   6.622   0.247  12.598
 9174TIP3    H251718   6.753   0.319  12.576
 9175TIP3   OH251719   6.026   0.165  12.810
 9175TIP3    H151720   6.059   0.169  12.720
 9175TIP3    H251721   6.089   0.110  12.856
 9176TIP3   OH251722   6.383   0.088  12.232
 9176TIP3    H151723   6.309   0.148  12.240
 9176TIP3    H251724   6.344   0.004  12.206
 9177TIP3   OH251725   5.068   0.325  11.843
 9177TIP3    H151726   5.104   0.238  11.827
 9177TIP3    H251727   5.136   0.371  11.891
 9178TIP3   OH251728   5.609   0.443  12.281
 9178TIP3    H151729   5.649   0.426  12.366
 9178TIP3    H251730   5.571   0.530  12.290
 9179TIP3   OH251731   5.804   2.035  12.013
 9179TIP3    H151732   5.896   2.057  12.026
 9179TIP3    H251733   5.802   1.985  11.932
 9180TIP3   OH251734   5.053   2.142  11.832
 9180TIP3    H151735   5.016   2.076  11.890
 9180TIP3    H251736   5.085   2.092  11.757
 9181TIP3   OH251737   8.278   1.199  12.428
 9181TIP3    H151738   8.237   1.283  12.406
 9181TIP3    H251739   8.222   1.133  12.387
 9182TIP3   OH251740   7.927   1.157  13.001
 9182TIP3    H151741   7.922   1.120  12.913
 9182TIP3    H251742   7.866   1.105  13.053
 9183TIP3   OH251743   6.978   0.714  12.368
 9183TIP3    H151744   6.945   0.785  12.422
 9183TIP3    H251745   6.907   0.696  12.307
 9184TIP3   OH251746   6.900   0.895  12.572
 9184TIP3    H151747   6.923   0.817  12.622
 9184TIP3    H251748   6.940   0.967  12.620
 9185TIP3   OH251749   8.450   2.151  12.755
 9185TIP3    H151750   8.365   2.111  12.739
 9185TIP3    H251751   8.453   2.164  12.850
 9186TIP3   OH251752   7.831   1.480  12.960
 9186TIP3    H151753   7.777   1.408  12.994
 9186TIP3    H251754   7.919   1.460  12.992
 9187TIP3   OH251755   7.477   0.463  12.642
 9187TIP3    H151756   7.484   0.551  12.606
 9187TIP3    H251757   7.401   0.424  12.598
 9188TIP3   OH251758   8.433   0.479  12.467
 9188TIP3    H151759   8.495   0.464  12.538
 9188TIP3    H251760   8.481   0.532  12.404
 9189TIP3   OH251761   7.051   0.720  12.727
 9189TIP3    H151762   7.043   0.644  12.784
 9189TIP3    H251763   7.112   0.692  12.659
 9190TIP3   OH251764   7.488   0.981  12.565
 9190TIP3    H151765   7.453   0.991  12.653
 9190TIP3    H251766   7.483   0.887  12.548
 9191TIP3   OH251767   8.154   1.430  12.340
 9191TIP3    H151768   8.107   1.440  12.257
 9191TIP3    H251769   8.164   1.519  12.372
 9192TIP3   OH251770   6.927   1.414  12.238
 9192TIP3    H151771   6.930   1.464  12.156
 9192TIP3    H251772   6.885   1.473  12.300
 9193TIP3   OH251773   8.414   1.896  12.414
 9193TIP3    H151774   8.442   1.812  12.378
 9193TIP3    H251775   8.482   1.920  12.477
 9194TIP3   OH251776   8.547   1.652  12.351
 9194TIP3    H151777   8.550   1.573  12.296
 9194TIP3    H251778   8.558   1.619  12.440
 9195TIP3   OH251779   8.171   1.003  12.255
 9195TIP3    H151780   8.119   1.018  12.176
 9195TIP3    H251781   8.261   1.000  12.224
 9196TIP3   OH251782   8.178   0.977  11.967
 9196TIP3    H151783   8.260   0.961  12.013
 9196TIP3    H251784   8.177   0.911  11.897
 9197TIP3   OH251785   8.522   1.139  12.317
 9197TIP3    H151786   8.448   1.159  12.373
 9197TIP3    H251787   8.587   1.101  12.376
 9198TIP3   OH251788   7.526   1.196  12.395
 9198TIP3    H151789   7.472   1.168  12.321
 9198TIP3    H251790   7.519   1.126  12.459
 9199TIP3   OH251791   7.719   1.701  12.833
 9199TIP3    H151792   7.691   1.673  12.746
 9199TIP3    H251793   7.752   1.621  12.874
 9200TIP3   OH251794   8.416   0.974  12.117
 9200TIP3    H151795   8.467   1.021  12.183
 9200TIP3    H251796   8.466   0.984  12.036
 9201TIP3   OH251797   8.236   2.046  12.586
 9201TIP3    H151798   8.286   1.983  12.534
 9201TIP3    H251799   8.187   2.097  12.522
 9202TIP3   OH251800   8.700   0.127  12.285
 9202TIP3    H151801   8.607   0.106  12.270
 9202TIP3    H251802   8.730   0.161  12.201
 9203TIP3   OH251803   7.374   1.114  12.174
 9203TIP3    H151804   7.289   1.157  12.169
 9203TIP3    H251805   7.354   1.021  12.158
 9204TIP3   OH251806   8.837   1.805  12.002
 9204TIP3    H151807   8.823   1.899  11.987
 9204TIP3    H251808   8.932   1.795  12.007
 9205TIP3   OH251809   8.117   2.175  12.360
 9205TIP3    H151810   8.037   2.149  12.313
 9205TIP3    H251811   8.109   2.270  12.369
 9206TIP3   OH251812   7.385   2.043  12.588
 9206TIP3    H151813   7.433   2.076  12.664
 9206TIP3    H251814   7.302   2.091  12.589
 9207TIP3   OH251815   8.332   2.037  11.990
 9207TIP3    H151816   8.383   1.957  11.978
 9207TIP3    H251817   8.356   2.067  12.078
 9208TIP3   OH251818   8.369   2.122  12.257
 9208TIP3    H151819   8.281   2.143  12.288
 9208TIP3    H251820   8.394   2.044  12.307
 9209TIP3   OH251821   8.529   1.021  11.868
 9209TIP3    H151822   8.534   1.054  11.779
 9209TIP3    H251823   8.611   0.973  11.881
 9210TIP3   OH251824   8.010   0.441  11.946
 9210TIP3    H151825   7.958   0.442  12.027
 9210TIP3    H251826   7.950   0.407  11.879
 9211TIP3   OH251827   7.454   0.710  12.504
 9211TIP3    H151828   7.360   0.692  12.505
 9211TIP3    H251829   7.480   0.699  12.413
 9212TIP3   OH251830   8.154   0.742  12.355
 9212TIP3    H151831   8.140   0.835  12.341
 9212TIP3    H251832   8.224   0.719  12.294
 9213TIP3   OH251833   8.220   0.611  12.591
 9213TIP3    H151834   8.202   0.672  12.519
 9213TIP3    H251835   8.293   0.557  12.560
 9214TIP3   OH251836   7.537   0.355  11.887
 9214TIP3    H151837   7.553   0.372  11.980
 9214TIP3    H251838   7.512   0.441  11.851
 9215TIP3   OH251839   6.905   0.369  12.656
 9215TIP3    H151840   6.955   0.413  12.724
 9215TIP3    H251841   6.970   0.317  12.608
 9216TIP3   OH251842   6.796   0.478  12.123
 9216TIP3    H151843   6.856   0.538  12.079
 9216TIP3    H251844   6.716   0.530  12.135
 9217TIP3   OH251845   7.195   0.624  12.507
 9217TIP3    H151846   7.122   0.649  12.450
 9217TIP3    H251847   7.206   0.530  12.492
 9218TIP3   OH251848   7.561   0.699  12.246
 9218TIP3    H151849   7.637   0.749  12.272
 9218TIP3    H251850   7.537   0.734  12.160
 9219TIP3   OH251851   7.529   0.801  11.994
 9219TIP3    H151852   7.511   0.737  11.925
 9219TIP3    H251853   7.576   0.871  11.950
 9220TIP3   OH251854   7.966   0.570  12.682
 9220TIP3    H151855   8.060   0.576  12.666
 9220TIP3    H251856   7.946   0.647  12.735
 9221TIP3   OH251857   7.268   0.357  12.474
 9221TIP3    H151858   7.194   0.296  12.482
 9221TIP3    H251859   7.319   0.322  12.401
 9222TIP3   OH251860   7.733   1.447  12.133
 9222TIP3    H151861   7.688   1.372  12.095
 9222TIP3    H251862   7.712   1.444  12.226
 9223TIP3   OH251863   8.255   0.459  12.096
 9223TIP3    H151864   8.171   0.467  12.051
 9223TIP3    H251865   8.281   0.549  12.114
 9224TIP3   OH251866   8.362   0.705  12.177
 9224TIP3    H151867   8.444   0.669  12.213
 9224TIP3    H251868   8.385   0.794  12.150
 9225TIP3   OH251869   8.013   1.500  12.110
 9225TIP3    H151870   8.008   1.595  12.118
 9225TIP3    H251871   7.921   1.471  12.108
 9226TIP3   OH251872   9.053   0.919  12.241
 9226TIP3    H151873   8.973   0.871  12.218
 9226TIP3    H251874   9.038   1.007  12.206
 9227TIP3   OH251875   8.725   1.849  12.260
 9227TIP3    H151876   8.663   1.782  12.288
 9227TIP3    H251877   8.753   1.821  12.173
 9228TIP3   OH251878   7.649   1.663  12.569
 9228TIP3    H151879   7.635   1.747  12.525
 9228TIP3    H251880   7.642   1.598  12.499
 9229TIP3   OH251881   6.989   1.079  11.976
 9229TIP3    H151882   7.039   1.128  12.041
 9229TIP3    H251883   6.929   1.025  12.029
 9230TIP3   OH251884   7.668   1.429  12.402
 9230TIP3    H151885   7.735   1.406  12.467
 9230TIP3    H251886   7.610   1.354  12.401
 9231TIP3   OH251887   7.613   1.929  12.475
 9231TIP3    H151888   7.523   1.954  12.497
 9231TIP3    H251889   7.667   1.993  12.523
 9232TIP3   OH251890   8.516   1.545  11.998
 9232TIP3    H151891   8.540   1.494  12.075
 9232TIP3    H251892   8.424   1.522  11.982
 9233TIP3   OH251893   8.838   2.084  11.986
 9233TIP3    H151894   8.915   2.134  11.959
 9233TIP3    H251895   8.804   2.130  12.062
 9234TIP3   OH251896   8.591   1.402  12.229
 9234TIP3    H151897   8.548   1.318  12.242
 9234TIP3    H251898   8.681   1.388  12.258
 9235TIP3   OH251899   7.767   1.680  11.779
 9235TIP3    H151900   7.727   1.597  11.756
 9235TIP3    H251901   7.736   1.698  11.868
 9236TIP3   OH251902   7.677   1.704  12.035
 9236TIP3    H151903   7.696   1.619  12.074
 9236TIP3    H251904   7.695   1.767  12.104
 9237TIP3   OH251905   7.132   1.255  12.141
 9237TIP3    H151906   7.062   1.291  12.195
 9237TIP3    H251907   7.175   1.331  12.102
 9238TIP3   OH251908   8.311   0.287  12.302
 9238TIP3    H151909   8.293   0.346  12.228
 9238TIP3    H251910   8.352   0.344  12.368
 9239TIP3   OH251911   7.983   1.769  12.141
 9239TIP3    H151912   7.903   1.801  12.183
 9239TIP3    H251913   8.020   1.846  12.098
 9240TIP3   OH251914   7.975   0.531  12.404
 9240TIP3    H151915   8.033   0.605  12.386
 9240TIP3    H251916   7.955   0.540  12.498
 9241TIP3   OH251917   8.035   0.257  12.345
 9241TIP3    H151918   8.020   0.344  12.383
 9241TIP3    H251919   8.130   0.251  12.335
 9242TIP3   OH251920   7.749   1.888  12.236
 9242TIP3    H151921   7.790   1.974  12.226
 9242TIP3    H251922   7.697   1.895  12.316
 9243TIP3   OH251923   7.588   0.438  12.143
 9243TIP3    H151924   7.569   0.521  12.185
 9243TIP3    H251925   7.681   0.424  12.156
 9244TIP3   OH251926   8.747   0.753  12.634
 9244TIP3    H151927   8.710   0.669  12.608
 9244TIP3    H251928   8.750   0.749  12.729
 9245TIP3   OH251929   7.244   1.494  12.039
 9245TIP3    H151930   7.295   1.550  12.098
 9245TIP3    H251931   7.307   1.465  11.973
 9246TIP3   OH251932   6.902   0.698  11.989
 9246TIP3    H151933   6.862   0.782  12.012
 9246TIP3    H251934   6.866   0.678  11.902
 9247TIP3   OH251935   7.132   0.083  12.734
 9247TIP3    H151936   7.123   0.153  12.670
 9247TIP3    H251937   7.084   0.009  12.696
 9248TIP3   OH251938   6.797   1.607  12.389
 9248TIP3    H151939   6.735   1.655  12.335
 9248TIP3    H251940   6.827   1.672  12.454
 9249TIP3   OH251941   7.983   1.857  11.771
 9249TIP3    H151942   7.911   1.794  11.783
 9249TIP3    H251943   8.062   1.805  11.782
 9250TIP3   OH251944   8.465   1.807  11.908
 9250TIP3    H151945   8.496   1.725  11.946
 9250TIP3    H251946   8.529   1.826  11.838
 9251TIP3   OH251947   7.435   1.397  11.868
 9251TIP3    H151948   7.485   1.338  11.924
 9251TIP3    H251949   7.499   1.432  11.807
 9252TIP3   OH251950   8.244   1.485  11.947
 9252TIP3    H151951   8.167   1.483  12.005
 9252TIP3    H251952   8.263   1.392  11.930
 9253TIP3   OH251953   7.583   1.227  12.028
 9253TIP3    H151954   7.518   1.187  12.086
 9253TIP3    H251955   7.621   1.153  11.980
 9254TIP3   OH251956   7.693   1.007  11.887
 9254TIP3    H151957   7.702   1.010  11.792
 9254TIP3    H251958   7.782   0.996  11.920
 9255TIP3   OH251959   8.898   1.310  11.905
 9255TIP3    H151960   8.867   1.259  11.830
 9255TIP3    H251961   8.855   1.395  11.896
 9256TIP3   OH251962   7.899   2.121  12.185
 9256TIP3    H151963   7.955   2.080  12.120
 9256TIP3    H251964   7.865   2.200  12.142
 9257TIP3   OH251965   6.973   1.529  11.984
 9257TIP3    H151966   7.066   1.536  12.004
 9257TIP3    H251967   6.968   1.455  11.923
 9258TIP3   OH251968   8.833   1.313  12.330
 9258TIP3    H151969   8.867   1.257  12.260
 9258TIP3    H251970   8.865   1.272  12.411
 9259TIP3   OH251971   8.955   1.110  12.598
 9259TIP3    H151972   8.871   1.082  12.560
 9259TIP3    H251973   9.018   1.045  12.567
 9260TIP3   OH251974   8.918   1.140  12.131
 9260TIP3    H151975   8.909   1.191  12.051
 9260TIP3    H251976   8.854   1.069  12.122
 9261TIP3   OH251977   8.759   0.852  11.858
 9261TIP3    H151978   8.765   0.844  11.953
 9261TIP3    H251979   8.719   0.770  11.829
 9262TIP3   OH251980   8.743   0.982  12.463
 9262TIP3    H151981   8.746   0.949  12.373
 9262TIP3    H251982   8.734   0.904  12.517
 9263TIP3   OH251983   7.046   0.997  12.799
 9263TIP3    H151984   7.058   0.902  12.788
 9263TIP3    H251985   7.093   1.018  12.880
 9264TIP3   OH251986   8.683   0.415  11.848
 9264TIP3    H151987   8.680   0.503  11.811
 9264TIP3    H251988   8.591   0.391  11.860
 9265TIP3   OH251989   8.597   0.616  12.291
 9265TIP3    H151990   8.662   0.548  12.308
 9265TIP3    H251991   8.647   0.690  12.256
 9266TIP3   OH251992   8.729   0.728  12.922
 9266TIP3    H151993   8.657   0.785  12.948
 9266TIP3    H251994   8.722   0.652  12.979
 9267TIP3   OH251995   8.743   0.398  12.385
 9267TIP3    H151996   8.747   0.396  12.481
 9267TIP3    H251997   8.720   0.308  12.360
 9268TIP3   OH251998   8.792   0.241  12.047
 9268TIP3    H151999   8.854   0.193  11.993
 9268TIP3    H252000   8.755   0.308  11.989
 9269TIP3   OH252001   6.864   0.289  12.311
 9269TIP3    H152002   6.791   0.280  12.372
 9269TIP3    H252003   6.838   0.360  12.252
 9270TIP3   OH252004   8.602   1.989  12.589
 9270TIP3    H152005   8.661   2.037  12.532
 9270TIP3    H252006   8.557   2.056  12.640
 9271TIP3   OH252007   8.636   0.178  12.724
 9271TIP3    H152008   8.705   0.157  12.661
 9271TIP3    H252009   8.568   0.112  12.708
 9272TIP3   OH252010   8.835   0.155  12.537
 9272TIP3    H152011   8.808   0.125  12.450
 9272TIP3    H252012   8.927   0.180  12.527
 9273TIP3   OH252013   7.048   0.187  12.488
 9273TIP3    H152014   6.989   0.221  12.420
 9273TIP3    H252015   7.023   0.095  12.498
 9274TIP3   OH252016   7.017   0.161  12.116
 9274TIP3    H152017   7.070   0.229  12.076
 9274TIP3    H252018   6.965   0.207  12.183
 9275TIP3   OH252019   7.768   9.122  12.524
 9275TIP3    H152020   7.766   0.001  12.526
 9275TIP3    H252021   7.708   9.095  12.594
 9276TIP3   OH252022   8.443   9.205  12.665
 9276TIP3    H152023   8.357   9.214  12.624
 9276TIP3    H252024   8.448   9.113  12.690
 9277TIP3   OH252025   8.435   0.050  12.224
 9277TIP3    H152026   8.433   0.057  12.128
 9277TIP3    H252027   8.385   0.126  12.255
 9278TIP3   OH252028   7.193   0.345  11.994
 9278TIP3    H152029   7.239   0.283  11.938
 9278TIP3    H252030   7.262   0.393  12.040
 9279TIP3   OH252031   7.863   0.412  12.184
 9279TIP3    H152032   7.901   0.328  12.211
 9279TIP3    H252033   7.887   0.473  12.254
 9280TIP3   OH252034   8.057   2.001  11.999
 9280TIP3    H152035   8.150   2.019  11.990
 9280TIP3    H252036   8.031   1.968  11.913
 9281TIP3   OH252037   8.780   2.082  12.396
 9281TIP3    H152038   8.765   1.997  12.353
 9281TIP3    H252039   8.779   2.145  12.324
 9282TIP3   OH252040   9.094   0.881  12.507
 9282TIP3    H152041   9.085   0.895  12.412
 9282TIP3    H252042   9.021   0.823  12.529
 9283TIP3   OH252043   9.090   0.252  12.477
 9283TIP3    H152044   9.184   0.268  12.489
 9283TIP3    H252045   9.072   0.286  12.390
 9284TIP3   OH252046   8.903   2.186  12.620
 9284TIP3    H152047   8.862   2.152  12.540
 9284TIP3    H252048   8.969   2.121  12.643
 9285TIP3   OH252049   9.088   1.984  12.666
 9285TIP3    H152050   9.069   1.896  12.635
 9285TIP3    H252051   9.176   1.978  12.704
 9286TIP3   OH252052   8.952   0.911  12.928
 9286TIP3    H152053   8.883   0.844  12.924
 9286TIP3    H252054   9.033   0.861  12.942
 9287TIP3   OH252055   8.978   0.353  12.239
 9287TIP3    H152056   8.911   0.396  12.292
 9287TIP3    H252057   8.930   0.314  12.166
 9288TIP3   OH252058   1.628   3.489  12.543
 9288TIP3    H152059   1.635   3.576  12.584
 9288TIP3    H252060   1.568   3.501  12.470
 9289TIP3   OH252061   1.456   3.429  12.861
 9289TIP3    H152062   1.464   3.409  12.954
 9289TIP3    H252063   1.422   3.518  12.858
 9290TIP3   OH252064   1.604   3.719  12.691
 9290TIP3    H152065   1.509   3.729  12.698
 9290TIP3    H252066   1.636   3.727  12.781
 9291TIP3   OH252067   0.050   3.013  12.405
 9291TIP3    H152068   0.095   3.059  12.475
 9291TIP3    H252069   9.183   3.059  12.396
 9292TIP3   OH252070   0.316   3.341  12.636
 9292TIP3    H152071   0.299   3.248  12.619
 9292TIP3    H252072   0.340   3.377  12.550
 9293TIP3   OH252073   1.392   4.355  12.661
 9293TIP3    H152074   1.482   4.323  12.656
 9293TIP3    H252075   1.366   4.340  12.752
 9294TIP3   OH252076   1.114   3.669  12.832
 9294TIP3    H152077   1.113   3.574  12.843
 9294TIP3    H252078   1.204   3.695  12.852
 9295TIP3   OH252079   1.614   2.455  12.471
 9295TIP3    H152080   1.609   2.417  12.559
 9295TIP3    H252081   1.663   2.537  12.483
 9296TIP3   OH252082   0.253   3.075  12.596
 9296TIP3    H152083   0.241   3.026  12.678
 9296TIP3    H252084   0.304   3.016  12.541
 9297TIP3   OH252085   0.675   3.163  12.756
 9297TIP3    H152086   0.701   3.096  12.820
 9297TIP3    H252087   0.661   3.115  12.675
 9298TIP3   OH252088   1.415   3.935  12.412
 9298TIP3    H152089   1.368   3.897  12.338
 9298TIP3    H252090   1.379   4.024  12.420
 9299TIP3   OH252091   0.224   3.755  12.072
 9299TIP3    H152092   0.268   3.798  11.999
 9299TIP3    H252093   0.131   3.758  12.050
 9300TIP3   OH252094   0.906   2.376  12.760
 9300TIP3    H152095   0.931   2.315  12.829
 9300TIP3    H252096   0.819   2.405  12.784
 9301TIP3   OH252097   1.642   4.247  12.648
 9301TIP3    H152098   1.650   4.156  12.619
 9301TIP3    H252099   1.731   4.281  12.647
 9302TIP3   OH252100   1.629   3.978  12.581
 9302TIP3    H152101   1.560   3.968  12.516
 9302TIP3    H252102   1.647   3.890  12.612
 9303TIP3   OH252103   1.452   3.476  12.325
 9303TIP3    H152104   1.399   3.549  12.293
 9303TIP3    H252105   1.490   3.437  12.246
 9304TIP3   OH252106   1.348   3.274  11.968
 9304TIP3    H152107   1.418   3.282  12.033
 9304TIP3    H252108   1.352   3.182  11.940
 9305TIP3   OH252109   1.786   3.405  12.315
 9305TIP3    H152110   1.752   3.437  12.398
 9305TIP3    H252111   1.826   3.320  12.337
 9306TIP3   OH252112   0.841   3.692  12.750
 9306TIP3    H152113   0.824   3.773  12.702
 9306TIP3    H252114   0.932   3.698  12.778
 9307TIP3   OH252115   1.600   3.337  12.121
 9307TIP3    H152116   1.669   3.363  12.182
 9307TIP3    H252117   1.632   3.366  12.035
 9308TIP3   OH252118   1.329   4.198  12.433
 9308TIP3    H152119   1.340   4.254  12.510
 9308TIP3    H252120   1.294   4.256  12.365
 9309TIP3   OH252121   1.954   2.182  12.167
 9309TIP3    H152122   1.877   2.202  12.220
 9309TIP3    H252123   1.943   2.234  12.088
 9310TIP3   OH252124   0.419   3.429  12.388
 9310TIP3    H152125   0.413   3.486  12.312
 9310TIP3    H252126   0.493   3.372  12.370
 9311TIP3   OH252127   2.188   4.007  12.012
 9311TIP3    H152128   2.204   4.076  11.948
 9311TIP3    H252129   2.269   3.955  12.012
 9312TIP3   OH252130   0.125   3.968  12.803
 9312TIP3    H152131   0.043   4.012  12.780
 9312TIP3    H252132   0.098   3.898  12.862
 9313TIP3   OH252133   1.296   4.436  12.235
 9313TIP3    H152134   1.250   4.423  12.152
 9313TIP3    H252135   1.278   4.527  12.258
 9314TIP3   OH252136   0.496   4.317  12.639
 9314TIP3    H152137   0.468   4.387  12.698
 9314TIP3    H252138   0.426   4.310  12.574
 9315TIP3   OH252139   1.526   4.321  11.965
 9315TIP3    H152140   1.577   4.241  11.951
 9315TIP3    H252141   1.552   4.350  12.052
 9316TIP3   OH252142   1.569   4.411  12.228
 9316TIP3    H152143   1.474   4.420  12.236
 9316TIP3    H252144   1.595   4.360  12.305
 9317TIP3   OH252145   0.659   2.433  12.859
 9317TIP3    H152146   0.587   2.371  12.847
 9317TIP3    H252147   0.616   2.517  12.875
 9318TIP3   OH252148   1.704   3.438  11.881
 9318TIP3    H152149   1.721   3.403  11.793
 9318TIP3    H252150   1.780   3.494  11.899
 9319TIP3   OH252151   1.099   2.615  11.998
 9319TIP3    H152152   1.036   2.592  12.066
 9319TIP3    H252153   1.066   2.571  11.919
 9320TIP3   OH252154   0.637   3.009  12.513
 9320TIP3    H152155   0.546   2.988  12.492
 9320TIP3    H252156   0.685   2.929  12.492
 9321TIP3   OH252157   1.450   3.250  12.499
 9321TIP3    H152158   1.422   3.321  12.441
 9321TIP3    H252159   1.492   3.187  12.441
 9322TIP3   OH252160   0.730   2.577  11.823
 9322TIP3    H152161   0.716   2.595  11.916
 9322TIP3    H252162   0.669   2.635  11.777
 9323TIP3   OH252163   0.194   2.610  12.549
 9323TIP3    H152164   0.288   2.628  12.553
 9323TIP3    H252165   0.177   2.599  12.455
 9324TIP3   OH252166   0.181   2.845  12.241
 9324TIP3    H152167   0.185   2.892  12.157
 9324TIP3    H252168   0.130   2.903  12.298
 9325TIP3   OH252169   1.063   2.700  12.465
 9325TIP3    H152170   0.975   2.729  12.441
 9325TIP3    H252171   1.057   2.680  12.559
 9326TIP3   OH252172   0.387   2.894  12.434
 9326TIP3    H152173   0.326   2.880  12.361
 9326TIP3    H252174   0.422   2.807  12.453
 9327TIP3   OH252175   0.811   3.058  12.290
 9327TIP3    H152176   0.816   2.963  12.291
 9327TIP3    H252177   0.758   3.080  12.367
 9328TIP3   OH252178   1.627   2.372  12.733
 9328TIP3    H152179   1.653   2.370  12.825
 9328TIP3    H252180   1.612   2.280  12.710
 9329TIP3   OH252181   0.885   3.215  12.077
 9329TIP3    H152182   0.809   3.184  12.027
 9329TIP3    H252183   0.880   3.168  12.160
 9330TIP3   OH252184   0.490   2.640  12.477
 9330TIP3    H152185   0.507   2.546  12.491
 9330TIP3    H252186   0.574   2.675  12.449
 9331TIP3   OH252187   1.012   3.716  12.182
 9331TIP3    H152188   0.988   3.635  12.137
 9331TIP3    H252189   0.977   3.706  12.271
 9332TIP3   OH252190   1.312   2.772  12.050
 9332TIP3    H152191   1.235   2.719  12.028
 9332TIP3    H252192   1.319   2.766  12.146
 9333TIP3   OH252193   1.603   3.124  12.312
 9333TIP3    H152194   1.695   3.125  12.339
 9333TIP3    H252195   1.602   3.175  12.231
 9334TIP3   OH252196   1.259   3.854  12.187
 9334TIP3    H152197   1.228   3.944  12.176
 9334TIP3    H252198   1.179   3.802  12.186
 9335TIP3   OH252199   2.051   4.148  12.224
 9335TIP3    H152200   1.978   4.087  12.239
 9335TIP3    H252201   2.106   4.105  12.159
 9336TIP3   OH252202   0.758   3.901  12.577
 9336TIP3    H152203   0.765   3.996  12.588
 9336TIP3    H252204   0.674   3.888  12.534
 9337TIP3   OH252205   0.299   3.367  11.997
 9337TIP3    H152206   0.349   3.432  12.047
 9337TIP3    H252207   0.262   3.309  12.064
 9338TIP3   OH252208   0.903   3.703  12.436
 9338TIP3    H152209   0.865   3.782  12.474
 9338TIP3    H252210   0.906   3.640  12.509
 9339TIP3   OH252211   0.728   4.175  12.595
 9339TIP3    H152212   0.648   4.227  12.603
 9339TIP3    H252213   0.791   4.234  12.553
 9340TIP3   OH252214   1.742   3.855  12.018
 9340TIP3    H152215   1.773   3.784  12.075
 9340TIP3    H252216   1.647   3.842  12.014
 9341TIP3   OH252217   2.203   4.483  12.081
 9341TIP3    H152218   2.262   4.558  12.088
 9341TIP3    H252219   2.121   4.514  12.119
 9342TIP3   OH252220   1.835   3.627  12.147
 9342TIP3    H152221   1.825   3.554  12.208
 9342TIP3    H252222   1.890   3.592  12.076
 9343TIP3   OH252223   1.026   3.898  11.809
 9343TIP3    H152224   0.999   3.820  11.761
 9343TIP3    H252225   0.967   3.902  11.884
 9344TIP3   OH252226   0.855   3.891  12.035
 9344TIP3    H152227   0.911   3.836  12.090
 9344TIP3    H252228   0.873   3.980  12.064
 9345TIP3   OH252229   0.420   3.576  12.143
 9345TIP3    H152230   0.345   3.635  12.136
 9345TIP3    H252231   0.494   3.626  12.110
 9346TIP3   OH252232   1.361   2.470  12.348
 9346TIP3    H152233   1.356   2.564  12.333
 9346TIP3    H252234   1.447   2.457  12.389
 9347TIP3   OH252235   1.153   4.105  12.145
 9347TIP3    H152236   1.059   4.124  12.143
 9347TIP3    H252237   1.193   4.175  12.093
 9348TIP3   OH252238   1.301   2.747  12.329
 9348TIP3    H152239   1.333   2.826  12.373
 9348TIP3    H252240   1.215   2.733  12.368
 9349TIP3   OH252241   1.090   2.433  12.390
 9349TIP3    H152242   1.082   2.523  12.420
 9349TIP3    H252243   1.184   2.423  12.372
 9350TIP3   OH252244   0.887   4.167  12.081
 9350TIP3    H152245   0.923   4.240  12.030
 9350TIP3    H252246   0.794   4.165  12.056
 9351TIP3   OH252247   0.678   2.625  12.092
 9351TIP3    H152248   0.672   2.688  12.164
 9351TIP3    H252249   0.755   2.572  12.113
 9352TIP3   OH252250   0.608   3.746  12.001
 9352TIP3    H152251   0.677   3.808  12.024
 9352TIP3    H252252   0.651   3.682  11.944
 9353TIP3   OH252253   0.173   2.993  12.007
 9353TIP3    H152254   0.230   2.992  11.930
 9353TIP3    H252255   0.092   3.033  11.976
 9354TIP3   OH252256   1.830   4.232  12.927
 9354TIP3    H152257   1.843   4.260  12.836
 9354TIP3    H252258   1.903   4.271  12.974
 9355TIP3   OH252259   0.452   2.257  12.818
 9355TIP3    H152260   0.434   2.264  12.724
 9355TIP3    H252261   0.421   2.170  12.843
 9356TIP3   OH252262   0.286   4.285  12.458
 9356TIP3    H152263   0.260   4.202  12.419
 9356TIP3    H252264   0.259   4.351  12.393
 9357TIP3   OH252265   1.203   4.101  11.753
 9357TIP3    H152266   1.143   4.034  11.785
 9357TIP3    H252267   1.289   4.060  11.757
 9358TIP3   OH252268   1.679   4.101  11.896
 9358TIP3    H152269   1.713   4.024  11.943
 9358TIP3    H252270   1.749   4.125  11.835
 9359TIP3   OH252271   0.750   3.576  11.841
 9359TIP3    H152272   0.810   3.544  11.908
 9359TIP3    H252273   0.807   3.616  11.775
 9360TIP3   OH252274   1.464   3.806  12.003
 9360TIP3    H152275   1.398   3.823  12.070
 9360TIP3    H252276   1.452   3.714  11.980
 9361TIP3   OH252277   0.939   3.487  12.028
 9361TIP3    H152278   0.909   3.407  12.071
 9361TIP3    H252279   1.003   3.458  11.964
 9362TIP3   OH252280   1.073   3.289  11.875
 9362TIP3    H152281   1.165   3.286  11.901
 9362TIP3    H252282   1.026   3.245  11.946
 9363TIP3   OH252283   1.960   3.571  11.900
 9363TIP3    H152284   1.991   3.531  11.819
 9363TIP3    H252285   1.970   3.665  11.886
 9364TIP3   OH252286   0.950   4.369  11.901
 9364TIP3    H152287   1.045   4.373  11.897
 9364TIP3    H252288   0.921   4.456  11.873
 9365TIP3   OH252289   0.384   3.817  11.850
 9365TIP3    H152290   0.463   3.802  11.901
 9365TIP3    H252291   0.356   3.730  11.824
 9366TIP3   OH252292   0.114   4.555  12.574
 9366TIP3    H152293   0.035   4.502  12.561
 9366TIP3    H252294   0.119   4.568  12.669
 9367TIP3   OH252295   0.189   4.272  12.724
 9367TIP3    H152296   0.209   4.292  12.632
 9367TIP3    H252297   0.094   4.260  12.725
 9368TIP3   OH252298   2.214   3.612  12.242
 9368TIP3    H152299   2.282   3.677  12.261
 9368TIP3    H252300   2.151   3.623  12.314
 9369TIP3   OH252301   2.230   3.522  11.988
 9369TIP3    H152302   2.139   3.520  11.958
 9369TIP3    H252303   2.225   3.551  12.079
 9370TIP3   OH252304   0.089   2.591  12.291
 9370TIP3    H152305   9.210   2.593  12.295
 9370TIP3    H252306   0.115   2.680  12.267
 9371TIP3   OH252307   1.903   4.348  12.663
 9371TIP3    H152308   1.952   4.352  12.580
 9371TIP3    H252309   1.943   4.416  12.717
 9372TIP3   OH252310   0.529   4.125  12.835
 9372TIP3    H152311   0.512   4.189  12.767
 9372TIP3    H252312   0.618   4.093  12.816
 9373TIP3   OH252313   1.093   2.578  12.717
 9373TIP3    H152314   1.019   2.519  12.732
 9373TIP3    H252315   1.167   2.519  12.702
 9374TIP3   OH252316   2.211   2.552  12.491
 9374TIP3    H152317   2.272   2.482  12.518
 9374TIP3    H252318   2.216   2.616  12.561
 9375TIP3   OH252319   0.392   2.220  12.553
 9375TIP3    H152320   0.303   2.192  12.536
 9375TIP3    H252321   0.447   2.147  12.524
 9376TIP3   OH252322   0.254   2.413  12.156
 9376TIP3    H152323   0.312   2.477  12.113
 9376TIP3    H252324   0.193   2.467  12.207
 9377TIP3   OH252325   0.907   2.255  12.503
 9377TIP3    H152326   0.971   2.308  12.456
 9377TIP3    H252327   0.899   2.297  12.588
 9378TIP3   OH252328   1.734   2.250  12.314
 9378TIP3    H152329   1.692   2.321  12.362
 9378TIP3    H252330   1.710   2.171  12.363
 9379TIP3   OH252331   0.187   4.440  12.250
 9379TIP3    H152332   0.094   4.453  12.269
 9379TIP3    H252333   0.212   4.516  12.199
 9380TIP3   OH252334   0.430   2.561  11.988
 9380TIP3    H152335   0.460   2.485  11.938
 9380TIP3    H252336   0.507   2.591  12.036
 9381TIP3   OH252337   0.919   2.539  12.196
 9381TIP3    H152338   0.970   2.483  12.254
 9381TIP3    H252339   0.882   2.605  12.254
 9382TIP3   OH252340   1.244   4.297  11.958
 9382TIP3    H152341   1.338   4.315  11.956
 9382TIP3    H252342   1.230   4.235  11.886
 9383TIP3   OH252343   2.049   4.367  12.399
 9383TIP3    H152344   2.046   4.293  12.338
 9383TIP3    H252345   2.023   4.443  12.346
 9384TIP3   OH252346   0.493   4.384  11.961
 9384TIP3    H152347   0.486   4.372  12.056
 9384TIP3    H252348   0.560   4.322  11.934
 9385TIP3   OH252349   3.683   3.444  12.389
 9385TIP3    H152350   3.674   3.538  12.370
 9385TIP3    H252351   3.635   3.432  12.470
 9386TIP3   OH252352   2.318   2.998  12.572
 9386TIP3    H152353   2.361   3.064  12.626
 9386TIP3    H252354   2.235   3.038  12.545
 9387TIP3   OH252355   3.610   4.045  12.755
 9387TIP3    H152356   3.676   4.111  12.778
 9387TIP3    H252357   3.575   4.016  12.840
 9388TIP3   OH252358   3.920   2.742  12.444
 9388TIP3    H152359   3.957   2.658  12.472
 9388TIP3    H252360   3.991   2.784  12.395
 9389TIP3   OH252361   2.528   3.140  12.713
 9389TIP3    H152362   2.580   3.180  12.782
 9389TIP3    H252363   2.584   3.072  12.676
 9390TIP3   OH252364   2.879   3.232  12.639
 9390TIP3    H152365   2.958   3.188  12.671
 9390TIP3    H252366   2.843   3.171  12.574
 9391TIP3   OH252367   3.657   3.716  12.353
 9391TIP3    H152368   3.604   3.732  12.275
 9391TIP3    H252369   3.636   3.788  12.412
 9392TIP3   OH252370   2.417   3.798  12.257
 9392TIP3    H152371   2.412   3.824  12.165
 9392TIP3    H252372   2.416   3.881  12.306
 9393TIP3   OH252373   3.903   4.113  12.705
 9393TIP3    H152374   3.908   4.173  12.630
 9393TIP3    H252375   3.962   4.152  12.770
 9394TIP3   OH252376   3.914   3.738  12.456
 9394TIP3    H152377   3.834   3.726  12.404
 9394TIP3    H252378   3.985   3.710  12.398
 9395TIP3   OH252379   3.649   3.257  12.179
 9395TIP3    H152380   3.639   3.326  12.243
 9395TIP3    H252381   3.742   3.257  12.156
 9396TIP3   OH252382   3.628   3.187  11.902
 9396TIP3    H152383   3.622   3.200  11.997
 9396TIP3    H252384   3.712   3.142  11.890
 9397TIP3   OH252385   3.957   3.396  12.350
 9397TIP3    H152386   3.865   3.411  12.372
 9397TIP3    H252387   3.990   3.340  12.421
 9398TIP3   OH252388   2.880   3.496  12.510
 9398TIP3    H152389   2.859   3.471  12.420
 9398TIP3    H252390   2.884   3.413  12.557
 9399TIP3   OH252391   3.251   3.955  12.929
 9399TIP3    H152392   3.280   3.864  12.921
 9399TIP3    H252393   3.324   4.000  12.971
 9400TIP3   OH252394   2.737   3.259  12.884
 9400TIP3    H152395   2.792   3.248  12.806
 9400TIP3    H252396   2.784   3.212  12.953
 9401TIP3   OH252397   3.914   3.254  12.119
 9401TIP3    H152398   3.949   3.309  12.188
 9401TIP3    H252399   3.948   3.293  12.038
 9402TIP3   OH252400   3.599   3.940  12.497
 9402TIP3    H152401   3.582   3.985  12.580
 9402TIP3    H252402   3.550   3.991  12.432
 9403TIP3   OH252403   2.795   3.416  12.247
 9403TIP3    H152404   2.731   3.482  12.222
 9403TIP3    H252405   2.745   3.335  12.255
 9404TIP3   OH252406   4.402   3.922  12.071
 9404TIP3    H152407   4.429   3.951  12.158
 9404TIP3    H252408   4.482   3.892  12.029
 9405TIP3   OH252409   3.292   4.521  12.419
 9405TIP3    H152410   3.300   4.484  12.331
 9405TIP3    H252411   3.338   4.605  12.414
 9406TIP3   OH252412   2.734   4.305  12.549
 9406TIP3    H152413   2.743   4.240  12.619
 9406TIP3    H252414   2.660   4.274  12.496
 9407TIP3   OH252415   3.982   3.343  11.861
 9407TIP3    H152416   3.982   3.354  11.766
 9407TIP3    H252417   4.066   3.379  11.889
 9408TIP3   OH252418   3.454   2.653  12.007
 9408TIP3    H152419   3.426   2.679  12.095
 9408TIP3    H252420   3.403   2.574  11.988
 9409TIP3   OH252421   2.799   3.038  12.457
 9409TIP3    H152422   2.718   2.988  12.467
 9409TIP3    H252423   2.845   2.996  12.385
 9410TIP3   OH252424   3.647   3.011  12.309
 9410TIP3    H152425   3.626   3.096  12.271
 9410TIP3    H252426   3.722   2.979  12.259
 9411TIP3   OH252427   3.780   2.956  12.553
 9411TIP3    H152428   3.735   2.988  12.475
 9411TIP3    H252429   3.827   2.879  12.524
 9412TIP3   OH252430   3.141   2.706  11.868
 9412TIP3    H152431   3.116   2.707  11.961
 9412TIP3    H252432   3.070   2.752  11.824
 9413TIP3   OH252433   2.238   2.752  12.684
 9413TIP3    H152434   2.194   2.775  12.766
 9413TIP3    H252435   2.273   2.835  12.651
 9414TIP3   OH252436   3.356   2.756  12.694
 9414TIP3    H152437   3.358   2.795  12.606
 9414TIP3    H252438   3.419   2.684  12.689
 9415TIP3   OH252439   2.565   2.891  12.488
 9415TIP3    H152440   2.480   2.923  12.516
 9415TIP3    H252441   2.553   2.798  12.472
 9416TIP3   OH252442   2.966   2.945  12.243
 9416TIP3    H152443   3.040   3.000  12.272
 9416TIP3    H252444   2.951   2.972  12.152
 9417TIP3   OH252445   2.967   3.027  11.982
 9417TIP3    H152446   2.955   2.970  11.906
 9417TIP3    H252447   3.006   3.107  11.947
 9418TIP3   OH252448   2.533   2.620  12.410
 9418TIP3    H152449   2.501   2.538  12.450
 9418TIP3    H252450   2.609   2.593  12.358
 9419TIP3   OH252451   3.207   3.730  12.202
 9419TIP3    H152452   3.164   3.660  12.153
 9419TIP3    H252453   3.159   3.734  12.284
 9420TIP3   OH252454   3.859   2.703  12.015
 9420TIP3    H152455   3.797   2.776  12.010
 9420TIP3    H252456   3.945   2.746  12.012
 9421TIP3   OH252457   3.873   2.984  12.161
 9421TIP3    H152458   3.953   2.942  12.128
 9421TIP3    H252459   3.887   3.077  12.147
 9422TIP3   OH252460   3.486   3.804  12.156
 9422TIP3    H152461   3.479   3.894  12.188
 9422TIP3    H252462   3.397   3.770  12.163
 9423TIP3   OH252463   4.395   3.036  12.053
 9423TIP3    H152464   4.315   2.984  12.051
 9423TIP3    H252465   4.380   3.102  12.120
 9424TIP3   OH252466   4.146   4.042  12.035
 9424TIP3    H152467   4.094   3.965  12.059
 9424TIP3    H252468   4.237   4.013  12.044
 9425TIP3   OH252469   3.993   3.267  12.967
 9425TIP3    H152470   3.954   3.233  13.047
 9425TIP3    H252471   3.971   3.202  12.900
 9426TIP3   OH252472   2.973   3.967  12.556
 9426TIP3    H152473   3.015   3.983  12.641
 9426TIP3    H252474   2.989   4.048  12.507
 9427TIP3   OH252475   2.473   3.392  12.016
 9427TIP3    H152476   2.523   3.455  12.067
 9427TIP3    H252477   2.385   3.428  12.011
 9428TIP3   OH252478   3.032   3.727  12.416
 9428TIP3    H152479   3.010   3.805  12.466
 9428TIP3    H252480   2.984   3.656  12.459
 9429TIP3   OH252481   3.006   4.238  12.482
 9429TIP3    H152482   2.918   4.275  12.487
 9429TIP3    H252483   3.060   4.295  12.536
 9430TIP3   OH252484   4.002   3.807  12.071
 9430TIP3    H152485   4.020   3.745  12.141
 9430TIP3    H252486   3.910   3.793  12.050
 9431TIP3   OH252487   4.510   4.486  12.094
 9431TIP3    H152488   4.594   4.508  12.136
 9431TIP3    H252489   4.513   4.530  12.009
 9432TIP3   OH252490   4.086   3.624  12.263
 9432TIP3    H152491   4.049   3.540  12.290
 9432TIP3    H252492   4.179   3.607  12.251
 9433TIP3   OH252493   3.243   3.962  11.813
 9433TIP3    H152494   3.200   3.878  11.796
 9433TIP3    H252495   3.229   3.977  11.907
 9434TIP3   OH252496   3.199   3.980  12.081
 9434TIP3    H152497   3.198   3.898  12.129
 9434TIP3    H252498   3.191   4.048  12.148
 9435TIP3   OH252499   2.599   3.598  12.165
 9435TIP3    H152500   2.536   3.646  12.219
 9435TIP3    H252501   2.640   3.666  12.111
 9436TIP3   OH252502   3.729   2.651  12.262
 9436TIP3    H152503   3.773   2.653  12.178
 9436TIP3    H252504   3.791   2.692  12.323
 9437TIP3   OH252505   3.458   4.061  12.273
 9437TIP3    H152506   3.369   4.087  12.294
 9437TIP3    H252507   3.487   4.123  12.207
 9438TIP3   OH252508   3.456   2.886  12.462
 9438TIP3    H152509   3.511   2.919  12.391
 9438TIP3    H252510   3.503   2.911  12.542
 9439TIP3   OH252511   3.504   2.548  12.373
 9439TIP3    H152512   3.521   2.563  12.466
 9439TIP3    H252513   3.582   2.580  12.328
 9440TIP3   OH252514   3.200   4.172  12.285
 9440TIP3    H152515   3.223   4.258  12.250
 9440TIP3    H252516   3.132   4.190  12.351
 9441TIP3   OH252517   3.066   2.702  12.133
 9441TIP3    H152518   3.020   2.773  12.178
 9441TIP3    H252519   3.150   2.695  12.179
 9442TIP3   OH252520   3.948   3.074  12.749
 9442TIP3    H152521   3.878   3.037  12.695
 9442TIP3    H252522   3.965   3.008  12.816
 9443TIP3   OH252523   2.702   3.812  12.013
 9443TIP3    H152524   2.760   3.878  12.051
 9443TIP3    H252525   2.758   3.762  11.953
 9444TIP3   OH252526   2.395   2.956  11.993
 9444TIP3    H152527   2.487   2.946  12.019
 9444TIP3    H252528   2.395   3.032  11.935
 9445TIP3   OH252529   2.403   4.058  12.350
 9445TIP3    H152530   2.367   4.111  12.421
 9445TIP3    H252531   2.403   4.116  12.274
 9446TIP3   OH252532   3.484   4.110  11.818
 9446TIP3    H152533   3.410   4.048  11.815
 9446TIP3    H252534   3.561   4.055  11.807
 9447TIP3   OH252535   3.970   4.116  11.835
 9447TIP3    H152536   4.027   4.092  11.909
 9447TIP3    H252537   4.030   4.126  11.761
 9448TIP3   OH252538   2.871   3.656  11.863
 9448TIP3    H152539   2.906   3.590  11.923
 9448TIP3    H252540   2.948   3.692  11.820
 9449TIP3   OH252541   3.728   3.759  11.998
 9449TIP3    H152542   3.647   3.771  12.046
 9449TIP3    H252543   3.729   3.667  11.974
 9450TIP3   OH252544   2.978   3.467  12.031
 9450TIP3    H152545   2.929   3.441  12.109
 9450TIP3    H252546   3.008   3.385  11.993
 9451TIP3   OH252547   3.104   3.249  11.883
 9451TIP3    H152548   3.115   3.246  11.788
 9451TIP3    H252549   3.194   3.251  11.917
 9452TIP3   OH252550   4.227   3.459  11.891
 9452TIP3    H152551   4.259   3.449  11.802
 9452TIP3    H252552   4.229   3.553  11.908
 9453TIP3   OH252553   3.306   4.402  12.165
 9453TIP3    H152554   3.378   4.350  12.130
 9453TIP3    H252555   3.279   4.458  12.092
 9454TIP3   OH252556   2.429   3.857  11.984
 9454TIP3    H152557   2.525   3.856  11.993
 9454TIP3    H252558   2.411   3.788  11.920
 9455TIP3   OH252559   2.313   4.305  12.474
 9455TIP3    H152560   2.221   4.329  12.467
 9455TIP3    H252561   2.342   4.344  12.556
 9456TIP3   OH252562   2.410   4.407  12.719
 9456TIP3    H152563   2.345   4.435  12.783
 9456TIP3    H252564   2.465   4.344  12.767
 9457TIP3   OH252565   4.361   3.545  12.258
 9457TIP3    H152566   4.434   3.603  12.281
 9457TIP3    H252567   4.345   3.494  12.337
 9458TIP3   OH252568   4.280   3.397  12.482
 9458TIP3    H152569   4.207   3.336  12.489
 9458TIP3    H252570   4.307   3.414  12.572
 9459TIP3   OH252571   4.473   3.455  12.015
 9459TIP3    H152572   4.390   3.436  11.972
 9459TIP3    H252573   4.448   3.492  12.100
 9460TIP3   OH252574   4.337   2.988  11.788
 9460TIP3    H152575   4.385   3.017  11.865
 9460TIP3    H252576   4.259   2.944  11.822
 9461TIP3   OH252577   4.065   3.215  12.534
 9461TIP3    H152578   4.073   3.131  12.488
 9461TIP3    H252579   4.030   3.191  12.620
 9462TIP3   OH252580   4.189   2.601  11.876
 9462TIP3    H152581   4.175   2.692  11.903
 9462TIP3    H252582   4.107   2.575  11.834
 9463TIP3   OH252583   4.138   2.824  12.305
 9463TIP3    H152584   4.209   2.762  12.324
 9463TIP3    H252585   4.145   2.839  12.211
 9464TIP3   OH252586   4.240   2.372  12.464
 9464TIP3    H152587   4.312   2.310  12.449
 9464TIP3    H252588   4.168   2.318  12.495
 9465TIP3   OH252589   4.356   2.557  12.109
 9465TIP3    H152590   4.411   2.503  12.052
 9465TIP3    H252591   4.284   2.585  12.052
 9466TIP3   OH252592   2.583   4.241  12.861
 9466TIP3    H152593   2.545   4.191  12.934
 9466TIP3    H252594   2.646   4.181  12.822
 9467TIP3   OH252595   2.778   4.089  12.726
 9467TIP3    H152596   2.804   4.031  12.654
 9467TIP3    H252597   2.857   4.099  12.778
 9468TIP3   OH252598   3.047   4.083  12.801
 9468TIP3    H152599   3.109   4.031  12.851
 9468TIP3    H252600   3.090   4.169  12.792
 9469TIP3   OH252601   3.561   2.563  12.651
 9469TIP3    H152602   3.584   2.472  12.635
 9469TIP3    H252603   3.641   2.602  12.687
 9470TIP3   OH252604   2.470   2.359  12.511
 9470TIP3    H152605   2.434   2.278  12.475
 9470TIP3    H252606   2.505   2.335  12.597
 9471TIP3   OH252607   2.566   2.155  12.174
 9471TIP3    H152608   2.491   2.189  12.222
 9471TIP3    H252609   2.637   2.154  12.238
 9472TIP3   OH252610   3.236   2.197  12.502
 9472TIP3    H152611   3.317   2.213  12.453
 9472TIP3    H252612   3.221   2.278  12.551
 9473TIP3   OH252613   3.637   2.308  12.578
 9473TIP3    H152614   3.721   2.266  12.559
 9473TIP3    H252615   3.580   2.280  12.506
 9474TIP3   OH252616   3.869   2.174  12.497
 9474TIP3    H152617   3.862   2.128  12.414
 9474TIP3    H252618   3.960   2.159  12.525
 9475TIP3   OH252619   2.368   4.294  12.201
 9475TIP3    H152620   2.298   4.342  12.158
 9475TIP3    H252621   2.353   4.307  12.295
 9476TIP3   OH252622   2.845   2.602  11.959
 9476TIP3    H152623   2.862   2.515  11.924
 9476TIP3    H252624   2.916   2.616  12.022
 9477TIP3   OH252625   3.322   2.718  12.259
 9477TIP3    H152626   3.371   2.643  12.295
 9477TIP3    H252627   3.346   2.791  12.315
 9478TIP3   OH252628   3.510   4.243  12.060
 9478TIP3    H152629   3.594   4.285  12.044
 9478TIP3    H252630   3.490   4.198  11.978
 9479TIP3   OH252631   2.526   4.434  12.021
 9479TIP3    H152632   2.493   4.516  12.057
 9479TIP3    H252633   2.494   4.367  12.081
 9480TIP3   OH252634   6.043   3.470  12.499
 9480TIP3    H152635   6.019   3.563  12.493
 9480TIP3    H252636   5.982   3.426  12.439
 9481TIP3   OH252637   6.345   3.921  12.898
 9481TIP3    H152638   6.302   3.965  12.971
 9481TIP3    H252639   6.425   3.883  12.936
 9482TIP3   OH252640   5.070   3.720  13.073
 9482TIP3    H152641   5.002   3.778  13.040
 9482TIP3    H252642   5.150   3.772  13.068
 9483TIP3   OH252643   4.920   3.335  12.722
 9483TIP3    H152644   4.970   3.279  12.782
 9483TIP3    H252645   4.971   3.333  12.641
 9484TIP3   OH252646   6.071   4.262  12.820
 9484TIP3    H152647   6.098   4.220  12.738
 9484TIP3    H252648   6.023   4.194  12.866
 9485TIP3   OH252649   6.241   2.821  12.484
 9485TIP3    H152650   6.248   2.785  12.572
 9485TIP3    H252651   6.329   2.853  12.464
 9486TIP3   OH252652   5.208   3.146  12.605
 9486TIP3    H152653   5.285   3.091  12.617
 9486TIP3    H252654   5.135   3.084  12.599
 9487TIP3   OH252655   5.947   3.723  12.443
 9487TIP3    H152656   5.856   3.714  12.416
 9487TIP3    H252657   5.963   3.817  12.442
 9488TIP3   OH252658   6.261   2.758  12.751
 9488TIP3    H152659   6.250   2.691  12.818
 9488TIP3    H252660   6.304   2.831  12.796
 9489TIP3   OH252661   4.583   3.721  12.256
 9489TIP3    H152662   4.594   3.738  12.163
 9489TIP3    H252663   4.574   3.807  12.296
 9490TIP3   OH252664   6.134   4.177  12.560
 9490TIP3    H152665   6.177   4.095  12.583
 9490TIP3    H252666   6.202   4.229  12.517
 9491TIP3   OH252667   6.252   3.948  12.642
 9491TIP3    H152668   6.222   3.859  12.624
 9491TIP3    H252669   6.293   3.942  12.728
 9492TIP3   OH252670   5.904   3.335  12.296
 9492TIP3    H152671   5.836   3.378  12.243
 9492TIP3    H252672   5.978   3.325  12.236
 9493TIP3   OH252673   5.882   3.245  11.995
 9493TIP3    H152674   5.968   3.242  12.036
 9493TIP3    H252675   5.869   3.157  11.958
 9494TIP3   OH252676   6.259   3.399  12.336
 9494TIP3    H152677   6.198   3.435  12.401
 9494TIP3    H252678   6.315   3.340  12.385
 9495TIP3   OH252679   5.099   3.368  12.492
 9495TIP3    H152680   5.157   3.440  12.518
 9495TIP3    H252681   5.143   3.289  12.525
 9496TIP3   OH252682   6.128   3.282  12.128
 9496TIP3    H152683   6.180   3.322  12.198
 9496TIP3    H252684   6.156   3.326  12.048
 9497TIP3   OH252685   5.952   4.002  12.422
 9497TIP3    H152686   6.006   4.064  12.470
 9497TIP3    H252687   5.892   4.057  12.372
 9498TIP3   OH252688   5.037   3.388  12.216
 9498TIP3    H152689   4.959   3.443  12.216
 9498TIP3    H252690   5.057   3.375  12.309
 9499TIP3   OH252691   6.742   3.964  12.015
 9499TIP3    H152692   6.761   4.041  11.962
 9499TIP3    H252693   6.813   3.903  11.993
 9500TIP3   OH252694   5.920   4.450  12.263
 9500TIP3    H152695   5.880   4.406  12.188
 9500TIP3    H252696   5.870   4.530  12.274
 9501TIP3   OH252697   4.981   4.385  12.656
 9501TIP3    H152698   5.052   4.388  12.720
 9501TIP3    H252699   4.926   4.312  12.684
 9502TIP3   OH252700   6.122   4.337  11.953
 9502TIP3    H152701   6.160   4.253  11.930
 9502TIP3    H252702   6.157   4.357  12.040
 9503TIP3   OH252703   6.185   4.398  12.217
 9503TIP3    H152704   6.093   4.411  12.243
 9503TIP3    H252705   6.227   4.367  12.297
 9504TIP3   OH252706   5.109   2.708  12.960
 9504TIP3    H152707   5.142   2.618  12.960
 9504TIP3    H252708   5.080   2.723  12.870
 9505TIP3   OH252709   6.202   3.432  11.913
 9505TIP3    H152710   6.226   3.429  11.820
 9505TIP3    H252711   6.271   3.485  11.954
 9506TIP3   OH252712   5.575   2.610  11.920
 9506TIP3    H152713   5.578   2.653  12.005
 9506TIP3    H252714   5.621   2.527  11.933
 9507TIP3   OH252715   5.885   3.068  12.380
 9507TIP3    H152716   5.877   3.162  12.369
 9507TIP3    H252717   5.953   3.043  12.317
 9508TIP3   OH252718   6.026   2.960  12.594
 9508TIP3    H152719   5.969   2.997  12.526
 9508TIP3    H252720   6.086   2.903  12.546
 9509TIP3   OH252721   4.387   2.723  12.629
 9509TIP3    H152722   4.483   2.720  12.626
 9509TIP3    H252723   4.360   2.695  12.541
 9510TIP3   OH252724   5.682   3.711  12.354
 9510TIP3    H152725   5.621   3.644  12.325
 9510TIP3    H252726   5.639   3.751  12.430
 9511TIP3   OH252727   6.010   2.800  12.092
 9511TIP3    H152728   6.016   2.733  12.161
 9511TIP3    H252729   6.046   2.879  12.132
 9512TIP3   OH252730   6.111   3.022  12.224
 9512TIP3    H152731   6.189   3.007  12.277
 9512TIP3    H252732   6.125   3.108  12.184
 9513TIP3   OH252733   5.780   3.878  12.154
 9513TIP3    H152734   5.798   3.960  12.200
 9513TIP3    H252735   5.751   3.818  12.222
 9514TIP3   OH252736   6.774   3.052  12.005
 9514TIP3    H152737   6.717   2.995  11.954
 9514TIP3    H252738   6.728   3.136  12.006
 9515TIP3   OH252739   6.658   4.108  12.241
 9515TIP3    H152740   6.592   4.054  12.285
 9515TIP3    H252741   6.680   4.061  12.161
 9516TIP3   OH252742   6.025   3.301  12.723
 9516TIP3    H152743   6.028   3.370  12.657
 9516TIP3    H252744   6.110   3.256  12.715
 9517TIP3   OH252745   5.397   4.041  12.551
 9517TIP3    H152746   5.406   4.126  12.507
 9517TIP3    H252747   5.369   4.064  12.640
 9518TIP3   OH252748   4.721   3.332  12.049
 9518TIP3    H152749   4.762   3.399  12.103
 9518TIP3    H252750   4.632   3.364  12.034
 9519TIP3   OH252751   5.527   3.798  12.558
 9519TIP3    H152752   5.480   3.880  12.546
 9519TIP3    H252753   5.536   3.788  12.653
 9520TIP3   OH252754   5.405   4.302  12.449
 9520TIP3    H152755   5.318   4.338  12.468
 9520TIP3    H252756   5.466   4.362  12.493
 9521TIP3   OH252757   6.271   3.811  12.001
 9521TIP3    H152758   6.294   3.732  12.049
 9521TIP3    H252759   6.175   3.809  11.997
 9522TIP3   OH252760   6.725   4.387  11.991
 9522TIP3    H152761   6.739   4.437  11.911
 9522TIP3    H252762   6.650   4.430  12.033
 9523TIP3   OH252763   6.358   3.558  12.118
 9523TIP3    H152764   6.316   3.521  12.196
 9523TIP3    H252765   6.450   3.538  12.129
 9524TIP3   OH252766   5.503   3.925  11.767
 9524TIP3    H152767   5.440   3.856  11.790
 9524TIP3    H252768   5.530   3.962  11.850
 9525TIP3   OH252769   5.600   4.032  12.001
 9525TIP3    H152770   5.656   3.973  12.052
 9525TIP3    H252771   5.564   4.092  12.066
 9526TIP3   OH252772   4.811   3.556  12.190
 9526TIP3    H152773   4.738   3.595  12.239
 9526TIP3    H252774   4.850   3.629  12.142
 9527TIP3   OH252775   6.063   2.663  12.336
 9527TIP3    H152776   6.081   2.578  12.374
 9527TIP3    H252777   6.125   2.722  12.378
 9528TIP3   OH252778   5.780   4.140  12.247
 9528TIP3    H152779   5.689   4.168  12.253
 9528TIP3    H252780   5.819   4.196  12.181
 9529TIP3   OH252781   5.657   2.905  12.368
 9529TIP3    H152782   5.728   2.970  12.374
 9529TIP3    H252783   5.700   2.822  12.389
 9530TIP3   OH252784   5.788   2.660  12.384
 9530TIP3    H152785   5.790   2.594  12.453
 9530TIP3    H252786   5.879   2.669  12.357
 9531TIP3   OH252787   5.516   4.225  12.197
 9531TIP3    H152788   5.486   4.294  12.139
 9531TIP3    H252789   5.475   4.244  12.281
 9532TIP3   OH252790   6.232   3.115  12.697
 9532TIP3    H152791   6.162   3.057  12.669
 9532TIP3    H252792   6.273   3.071  12.771
 9533TIP3   OH252793   4.913   3.775  12.048
 9533TIP3    H152794   4.968   3.843  12.088
 9533TIP3    H252795   4.968   3.735  11.982
 9534TIP3   OH252796   4.767   3.056  12.101
 9534TIP3    H152797   4.771   3.151  12.085
 9534TIP3    H252798   4.675   3.034  12.090
 9535TIP3   OH252799   6.269   4.457  12.902
 9535TIP3    H152800   6.287   4.498  12.818
 9535TIP3    H252801   6.220   4.378  12.881
 9536TIP3   OH252802   4.538   3.998  12.307
 9536TIP3    H152803   4.537   4.016  12.401
 9536TIP3    H252804   4.569   4.080  12.268
 9537TIP3   OH252805   5.764   4.161  11.812
 9537TIP3    H152806   5.702   4.110  11.863
 9537TIP3    H252807   5.836   4.101  11.793
 9538TIP3   OH252808   6.232   4.087  11.881
 9538TIP3    H152809   6.263   4.007  11.924
 9538TIP3    H252810   6.307   4.118  11.831
 9539TIP3   OH252811   5.074   3.651  11.866
 9539TIP3    H152812   5.086   3.560  11.892
 9539TIP3    H252813   5.159   3.678  11.832
 9540TIP3   OH252814   5.984   3.791  11.982
 9540TIP3    H152815   5.919   3.822  12.045
 9540TIP3    H252816   5.964   3.698  11.971
 9541TIP3   OH252817   5.107   3.390  11.946
 9541TIP3    H152818   5.093   3.380  12.040
 9541TIP3    H252819   5.198   3.363  11.932
 9542TIP3   OH252820   5.374   3.332  11.896
 9542TIP3    H152821   5.408   3.282  11.822
 9542TIP3    H252822   5.451   3.350  11.950
 9543TIP3   OH252823   6.604   3.531  11.837
 9543TIP3    H152824   6.559   3.513  11.755
 9543TIP3    H252825   6.575   3.619  11.861
 9544TIP3   OH252826   5.444   4.424  12.012
 9544TIP3    H152827   5.526   4.439  11.964
 9544TIP3    H252828   5.383   4.489  11.976
 9545TIP3   OH252829   4.641   3.799  11.997
 9545TIP3    H152830   4.735   3.806  12.010
 9545TIP3    H252831   4.631   3.738  11.924
 9546TIP3   OH252832   4.856   4.163  12.762
 9546TIP3    H152833   4.925   4.101  12.785
 9546TIP3    H252834   4.783   4.141  12.821
 9547TIP3   OH252835   6.613   3.469  12.202
 9547TIP3    H152836   6.677   3.540  12.206
 9547TIP3    H252837   6.629   3.418  12.281
 9548TIP3   OH252838   6.645   3.290  12.411
 9548TIP3    H152839   6.558   3.269  12.445
 9548TIP3    H252840   6.703   3.222  12.446
 9549TIP3   OH252841   6.675   3.314  11.981
 9549TIP3    H152842   6.643   3.386  11.926
 9549TIP3    H252843   6.659   3.344  12.071
 9550TIP3   OH252844   6.617   2.893  11.840
 9550TIP3    H152845   6.549   2.940  11.792
 9550TIP3    H252846   6.599   2.801  11.824
 9551TIP3   OH252847   6.386   3.194  12.482
 9551TIP3    H152848   6.420   3.106  12.464
 9551TIP3    H252849   6.334   3.185  12.561
 9552TIP3   OH252850   6.515   2.630  11.753
 9552TIP3    H152851   6.428   2.624  11.793
 9552TIP3    H252852   6.500   2.672  11.669
 9553TIP3   OH252853   6.498   2.941  12.446
 9553TIP3    H152854   6.557   2.925  12.520
 9553TIP3    H252855   6.556   2.947  12.370
 9554TIP3   OH252856   6.341   2.976  12.909
 9554TIP3    H152857   6.431   2.989  12.939
 9554TIP3    H252858   6.296   2.936  12.983
 9555TIP3   OH252859   4.315   2.620  12.376
 9555TIP3    H152860   4.285   2.536  12.409
 9555TIP3    H252861   4.343   2.602  12.286
 9556TIP3   OH252862   6.323   4.352  12.456
 9556TIP3    H152863   6.414   4.350  12.427
 9556TIP3    H252864   6.320   4.422  12.521
 9557TIP3   OH252865   5.314   4.175  12.999
 9557TIP3    H152866   5.371   4.106  12.966
 9557TIP3    H252867   5.349   4.196  13.086
 9558TIP3   OH252868   5.863   2.472  12.570
 9558TIP3    H152869   5.844   2.401  12.632
 9558TIP3    H252870   5.955   2.458  12.546
 9559TIP3   OH252871   5.358   2.308  12.361
 9559TIP3    H152872   5.335   2.362  12.437
 9559TIP3    H252873   5.363   2.219  12.396
 9560TIP3   OH252874   6.131   2.441  12.494
 9560TIP3    H152875   6.160   2.360  12.452
 9560TIP3    H252876   6.195   2.458  12.562
 9561TIP3   OH252877   6.235   2.206  12.400
 9561TIP3    H152878   6.185   2.125  12.411
 9561TIP3    H252879   6.326   2.181  12.419
 9562TIP3   OH252880   4.609   4.250  12.215
 9562TIP3    H152881   4.551   4.306  12.163
 9562TIP3    H252882   4.681   4.307  12.241
 9563TIP3   OH252883   5.601   2.708  12.175
 9563TIP3    H152884   5.659   2.661  12.234
 9563TIP3    H252885   5.593   2.796  12.213
 9564TIP3   OH252886   5.859   4.302  12.034
 9564TIP3    H152887   5.948   4.319  12.003
 9564TIP3    H252888   5.814   4.266  11.957
 9565TIP3   OH252889   6.575   4.357  12.337
 9565TIP3    H152890   6.604   4.276  12.296
 9565TIP3    H252891   6.565   4.419  12.264
 9566TIP3   OH252892   4.931   4.359  11.862
 9566TIP3    H152893   4.920   4.319  11.948
 9566TIP3    H252894   4.996   4.304  11.818
 9567TIP3   OH252895   8.263   3.486  12.439
 9567TIP3    H152896   8.224   3.573  12.435
 9567TIP3    H252897   8.221   3.437  12.369
 9568TIP3   OH252898   8.529   4.018  12.588
 9568TIP3    H152899   8.569   3.996  12.672
 9568TIP3    H252900   8.510   4.111  12.594
 9569TIP3   OH252901   7.238   3.780  13.045
 9569TIP3    H152902   7.184   3.807  13.120
 9569TIP3    H252903   7.327   3.775  13.080
 9570TIP3   OH252904   6.800   3.077  12.514
 9570TIP3    H152905   6.881   3.062  12.465
 9570TIP3    H252906   6.825   3.063  12.606
 9571TIP3   OH252907   8.492   2.707  12.548
 9571TIP3    H152908   8.525   2.651  12.619
 9571TIP3    H252909   8.495   2.796  12.585
 9572TIP3   OH252910   8.131   3.722  12.376
 9572TIP3    H152911   8.088   3.733  12.291
 9572TIP3    H252912   8.144   3.812  12.408
 9573TIP3   OH252913   8.587   2.550  12.759
 9573TIP3    H152914   8.579   2.522  12.850
 9573TIP3    H252915   8.671   2.513  12.730
 9574TIP3   OH252916   6.783   3.688  12.172
 9574TIP3    H152917   6.848   3.701  12.103
 9574TIP3    H252918   6.733   3.770  12.174
 9575TIP3   OH252919   8.644   3.901  12.361
 9575TIP3    H152920   8.618   3.810  12.348
 9575TIP3    H252921   8.596   3.930  12.439
 9576TIP3   OH252922   8.204   3.354  12.200
 9576TIP3    H152923   8.188   3.419  12.130
 9576TIP3    H252924   8.295   3.328  12.188
 9577TIP3   OH252925   8.267   3.164  11.933
 9577TIP3    H152926   8.339   3.194  11.987
 9577TIP3    H252927   8.205   3.124  11.994
 9578TIP3   OH252928   8.505   3.372  12.373
 9578TIP3    H152929   8.427   3.408  12.416
 9578TIP3    H252930   8.533   3.302  12.432
 9579TIP3   OH252931   7.639   3.517  12.603
 9579TIP3    H152932   7.582   3.496  12.676
 9579TIP3    H252933   7.702   3.444  12.600
 9580TIP3   OH252934   8.458   3.268  12.122
 9580TIP3    H152935   8.497   3.304  12.201
 9580TIP3    H252936   8.500   3.315  12.050
 9581TIP3   OH252937   8.145   3.998  12.402
 9581TIP3    H152938   8.228   4.044  12.417
 9581TIP3    H252939   8.109   4.039  12.323
 9582TIP3   OH252940   8.767   2.262  12.184
 9582TIP3    H152941   8.683   2.298  12.211
 9582TIP3    H252942   8.824   2.339  12.173
 9583TIP3   OH252943   8.819   4.037  11.971
 9583TIP3    H152944   8.845   4.129  11.970
 9583TIP3    H252945   8.896   3.990  12.002
 9584TIP3   OH252946   7.508   2.170  12.801
 9584TIP3    H152947   7.422   2.212  12.809
 9584TIP3    H252948   7.547   2.178  12.887
 9585TIP3   OH252949   8.526   3.419  11.901
 9585TIP3    H152950   8.540   3.389  11.811
 9585TIP3    H252951   8.604   3.469  11.923
 9586TIP3   OH252952   8.116   2.735  11.971
 9586TIP3    H152953   8.081   2.680  12.041
 9586TIP3    H252954   8.039   2.775  11.931
 9587TIP3   OH252955   8.141   3.082  12.188
 9587TIP3    H152956   8.141   3.174  12.210
 9587TIP3    H252957   8.228   3.051  12.214
 9588TIP3   OH252958   7.671   2.673  11.841
 9588TIP3    H152959   7.698   2.661  11.932
 9588TIP3    H252960   7.587   2.719  11.847
 9589TIP3   OH252961   7.009   2.988  12.137
 9589TIP3    H152962   6.921   3.006  12.104
 9589TIP3    H252963   7.001   2.995  12.232
 9590TIP3   OH252964   7.901   2.942  12.558
 9590TIP3    H152965   7.814   2.909  12.583
 9590TIP3    H252966   7.944   2.961  12.641
 9591TIP3   OH252967   7.989   2.976  12.816
 9591TIP3    H152968   8.000   3.055  12.868
 9591TIP3    H252969   8.027   2.906  12.870
 9592TIP3   OH252970   7.721   3.791  12.153
 9592TIP3    H152971   7.661   3.746  12.093
 9592TIP3    H252972   7.695   3.759  12.240
 9593TIP3   OH252973   8.344   2.756  12.137
 9593TIP3    H152974   8.262   2.760  12.088
 9593TIP3    H252975   8.360   2.846  12.165
 9594TIP3   OH252976   8.409   3.013  12.215
 9594TIP3    H152977   8.487   2.982  12.261
 9594TIP3    H252978   8.435   3.098  12.178
 9595TIP3   OH252979   7.496   3.449  12.826
 9595TIP3    H152980   7.473   3.482  12.913
 9595TIP3    H252981   7.486   3.354  12.833
 9596TIP3   OH252982   8.007   3.816  12.139
 9596TIP3    H152983   8.016   3.910  12.153
 9596TIP3    H252984   7.913   3.800  12.139
 9597TIP3   OH252985   8.841   3.058  12.154
 9597TIP3    H152986   8.851   3.009  12.072
 9597TIP3    H252987   8.821   3.147  12.125
 9598TIP3   OH252988   8.793   4.105  12.256
 9598TIP3    H152989   8.747   4.038  12.306
 9598TIP3    H252990   8.773   4.085  12.165
 9599TIP3   OH252991   7.608   3.684  12.384
 9599TIP3    H152992   7.512   3.684  12.385
 9599TIP3    H252993   7.632   3.626  12.456
 9600TIP3   OH252994   7.737   4.332  12.461
 9600TIP3    H152995   7.659   4.347  12.514
 9600TIP3    H252996   7.800   4.398  12.490
 9601TIP3   OH252997   8.527   3.752  12.042
 9601TIP3    H152998   8.547   3.715  12.128
 9601TIP3    H252999   8.432   3.759  12.040
 9602TIP3   OH253000   8.921   4.283  12.039
 9602TIP3    H153001   8.883   4.370  12.055
 9602TIP3    H253002   8.967   4.262  12.120
 9603TIP3   OH253003   8.604   3.623  12.283
 9603TIP3    H153004   8.553   3.549  12.316
 9603TIP3    H253005   8.695   3.593  12.287
 9604TIP3   OH253006   7.831   3.961  11.828
 9604TIP3    H153007   7.794   3.873  11.817
 9604TIP3    H253008   7.778   4.001  11.897
 9605TIP3   OH253009   7.688   4.050  12.047
 9605TIP3    H153010   7.699   3.970  12.099
 9605TIP3    H253011   7.723   4.119  12.103
 9606TIP3   OH253012   8.361   2.571  12.348
 9606TIP3    H153013   8.353   2.637  12.279
 9606TIP3    H253014   8.403   2.616  12.420
 9607TIP3   OH253015   8.026   4.097  12.166
 9607TIP3    H153016   7.949   4.149  12.186
 9607TIP3    H253017   8.043   4.113  12.073
 9608TIP3   OH253018   7.998   2.868  12.308
 9608TIP3    H153019   8.037   2.947  12.269
 9608TIP3    H253020   7.969   2.897  12.395
 9609TIP3   OH253021   8.111   2.453  12.390
 9609TIP3    H153022   8.092   2.446  12.484
 9609TIP3    H253023   8.199   2.489  12.386
 9610TIP3   OH253024   7.800   4.251  12.206
 9610TIP3    H153025   7.794   4.338  12.168
 9610TIP3    H253026   7.777   4.263  12.298
 9611TIP3   OH253027   7.742   2.650  12.105
 9611TIP3    H153028   7.700   2.663  12.190
 9611TIP3    H253029   7.834   2.632  12.126
 9612TIP3   OH253030   7.216   3.731  11.887
 9612TIP3    H153031   7.220   3.809  11.833
 9612TIP3    H253032   7.308   3.715  11.912
 9613TIP3   OH253033   8.495   4.289  12.637
 9613TIP3    H153034   8.429   4.356  12.657
 9613TIP3    H253035   8.579   4.335  12.649
 9614TIP3   OH253036   7.241   2.252  12.763
 9614TIP3    H153037   7.209   2.341  12.770
 9614TIP3    H253038   7.162   2.198  12.758
 9615TIP3   OH253039   8.049   4.126  11.891
 9615TIP3    H153040   7.982   4.064  11.860
 9615TIP3    H253041   8.132   4.089  11.861
 9616TIP3   OH253042   8.557   4.088  11.852
 9616TIP3    H153043   8.619   4.062  11.920
 9616TIP3    H253044   8.609   4.093  11.772
 9617TIP3   OH253045   7.493   3.653  11.931
 9617TIP3    H153046   7.510   3.559  11.922
 9617TIP3    H253047   7.557   3.694  11.872
 9618TIP3   OH253048   8.245   3.758  11.994
 9618TIP3    H153049   8.165   3.775  12.045
 9618TIP3    H253050   8.241   3.664  11.974
 9619TIP3   OH253051   7.599   3.395  11.882
 9619TIP3    H153052   7.605   3.365  11.791
 9619TIP3    H253053   7.688   3.387  11.916
 9620TIP3   OH253054   8.787   3.519  11.902
 9620TIP3    H153055   8.830   3.484  11.824
 9620TIP3    H253056   8.780   3.613  11.885
 9621TIP3   OH253057   7.787   4.522  12.150
 9621TIP3    H153058   7.737   4.566  12.219
 9621TIP3    H253059   7.779   4.580  12.074
 9622TIP3   OH253060   6.940   3.773  11.954
 9622TIP3    H153061   7.035   3.767  11.949
 9622TIP3    H253062   6.909   3.721  11.879
 9623TIP3   OH253063   8.846   3.482  12.324
 9623TIP3    H153064   8.928   3.526  12.345
 9623TIP3    H253065   8.836   3.414  12.390
 9624TIP3   OH253066   8.838   3.280  12.513
 9624TIP3    H153067   8.753   3.235  12.516
 9624TIP3    H253068   8.869   3.280  12.603
 9625TIP3   OH253069   9.112   3.455  12.907
 9625TIP3    H153070   9.202   3.429  12.884
 9625TIP3    H253071   9.116   3.550  12.916
 9626TIP3   OH253072   8.789   3.325  12.100
 9626TIP3    H153073   8.791   3.388  12.028
 9626TIP3    H253074   8.806   3.378  12.178
 9627TIP3   OH253075   8.846   2.907  11.919
 9627TIP3    H153076   8.824   2.950  11.835
 9627TIP3    H253077   8.823   2.815  11.905
 9628TIP3   OH253078   8.598   3.139  12.510
 9628TIP3    H153079   8.618   3.076  12.441
 9628TIP3    H253080   8.559   3.087  12.580
 9629TIP3   OH253081   8.748   2.645  11.827
 9629TIP3    H153082   8.666   2.638  11.876
 9629TIP3    H253083   8.723   2.681  11.742
 9630TIP3   OH253084   8.654   2.946  12.322
 9630TIP3    H153085   8.680   2.856  12.341
 9630TIP3    H253086   8.724   2.979  12.264
 9631TIP3   OH253087   8.753   2.510  12.389
 9631TIP3    H153088   8.761   2.491  12.483
 9631TIP3    H253089   8.672   2.468  12.362
 9632TIP3   OH253090   8.945   2.458  12.076
 9632TIP3    H153091   8.982   2.390  12.020
 9632TIP3    H253092   8.901   2.518  12.015
 9633TIP3   OH253093   7.321   3.957  12.847
 9633TIP3    H153094   7.292   3.892  12.910
 9633TIP3    H253095   7.246   4.016  12.837
 9634TIP3   OH253096   8.079   2.405  12.661
 9634TIP3    H153097   8.038   2.372  12.742
 9634TIP3    H253098   8.173   2.406  12.680
 9635TIP3   OH253099   8.831   2.450  12.651
 9635TIP3    H153100   8.846   2.356  12.651
 9635TIP3    H253101   8.918   2.488  12.661
 9636TIP3   OH253102   7.729   2.125  12.641
 9636TIP3    H153103   7.784   2.202  12.630
 9636TIP3    H253104   7.651   2.157  12.687
 9637TIP3   OH253105   8.348   2.408  12.711
 9637TIP3    H153106   8.420   2.468  12.729
 9637TIP3    H253107   8.387   2.320  12.717
 9638TIP3   OH253108   8.525   2.360  12.274
 9638TIP3    H153109   8.462   2.426  12.302
 9638TIP3    H253110   8.475   2.279  12.270
 9639TIP3   OH253111   7.295   2.561  11.785
 9639TIP3    H153112   7.325   2.481  11.743
 9639TIP3    H253113   7.305   2.545  11.879
 9640TIP3   OH253114   8.002   2.621  12.196
 9640TIP3    H153115   8.034   2.557  12.259
 9640TIP3    H253116   8.003   2.704  12.243
 9641TIP3   OH253117   8.956   4.315  12.330
 9641TIP3    H153118   8.896   4.241  12.321
 9641TIP3    H253119   8.910   4.388  12.290
 9642TIP3   OH253120   7.182   4.230  11.969
 9642TIP3    H153121   7.157   4.239  11.877
 9642TIP3    H253122   7.272   4.198  11.966
 9643TIP3   OH253123   9.020   3.130  12.360
 9643TIP3    H153124   8.961   3.186  12.411
 9643TIP3    H253125   8.967   3.098  12.287
 9644TIP3   OH253126   9.087   4.003  12.957
 9644TIP3    H153127   9.147   3.932  12.982
 9644TIP3    H253128   9.009   3.987  13.009
 9645TIP3   OH253129   9.134   2.594  12.582
 9645TIP3    H153130   0.009   2.579  12.562
 9645TIP3    H253131   9.089   2.585  12.499
 9646TIP3   OH253132   9.104   4.395  12.553
 9646TIP3    H153133   9.057   4.356  12.480
 9646TIP3    H253134   9.099   4.329  12.623
 9647TIP3   OH253135   9.134   4.218  12.778
 9647TIP3    H153136   9.103   4.150  12.837
 9647TIP3    H253137   9.138   4.297  12.832
 9648TIP3   OH253138   0.143   3.355  12.854
 9648TIP3    H153139   0.196   3.346  12.775
 9648TIP3    H253140   0.141   3.267  12.892
 9649TIP3   OH253141   9.083   3.172  12.903
 9649TIP3    H153142   9.173   3.155  12.930
 9649TIP3    H253143   9.076   3.268  12.903
 9650TIP3   OH253144   9.020   2.557  12.325
 9650TIP3    H153145   8.930   2.555  12.358
 9650TIP3    H253146   9.013   2.522  12.236
 9651TIP3   OH253147   1.494   5.773  12.388
 9651TIP3    H153148   1.450   5.856  12.370
 9651TIP3    H253149   1.425   5.707  12.385
 9652TIP3   OH253150   1.802   6.190  12.860
 9652TIP3    H153151   1.732   6.154  12.914
 9652TIP3    H253152   1.881   6.179  12.913
 9653TIP3   OH253153   0.194   5.252  12.274
 9653TIP3    H153154   0.234   5.334  12.246
 9653TIP3    H253155   0.102   5.273  12.287
 9654TIP3   OH253156   0.275   5.496  12.735
 9654TIP3    H153157   0.243   5.476  12.647
 9654TIP3    H253158   0.358   5.541  12.721
 9655TIP3   OH253159   1.402   6.463  12.551
 9655TIP3    H153160   1.492   6.489  12.530
 9655TIP3    H253161   1.387   6.501  12.638
 9656TIP3   OH253162   0.678   4.957  12.644
 9656TIP3    H153163   0.690   5.046  12.612
 9656TIP3    H253164   0.604   4.923  12.594
 9657TIP3   OH253165   1.595   5.004  12.529
 9657TIP3    H153166   1.602   4.945  12.603
 9657TIP3    H253167   1.549   5.081  12.563
 9658TIP3   OH253168   0.678   5.447  12.650
 9658TIP3    H153169   0.704   5.434  12.741
 9658TIP3    H253170   0.691   5.361  12.609
 9659TIP3   OH253171   1.344   5.991  12.315
 9659TIP3    H153172   1.286   6.005  12.240
 9659TIP3    H253173   1.347   6.076  12.359
 9660TIP3   OH253174   1.598   4.851  12.755
 9660TIP3    H153175   1.549   4.894  12.825
 9660TIP3    H253176   1.658   4.792  12.801
 9661TIP3   OH253177   0.353   6.090  12.148
 9661TIP3    H153178   0.342   6.100  12.054
 9661TIP3    H253179   0.432   6.141  12.168
 9662TIP3   OH253180   1.665   6.534  12.503
 9662TIP3    H153181   1.708   6.457  12.541
 9662TIP3    H253182   1.730   6.604  12.511
 9663TIP3   OH253183   1.784   6.310  12.614
 9663TIP3    H153184   1.750   6.234  12.568
 9663TIP3    H253185   1.796   6.281  12.704
 9664TIP3   OH253186   1.337   5.560  12.285
 9664TIP3    H153187   1.266   5.591  12.229
 9664TIP3    H253188   1.413   5.555  12.227
 9665TIP3   OH253189   1.320   5.484  11.975
 9665TIP3    H153190   1.398   5.489  12.030
 9665TIP3    H253191   1.339   5.414  11.912
 9666TIP3   OH253192   1.725   5.683  12.280
 9666TIP3    H153193   1.648   5.724  12.320
 9666TIP3    H253194   1.784   5.667  12.353
 9667TIP3   OH253195   0.489   5.642  12.644
 9667TIP3    H153196   0.480   5.658  12.550
 9667TIP3    H253197   0.563   5.582  12.651
 9668TIP3   OH253198   1.564   5.527  12.114
 9668TIP3    H153199   1.622   5.577  12.172
 9668TIP3    H253200   1.591   5.553  12.026
 9669TIP3   OH253201   1.318   6.253  12.392
 9669TIP3    H153202   1.345   6.324  12.451
 9669TIP3    H253203   1.261   6.296  12.328
 9670TIP3   OH253204   1.980   4.612  12.201
 9670TIP3    H153205   1.885   4.618  12.193
 9670TIP3    H253206   2.013   4.683  12.146
 9671TIP3   OH253207   0.471   5.654  12.369
 9671TIP3    H153208   0.456   5.715  12.297
 9671TIP3    H253209   0.526   5.585  12.331
 9672TIP3   OH253210   2.164   6.206  12.002
 9672TIP3    H153211   2.146   6.226  11.910
 9672TIP3    H253212   2.253   6.171  12.002
 9673TIP3   OH253213   1.344   6.744  12.230
 9673TIP3    H153214   1.291   6.690  12.171
 9673TIP3    H253215   1.289   6.821  12.247
 9674TIP3   OH253216   0.523   6.623  12.534
 9674TIP3    H153217   0.540   6.597  12.625
 9674TIP3    H253218   0.452   6.565  12.506
 9675TIP3   OH253219   1.552   6.586  11.997
 9675TIP3    H153220   1.591   6.501  11.977
 9675TIP3    H253221   1.582   6.605  12.086
 9676TIP3   OH253222   1.604   6.666  12.260
 9676TIP3    H153223   1.512   6.692  12.261
 9676TIP3    H253224   1.615   6.610  12.337
 9677TIP3   OH253225   1.640   5.637  11.869
 9677TIP3    H153226   1.678   5.631  11.781
 9677TIP3    H253227   1.695   5.700  11.915
 9678TIP3   OH253228   1.252   5.011  11.956
 9678TIP3    H153229   1.210   4.977  12.035
 9678TIP3    H253230   1.180   5.026  11.895
 9679TIP3   OH253231   0.689   5.201  12.510
 9679TIP3    H153232   0.598   5.202  12.481
 9679TIP3    H253233   0.740   5.200  12.429
 9680TIP3   OH253234   1.332   5.310  12.408
 9680TIP3    H153235   1.316   5.401  12.384
 9680TIP3    H253236   1.405   5.282  12.351
 9681TIP3   OH253237   1.493   5.245  12.628
 9681TIP3    H153238   1.422   5.270  12.570
 9681TIP3    H253239   1.472   5.287  12.712
 9682TIP3   OH253240   0.831   4.887  11.884
 9682TIP3    H153241   0.843   4.900  11.978
 9682TIP3    H253242   0.768   4.954  11.858
 9683TIP3   OH253243   0.080   4.829  12.683
 9683TIP3    H153244   0.085   4.763  12.753
 9683TIP3    H253245   0.130   4.791  12.611
 9684TIP3   OH253246   0.161   5.073  12.058
 9684TIP3    H153247   0.200   5.122  11.986
 9684TIP3    H253248   0.178   5.128  12.135
 9685TIP3   OH253249   1.024   5.099  12.654
 9685TIP3    H153250   0.943   5.149  12.662
 9685TIP3    H253251   1.077   5.126  12.729
 9686TIP3   OH253252   0.422   5.167  12.435
 9686TIP3    H153253   0.343   5.181  12.383
 9686TIP3    H253254   0.429   5.072  12.442
 9687TIP3   OH253255   0.850   5.201  12.279
 9687TIP3    H153256   0.942   5.201  12.305
 9687TIP3    H253257   0.842   5.274  12.217
 9688TIP3   OH253258   1.472   4.967  12.969
 9688TIP3    H153259   1.437   5.056  12.974
 9688TIP3    H253260   1.467   4.935  13.058
 9689TIP3   OH253261   0.817   5.410  12.082
 9689TIP3    H153262   0.746   5.400  12.018
 9689TIP3    H253263   0.893   5.435  12.029
 9690TIP3   OH253264   1.146   5.187  12.883
 9690TIP3    H153265   1.092   5.229  12.951
 9690TIP3    H253266   1.235   5.190  12.918
 9691TIP3   OH253267   0.480   4.894  12.451
 9691TIP3    H153268   0.406   4.832  12.450
 9691TIP3    H253269   0.538   4.863  12.381
 9692TIP3   OH253270   0.875   6.001  12.093
 9692TIP3    H153271   0.884   5.906  12.083
 9692TIP3    H253272   0.849   6.013  12.184
 9693TIP3   OH253273   1.478   5.030  12.127
 9693TIP3    H153274   1.398   5.037  12.076
 9693TIP3    H253275   1.493   5.118  12.161
 9694TIP3   OH253276   1.553   5.270  12.241
 9694TIP3    H153277   1.636   5.245  12.281
 9694TIP3    H253278   1.572   5.353  12.196
 9695TIP3   OH253279   0.457   5.790  12.876
 9695TIP3    H153280   0.470   5.754  12.788
 9695TIP3    H253281   0.502   5.730  12.934
 9696TIP3   OH253282   1.172   6.085  12.109
 9696TIP3    H153283   1.170   6.177  12.136
 9696TIP3    H253284   1.080   6.060  12.101
 9697TIP3   OH253285   2.258   5.310  11.980
 9697TIP3    H153286   2.168   5.291  11.952
 9697TIP3    H253287   2.253   5.398  12.018
 9698TIP3   OH253288   2.099   6.396  12.199
 9698TIP3    H153289   2.065   6.334  12.263
 9698TIP3    H253290   2.128   6.342  12.125
 9699TIP3   OH253291   0.726   6.259  12.502
 9699TIP3    H153292   0.747   6.347  12.473
 9699TIP3    H253293   0.708   6.267  12.595
 9700TIP3   OH253294   0.354   5.631  11.960
 9700TIP3    H153295   0.427   5.570  11.950
 9700TIP3    H253296   0.378   5.686  12.035
 9701TIP3   OH253297   0.794   6.037  12.350
 9701TIP3    H153298   0.770   6.120  12.392
 9701TIP3    H253299   0.803   5.976  12.423
 9702TIP3   OH253300   0.771   6.528  12.439
 9702TIP3    H153301   0.685   6.569  12.450
 9702TIP3    H253302   0.825   6.568  12.507
 9703TIP3   OH253303   1.674   6.062  11.991
 9703TIP3    H153304   1.701   5.971  12.006
 9703TIP3    H253305   1.579   6.058  11.985
 9704TIP3   OH253306   2.245   6.749  12.020
 9704TIP3    H153307   2.227   6.789  11.936
 9704TIP3    H253308   2.169   6.771  12.075
 9705TIP3   OH253309   1.778   5.805  12.037
 9705TIP3    H153310   1.768   5.767  12.124
 9705TIP3    H253311   1.863   5.850  12.040
 9706TIP3   OH253312   1.034   6.257  11.763
 9706TIP3    H153313   1.035   6.164  11.744
 9706TIP3    H253314   0.978   6.266  11.840
 9707TIP3   OH253315   0.874   6.267  11.992
 9707TIP3    H153316   0.871   6.180  12.032
 9707TIP3    H253317   0.884   6.327  12.066
 9708TIP3   OH253318   0.437   5.822  12.148
 9708TIP3    H153319   0.382   5.897  12.172
 9708TIP3    H253320   0.507   5.860  12.094
 9709TIP3   OH253321   1.540   4.839  12.311
 9709TIP3    H153322   1.515   4.907  12.250
 9709TIP3    H253323   1.561   4.886  12.392
 9710TIP3   OH253324   1.156   6.355  12.184
 9710TIP3    H153325   1.068   6.390  12.198
 9710TIP3    H253326   1.201   6.424  12.135
 9711TIP3   OH253327   1.112   5.136  12.390
 9711TIP3    H153328   1.185   5.196  12.402
 9711TIP3    H253329   1.083   5.115  12.479
 9712TIP3   OH253330   1.293   4.709  12.321
 9712TIP3    H153331   1.292   4.679  12.412
 9712TIP3    H253332   1.380   4.748  12.310
 9713TIP3   OH253333   0.899   6.462  12.192
 9713TIP3    H153334   0.902   6.545  12.145
 9713TIP3    H253335   0.855   6.483  12.275
 9714TIP3   OH253336   0.876   4.953  12.144
 9714TIP3    H153337   0.852   5.032  12.192
 9714TIP3    H253338   0.968   4.938  12.168
 9715TIP3   OH253339   0.614   5.953  11.973
 9715TIP3    H153340   0.698   5.986  12.005
 9715TIP3    H253341   0.636   5.877  11.920
 9716TIP3   OH253342   0.285   5.229  11.855
 9716TIP3    H153343   0.379   5.236  11.871
 9716TIP3    H253344   0.261   5.313  11.814
 9717TIP3   OH253345   0.397   4.501  12.820
 9717TIP3    H153346   0.356   4.579  12.785
 9717TIP3    H253347   0.333   4.465  12.881
 9718TIP3   OH253348   0.320   6.469  12.424
 9718TIP3    H153349   0.339   6.390  12.373
 9718TIP3    H253350   0.285   6.530  12.360
 9719TIP3   OH253351   1.252   6.423  11.780
 9719TIP3    H153352   1.174   6.368  11.774
 9719TIP3    H253353   1.325   6.363  11.770
 9720TIP3   OH253354   1.674   6.336  11.935
 9720TIP3    H153355   1.677   6.247  11.970
 9720TIP3    H253356   1.764   6.355  11.909
 9721TIP3   OH253357   0.676   5.717  11.846
 9721TIP3    H153358   0.646   5.626  11.839
 9721TIP3    H253359   0.751   5.712  11.906
 9722TIP3   OH253360   1.399   6.032  11.953
 9722TIP3    H153361   1.323   6.051  12.008
 9722TIP3    H253362   1.392   5.938  11.935
 9723TIP3   OH253363   0.868   5.716  12.053
 9723TIP3    H153364   0.829   5.657  12.117
 9723TIP3    H253365   0.941   5.667  12.015
 9724TIP3   OH253366   1.044   5.530  11.952
 9724TIP3    H153367   1.037   5.512  11.858
 9724TIP3    H253368   1.136   5.514  11.972
 9725TIP3   OH253369   2.127   5.774  11.917
 9725TIP3    H153370   2.079   5.740  11.842
 9725TIP3    H253371   2.075   5.848  11.947
 9726TIP3   OH253372   0.934   6.692  12.038
 9726TIP3    H153373   1.011   6.676  11.984
 9726TIP3    H253374   0.897   6.773  12.003
 9727TIP3   OH253375   0.386   6.076  11.869
 9727TIP3    H153376   0.471   6.041  11.897
 9727TIP3    H253377   0.338   5.999  11.837
 9728TIP3   OH253378   0.159   6.748  12.549
 9728TIP3    H153379   0.107   6.826  12.568
 9728TIP3    H253380   0.099   6.675  12.566
 9729TIP3   OH253381   0.179   6.449  12.662
 9729TIP3    H153382   0.227   6.456  12.579
 9729TIP3    H253383   0.224   6.508  12.721
 9730TIP3   OH253384   2.333   5.734  12.279
 9730TIP3    H153385   2.364   5.824  12.268
 9730TIP3    H253386   2.316   5.727  12.373
 9731TIP3   OH253387   2.299   5.718  12.553
 9731TIP3    H153388   2.250   5.784  12.601
 9731TIP3    H253389   2.363   5.685  12.617
 9732TIP3   OH253390   2.274   5.584  12.057
 9732TIP3    H153391   2.218   5.645  12.009
 9732TIP3    H253392   2.288   5.626  12.142
 9733TIP3   OH253393   2.023   5.227  11.871
 9733TIP3    H153394   1.990   5.246  11.784
 9733TIP3    H253395   1.982   5.143  11.894
 9734TIP3   OH253396   1.762   5.297  12.621
 9734TIP3    H153397   1.795   5.262  12.539
 9734TIP3    H253398   1.668   5.279  12.620
 9735TIP3   OH253399   0.194   5.693  12.916
 9735TIP3    H153400   0.206   5.625  12.850
 9735TIP3    H253401   0.281   5.731  12.927
 9736TIP3   OH253402   1.914   4.973  11.908
 9736TIP3    H153403   1.964   4.914  11.965
 9736TIP3    H253404   1.822   4.950  11.925
 9737TIP3   OH253405   1.775   5.149  12.377
 9737TIP3    H153406   1.718   5.089  12.424
 9737TIP3    H253407   1.848   5.095  12.347
 9738TIP3   OH253408   2.027   4.885  12.345
 9738TIP3    H153409   2.080   4.892  12.425
 9738TIP3    H253410   1.994   4.795  12.346
 9739TIP3   OH253411   9.180   5.271  12.923
 9739TIP3    H153412   9.118   5.212  12.880
 9739TIP3    H253413   9.125   5.336  12.968
 9740TIP3   OH253414   2.090   4.790  12.017
 9740TIP3    H153415   2.099   4.738  11.937
 9740TIP3    H253416   2.160   4.855  12.013
 9741TIP3   OH253417   0.012   4.847  12.100
 9741TIP3    H153418   9.179   4.874  12.177
 9741TIP3    H253419   0.062   4.925  12.075
 9742TIP3   OH253420   1.852   6.736  12.475
 9742TIP3    H153421   1.931   6.696  12.440
 9742TIP3    H253422   1.818   6.789  12.403
 9743TIP3   OH253423   0.319   6.607  12.835
 9743TIP3    H153424   0.290   6.608  12.926
 9743TIP3    H253425   0.410   6.577  12.839
 9744TIP3   OH253426   0.584   6.538  12.798
 9744TIP3    H153427   0.623   6.450  12.796
 9744TIP3    H253428   0.652   6.594  12.836
 9745TIP3   OH253429   0.280   4.710  12.414
 9745TIP3    H153430   0.229   4.645  12.461
 9745TIP3    H253431   0.264   4.692  12.322
 9746TIP3   OH253432   0.236   4.683  12.127
 9746TIP3    H153433   0.299   4.715  12.062
 9746TIP3    H253434   0.158   4.737  12.114
 9747TIP3   OH253435   0.907   4.859  12.766
 9747TIP3    H153436   0.967   4.921  12.724
 9747TIP3    H253437   0.821   4.881  12.731
 9748TIP3   OH253438   1.350   4.616  12.573
 9748TIP3    H153439   1.412   4.662  12.629
 9748TIP3    H253440   1.360   4.524  12.598
 9749TIP3   OH253441   1.701   4.656  12.177
 9749TIP3    H153442   1.650   4.713  12.234
 9749TIP3    H253443   1.659   4.570  12.185
 9750TIP3   OH253444   0.226   6.627  12.221
 9750TIP3    H153445   0.151   6.616  12.162
 9750TIP3    H253446   0.232   6.722  12.234
 9751TIP3   OH253447   0.416   4.793  11.929
 9751TIP3    H153448   0.474   4.729  11.888
 9751TIP3    H253449   0.475   4.866  11.952
 9752TIP3   OH253450   1.150   4.931  12.204
 9752TIP3    H153451   1.188   4.854  12.247
 9752TIP3    H253452   1.144   4.996  12.274
 9753TIP3   OH253453   1.276   6.554  12.024
 9753TIP3    H153454   1.370   6.569  12.019
 9753TIP3    H253455   1.254   6.515  11.939
 9754TIP3   OH253456   2.068   6.640  12.328
 9754TIP3    H153457   2.080   6.559  12.280
 9754TIP3    H253458   2.064   6.708  12.261
 9755TIP3   OH253459   0.516   6.636  11.905
 9755TIP3    H153460   0.497   6.628  11.998
 9755TIP3    H253461   0.575   6.563  11.886
 9756TIP3   OH253462   3.771   5.795  12.422
 9756TIP3    H153463   3.722   5.873  12.398
 9756TIP3    H253464   3.721   5.722  12.387
 9757TIP3   OH253465   3.887   6.017  12.559
 9757TIP3    H153466   3.861   5.935  12.519
 9757TIP3    H253467   3.808   6.048  12.604
 9758TIP3   OH253468   2.486   5.445  12.516
 9758TIP3    H153469   2.494   5.502  12.593
 9758TIP3    H253470   2.423   5.490  12.459
 9759TIP3   OH253471   2.499   5.632  12.724
 9759TIP3    H153472   2.507   5.593  12.811
 9759TIP3    H253473   2.563   5.703  12.724
 9760TIP3   OH253474   3.760   6.501  12.653
 9760TIP3    H153475   3.820   6.488  12.580
 9760TIP3    H253476   3.695   6.432  12.644
 9761TIP3   OH253477   3.449   5.837  12.911
 9761TIP3    H153478   3.410   5.807  12.828
 9761TIP3    H253479   3.453   5.758  12.965
 9762TIP3   OH253480   2.824   5.193  12.777
 9762TIP3    H153481   2.860   5.210  12.690
 9762TIP3    H253482   2.799   5.100  12.775
 9763TIP3   OH253483   3.919   4.937  12.480
 9763TIP3    H153484   3.954   4.869  12.538
 9763TIP3    H253485   3.982   4.943  12.409
 9764TIP3   OH253486   3.060   5.456  12.594
 9764TIP3    H153487   3.140   5.413  12.625
 9764TIP3    H253488   3.007   5.384  12.559
 9765TIP3   OH253489   3.642   6.024  12.356
 9765TIP3    H153490   3.589   6.036  12.277
 9765TIP3    H253491   3.656   6.113  12.389
 9766TIP3   OH253492   2.437   5.991  12.226
 9766TIP3    H153493   2.411   6.011  12.136
 9766TIP3    H253494   2.436   6.075  12.271
 9767TIP3   OH253495   3.261   4.576  12.846
 9767TIP3    H153496   3.314   4.500  12.871
 9767TIP3    H253497   3.200   4.589  12.919
 9768TIP3   OH253498   3.918   6.445  12.421
 9768TIP3    H153499   3.952   6.358  12.402
 9768TIP3    H253500   3.995   6.497  12.444
 9769TIP3   OH253501   4.013   6.186  12.376
 9769TIP3    H153502   4.032   6.117  12.312
 9769TIP3    H253503   3.974   6.139  12.450
 9770TIP3   OH253504   3.656   5.591  12.257
 9770TIP3    H153505   3.602   5.627  12.186
 9770TIP3    H253506   3.735   5.558  12.213
 9771TIP3   OH253507   3.701   5.540  11.923
 9771TIP3    H153508   3.767   5.518  11.989
 9771TIP3    H253509   3.700   5.465  11.864
 9772TIP3   OH253510   3.998   5.712  12.285
 9772TIP3    H153511   3.932   5.741  12.348
 9772TIP3    H253512   4.074   5.688  12.339
 9773TIP3   OH253513   3.000   5.719  12.493
 9773TIP3    H153514   2.967   5.717  12.404
 9773TIP3    H253515   3.027   5.629  12.512
 9774TIP3   OH253516   3.009   5.556  12.844
 9774TIP3    H153517   3.025   5.527  12.755
 9774TIP3    H253518   3.096   5.566  12.883
 9775TIP3   OH253519   3.898   5.509  12.125
 9775TIP3    H153520   3.933   5.579  12.180
 9775TIP3    H253521   3.964   5.495  12.058
 9776TIP3   OH253522   3.668   6.298  12.410
 9776TIP3    H153523   3.747   6.351  12.399
 9776TIP3    H253524   3.608   6.329  12.342
 9777TIP3   OH253525   2.884   5.695  12.225
 9777TIP3    H153526   2.808   5.748  12.200
 9777TIP3    H253527   2.854   5.604  12.212
 9778TIP3   OH253528   4.404   6.239  11.938
 9778TIP3    H153529   4.425   6.330  11.959
 9778TIP3    H253530   4.489   6.197  11.924
 9779TIP3   OH253531   3.599   6.779  12.290
 9779TIP3    H153532   3.518   6.769  12.240
 9779TIP3    H253533   3.588   6.861  12.337
 9780TIP3   OH253534   2.859   6.474  12.552
 9780TIP3    H153535   2.881   6.419  12.627
 9780TIP3    H253536   2.775   6.440  12.521
 9781TIP3   OH253537   3.798   6.619  11.975
 9781TIP3    H153538   3.845   6.540  11.949
 9781TIP3    H253539   3.823   6.634  12.066
 9782TIP3   OH253540   3.847   6.663  12.246
 9782TIP3    H153541   3.761   6.698  12.269
 9782TIP3    H253542   3.860   6.591  12.307
 9783TIP3   OH253543   2.865   4.696  12.995
 9783TIP3    H153544   2.806   4.621  12.992
 9783TIP3    H253545   2.848   4.743  12.914
 9784TIP3   OH253546   4.091   5.512  11.927
 9784TIP3    H153547   4.063   5.541  11.840
 9784TIP3    H253548   4.146   5.583  11.960
 9785TIP3   OH253549   3.492   4.903  12.008
 9785TIP3    H153550   3.428   4.913  12.079
 9785TIP3    H253551   3.448   4.848  11.943
 9786TIP3   OH253552   2.917   5.231  12.511
 9786TIP3    H153553   2.825   5.229  12.487
 9786TIP3    H253554   2.964   5.212  12.430
 9787TIP3   OH253555   3.549   5.337  12.340
 9787TIP3    H153556   3.565   5.431  12.333
 9787TIP3    H253557   3.624   5.296  12.296
 9788TIP3   OH253558   3.146   4.969  11.854
 9788TIP3    H153559   3.128   4.951  11.947
 9788TIP3    H253560   3.086   5.040  11.832
 9789TIP3   OH253561   2.228   4.888  12.530
 9789TIP3    H153562   2.269   4.882  12.616
 9789TIP3    H253563   2.299   4.877  12.467
 9790TIP3   OH253564   2.277   5.018  11.994
 9790TIP3    H153565   2.334   5.014  11.918
 9790TIP3    H253566   2.258   5.112  12.005
 9791TIP3   OH253567   3.289   5.052  12.637
 9791TIP3    H153568   3.203   5.026  12.604
 9791TIP3    H253569   3.329   4.971  12.667
 9792TIP3   OH253570   2.647   5.227  12.471
 9792TIP3    H153571   2.597   5.306  12.489
 9792TIP3    H253572   2.582   5.164  12.438
 9793TIP3   OH253573   3.072   5.199  12.279
 9793TIP3    H153574   3.163   5.197  12.307
 9793TIP3    H253575   3.072   5.251  12.199
 9794TIP3   OH253576   3.080   5.332  12.033
 9794TIP3    H153577   3.055   5.276  11.959
 9794TIP3    H253578   3.115   5.411  11.993
 9795TIP3   OH253579   3.260   5.317  12.724
 9795TIP3    H153580   3.273   5.226  12.698
 9795TIP3    H253581   3.322   5.331  12.795
 9796TIP3   OH253582   2.791   4.778  12.735
 9796TIP3    H153583   2.731   4.707  12.711
 9796TIP3    H253584   2.850   4.787  12.660
 9797TIP3   OH253585   3.223   6.025  12.137
 9797TIP3    H153586   3.185   5.944  12.101
 9797TIP3    H253587   3.194   6.027  12.228
 9798TIP3   OH253588   3.719   4.989  12.136
 9798TIP3    H153589   3.643   4.959  12.086
 9798TIP3    H253590   3.706   5.083  12.144
 9799TIP3   OH253591   3.783   5.261  12.208
 9799TIP3    H153592   3.853   5.209  12.247
 9799TIP3    H253593   3.826   5.340  12.176
 9800TIP3   OH253594   2.990   5.827  12.749
 9800TIP3    H153595   2.990   5.803  12.656
 9800TIP3    H253596   2.981   5.744  12.795
 9801TIP3   OH253597   3.495   6.097  12.131
 9801TIP3    H153598   3.490   6.191  12.151
 9801TIP3    H253599   3.403   6.069  12.128
 9802TIP3   OH253600   4.279   6.344  12.191
 9802TIP3    H153601   4.212   6.300  12.243
 9802TIP3    H253602   4.302   6.281  12.123
 9803TIP3   OH253603   3.140   6.267  12.546
 9803TIP3    H153604   3.146   6.349  12.497
 9803TIP3    H253605   3.067   6.279  12.606
 9804TIP3   OH253606   2.540   5.616  11.973
 9804TIP3    H153607   2.581   5.682  12.029
 9804TIP3    H253608   2.449   5.611  12.004
 9805TIP3   OH253609   3.136   6.029  12.395
 9805TIP3    H153610   3.141   6.107  12.449
 9805TIP3    H253611   3.102   5.961  12.454
 9806TIP3   OH253612   3.103   6.530  12.435
 9806TIP3    H153613   3.014   6.524  12.470
 9806TIP3    H253614   3.123   6.624  12.438
 9807TIP3   OH253615   3.966   6.141  11.999
 9807TIP3    H153616   3.987   6.096  12.081
 9807TIP3    H253617   3.876   6.114  11.980
 9808TIP3   OH253618   4.540   6.713  12.016
 9808TIP3    H153619   4.590   6.791  12.040
 9808TIP3    H253620   4.452   6.730  12.047
 9809TIP3   OH253621   4.065   5.975  12.200
 9809TIP3    H153622   4.039   5.886  12.222
 9809TIP3    H253623   4.138   5.963  12.138
 9810TIP3   OH253624   3.282   6.210  11.759
 9810TIP3    H153625   3.235   6.128  11.747
 9810TIP3    H253626   3.255   6.240  11.846
 9811TIP3   OH253627   3.204   6.274  12.011
 9811TIP3    H153628   3.202   6.192  12.060
 9811TIP3    H253629   3.211   6.342  12.079
 9812TIP3   OH253630   2.650   5.830  12.126
 9812TIP3    H153631   2.584   5.870  12.182
 9812TIP3    H253632   2.672   5.898  12.062
 9813TIP3   OH253633   3.669   4.873  12.386
 9813TIP3    H153634   3.685   4.905  12.297
 9813TIP3    H253635   3.751   4.892  12.432
 9814TIP3   OH253636   3.496   6.370  12.199
 9814TIP3    H153637   3.405   6.393  12.219
 9814TIP3    H253638   3.523   6.433  12.132
 9815TIP3   OH253639   3.333   5.169  12.378
 9815TIP3    H153640   3.404   5.231  12.363
 9815TIP3    H253641   3.339   5.146  12.471
 9816TIP3   OH253642   3.423   4.767  12.436
 9816TIP3    H153643   3.411   4.779  12.530
 9816TIP3    H253644   3.513   4.796  12.420
 9817TIP3   OH253645   3.241   6.476  12.204
 9817TIP3    H153646   3.259   6.567  12.177
 9817TIP3    H253647   3.188   6.484  12.283
 9818TIP3   OH253648   3.080   4.960  12.122
 9818TIP3    H153649   3.053   5.035  12.174
 9818TIP3    H253650   3.165   4.935  12.158
 9819TIP3   OH253651   2.692   6.045  11.937
 9819TIP3    H153652   2.706   6.135  11.967
 9819TIP3    H253653   2.780   6.013  11.918
 9820TIP3   OH253654   2.516   5.347  11.882
 9820TIP3    H153655   2.538   5.426  11.932
 9820TIP3    H253656   2.431   5.320  11.917
 9821TIP3   OH253657   2.695   4.490  12.928
 9821TIP3    H153658   2.685   4.519  12.838
 9821TIP3    H253659   2.667   4.398  12.927
 9822TIP3   OH253660   2.410   6.264  12.289
 9822TIP3    H153661   2.363   6.301  12.364
 9822TIP3    H253662   2.420   6.337  12.228
 9823TIP3   OH253663   3.485   6.403  11.776
 9823TIP3    H153664   3.416   6.337  11.772
 9823TIP3    H253665   3.566   6.354  11.764
 9824TIP3   OH253666   3.931   6.394  11.887
 9824TIP3    H153667   3.960   6.315  11.933
 9824TIP3    H253668   4.001   6.411  11.824
 9825TIP3   OH253669   2.948   5.966  11.894
 9825TIP3    H153670   2.993   5.906  11.954
 9825TIP3    H253671   3.011   5.984  11.825
 9826TIP3   OH253672   3.705   6.061  11.952
 9826TIP3    H153673   3.633   6.067  12.016
 9826TIP3    H253674   3.703   5.970  11.922
 9827TIP3   OH253675   3.090   5.784  12.050
 9827TIP3    H153676   3.031   5.750  12.117
 9827TIP3    H253677   3.120   5.707  12.003
 9828TIP3   OH253678   3.197   5.557  11.898
 9828TIP3    H153679   3.197   5.541  11.804
 9828TIP3    H253680   3.290   5.555  11.923
 9829TIP3   OH253681   4.243   5.741  11.961
 9829TIP3    H153682   4.281   5.721  11.876
 9829TIP3    H253683   4.239   5.837  11.964
 9830TIP3   OH253684   3.352   6.742  12.128
 9830TIP3    H153685   3.410   6.681  12.082
 9830TIP3    H253686   3.321   6.802  12.060
 9831TIP3   OH253687   2.405   6.064  11.963
 9831TIP3    H153688   2.500   6.068  11.949
 9831TIP3    H253689   2.373   6.010  11.891
 9832TIP3   OH253690   2.206   6.656  12.572
 9832TIP3    H153691   2.167   6.641  12.486
 9832TIP3    H253692   2.189   6.575  12.620
 9833TIP3   OH253693   2.130   6.410  12.685
 9833TIP3    H153694   2.162   6.345  12.748
 9833TIP3    H253695   2.037   6.391  12.675
 9834TIP3   OH253696   4.531   5.609  12.198
 9834TIP3    H153697   4.464   5.669  12.166
 9834TIP3    H253698   4.561   5.650  12.280
 9835TIP3   OH253699   4.216   5.256  11.896
 9835TIP3    H153700   4.174   5.338  11.921
 9835TIP3    H253701   4.225   5.262  11.801
 9836TIP3   OH253702   4.233   5.638  12.418
 9836TIP3    H153703   4.278   5.559  12.390
 9836TIP3    H253704   4.302   5.694  12.453
 9837TIP3   OH253705   4.195   5.020  12.049
 9837TIP3    H153706   4.274   4.967  12.036
 9837TIP3    H253707   4.210   5.100  11.998
 9838TIP3   OH253708   4.122   4.912  12.295
 9838TIP3    H153709   4.198   4.884  12.346
 9838TIP3    H253710   4.159   4.954  12.218
 9839TIP3   OH253711   2.371   4.867  12.766
 9839TIP3    H153712   2.388   4.780  12.801
 9839TIP3    H253713   2.406   4.927  12.831
 9840TIP3   OH253714   4.403   4.835  12.063
 9840TIP3    H153715   4.459   4.778  12.009
 9840TIP3    H253716   4.442   4.830  12.150
 9841TIP3   OH253717   2.292   4.881  12.235
 9841TIP3    H153718   2.201   4.882  12.266
 9841TIP3    H253719   2.293   4.943  12.163
 9842TIP3   OH253720   4.141   6.595  12.481
 9842TIP3    H153721   4.213   6.583  12.419
 9842TIP3    H253722   4.173   6.660  12.543
 9843TIP3   OH253723   3.380   4.795  12.713
 9843TIP3    H153724   3.325   4.726  12.749
 9843TIP3    H253725   3.464   4.784  12.757
 9844TIP3   OH253726   2.647   4.549  12.662
 9844TIP3    H153727   2.556   4.520  12.665
 9844TIP3    H253728   2.692   4.480  12.613
 9845TIP3   OH253729   2.408   4.677  12.085
 9845TIP3    H153730   2.461   4.727  12.023
 9845TIP3    H253731   2.377   4.743  12.148
 9846TIP3   OH253732   3.155   4.416  12.630
 9846TIP3    H153733   3.204   4.450  12.555
 9846TIP3    H253734   3.174   4.477  12.701
 9847TIP3   OH253735   2.414   6.501  12.139
 9847TIP3    H153736   2.327   6.533  12.119
 9847TIP3    H253737   2.473   6.572  12.112
 9848TIP3   OH253738   2.598   4.778  11.893
 9848TIP3    H153739   2.636   4.694  11.868
 9848TIP3    H253740   2.672   4.827  11.929
 9849TIP3   OH253741   3.329   4.931  12.234
 9849TIP3    H153742   3.357   4.866  12.299
 9849TIP3    H253743   3.337   5.015  12.278
 9850TIP3   OH253744   3.525   6.566  11.999
 9850TIP3    H153745   3.617   6.592  11.987
 9850TIP3    H253746   3.503   6.516  11.921
 9851TIP3   OH253747   4.355   6.587  12.305
 9851TIP3    H153748   4.340   6.503  12.261
 9851TIP3    H253749   4.340   6.653  12.238
 9852TIP3   OH253750   2.658   6.650  11.801
 9852TIP3    H153751   2.622   6.659  11.889
 9852TIP3    H253752   2.710   6.570  11.804
 9853TIP3   OH253753   6.208   5.988  12.822
 9853TIP3    H153754   6.219   5.896  12.845
 9853TIP3    H253755   6.231   6.036  12.902
 9854TIP3   OH253756   6.124   6.532  12.973
 9854TIP3    H153757   6.042   6.573  13.000
 9854TIP3    H253758   6.133   6.455  13.030
 9855TIP3   OH253759   5.685   5.956  12.975
 9855TIP3    H153760   5.738   5.887  12.936
 9855TIP3    H253761   5.748   6.013  13.020
 9856TIP3   OH253762   5.090   5.018  12.449
 9856TIP3    H153763   5.166   5.060  12.409
 9856TIP3    H253764   5.092   4.928  12.415
 9857TIP3   OH253765   6.216   4.974  12.409
 9857TIP3    H153766   6.292   4.916  12.405
 9857TIP3    H253767   6.252   5.058  12.439
 9858TIP3   OH253768   6.005   6.131  12.357
 9858TIP3    H153769   5.948   6.107  12.284
 9858TIP3    H253770   5.997   6.226  12.363
 9859TIP3   OH253771   4.904   5.006  12.648
 9859TIP3    H153772   4.950   5.003  12.732
 9859TIP3    H253773   4.974   5.008  12.582
 9860TIP3   OH253774   6.139   6.419  12.570
 9860TIP3    H153775   6.142   6.324  12.579
 9860TIP3    H253776   6.082   6.435  12.495
 9861TIP3   OH253777   6.151   6.152  12.603
 9861TIP3    H153778   6.105   6.107  12.533
 9861TIP3    H253779   6.163   6.085  12.671
 9862TIP3   OH253780   6.184   5.552  12.498
 9862TIP3    H153781   6.142   5.564  12.583
 9862TIP3    H253782   6.278   5.558  12.517
 9863TIP3   OH253783   5.118   5.790  12.404
 9863TIP3    H153784   5.036   5.748  12.378
 9863TIP3    H253785   5.131   5.762  12.495
 9864TIP3   OH253786   5.926   6.410  12.380
 9864TIP3    H153787   5.867   6.412  12.455
 9864TIP3    H253788   5.868   6.405  12.304
 9865TIP3   OH253789   6.549   4.549  12.138
 9865TIP3    H153790   6.462   4.587  12.153
 9865TIP3    H253791   6.605   4.625  12.118
 9866TIP3   OH253792   6.692   6.280  12.019
 9866TIP3    H153793   6.715   6.373  12.023
 9866TIP3    H253794   6.777   6.234  12.016
 9867TIP3   OH253795   5.778   6.774  12.285
 9867TIP3    H153796   5.709   6.761  12.220
 9867TIP3    H253797   5.753   6.855  12.330
 9868TIP3   OH253798   5.059   6.570  12.532
 9868TIP3    H153799   5.040   6.514  12.607
 9868TIP3    H253800   4.985   6.555  12.473
 9869TIP3   OH253801   6.052   6.604  11.963
 9869TIP3    H153802   6.116   6.535  11.947
 9869TIP3    H253803   6.049   6.613  12.059
 9870TIP3   OH253804   6.015   6.641  12.238
 9870TIP3    H153805   5.936   6.693  12.252
 9870TIP3    H253806   6.003   6.563  12.291
 9871TIP3   OH253807   6.209   5.750  11.784
 9871TIP3    H153808   6.245   5.699  11.712
 9871TIP3    H253809   6.285   5.785  11.830
 9872TIP3   OH253810   5.726   5.017  12.094
 9872TIP3    H153811   5.673   4.972  12.160
 9872TIP3    H253812   5.665   5.032  12.021
 9873TIP3   OH253813   5.266   4.902  11.916
 9873TIP3    H153814   5.302   4.911  12.004
 9873TIP3    H253815   5.276   4.989  11.877
 9874TIP3   OH253816   4.476   4.830  12.350
 9874TIP3    H153817   4.542   4.858  12.413
 9874TIP3    H253818   4.405   4.794  12.404
 9875TIP3   OH253819   5.516   4.946  12.783
 9875TIP3    H153820   5.455   5.008  12.820
 9875TIP3    H253821   5.567   4.997  12.719
 9876TIP3   OH253822   5.293   5.161  12.317
 9876TIP3    H153823   5.363   5.189  12.376
 9876TIP3    H253824   5.302   5.215  12.239
 9877TIP3   OH253825   5.327   5.281  12.068
 9877TIP3    H153826   5.288   5.225  12.001
 9877TIP3    H253827   5.388   5.337  12.020
 9878TIP3   OH253828   5.052   4.755  12.371
 9878TIP3    H153829   4.992   4.690  12.409
 9878TIP3    H253830   5.122   4.703  12.332
 9879TIP3   OH253831   5.560   6.023  12.178
 9879TIP3    H153832   5.575   5.930  12.158
 9879TIP3    H253833   5.487   6.023  12.240
 9880TIP3   OH253834   5.986   4.969  12.031
 9880TIP3    H153835   5.894   4.976  12.058
 9880TIP3    H253836   6.007   5.056  11.995
 9881TIP3   OH253837   5.817   6.132  12.140
 9881TIP3    H153838   5.797   6.225  12.144
 9881TIP3    H253839   5.734   6.088  12.154
 9882TIP3   OH253840   6.752   5.437  12.067
 9882TIP3    H153841   6.704   5.368  12.022
 9882TIP3    H253842   6.700   5.516  12.055
 9883TIP3   OH253843   6.522   6.279  12.241
 9883TIP3    H153844   6.473   6.197  12.239
 9883TIP3    H253845   6.580   6.275  12.165
 9884TIP3   OH253846   5.286   6.232  12.368
 9884TIP3    H153847   5.318   6.312  12.409
 9884TIP3    H253848   5.228   6.263  12.299
 9885TIP3   OH253849   4.798   5.592  12.121
 9885TIP3    H153850   4.845   5.618  12.200
 9885TIP3    H253851   4.705   5.593  12.146
 9886TIP3   OH253852   5.333   5.955  12.331
 9886TIP3    H153853   5.312   6.044  12.359
 9886TIP3    H253854   5.255   5.904  12.354
 9887TIP3   OH253855   5.320   6.518  12.430
 9887TIP3    H153856   5.231   6.537  12.459
 9887TIP3    H253857   5.375   6.580  12.477
 9888TIP3   OH253858   6.279   6.158  11.990
 9888TIP3    H153859   6.310   6.114  12.069
 9888TIP3    H253860   6.190   6.126  11.978
 9889TIP3   OH253861   6.712   6.594  12.062
 9889TIP3    H153862   6.701   6.642  11.980
 9889TIP3    H253863   6.639   6.623  12.116
 9890TIP3   OH253864   6.397   6.029  12.211
 9890TIP3    H153865   6.340   5.994  12.279
 9890TIP3    H253866   6.472   5.969  12.208
 9891TIP3   OH253867   5.538   6.177  11.770
 9891TIP3    H153868   5.490   6.095  11.764
 9891TIP3    H253869   5.520   6.209  11.858
 9892TIP3   OH253870   5.482   6.253  12.029
 9892TIP3    H153871   5.506   6.180  12.085
 9892TIP3    H253872   5.478   6.329  12.088
 9893TIP3   OH253873   6.068   4.812  12.246
 9893TIP3    H153874   6.045   4.865  12.170
 9893TIP3    H253875   6.108   4.875  12.307
 9894TIP3   OH253876   5.748   6.401  12.171
 9894TIP3    H153877   5.657   6.420  12.193
 9894TIP3    H253878   5.766   6.457  12.096
 9895TIP3   OH253879   5.816   4.708  12.316
 9895TIP3    H153880   5.815   4.682  12.409
 9895TIP3    H253881   5.904   4.741  12.301
 9896TIP3   OH253882   5.485   6.485  12.199
 9896TIP3    H153883   5.501   6.573  12.165
 9896TIP3    H253884   5.428   6.499  12.274
 9897TIP3   OH253885   5.373   4.942  12.165
 9897TIP3    H153886   5.341   5.015  12.218
 9897TIP3    H253887   5.451   4.910  12.211
 9898TIP3   OH253888   4.927   6.173  11.861
 9898TIP3    H153889   4.982   6.251  11.856
 9898TIP3    H253890   4.990   6.100  11.866
 9899TIP3   OH253891   4.829   6.532  12.378
 9899TIP3    H153892   4.790   6.445  12.370
 9899TIP3    H253893   4.823   6.569  12.290
 9900TIP3   OH253894   5.732   6.393  11.738
 9900TIP3    H153895   5.672   6.319  11.744
 9900TIP3    H253896   5.819   6.353  11.744
 9901TIP3   OH253897   6.232   6.410  11.884
 9901TIP3    H153898   6.259   6.330  11.928
 9901TIP3    H253899   6.305   6.432  11.826
 9902TIP3   OH253900   5.118   5.970  11.853
 9902TIP3    H153901   5.136   5.924  11.935
 9902TIP3    H253902   5.203   5.974  11.809
 9903TIP3   OH253903   6.007   6.091  11.935
 9903TIP3    H153904   5.943   6.095  12.006
 9903TIP3    H253905   5.985   6.010  11.888
 9904TIP3   OH253906   5.494   5.743  12.226
 9904TIP3    H153907   5.443   5.804  12.279
 9904TIP3    H253908   5.428   5.691  12.180
 9905TIP3   OH253909   6.466   5.837  11.855
 9905TIP3    H153910   6.519   5.801  11.784
 9905TIP3    H253911   6.490   5.930  11.858
 9906TIP3   OH253912   5.589   6.730  12.081
 9906TIP3    H153913   5.650   6.680  12.026
 9906TIP3    H253914   5.571   6.808  12.031
 9907TIP3   OH253915   4.652   6.141  11.882
 9907TIP3    H153916   4.744   6.161  11.895
 9907TIP3    H253917   4.651   6.052  11.846
 9908TIP3   OH253918   4.463   6.758  12.501
 9908TIP3    H153919   4.441   6.690  12.438
 9908TIP3    H253920   4.552   6.735  12.530
 9909TIP3   OH253921   4.734   6.699  12.582
 9909TIP3    H153922   4.766   6.644  12.510
 9909TIP3    H253923   4.725   6.639  12.656
 9910TIP3   OH253924   6.613   5.854  12.240
 9910TIP3    H153925   6.698   5.898  12.236
 9910TIP3    H253926   6.622   5.793  12.313
 9911TIP3   OH253927   6.644   5.665  12.440
 9911TIP3    H153928   6.570   5.632  12.490
 9911TIP3    H253929   6.712   5.681  12.505
 9912TIP3   OH253930   6.635   5.685  12.021
 9912TIP3    H153931   6.567   5.721  11.964
 9912TIP3    H253932   6.629   5.738  12.101
 9913TIP3   OH253933   6.657   5.238  11.903
 9913TIP3    H153934   6.620   5.247  11.815
 9913TIP3    H253935   6.652   5.144  11.922
 9914TIP3   OH253936   6.450   5.544  12.605
 9914TIP3    H153937   6.463   5.450  12.609
 9914TIP3    H253938   6.471   5.575  12.693
 9915TIP3   OH253939   6.613   4.963  11.946
 9915TIP3    H153940   6.657   4.890  11.989
 9915TIP3    H253941   6.527   4.967  11.988
 9916TIP3   OH253942   6.478   5.089  12.457
 9916TIP3    H153943   6.481   4.996  12.433
 9916TIP3    H253944   6.565   5.121  12.434
 9917TIP3   OH253945   6.444   4.819  12.377
 9917TIP3    H153946   6.536   4.793  12.382
 9917TIP3    H253947   6.403   4.753  12.321
 9918TIP3   OH253948   4.655   4.913  12.561
 9918TIP3    H153949   4.605   4.892  12.640
 9918TIP3    H253950   4.740   4.941  12.593
 9919TIP3   OH253951   6.735   4.732  12.036
 9919TIP3    H153952   6.751   4.683  11.955
 9919TIP3    H253953   6.822   4.745  12.073
 9920TIP3   OH253954   6.505   6.602  12.653
 9920TIP3    H153955   6.515   6.564  12.565
 9920TIP3    H253956   6.562   6.679  12.653
 9921TIP3   OH253957   4.728   6.502  12.774
 9921TIP3    H153958   4.678   6.454  12.839
 9921TIP3    H253959   4.815   6.463  12.776
 9922TIP3   OH253960   4.991   6.400  12.745
 9922TIP3    H153961   4.993   6.304  12.735
 9922TIP3    H253962   5.063   6.420  12.804
 9923TIP3   OH253963   5.797   4.624  12.575
 9923TIP3    H153964   5.781   4.677  12.653
 9923TIP3    H253965   5.871   4.568  12.599
 9924TIP3   OH253966   6.261   4.559  12.636
 9924TIP3    H153967   6.267   4.651  12.609
 9924TIP3    H253968   6.168   4.537  12.629
 9925TIP3   OH253969   6.709   4.755  12.391
 9925TIP3    H153970   6.740   4.683  12.446
 9925TIP3    H253971   6.787   4.806  12.371
 9926TIP3   OH253972   4.874   4.560  12.474
 9926TIP3    H153973   4.812   4.602  12.534
 9926TIP3    H253974   4.918   4.494  12.528
 9927TIP3   OH253975   4.762   4.505  12.222
 9927TIP3    H153976   4.830   4.549  12.171
 9927TIP3    H253977   4.788   4.517  12.313
 9928TIP3   OH253978   5.552   4.486  12.593
 9928TIP3    H153979   5.633   4.530  12.565
 9928TIP3    H253980   5.546   4.505  12.687
 9929TIP3   OH253981   6.006   4.451  12.622
 9929TIP3    H153982   6.001   4.388  12.550
 9929TIP3    H253983   6.014   4.396  12.700
 9930TIP3   OH253984   6.296   4.650  12.211
 9930TIP3    H153985   6.218   4.705  12.215
 9930TIP3    H253986   6.261   4.561  12.207
 9931TIP3   OH253987   4.787   6.632  12.123
 9931TIP3    H153988   4.697   6.616  12.092
 9931TIP3    H253989   4.797   6.727  12.121
 9932TIP3   OH253990   4.993   4.867  11.853
 9932TIP3    H153991   5.000   4.774  11.830
 9932TIP3    H253992   5.081   4.891  11.881
 9933TIP3   OH253993   5.605   4.889  12.308
 9933TIP3    H153994   5.669   4.818  12.307
 9933TIP3    H253995   5.610   4.925  12.396
 9934TIP3   OH253996   5.775   6.568  11.951
 9934TIP3    H153997   5.868   6.588  11.941
 9934TIP3    H253998   5.753   6.516  11.873
 9935TIP3   OH253999   6.544   6.506  12.393
 9935TIP3    H154000   6.531   6.422  12.350
 9935TIP3    H254001   6.519   6.571  12.327
 9936TIP3   OH254002   4.930   6.603  11.877
 9936TIP3    H154003   4.901   6.587  11.967
 9936TIP3    H254004   4.980   6.524  11.854
 9937TIP3   OH254005   8.297   5.854  12.437
 9937TIP3    H154006   8.300   5.948  12.422
 9937TIP3    H254007   8.205   5.836  12.456
 9938TIP3   OH254008   8.518   5.940  12.852
 9938TIP3    H154009   8.469   5.959  12.772
 9938TIP3    H254010   8.513   6.021  12.903
 9939TIP3   OH254011   6.801   5.448  12.347
 9939TIP3    H154012   6.743   5.522  12.366
 9939TIP3    H254013   6.793   5.435  12.253
 9940TIP3   OH254014   6.842   5.672  12.630
 9940TIP3    H154015   6.815   5.672  12.722
 9940TIP3    H254016   6.887   5.589  12.618
 9941TIP3   OH254017   8.402   6.591  12.878
 9941TIP3    H154018   8.359   6.511  12.848
 9941TIP3    H254019   8.446   6.566  12.959
 9942TIP3   OH254020   8.578   5.221  12.929
 9942TIP3    H154021   8.646   5.245  12.993
 9942TIP3    H254022   8.557   5.130  12.949
 9943TIP3   OH254023   6.948   5.420  12.579
 9943TIP3    H154024   7.027   5.374  12.551
 9943TIP3    H254025   6.892   5.421  12.501
 9944TIP3   OH254026   8.278   6.125  12.393
 9944TIP3    H154027   8.210   6.147  12.329
 9944TIP3    H254028   8.259   6.182  12.468
 9945TIP3   OH254029   6.862   5.967  12.207
 9945TIP3    H154030   6.878   6.032  12.139
 9945TIP3    H254031   6.949   5.933  12.230
 9946TIP3   OH254032   7.728   4.631  12.769
 9946TIP3    H154033   7.751   4.667  12.855
 9946TIP3    H254034   7.639   4.665  12.753
 9947TIP3   OH254035   8.429   6.444  12.421
 9947TIP3    H154036   8.474   6.368  12.384
 9947TIP3    H254037   8.500   6.496  12.459
 9948TIP3   OH254038   8.539   6.193  12.327
 9948TIP3    H154039   8.571   6.113  12.286
 9948TIP3    H254040   8.449   6.172  12.353
 9949TIP3   OH254041   8.487   5.706  12.307
 9949TIP3    H154042   8.419   5.753  12.357
 9949TIP3    H254043   8.528   5.649  12.372
 9950TIP3   OH254044   7.735   6.078  12.848
 9950TIP3    H154045   7.707   6.069  12.756
 9950TIP3    H254046   7.792   6.003  12.863
 9951TIP3   OH254047   8.422   5.529  12.103
 9951TIP3    H154048   8.446   5.589  12.174
 9951TIP3    H254049   8.463   5.567  12.026
 9952TIP3   OH254050   8.270   6.293  12.615
 9952TIP3    H154051   8.319   6.362  12.570
 9952TIP3    H254052   8.289   6.305  12.707
 9953TIP3   OH254053   8.854   4.529  12.161
 9953TIP3    H154054   8.901   4.591  12.105
 9953TIP3    H254055   8.808   4.583  12.225
 9954TIP3   OH254056   8.879   6.299  12.029
 9954TIP3    H154057   8.854   6.388  12.004
 9954TIP3    H254058   8.975   6.302  12.036
 9955TIP3   OH254059   8.112   6.756  12.260
 9955TIP3    H154060   8.034   6.747  12.205
 9955TIP3    H254061   8.104   6.844  12.297
 9956TIP3   OH254062   7.193   6.580  12.645
 9956TIP3    H154063   7.280   6.543  12.654
 9956TIP3    H254064   7.160   6.545  12.562
 9957TIP3   OH254065   8.344   6.597  11.951
 9957TIP3    H154066   8.392   6.516  11.933
 9957TIP3    H254067   8.360   6.615  12.043
 9958TIP3   OH254068   8.363   6.647  12.229
 9958TIP3    H154069   8.275   6.682  12.241
 9958TIP3    H254070   8.369   6.574  12.290
 9959TIP3   OH254071   7.472   4.727  12.731
 9959TIP3    H154072   7.424   4.678  12.664
 9959TIP3    H254073   7.425   4.810  12.737
 9960TIP3   OH254074   8.526   5.671  11.887
 9960TIP3    H154075   8.538   5.638  11.799
 9960TIP3    H254076   8.607   5.718  11.907
 9961TIP3   OH254077   7.920   4.944  11.998
 9961TIP3    H154078   7.872   4.862  11.986
 9961TIP3    H254079   7.901   4.994  11.919
 9962TIP3   OH254080   7.584   4.922  11.945
 9962TIP3    H154081   7.546   4.917  12.032
 9962TIP3    H254082   7.516   4.960  11.891
 9963TIP3   OH254083   7.960   5.117  12.591
 9963TIP3    H154084   7.899   5.047  12.616
 9963TIP3    H254085   8.035   5.071  12.553
 9964TIP3   OH254086   7.433   5.193  12.061
 9964TIP3    H154087   7.423   5.152  11.975
 9964TIP3    H254088   7.404   5.283  12.049
 9965TIP3   OH254089   7.989   5.347  12.752
 9965TIP3    H154090   7.963   5.272  12.698
 9965TIP3    H254091   8.084   5.343  12.755
 9966TIP3   OH254092   8.306   5.041  12.136
 9966TIP3    H154093   8.285   4.998  12.219
 9966TIP3    H254094   8.360   5.116  12.161
 9967TIP3   OH254095   8.454   5.267  12.188
 9967TIP3    H154096   8.534   5.276  12.240
 9967TIP3    H254097   8.437   5.355  12.155
 9968TIP3   OH254098   8.081   6.149  12.192
 9968TIP3    H154099   8.048   6.235  12.167
 9968TIP3    H254100   8.003   6.096  12.208
 9969TIP3   OH254101   8.905   5.380  12.167
 9969TIP3    H154102   8.889   5.337  12.083
 9969TIP3    H254103   8.889   5.473  12.149
 9970TIP3   OH254104   8.777   6.342  12.293
 9970TIP3    H154105   8.695   6.294  12.309
 9970TIP3    H254106   8.802   6.318  12.204
 9971TIP3   OH254107   7.444   6.459  12.660
 9971TIP3    H154108   7.491   6.416  12.731
 9971TIP3    H254109   7.509   6.468  12.590
 9972TIP3   OH254110   6.877   5.687  11.880
 9972TIP3    H154111   6.907   5.597  11.893
 9972TIP3    H254112   6.794   5.693  11.927
 9973TIP3   OH254113   7.639   6.586  12.441
 9973TIP3    H154114   7.576   6.655  12.458
 9973TIP3    H254115   7.713   6.606  12.499
 9974TIP3   OH254116   8.524   6.106  11.993
 9974TIP3    H154117   8.551   6.053  12.068
 9974TIP3    H254118   8.430   6.092  11.985
 9975TIP3   OH254119   8.845   6.566  11.980
 9975TIP3    H154120   8.833   6.625  11.906
 9975TIP3    H254121   8.837   6.622  12.057
 9976TIP3   OH254122   8.604   5.946  12.210
 9976TIP3    H154123   8.550   5.869  12.229
 9976TIP3    H254124   8.693   5.920  12.235
 9977TIP3   OH254125   7.756   6.248  11.799
 9977TIP3    H154126   7.713   6.162  11.804
 9977TIP3    H254127   7.709   6.302  11.862
 9978TIP3   OH254128   7.600   6.375  11.995
 9978TIP3    H154129   7.575   6.309  12.060
 9978TIP3    H254130   7.646   6.442  12.045
 9979TIP3   OH254131   7.393   5.828  12.151
 9979TIP3    H154132   7.316   5.773  12.165
 9979TIP3    H254133   7.454   5.802  12.219
 9980TIP3   OH254134   7.961   6.385  12.120
 9980TIP3    H154135   7.880   6.425  12.149
 9980TIP3    H254136   8.005   6.453  12.070
 9981TIP3   OH254137   7.733   6.540  12.176
 9981TIP3    H154138   7.776   6.623  12.154
 9981TIP3    H254139   7.702   6.552  12.266
 9982TIP3   OH254140   7.421   4.931  12.170
 9982TIP3    H154141   7.411   5.026  12.160
 9982TIP3    H254142   7.347   4.904  12.224
 9983TIP3   OH254143   8.612   5.423  12.741
 9983TIP3    H154144   8.580   5.347  12.789
 9983TIP3    H254145   8.689   5.452  12.791
 9984TIP3   OH254146   7.195   6.215  11.967
 9984TIP3    H154147   7.246   6.285  11.925
 9984TIP3    H254148   7.251   6.138  11.963
 9985TIP3   OH254149   6.944   5.405  11.870
 9985TIP3    H154150   6.886   5.406  11.947
 9985TIP3    H254151   6.984   5.318  11.871
 9986TIP3   OH254152   7.113   6.478  12.400
 9986TIP3    H154153   7.055   6.529  12.343
 9986TIP3    H254154   7.131   6.398  12.351
 9987TIP3   OH254155   7.993   6.395  11.758
 9987TIP3    H154156   7.922   6.336  11.783
 9987TIP3    H254157   8.072   6.341  11.763
 9988TIP3   OH254158   8.475   6.360  11.874
 9988TIP3    H154159   8.506   6.284  11.923
 9988TIP3    H254160   8.541   6.372  11.805
 9989TIP3   OH254161   7.364   5.998  11.929
 9989TIP3    H154162   7.374   5.940  12.004
 9989TIP3    H254163   7.451   6.003  11.890
 9990TIP3   OH254164   8.249   6.065  11.981
 9990TIP3    H154165   8.196   6.088  12.057
 9990TIP3    H254166   8.255   5.969  11.984
 9991TIP3   OH254167   7.748   5.371  11.867
 9991TIP3    H154168   7.746   5.277  11.847
 9991TIP3    H254169   7.756   5.413  11.781
 9992TIP3   OH254170   8.775   5.792  11.896
 9992TIP3    H154171   8.820   5.757  11.819
 9992TIP3    H254172   8.785   5.887  11.889
 9993TIP3   OH254173   7.890   6.757  12.080
 9993TIP3    H154174   7.947   6.704  12.023
 9993TIP3    H254175   7.872   6.836  12.029
 9994TIP3   OH254176   6.932   6.139  11.998
 9994TIP3    H154177   7.021   6.174  11.993
 9994TIP3    H254178   6.927   6.075  11.927
 9995TIP3   OH254179   6.798   6.585  12.465
 9995TIP3    H154180   6.718   6.540  12.439
 9995TIP3    H254181   6.852   6.585  12.387
 9996TIP3   OH254182   8.843   5.846  12.315
 9996TIP3    H154183   8.920   5.900  12.332
 9996TIP3    H254184   8.833   5.793  12.394
 9997TIP3   OH254185   8.824   5.684  12.537
 9997TIP3    H154186   8.745   5.636  12.514
 9997TIP3    H254187   8.861   5.635  12.610
 9998TIP3   OH254188   8.922   5.856  13.058
 9998TIP3    H154189   8.996   5.799  13.034
 9998TIP3    H254190   8.935   5.872  13.152
 9999TIP3   OH254191   8.851   5.645  12.120
 9999TIP3    H154192   8.822   5.689  12.039
 9999TIP3    H254193   8.844   5.712  12.187
10000TIP3   OH254194   8.845   5.248  11.935
10000TIP3    H154195   8.807   5.272  11.850
10000TIP3    H254196   8.852   5.152  11.932
10001TIP3   OH254197   8.607   5.524  12.484
10001TIP3    H154198   8.626   5.448  12.429
10001TIP3    H254199   8.592   5.488  12.572
10002TIP3   OH254200   8.847   4.966  11.976
10002TIP3    H154201   8.895   4.884  11.992
10002TIP3    H254202   8.815   4.992  12.062
10003TIP3   OH254203   8.695   5.306  12.332
10003TIP3    H154204   8.735   5.235  12.382
10003TIP3    H254205   8.764   5.336  12.273
10004TIP3   OH254206   8.758   4.703  12.356
10004TIP3    H154207   8.806   4.662  12.428
10004TIP3    H254208   8.678   4.737  12.398
10005TIP3   OH254209   8.993   4.725  12.010
10005TIP3    H154210   8.985   4.690  11.921
10005TIP3    H254211   9.085   4.753  12.016
10006TIP3   OH254212   8.623   6.608  12.525
10006TIP3    H154213   8.718   6.599  12.518
10006TIP3    H254214   8.610   6.658  12.605
10007TIP3   OH254215   7.575   6.317  12.859
10007TIP3    H154216   7.617   6.233  12.879
10007TIP3    H254217   7.533   6.343  12.941
10008TIP3   OH254218   8.914   4.607  12.553
10008TIP3    H154219   8.979   4.538  12.569
10008TIP3    H254220   8.959   4.687  12.578
10009TIP3   OH254221   7.883   4.538  12.560
10009TIP3    H154222   7.956   4.599  12.548
10009TIP3    H254223   7.834   4.574  12.634
10010TIP3   OH254224   6.940   6.610  12.224
10010TIP3    H154225   6.866   6.597  12.165
10010TIP3    H254226   6.968   6.701  12.208
10011TIP3   OH254227   7.186   4.864  12.018
10011TIP3    H154228   7.282   4.863  12.023
10011TIP3    H254229   7.158   4.863  12.109
10012TIP3   OH254230   8.062   6.585  11.949
10012TIP3    H154231   8.157   6.595  11.946
10012TIP3    H254232   8.042   6.530  11.873
10013TIP3   OH254233   8.874   6.579  12.399
10013TIP3    H154234   8.847   6.493  12.368
10013TIP3    H254235   8.871   6.635  12.322
10014TIP3   OH254236   7.159   6.594  11.885
10014TIP3    H154237   7.132   6.572  11.974
10014TIP3    H254238   7.224   6.528  11.863
10015TIP3   OH254239   9.153   5.354  12.298
10015TIP3    H154240   9.126   5.421  12.360
10015TIP3    H254241   9.078   5.345  12.239
10016TIP3   OH254242   8.996   6.264  12.733
10016TIP3    H154243   8.963   6.255  12.643
10016TIP3    H254244   8.918   6.256  12.788
10017TIP3   OH254245   9.045   4.848  12.567
10017TIP3    H154246   9.129   4.853  12.612
10017TIP3    H254247   9.065   4.871  12.476
10018TIP3   OH254248   9.023   6.721  12.587
10018TIP3    H154249   8.975   6.676  12.518
10018TIP3    H254250   9.061   6.651  12.640
10019TIP3   OH254251   9.133   6.505  12.711
10019TIP3    H154252   9.087   6.422  12.725
10019TIP3    H254253   0.008   6.480  12.698
10020TIP3   OH254254   9.138   5.692  13.007
10020TIP3    H154255   9.107   5.603  13.020
10020TIP3    H254256   0.014   5.683  12.982
10021TIP3   OH254257   8.994   4.838  12.271
10021TIP3    H154258   8.917   4.806  12.319
10021TIP3    H254259   8.993   4.790  12.189
10022TIP3   OH254260   1.520   7.929  12.511
10022TIP3    H154261   1.474   7.964  12.587
10022TIP3    H254262   1.452   7.915  12.446
10023TIP3   OH254263   1.653   8.296  12.681
10023TIP3    H154264   1.583   8.256  12.732
10023TIP3    H254265   1.732   8.246  12.705
10024TIP3   OH254266   0.113   7.580  12.462
10024TIP3    H154267   0.126   7.628  12.543
10024TIP3    H254268   0.031   7.614  12.426
10025TIP3   OH254269   0.170   7.706  12.707
10025TIP3    H154270   0.236   7.639  12.726
10025TIP3    H254271   0.204   7.786  12.747
10026TIP3   OH254272   1.585   7.447  12.959
10026TIP3    H154273   1.558   7.357  12.975
10026TIP3    H254274   1.506   7.499  12.976
10027TIP3   OH254275   0.611   7.345  12.585
10027TIP3    H154276   0.556   7.411  12.544
10027TIP3    H254277   0.576   7.261  12.553
10028TIP3   OH254278   1.657   7.264  12.460
10028TIP3    H154279   1.666   7.239  12.552
10028TIP3    H254280   1.743   7.300  12.437
10029TIP3   OH254281   0.346   7.494  12.748
10029TIP3    H154282   0.390   7.418  12.786
10029TIP3    H254283   0.358   7.485  12.654
10030TIP3   OH254284   1.366   8.159  12.295
10030TIP3    H154285   1.320   8.219  12.238
10030TIP3    H254286   1.436   8.212  12.334
10031TIP3   OH254287   1.736   7.179  12.717
10031TIP3    H154288   1.732   7.181  12.813
10031TIP3    H254289   1.782   7.097  12.697
10032TIP3   OH254290   0.473   7.267  12.832
10032TIP3    H154291   0.503   7.220  12.909
10032TIP3    H254292   0.550   7.272  12.775
10033TIP3   OH254293   0.305   8.258  12.116
10033TIP3    H154294   0.219   8.218  12.124
10033TIP3    H254295   0.304   8.330  12.179
10034TIP3   OH254296   1.583   8.297  12.403
10034TIP3    H154297   1.663   8.265  12.360
10034TIP3    H254298   1.606   8.301  12.496
10035TIP3   OH254299   1.344   7.890  12.297
10035TIP3    H154300   1.341   7.985  12.300
10035TIP3    H254301   1.353   7.869  12.203
10036TIP3   OH254302   1.394   7.773  12.047
10036TIP3    H154303   1.486   7.762  12.074
10036TIP3    H254304   1.357   7.685  12.052
10037TIP3   OH254305   1.734   7.922  12.337
10037TIP3    H154306   1.657   7.934  12.393
10037TIP3    H254307   1.799   7.880  12.393
10038TIP3   OH254308   0.715   8.094  12.419
10038TIP3    H154309   0.681   8.026  12.361
10038TIP3    H254310   0.716   8.054  12.506
10039TIP3   OH254311   1.653   7.747  12.131
10039TIP3    H154312   1.680   7.807  12.201
10039TIP3    H254313   1.697   7.780  12.053
10040TIP3   OH254314   1.344   8.708  12.384
10040TIP3    H154315   1.335   8.626  12.335
10040TIP3    H254316   1.255   8.728  12.414
10041TIP3   OH254317   2.019   6.854  12.149
10041TIP3    H154318   1.928   6.868  12.176
10041TIP3    H254319   2.048   6.938  12.115
10042TIP3   OH254320   0.611   7.887  12.252
10042TIP3    H154321   0.540   7.921  12.197
10042TIP3    H254322   0.588   7.795  12.266
10043TIP3   OH254323   2.198   8.465  12.084
10043TIP3    H154324   2.211   8.560  12.079
10043TIP3    H254325   2.282   8.428  12.058
10044TIP3   OH254326   0.135   8.559  12.791
10044TIP3    H154327   0.175   8.510  12.863
10044TIP3    H254328   0.063   8.607  12.832
10045TIP3   OH254329   1.587   8.846  11.997
10045TIP3    H154330   1.633   8.768  11.966
10045TIP3    H254331   1.579   8.833  12.091
10046TIP3   OH254332   1.581   8.798  12.272
10046TIP3    H154333   1.495   8.786  12.312
10046TIP3    H254334   1.632   8.724  12.302
10047TIP3   OH254335   1.756   7.881  11.909
10047TIP3    H154336   1.768   7.872  11.814
10047TIP3    H254337   1.837   7.922  11.939
10048TIP3   OH254338   1.164   7.262  12.046
10048TIP3    H154339   1.125   7.229  12.127
10048TIP3    H254340   1.095   7.254  11.980
10049TIP3   OH254341   0.534   7.602  12.286
10049TIP3    H154342   0.483   7.564  12.358
10049TIP3    H254343   0.612   7.547  12.280
10050TIP3   OH254344   1.304   7.633  12.389
10050TIP3    H154345   1.313   7.724  12.361
10050TIP3    H254346   1.366   7.585  12.335
10051TIP3   OH254347   1.180   7.665  12.633
10051TIP3    H154348   1.221   7.743  12.671
10051TIP3    H254349   1.225   7.651  12.550
10052TIP3   OH254350   0.921   7.219  11.902
10052TIP3    H154351   0.881   7.203  11.987
10052TIP3    H254352   0.864   7.285  11.861
10053TIP3   OH254353   0.049   6.999  12.593
10053TIP3    H154354   0.117   7.047  12.640
10053TIP3    H254355   0.054   7.033  12.503
10054TIP3   OH254356   0.129   7.361  12.288
10054TIP3    H154357   0.188   7.401  12.223
10054TIP3    H254358   0.105   7.433  12.346
10055TIP3   OH254359   0.851   7.375  12.717
10055TIP3    H154360   0.772   7.375  12.664
10055TIP3    H254361   0.840   7.301  12.777
10056TIP3   OH254362   0.371   7.456  12.470
10056TIP3    H154363   0.285   7.494  12.453
10056TIP3    H254364   0.361   7.364  12.445
10057TIP3   OH254365   0.760   7.433  12.278
10057TIP3    H154366   0.837   7.419  12.333
10057TIP3    H254367   0.795   7.470  12.197
10058TIP3   OH254368   0.832   7.535  12.035
10058TIP3    H154369   0.805   7.499  11.951
10058TIP3    H254370   0.868   7.622  12.014
10059TIP3   OH254371   0.421   7.154  12.500
10059TIP3    H154372   0.357   7.149  12.571
10059TIP3    H254373   0.433   7.064  12.471
10060TIP3   OH254374   0.958   8.231  12.090
10060TIP3    H154375   0.907   8.151  12.079
10060TIP3    H254376   0.931   8.265  12.176
10061TIP3   OH254377   1.436   7.265  12.089
10061TIP3    H154378   1.341   7.265  12.072
10061TIP3    H254379   1.454   7.354  12.121
10062TIP3   OH254380   1.512   7.516  12.220
10062TIP3    H154381   1.561   7.471  12.288
10062TIP3    H254382   1.570   7.586  12.191
10063TIP3   OH254383   1.225   8.316  12.111
10063TIP3    H154384   1.207   8.403  12.147
10063TIP3    H254385   1.138   8.276  12.101
10064TIP3   OH254386   2.202   7.590  12.141
10064TIP3    H154387   2.194   7.537  12.062
10064TIP3    H254388   2.203   7.680  12.109
10065TIP3   OH254389   2.082   8.552  12.330
10065TIP3    H154390   2.104   8.483  12.392
10065TIP3    H254391   2.115   8.521  12.246
10066TIP3   OH254392   1.482   8.162  12.849
10066TIP3    H154393   1.410   8.114  12.808
10066TIP3    H254394   1.482   8.131  12.940
10067TIP3   OH254395   0.227   7.880  11.956
10067TIP3    H154396   0.303   7.916  12.002
10067TIP3    H254397   0.184   7.825  12.021
10068TIP3   OH254398   0.864   8.317  12.334
10068TIP3    H154399   0.864   8.390  12.396
10068TIP3    H254400   0.820   8.246  12.381
10069TIP3   OH254401   1.735   8.379  12.053
10069TIP3    H154402   1.747   8.333  12.136
10069TIP3    H254403   1.647   8.353  12.024
10070TIP3   OH254404   2.220   8.745  12.092
10070TIP3    H154405   2.242   8.787  12.009
10070TIP3    H254406   2.145   8.793  12.125
10071TIP3   OH254407   1.799   8.187  12.253
10071TIP3    H154408   1.775   8.096  12.269
10071TIP3    H254409   1.879   8.183  12.202
10072TIP3   OH254410   1.121   8.390  11.764
10072TIP3    H154411   1.036   8.416  11.730
10072TIP3    H254412   1.102   8.335  11.839
10073TIP3   OH254413   0.442   8.016  12.064
10073TIP3    H154414   0.409   8.103  12.086
10073TIP3    H254415   0.501   8.030  11.990
10074TIP3   OH254416   1.550   7.092  12.273
10074TIP3    H154417   1.515   7.150  12.206
10074TIP3    H254418   1.581   7.150  12.342
10075TIP3   OH254419   1.159   8.563  12.208
10075TIP3    H154420   1.125   8.597  12.291
10075TIP3    H254421   1.152   8.636  12.147
10076TIP3   OH254422   0.982   7.371  12.455
10076TIP3    H154423   1.055   7.432  12.468
10076TIP3    H254424   0.946   7.358  12.542
10077TIP3   OH254425   1.280   7.012  12.343
10077TIP3    H154426   1.294   6.982  12.433
10077TIP3    H254427   1.367   7.034  12.310
10078TIP3   OH254428   0.794   7.183  12.143
10078TIP3    H154429   0.760   7.257  12.193
10078TIP3    H254430   0.870   7.153  12.193
10079TIP3   OH254431   1.768   7.533  12.751
10079TIP3    H154432   1.723   7.617  12.755
10079TIP3    H254433   1.709   7.473  12.797
10080TIP3   OH254434   0.323   7.491  12.131
10080TIP3    H154435   0.391   7.542  12.175
10080TIP3    H254436   0.369   7.442  12.064
10081TIP3   OH254437   0.361   6.871  12.763
10081TIP3    H154438   0.395   6.866  12.673
10081TIP3    H254439   0.333   6.781  12.782
10082TIP3   OH254440   0.280   8.468  12.288
10082TIP3    H154441   0.266   8.483  12.381
10082TIP3    H254442   0.270   8.554  12.248
10083TIP3   OH254443   1.254   8.627  11.813
10083TIP3    H154444   1.204   8.546  11.801
10083TIP3    H254445   1.346   8.599  11.810
10084TIP3   OH254446   1.727   8.623  11.909
10084TIP3    H154447   1.755   8.547  11.960
10084TIP3    H254448   1.800   8.639  11.850
10085TIP3   OH254449   0.631   8.039  11.854
10085TIP3    H154450   0.688   8.037  11.931
10085TIP3    H254451   0.688   8.017  11.781
10086TIP3   OH254452   1.476   8.294  11.985
10086TIP3    H154453   1.391   8.301  12.029
10086TIP3    H254454   1.488   8.200  11.972
10087TIP3   OH254455   0.798   7.994  12.069
10087TIP3    H154456   0.748   7.959  12.143
10087TIP3    H254457   0.850   7.919  12.039
10088TIP3   OH254458   0.953   7.783  11.971
10088TIP3    H154459   0.966   7.775  11.877
10088TIP3    H254460   1.042   7.796  12.006
10089TIP3   OH254461   2.003   8.003  11.955
10089TIP3    H154462   2.042   7.998  11.867
10089TIP3    H254463   2.006   8.096  11.978
10090TIP3   OH254464   0.888   8.849  12.090
10090TIP3    H154465   0.980   8.833  12.073
10090TIP3    H254466   0.882   8.856  12.185
10091TIP3   OH254467   0.327   8.346  11.851
10091TIP3    H154468   0.330   8.330  11.945
10091TIP3    H254469   0.274   8.275  11.815
10092TIP3   OH254470   0.187   8.838  12.448
10092TIP3    H154471   0.095   8.861  12.458
10092TIP3    H254472   0.235   8.917  12.472
10093TIP3   OH254473   0.243   8.579  12.537
10093TIP3    H154474   0.205   8.567  12.623
10093TIP3    H254475   0.223   8.670  12.514
10094TIP3   OH254476   2.276   7.982  12.289
10094TIP3    H154477   2.320   8.067  12.283
10094TIP3    H254478   2.261   7.969  12.382
10095TIP3   OH254479   2.204   7.917  12.548
10095TIP3    H154480   2.131   7.976  12.570
10095TIP3    H254481   2.241   7.892  12.633
10096TIP3   OH254482   2.212   7.853  12.061
10096TIP3    H154483   2.133   7.896  12.027
10096TIP3    H254484   2.232   7.899  12.142
10097TIP3   OH254485   1.929   7.397  11.811
10097TIP3    H154486   2.018   7.407  11.844
10097TIP3    H254487   1.888   7.335  11.871
10098TIP3   OH254488   1.985   7.504  12.577
10098TIP3    H154489   1.959   7.449  12.503
10098TIP3    H254490   1.907   7.510  12.632
10099TIP3   OH254491   1.857   7.210  12.000
10099TIP3    H154492   1.937   7.157  12.003
10099TIP3    H254493   1.788   7.149  12.028
10100TIP3   OH254494   1.911   7.336  12.365
10100TIP3    H154495   1.933   7.244  12.374
10100TIP3    H254496   1.933   7.357  12.274
10101TIP3   OH254497   1.954   7.065  12.382
10101TIP3    H154498   1.965   7.029  12.471
10101TIP3    H254499   1.884   7.012  12.344
10102TIP3   OH254500   0.262   7.120  12.725
10102TIP3    H154501   0.291   7.033  12.752
10102TIP3    H254502   0.319   7.180  12.773
10103TIP3   OH254503   0.214   7.551  12.989
10103TIP3    H154504   0.271   7.527  12.916
10103TIP3    H254505   0.125   7.535  12.957
10104TIP3   OH254506   2.103   7.079  11.995
10104TIP3    H154507   2.140   7.020  11.930
10104TIP3    H254508   2.147   7.162  11.980
10105TIP3   OH254509   0.049   7.100  12.338
10105TIP3    H154510   9.171   7.097  12.324
10105TIP3    H254511   0.073   7.190  12.315
10106TIP3   OH254512   1.860   8.908  12.533
10106TIP3    H154513   1.943   8.874  12.500
10106TIP3    H254514   1.867   8.899  12.628
10107TIP3   OH254515   1.878   6.949  12.654
10107TIP3    H154516   1.973   6.943  12.658
10107TIP3    H254517   1.850   6.866  12.615
10108TIP3   OH254518   2.140   6.924  12.577
10108TIP3    H154519   2.168   6.832  12.579
10108TIP3    H254520   2.195   6.965  12.511
10109TIP3   OH254521   0.396   6.865  12.479
10109TIP3    H154522   0.312   6.821  12.496
10109TIP3    H254523   0.460   6.795  12.480
10110TIP3   OH254524   0.226   6.900  12.253
10110TIP3    H154525   0.296   6.913  12.318
10110TIP3    H254526   0.163   6.969  12.273
10111TIP3   OH254527   0.884   6.656  12.655
10111TIP3    H154528   0.966   6.707  12.657
10111TIP3    H254529   0.841   6.679  12.738
10112TIP3   OH254530   1.753   6.898  12.258
10112TIP3    H154531   1.685   6.965  12.264
10112TIP3    H254532   1.706   6.816  12.245
10113TIP3   OH254533   0.274   8.730  12.209
10113TIP3    H154534   0.292   8.811  12.161
10113TIP3    H254535   0.240   8.760  12.293
10114TIP3   OH254536   0.594   7.142  11.944
10114TIP3    H154537   0.590   7.049  11.919
10114TIP3    H254538   0.653   7.144  12.019
10115TIP3   OH254539   1.044   7.160  12.274
10115TIP3    H154540   1.115   7.104  12.304
10115TIP3    H254541   1.030   7.222  12.346
10116TIP3   OH254542   1.155   8.774  12.028
10116TIP3    H154543   1.227   8.836  12.045
10116TIP3    H254544   1.184   8.725  11.951
10117TIP3   OH254545   2.092   8.817  12.412
10117TIP3    H154546   2.090   8.723  12.392
10117TIP3    H254547   2.076   8.860  12.328
10118TIP3   OH254548   0.413   8.869  11.850
10118TIP3    H154549   0.377   8.905  11.931
10118TIP3    H254550   0.507   8.864  11.865
10119TIP3   OH254551   3.675   7.997  12.399
10119TIP3    H154552   3.653   8.089  12.413
10119TIP3    H254553   3.676   7.959  12.487
10120TIP3   OH254554   3.974   8.098  12.592
10120TIP3    H154555   3.997   8.032  12.658
10120TIP3    H254556   3.914   8.157  12.637
10121TIP3   OH254557   2.254   7.665  12.416
10121TIP3    H154558   2.236   7.756  12.436
10121TIP3    H254559   2.225   7.653  12.326
10122TIP3   OH254560   2.284   7.837  12.798
10122TIP3    H154561   2.357   7.887  12.836
10122TIP3    H254562   2.224   7.825  12.872
10123TIP3   OH254563   3.762   8.633  12.625
10123TIP3    H154564   3.837   8.654  12.569
10123TIP3    H254565   3.798   8.633  12.713
10124TIP3   OH254566   3.744   7.522  13.003
10124TIP3    H154567   3.693   7.445  13.030
10124TIP3    H254568   3.766   7.506  12.911
10125TIP3   OH254569   3.236   7.259  12.565
10125TIP3    H154570   3.168   7.314  12.603
10125TIP3    H254571   3.188   7.184  12.528
10126TIP3   OH254572   3.938   7.325  12.543
10126TIP3    H154573   4.000   7.308  12.613
10126TIP3    H254574   3.992   7.345  12.467
10127TIP3   OH254575   2.465   7.405  12.756
10127TIP3    H154576   2.509   7.381  12.837
10127TIP3    H254577   2.465   7.325  12.704
10128TIP3   OH254578   3.020   7.797  12.504
10128TIP3    H154579   3.056   7.802  12.593
10128TIP3    H254580   3.004   7.704  12.490
10129TIP3   OH254581   3.608   8.257  12.434
10129TIP3    H154582   3.588   8.275  12.342
10129TIP3    H254583   3.583   8.336  12.480
10130TIP3   OH254584   4.123   7.301  12.745
10130TIP3    H154585   4.214   7.270  12.748
10130TIP3    H254586   4.120   7.374  12.806
10131TIP3   OH254587   2.561   7.314  13.003
10131TIP3    H154588   2.516   7.371  13.066
10131TIP3    H254589   2.573   7.232  13.051
10132TIP3   OH254590   2.412   8.219  12.256
10132TIP3    H154591   2.409   8.267  12.174
10132TIP3    H254592   2.405   8.287  12.324
10133TIP3   OH254593   3.953   8.673  12.431
10133TIP3    H154594   3.998   8.589  12.418
10133TIP3    H254595   4.023   8.735  12.448
10134TIP3   OH254596   4.074   8.409  12.415
10134TIP3    H154597   4.093   8.346  12.345
10134TIP3    H254598   4.057   8.354  12.492
10135TIP3   OH254599   3.505   7.889  12.208
10135TIP3    H154600   3.438   7.956  12.193
10135TIP3    H254601   3.565   7.928  12.272
10136TIP3   OH254602   3.664   7.771  12.014
10136TIP3    H154603   3.747   7.773  12.060
10136TIP3    H254604   3.601   7.808  12.076
10137TIP3   OH254605   3.947   8.011  12.328
10137TIP3    H154606   3.852   8.009  12.334
10137TIP3    H254607   3.976   8.033  12.416
10138TIP3   OH254608   3.016   8.041  12.366
10138TIP3    H154609   2.951   8.014  12.301
10138TIP3    H254610   3.028   7.964  12.421
10139TIP3   OH254611   3.912   7.805  12.137
10139TIP3    H154612   3.936   7.872  12.200
10139TIP3    H254613   3.956   7.832  12.056
10140TIP3   OH254614   3.541   8.516  12.526
10140TIP3    H154615   3.626   8.558  12.537
10140TIP3    H254616   3.515   8.539  12.436
10141TIP3   OH254617   4.295   6.798  12.131
10141TIP3    H154618   4.205   6.812  12.162
10141TIP3    H254619   4.325   6.885  12.104
10142TIP3   OH254620   2.838   7.931  12.180
10142TIP3    H154621   2.754   7.969  12.155
10142TIP3    H254622   2.815   7.850  12.225
10143TIP3   OH254623   4.451   8.501  11.982
10143TIP3    H154624   4.450   8.560  11.906
10143TIP3    H254625   4.537   8.459  11.979
10144TIP3   OH254626   2.289   8.526  12.841
10144TIP3    H154627   2.339   8.607  12.851
10144TIP3    H254628   2.206   8.542  12.885
10145TIP3   OH254629   3.542   8.978  12.362
10145TIP3    H154630   3.480   8.962  12.290
10145TIP3    H254631   3.512   9.060  12.401
10146TIP3   OH254632   2.836   8.812  12.637
10146TIP3    H154633   2.791   8.856  12.709
10146TIP3    H254634   2.769   8.757  12.596
10147TIP3   OH254635   3.815   8.832  12.000
10147TIP3    H154636   3.867   8.756  11.976
10147TIP3    H254637   3.824   8.839  12.095
10148TIP3   OH254638   3.794   8.863  12.277
10148TIP3    H154639   3.713   8.896  12.316
10148TIP3    H254640   3.824   8.795  12.337
10149TIP3   OH254641   4.014   7.904  11.894
10149TIP3    H154642   4.022   7.885  11.801
10149TIP3    H254643   4.096   7.948  11.917
10150TIP3   OH254644   3.476   7.101  11.989
10150TIP3    H154645   3.445   7.114  12.078
10150TIP3    H254646   3.422   7.029  11.955
10151TIP3   OH254647   2.978   7.523  12.480
10151TIP3    H154648   2.898   7.472  12.494
10151TIP3    H254649   3.020   7.482  12.405
10152TIP3   OH254650   3.540   7.609  12.298
10152TIP3    H154651   3.523   7.700  12.274
10152TIP3    H254652   3.635   7.600  12.291
10153TIP3   OH254653   3.797   7.492  12.717
10153TIP3    H154654   3.706   7.496  12.687
10153TIP3    H254655   3.838   7.428  12.659
10154TIP3   OH254656   3.114   7.147  11.908
10154TIP3    H154657   3.103   7.143  12.003
10154TIP3    H254658   3.044   7.205  11.878
10155TIP3   OH254659   2.409   7.202  12.571
10155TIP3    H154660   2.421   7.285  12.524
10155TIP3    H254661   2.349   7.152  12.516
10156TIP3   OH254662   2.278   7.331  12.211
10156TIP3    H154663   2.289   7.309  12.118
10156TIP3    H254664   2.240   7.419  12.210
10157TIP3   OH254665   3.456   7.099  12.658
10157TIP3    H154666   3.383   7.160  12.647
10157TIP3    H254667   3.477   7.103  12.752
10158TIP3   OH254668   2.405   7.436  12.434
10158TIP3    H154669   2.368   7.524  12.429
10158TIP3    H254670   2.378   7.394  12.352
10159TIP3   OH254671   3.101   7.408  12.263
10159TIP3    H154672   3.195   7.418  12.280
10159TIP3    H254673   3.088   7.445  12.176
10160TIP3   OH254674   3.066   7.494  12.008
10160TIP3    H154675   3.017   7.452  11.938
10160TIP3    H254676   3.091   7.580  11.972
10161TIP3   OH254677   3.095   7.047  12.446
10161TIP3    H154678   3.116   6.954  12.440
10161TIP3    H254679   3.075   7.073  12.356
10162TIP3   OH254680   3.304   8.104  12.159
10162TIP3    H154681   3.233   8.065  12.107
10162TIP3    H254682   3.259   8.161  12.221
10163TIP3   OH254683   3.620   7.342  12.060
10163TIP3    H154684   3.580   7.256  12.046
10163TIP3    H254685   3.588   7.368  12.147
10164TIP3   OH254686   3.816   7.578  12.266
10164TIP3    H154687   3.891   7.522  12.287
10164TIP3    H254688   3.853   7.654  12.223
10165TIP3   OH254689   3.524   8.301  12.171
10165TIP3    H154690   3.488   8.388  12.189
10165TIP3    H254691   3.447   8.246  12.156
10166TIP3   OH254692   4.284   7.486  12.154
10166TIP3    H154693   4.282   7.481  12.058
10166TIP3    H254694   4.313   7.575  12.173
10167TIP3   OH254695   4.372   8.588  12.236
10167TIP3    H154696   4.303   8.529  12.266
10167TIP3    H254697   4.389   8.561  12.146
10168TIP3   OH254698   3.996   7.908  12.795
10168TIP3    H154699   3.988   7.886  12.888
10168TIP3    H254700   4.009   7.824  12.752
10169TIP3   OH254701   3.072   8.478  12.489
10169TIP3    H154702   3.082   8.574  12.486
10169TIP3    H254703   3.030   8.461  12.573
10170TIP3   OH254704   2.443   7.910  11.917
10170TIP3    H154705   2.498   7.947  11.987
10170TIP3    H254706   2.363   7.884  11.961
10171TIP3   OH254707   3.143   8.279  12.307
10171TIP3    H154708   3.124   8.346  12.373
10171TIP3    H254709   3.096   8.202  12.337
10172TIP3   OH254710   3.083   8.761  12.504
10172TIP3    H154711   3.003   8.787  12.551
10172TIP3    H254712   3.145   8.831  12.522
10173TIP3   OH254713   4.022   8.369  12.035
10173TIP3    H154714   4.058   8.317  12.107
10173TIP3    H254715   3.931   8.341  12.029
10174TIP3   OH254716   4.529   8.960  12.089
10174TIP3    H154717   4.535   9.037  12.033
10174TIP3    H254718   4.440   8.962  12.125
10175TIP3   OH254719   4.134   8.203  12.234
10175TIP3    H154720   4.075   8.130  12.255
10175TIP3    H254721   4.221   8.166  12.245
10176TIP3   OH254722   3.242   8.500  11.836
10176TIP3    H154723   3.204   8.419  11.802
10176TIP3    H254724   3.226   8.496  11.930
10177TIP3   OH254725   3.190   8.470  12.105
10177TIP3    H154726   3.172   8.399  12.166
10177TIP3    H254727   3.193   8.549  12.160
10178TIP3   OH254728   2.592   8.053  12.114
10178TIP3    H154729   2.530   8.086  12.178
10178TIP3    H254730   2.635   8.131  12.079
10179TIP3   OH254731   3.759   7.201  12.369
10179TIP3    H154732   3.787   7.252  12.292
10179TIP3    H254733   3.811   7.236  12.441
10180TIP3   OH254734   3.471   8.570  12.256
10180TIP3    H154735   3.382   8.603  12.265
10180TIP3    H254736   3.512   8.628  12.192
10181TIP3   OH254737   3.368   7.401  12.341
10181TIP3    H154738   3.425   7.477  12.336
10181TIP3    H254739   3.353   7.387  12.434
10182TIP3   OH254740   3.555   7.022  12.417
10182TIP3    H154741   3.523   7.043  12.505
10182TIP3    H254742   3.630   7.081  12.404
10183TIP3   OH254743   3.223   8.694  12.269
10183TIP3    H154744   3.255   8.779  12.239
10183TIP3    H254745   3.169   8.715  12.345
10184TIP3   OH254746   3.114   7.145  12.183
10184TIP3    H154747   3.092   7.233  12.212
10184TIP3    H254748   3.208   7.136  12.200
10185TIP3   OH254749   4.029   7.650  12.701
10185TIP3    H154750   3.943   7.608  12.700
10185TIP3    H254751   4.078   7.604  12.770
10186TIP3   OH254752   2.724   8.289  12.040
10186TIP3    H154753   2.774   8.337  12.105
10186TIP3    H254754   2.790   8.255  11.979
10187TIP3   OH254755   2.500   7.528  11.875
10187TIP3    H154756   2.507   7.580  11.954
10187TIP3    H254757   2.417   7.481  11.883
10188TIP3   OH254758   2.383   8.438  12.422
10188TIP3    H154759   2.386   8.457  12.516
10188TIP3    H254760   2.390   8.524  12.380
10189TIP3   OH254761   3.496   8.621  11.809
10189TIP3    H154762   3.415   8.571  11.818
10189TIP3    H254763   3.566   8.555  11.806
10190TIP3   OH254764   3.956   8.608  11.897
10190TIP3    H154765   3.992   8.535  11.947
10190TIP3    H254766   4.024   8.630  11.833
10191TIP3   OH254767   2.921   8.173  11.884
10191TIP3    H154768   2.971   8.109  11.935
10191TIP3    H254769   2.988   8.220  11.833
10192TIP3   OH254770   3.754   8.285  12.011
10192TIP3    H154771   3.681   8.290  12.073
10192TIP3    H254772   3.756   8.194  11.982
10193TIP3   OH254773   3.068   7.983  12.028
10193TIP3    H154774   2.996   7.962  12.086
10193TIP3    H254775   3.101   7.898  11.998
10194TIP3   OH254776   3.188   7.744  11.938
10194TIP3    H154777   3.218   7.757  11.848
10194TIP3    H254778   3.268   7.735  11.989
10195TIP3   OH254779   4.259   8.026  11.909
10195TIP3    H154780   4.297   8.007  11.823
10195TIP3    H254781   4.261   8.121  11.916
10196TIP3   OH254782   3.361   8.910  12.160
10196TIP3    H154783   3.426   8.855  12.117
10196TIP3    H254784   3.335   8.974  12.093
10197TIP3   OH254785   2.447   8.344  12.009
10197TIP3    H154786   2.541   8.350  12.024
10197TIP3    H254787   2.437   8.289  11.932
10198TIP3   OH254788   2.349   8.904  12.508
10198TIP3    H154789   2.255   8.883  12.506
10198TIP3    H254790   2.367   8.920  12.601
10199TIP3   OH254791   4.395   8.095  12.290
10199TIP3    H154792   4.473   8.151  12.283
10199TIP3    H254793   4.409   8.044  12.370
10200TIP3   OH254794   4.436   7.925  12.509
10200TIP3    H154795   4.365   7.860  12.517
10200TIP3    H254796   4.495   7.904  12.581
10201TIP3   OH254797   4.572   8.244  12.947
10201TIP3    H154798   4.489   8.215  12.908
10201TIP3    H254799   4.545   8.303  13.018
10202TIP3   OH254800   4.449   7.920  12.078
10202TIP3    H154801   4.378   7.945  12.019
10202TIP3    H254802   4.432   7.969  12.158
10203TIP3   OH254803   4.304   7.452  11.878
10203TIP3    H154804   4.284   7.486  11.791
10203TIP3    H254805   4.274   7.361  11.876
10204TIP3   OH254806   4.244   7.722  12.535
10204TIP3    H154807   4.234   7.647  12.476
10204TIP3    H254808   4.170   7.715  12.596
10205TIP3   OH254809   4.215   7.190  11.883
10205TIP3    H154810   4.266   7.134  11.942
10205TIP3    H254811   4.125   7.182  11.915
10206TIP3   OH254812   4.085   7.357  12.309
10206TIP3    H154813   4.120   7.267  12.312
10206TIP3    H254814   4.149   7.405  12.256
10207TIP3   OH254815   4.151   7.520  12.911
10207TIP3    H154816   4.244   7.524  12.934
10207TIP3    H254817   4.108   7.575  12.976
10208TIP3   OH254818   4.192   7.101  12.320
10208TIP3    H154819   4.273   7.084  12.367
10208TIP3    H254820   4.161   7.014  12.294
10209TIP3   OH254821   4.386   7.039  12.036
10209TIP3    H154822   4.445   7.018  11.963
10209TIP3    H254823   4.428   7.112  12.080
10210TIP3   OH254824   2.232   7.109  12.376
10210TIP3    H154825   2.138   7.095  12.363
10210TIP3    H254826   2.255   7.177  12.314
10211TIP3   OH254827   4.133   8.876  12.483
10211TIP3    H154828   4.228   8.864  12.473
10211TIP3    H254829   4.125   8.937  12.556
10212TIP3   OH254830   4.425   7.025  12.455
10212TIP3    H154831   4.428   6.931  12.471
10212TIP3    H254832   4.475   7.064  12.527
10213TIP3   OH254833   2.520   6.746  12.022
10213TIP3    H154834   2.551   6.835  12.005
10213TIP3    H254835   2.425   6.754  12.027
10214TIP3   OH254836   3.219   6.793  12.387
10214TIP3    H154837   3.255   6.784  12.299
10214TIP3    H254838   3.295   6.817  12.441
10215TIP3   OH254839   4.040   6.867  12.229
10215TIP3    H154840   3.975   6.937  12.238
10215TIP3    H254841   3.990   6.786  12.237
10216TIP3   OH254842   2.390   8.694  12.319
10216TIP3    H154843   2.334   8.718  12.244
10216TIP3    H254844   2.382   8.767  12.379
10217TIP3   OH254845   2.613   6.996  11.921
10217TIP3    H154846   2.680   6.967  11.860
10217TIP3    H254847   2.618   7.092  11.917
10218TIP3   OH254848   3.385   7.148  12.240
10218TIP3    H154849   3.436   7.098  12.304
10218TIP3    H254850   3.380   7.236  12.277
10219TIP3   OH254851   3.549   8.751  12.045
10219TIP3    H154852   3.638   8.785  12.033
10219TIP3    H254853   3.528   8.708  11.962
10220TIP3   OH254854   4.389   8.833  12.369
10220TIP3    H154855   4.380   8.750  12.323
10220TIP3    H254856   4.355   8.899  12.308
10221TIP3   OH254857   2.543   8.891  11.893
10221TIP3    H154858   2.526   8.963  11.953
10221TIP3    H254859   2.572   8.819  11.949
10222TIP3   OH254860   5.913   8.125  12.412
10222TIP3    H154861   5.893   8.217  12.396
10222TIP3    H254862   5.888   8.111  12.504
10223TIP3   OH254863   5.254   8.276  12.822
10223TIP3    H154864   5.185   8.212  12.806
10223TIP3    H254865   5.333   8.223  12.837
10224TIP3   OH254866   4.706   7.358  12.588
10224TIP3    H154867   4.666   7.369  12.502
10224TIP3    H254868   4.677   7.272  12.617
10225TIP3   OH254869   4.642   7.839  12.698
10225TIP3    H154870   4.638   7.751  12.736
10225TIP3    H254871   4.710   7.833  12.632
10226TIP3   OH254872   5.271   7.177  12.619
10226TIP3    H154873   5.276   7.272  12.609
10226TIP3    H254874   5.199   7.150  12.562
10227TIP3   OH254875   6.117   7.340  12.522
10227TIP3    H154876   6.166   7.359  12.603
10227TIP3    H254877   6.165   7.388  12.454
10228TIP3   OH254878   4.662   7.569  12.775
10228TIP3    H154879   4.673   7.521  12.857
10228TIP3    H254880   4.682   7.504  12.707
10229TIP3   OH254881   5.310   7.669  12.719
10229TIP3    H154882   5.398   7.652  12.753
10229TIP3    H254883   5.291   7.593  12.664
10230TIP3   OH254884   5.850   8.388  12.368
10230TIP3    H154885   5.811   8.382  12.281
10230TIP3    H254886   5.846   8.481  12.391
10231TIP3   OH254887   6.258   7.400  12.754
10231TIP3    H154888   6.348   7.373  12.773
10231TIP3    H254889   6.256   7.493  12.779
10232TIP3   OH254890   4.624   8.261  12.222
10232TIP3    H154891   4.621   8.284  12.129
10232TIP3    H254892   4.637   8.345  12.266
10233TIP3   OH254893   5.443   6.882  12.798
10233TIP3    H154894   5.478   6.891  12.887
10233TIP3    H254895   5.349   6.899  12.808
10234TIP3   OH254896   5.899   8.610  12.720
10234TIP3    H154897   5.916   8.517  12.704
10234TIP3    H254898   5.890   8.649  12.633
10235TIP3   OH254899   5.900   7.673  11.925
10235TIP3    H154900   5.862   7.641  12.007
10235TIP3    H254901   5.979   7.620  11.913
10236TIP3   OH254902   5.188   7.914  12.678
10236TIP3    H154903   5.247   7.953  12.613
10236TIP3    H254904   5.223   7.826  12.691
10237TIP3   OH254905   5.666   8.769  12.707
10237TIP3    H154906   5.733   8.710  12.742
10237TIP3    H254907   5.683   8.770  12.613
10238TIP3   OH254908   6.507   6.715  12.211
10238TIP3    H154909   6.414   6.735  12.200
10238TIP3    H254910   6.545   6.795  12.248
10239TIP3   OH254911   5.034   7.905  12.084
10239TIP3    H154912   4.967   7.970  12.106
10239TIP3    H254913   5.031   7.843  12.157
10240TIP3   OH254914   6.771   8.500  12.023
10240TIP3    H154915   6.767   8.594  12.008
10240TIP3    H254916   6.860   8.475  11.998
10241TIP3   OH254917   5.621   8.920  12.315
10241TIP3    H154918   5.692   8.864  12.346
10241TIP3    H254919   5.579   8.953  12.395
10242TIP3   OH254920   5.108   8.740  12.576
10242TIP3    H154921   5.139   8.665  12.627
10242TIP3    H254922   5.013   8.737  12.584
10243TIP3   OH254923   6.144   8.865  11.999
10243TIP3    H154924   6.170   8.781  11.961
10243TIP3    H254925   6.101   8.841  12.081
10244TIP3   OH254926   6.067   8.796  12.253
10244TIP3    H154927   5.990   8.770  12.303
10244TIP3    H254928   6.132   8.820  12.319
10245TIP3   OH254929   5.176   6.970  12.790
10245TIP3    H154930   5.113   6.921  12.738
10245TIP3    H254931   5.207   7.039  12.732
10246TIP3   OH254932   5.767   7.113  12.027
10246TIP3    H154933   5.706   7.148  12.092
10246TIP3    H254934   5.715   7.052  11.976
10247TIP3   OH254935   5.248   7.450  12.549
10247TIP3    H154936   5.154   7.432  12.549
10247TIP3    H254937   5.271   7.457  12.457
10248TIP3   OH254938   5.848   7.565  12.205
10248TIP3    H154939   5.890   7.624  12.267
10248TIP3    H254940   5.912   7.495  12.191
10249TIP3   OH254941   5.416   7.216  11.887
10249TIP3    H154942   5.391   7.205  11.979
10249TIP3    H254943   5.351   7.277  11.851
10250TIP3   OH254944   4.610   7.099  12.649
10250TIP3    H154945   4.606   7.121  12.742
10250TIP3    H254946   4.662   7.019  12.646
10251TIP3   OH254947   4.485   7.282  12.138
10251TIP3    H154948   4.533   7.337  12.077
10251TIP3    H254949   4.412   7.337  12.167
10252TIP3   OH254950   5.539   7.079  12.630
10252TIP3    H154951   5.456   7.125  12.616
10252TIP3    H254952   5.518   7.009  12.691
10253TIP3   OH254953   4.991   7.349  12.564
10253TIP3    H154954   4.899   7.365  12.585
10253TIP3    H254955   4.995   7.256  12.544
10254TIP3   OH254956   5.345   7.454  12.282
10254TIP3    H154957   5.440   7.454  12.294
10254TIP3    H254958   5.330   7.501  12.200
10255TIP3   OH254959   5.331   7.567  12.030
10255TIP3    H154960   5.307   7.511  11.956
10255TIP3    H254961   5.360   7.649  11.989
10256TIP3   OH254962   5.608   7.633  12.914
10256TIP3    H154963   5.603   7.727  12.895
10256TIP3    H254964   5.632   7.629  13.007
10257TIP3   OH254965   5.041   7.080  12.494
10257TIP3    H154966   5.018   6.997  12.534
10257TIP3    H254967   5.027   7.066  12.400
10258TIP3   OH254968   5.455   8.229  12.110
10258TIP3    H154969   5.404   8.153  12.080
10258TIP3    H254970   5.442   8.230  12.205
10259TIP3   OH254971   6.011   7.126  12.154
10259TIP3    H154972   5.925   7.115  12.112
10259TIP3    H254973   6.026   7.220  12.153
10260TIP3   OH254974   6.063   7.401  12.157
10260TIP3    H154975   6.134   7.423  12.216
10260TIP3    H254976   6.091   7.434  12.071
10261TIP3   OH254977   5.038   8.075  12.841
10261TIP3    H154978   5.066   8.018  12.769
10261TIP3    H254979   4.943   8.076  12.835
10262TIP3   OH254980   5.724   8.336  12.107
10262TIP3    H154981   5.703   8.429  12.117
10262TIP3    H254982   5.639   8.292  12.104
10263TIP3   OH254983   6.676   7.519  12.028
10263TIP3    H154984   6.588   7.511  11.990
10263TIP3    H254985   6.677   7.607  12.067
10264TIP3   OH254986   6.624   8.590  12.256
10264TIP3    H154987   6.612   8.509  12.306
10264TIP3    H254988   6.670   8.563  12.177
10265TIP3   OH254989   5.319   8.493  12.449
10265TIP3    H154990   5.333   8.585  12.425
10265TIP3    H254991   5.280   8.497  12.536
10266TIP3   OH254992   4.694   7.936  11.953
10266TIP3    H154993   4.740   7.984  12.022
10266TIP3    H254994   4.608   7.916  11.990
10267TIP3   OH254995   5.422   8.250  12.380
10267TIP3    H154996   5.379   8.333  12.398
10267TIP3    H254997   5.484   8.239  12.453
10268TIP3   OH254998   5.324   8.782  12.415
10268TIP3    H154999   5.249   8.772  12.473
10268TIP3    H255000   5.382   8.844  12.459
10269TIP3   OH255001   6.736   8.779  12.009
10269TIP3    H155002   6.756   8.832  11.931
10269TIP3    H255003   6.666   8.827  12.053
10270TIP3   OH255004   5.596   8.391  11.765
10270TIP3    H155005   5.532   8.324  11.739
10270TIP3    H255006   5.557   8.432  11.842
10271TIP3   OH255007   5.447   8.476  11.981
10271TIP3    H155008   5.440   8.394  12.030
10271TIP3    H255009   5.431   8.544  12.046
10272TIP3   OH255010   4.835   8.094  12.134
10272TIP3    H155011   4.767   8.133  12.188
10272TIP3    H255012   4.881   8.169  12.096
10273TIP3   OH255013   5.939   7.151  12.432
10273TIP3    H155014   5.971   7.131  12.345
10273TIP3    H255015   6.000   7.217  12.466
10274TIP3   OH255016   5.677   8.598  12.178
10274TIP3    H155017   5.586   8.624  12.191
10274TIP3    H255018   5.723   8.632  12.255
10275TIP3   OH255019   5.623   7.446  12.328
10275TIP3    H155020   5.689   7.486  12.272
10275TIP3    H255021   5.637   7.486  12.414
10276TIP3   OH255022   5.704   7.009  12.422
10276TIP3    H155023   5.651   7.033  12.498
10276TIP3    H255024   5.788   7.054  12.436
10277TIP3   OH255025   5.410   8.689  12.165
10277TIP3    H155026   5.440   8.770  12.125
10277TIP3    H255027   5.378   8.716  12.252
10278TIP3   OH255028   5.336   7.205  12.150
10278TIP3    H155029   5.316   7.285  12.199
10278TIP3    H255030   5.423   7.180  12.180
10279TIP3   OH255031   4.969   8.311  12.019
10279TIP3    H155032   5.020   8.367  12.077
10279TIP3    H255033   5.032   8.277  11.956
10280TIP3   OH255034   4.571   7.466  11.953
10280TIP3    H155035   4.617   7.540  11.914
10280TIP3    H255036   4.482   7.471  11.917
10281TIP3   OH255037   4.647   8.536  12.265
10281TIP3    H155038   4.555   8.560  12.271
10281TIP3    H255039   4.691   8.616  12.234
10282TIP3   OH255040   5.780   8.600  11.754
10282TIP3    H155041   5.722   8.525  11.758
10282TIP3    H255042   5.868   8.563  11.766
10283TIP3   OH255043   6.259   8.634  11.880
10283TIP3    H155044   6.323   8.605  11.945
10283TIP3    H255045   6.312   8.671  11.809
10284TIP3   OH255046   5.167   8.200  11.857
10284TIP3    H155047   5.208   8.136  11.915
10284TIP3    H255048   5.238   8.229  11.800
10285TIP3   OH255049   5.948   8.267  11.958
10285TIP3    H155050   5.872   8.291  12.010
10285TIP3    H255051   5.933   8.175  11.935
10286TIP3   OH255052   5.287   8.007  12.014
10286TIP3    H155053   5.205   7.968  12.045
10286TIP3    H255054   5.334   7.935  11.974
10287TIP3   OH255055   5.433   7.797  11.896
10287TIP3    H155056   5.440   7.785  11.801
10287TIP3    H255057   5.522   7.814  11.925
10288TIP3   OH255058   6.588   7.991  11.965
10288TIP3    H155059   6.601   7.957  11.876
10288TIP3    H255060   6.612   8.083  11.959
10289TIP3   OH255061   5.512   8.926  12.068
10289TIP3    H155062   5.557   8.940  12.152
10289TIP3    H255063   5.579   8.890  12.011
10290TIP3   OH255064   4.693   8.355  11.962
10290TIP3    H155065   4.784   8.364  11.989
10290TIP3    H255066   4.694   8.286  11.895
10291TIP3   OH255067   4.650   8.856  12.456
10291TIP3    H155068   4.558   8.849  12.429
10291TIP3    H255069   4.653   8.810  12.540
10292TIP3   OH255070   4.618   8.746  12.709
10292TIP3    H155071   4.641   8.672  12.766
10292TIP3    H255072   4.529   8.770  12.736
10293TIP3   OH255073   6.689   7.791  12.126
10293TIP3    H155074   6.646   7.859  12.074
10293TIP3    H255075   6.653   7.803  12.214
10294TIP3   OH255076   6.416   7.472  11.912
10294TIP3    H155077   6.425   7.492  11.819
10294TIP3    H255078   6.411   7.376  11.915
10295TIP3   OH255079   4.764   8.059  12.840
10295TIP3    H155080   4.708   7.992  12.801
10295TIP3    H255081   4.703   8.122  12.879
10296TIP3   OH255082   6.392   7.198  11.902
10296TIP3    H155083   6.456   7.141  11.945
10296TIP3    H255084   6.310   7.148  11.904
10297TIP3   OH255085   6.265   7.479  12.326
10297TIP3    H155086   6.354   7.460  12.294
10297TIP3    H255087   6.277   7.554  12.385
10298TIP3   OH255088   6.587   6.935  12.369
10298TIP3    H155089   6.618   6.888  12.447
10298TIP3    H255090   6.501   6.968  12.393
10299TIP3   OH255091   4.425   7.520  12.939
10299TIP3    H155092   4.497   7.470  12.979
10299TIP3    H255093   4.466   7.569  12.868
10300TIP3   OH255094   6.607   7.055  11.991
10300TIP3    H155095   6.649   6.991  11.933
10300TIP3    H255096   6.677   7.115  12.017
10301TIP3   OH255097   4.619   7.076  12.260
10301TIP3    H155098   4.556   7.052  12.327
10301TIP3    H255099   4.584   7.156  12.222
10302TIP3   OH255100   6.290   8.896  12.404
10302TIP3    H155101   6.382   8.871  12.397
10302TIP3    H255102   6.279   8.927  12.494
10303TIP3   OH255103   5.223   8.526  12.707
10303TIP3    H155104   5.230   8.442  12.752
10303TIP3    H255105   5.290   8.581  12.748
10304TIP3   OH255106   5.404   8.714  12.787
10304TIP3    H155107   5.494   8.724  12.755
10304TIP3    H255108   5.374   8.803  12.804
10305TIP3   OH255109   6.700   6.805  12.585
10305TIP3    H155110   6.738   6.724  12.551
10305TIP3    H255111   6.774   6.864  12.597
10306TIP3   OH255112   4.990   6.833  12.611
10306TIP3    H155113   4.898   6.808  12.615
10306TIP3    H255114   5.036   6.753  12.585
10307TIP3   OH255115   4.736   6.903  12.083
10307TIP3    H155116   4.778   6.960  12.018
10307TIP3    H255117   4.702   6.964  12.149
10308TIP3   OH255118   5.463   6.719  12.561
10308TIP3    H155119   5.530   6.768  12.514
10308TIP3    H255120   5.455   6.763  12.646
10309TIP3   OH255121   6.241   6.802  12.216
10309TIP3    H155122   6.196   6.886  12.209
10309TIP3    H255123   6.171   6.738  12.229
10310TIP3   OH255124   4.729   8.804  12.188
10310TIP3    H155125   4.657   8.855  12.149
10310TIP3    H255126   4.722   8.821  12.282
10311TIP3   OH255127   4.901   7.057  11.905
10311TIP3    H155128   4.951   6.983  11.869
10311TIP3    H255129   4.966   7.109  11.953
10312TIP3   OH255130   5.597   7.184  12.234
10312TIP3    H155131   5.630   7.121  12.298
10312TIP3    H255132   5.611   7.269  12.276
10313TIP3   OH255133   5.708   8.769  11.960
10313TIP3    H155134   5.714   8.712  12.037
10313TIP3    H255135   5.740   8.715  11.888
10314TIP3   OH255136   6.562   8.842  12.358
10314TIP3    H155137   6.584   8.752  12.334
10314TIP3    H255138   6.567   8.891  12.276
10315TIP3   OH255139   4.818   8.824  11.909
10315TIP3    H155140   4.790   8.810  11.999
10315TIP3    H255141   4.904   8.784  11.904
10316TIP3   OH255142   8.263   7.934  12.524
10316TIP3    H155143   8.220   7.966  12.604
10316TIP3    H255144   8.195   7.941  12.457
10317TIP3   OH255145   8.132   8.014  12.755
10317TIP3    H155146   8.063   8.080  12.754
10317TIP3    H255147   8.101   7.947  12.816
10318TIP3   OH255148   7.111   7.672  12.767
10318TIP3    H155149   7.138   7.581  12.754
10318TIP3    H255150   7.021   7.675  12.735
10319TIP3   OH255151   7.417   7.289  12.742
10319TIP3    H155152   7.456   7.332  12.666
10319TIP3    H255153   7.394   7.201  12.711
10320TIP3   OH255154   8.511   7.332  12.443
10320TIP3    H155155   8.562   7.300  12.517
10320TIP3    H255156   8.573   7.383  12.390
10321TIP3   OH255157   7.171   7.407  12.716
10321TIP3    H155158   7.259   7.380  12.744
10321TIP3    H255159   7.163   7.373  12.627
10322TIP3   OH255160   8.638   7.269  12.675
10322TIP3    H155161   8.636   7.175  12.692
10322TIP3    H255162   8.682   7.307  12.751
10323TIP3   OH255163   7.006   8.212  12.195
10323TIP3    H155164   6.989   8.266  12.118
10323TIP3    H255165   6.952   8.249  12.264
10324TIP3   OH255166   8.078   7.937  12.313
10324TIP3    H155167   8.008   8.001  12.302
10324TIP3    H255168   8.122   7.935  12.228
10325TIP3   OH255169   8.071   7.786  11.909
10325TIP3    H155170   8.125   7.812  11.983
10325TIP3    H255171   8.111   7.706  11.877
10326TIP3   OH255172   8.428   7.898  12.302
10326TIP3    H155173   8.387   7.909  12.388
10326TIP3    H255174   8.443   7.804  12.293
10327TIP3   OH255175   7.627   8.562  12.756
10327TIP3    H155176   7.718   8.579  12.781
10327TIP3    H255177   7.591   8.512  12.829
10328TIP3   OH255178   8.244   7.896  12.096
10328TIP3    H155179   8.310   7.888  12.166
10328TIP3    H255180   8.288   7.945  12.027
10329TIP3   OH255181   8.821   6.752  12.183
10329TIP3    H155182   8.736   6.764  12.226
10329TIP3    H255183   8.845   6.839  12.153
10330TIP3   OH255184   7.434   7.886  12.092
10330TIP3    H155185   7.338   7.890  12.093
10330TIP3    H255186   7.454   7.795  12.070
10331TIP3   OH255187   8.840   8.637  12.031
10331TIP3    H155188   8.834   8.732  12.018
10331TIP3    H255189   8.919   8.625  12.083
10332TIP3   OH255190   7.004   8.639  12.829
10332TIP3    H155191   7.092   8.672  12.814
10332TIP3    H255192   6.981   8.671  12.917
10333TIP3   OH255193   7.124   8.902  12.601
10333TIP3    H155194   7.175   8.872  12.676
10333TIP3    H255195   7.159   8.854  12.527
10334TIP3   OH255196   8.411   8.869  11.985
10334TIP3    H155197   8.415   8.773  11.977
10334TIP3    H255198   8.430   8.887  12.077
10335TIP3   OH255199   8.400   8.034  11.922
10335TIP3    H155200   8.449   8.024  11.840
10335TIP3    H255201   8.464   8.067  11.985
10336TIP3   OH255202   8.039   7.186  11.958
10336TIP3    H155203   7.999   7.210  12.042
10336TIP3    H255204   7.988   7.109  11.930
10337TIP3   OH255205   7.463   7.392  12.490
10337TIP3    H155206   7.376   7.364  12.461
10337TIP3    H255207   7.505   7.426  12.411
10338TIP3   OH255208   8.175   7.665  12.366
10338TIP3    H155209   8.139   7.750  12.340
10338TIP3    H255210   8.253   7.654  12.311
10339TIP3   OH255211   8.330   7.441  12.621
10339TIP3    H155212   8.391   7.408  12.555
10339TIP3    H255213   8.362   7.403  12.703
10340TIP3   OH255214   7.682   7.226  11.892
10340TIP3    H155215   7.679   7.226  11.987
10340TIP3    H255216   7.623   7.296  11.866
10341TIP3   OH255217   6.915   6.984  12.540
10341TIP3    H155218   6.902   7.069  12.581
10341TIP3    H255219   6.895   6.998  12.448
10342TIP3   OH255220   6.787   7.259  12.077
10342TIP3    H155221   6.871   7.279  12.036
10342TIP3    H255222   6.738   7.340  12.072
10343TIP3   OH255223   7.953   7.108  12.587
10343TIP3    H155224   7.868   7.078  12.556
10343TIP3    H255225   7.950   7.096  12.682
10344TIP3   OH255226   7.208   7.260  12.478
10344TIP3    H155227   7.158   7.221  12.406
10344TIP3    H255228   7.249   7.185  12.522
10345TIP3   OH255229   7.599   7.505  12.267
10345TIP3    H155230   7.656   7.568  12.311
10345TIP3    H255231   7.581   7.544  12.182
10346TIP3   OH255232   7.582   7.638  12.021
10346TIP3    H155233   7.571   7.573  11.951
10346TIP3    H255234   7.653   7.694  11.991
10347TIP3   OH255235   8.033   7.607  12.730
10347TIP3    H155236   8.025   7.559  12.813
10347TIP3    H255237   8.026   7.699  12.755
10348TIP3   OH255238   7.327   7.051  12.618
10348TIP3    H155239   7.259   6.987  12.640
10348TIP3    H255240   7.406   6.999  12.604
10349TIP3   OH255241   7.882   8.134  12.239
10349TIP3    H155242   7.822   8.085  12.183
10349TIP3    H255243   7.833   8.212  12.265
10350TIP3   OH255244   8.304   7.224  12.055
10350TIP3    H155245   8.219   7.220  12.011
10350TIP3    H255246   8.345   7.303  12.021
10351TIP3   OH255247   8.427   7.626  12.239
10351TIP3    H155248   8.506   7.585  12.273
10351TIP3    H255249   8.420   7.596  12.149
10352TIP3   OH255250   8.080   8.333  12.136
10352TIP3    H155251   8.105   8.401  12.199
10352TIP3    H255252   8.029   8.270  12.188
10353TIP3   OH255253   8.896   7.643  12.175
10353TIP3    H155254   8.863   7.576  12.115
10353TIP3    H255255   8.899   7.723  12.123
10354TIP3   OH255256   8.654   8.667  12.285
10354TIP3    H155257   8.560   8.650  12.297
10354TIP3    H255258   8.674   8.632  12.198
10355TIP3   OH255259   7.584   8.485  12.486
10355TIP3    H155260   7.610   8.507  12.575
10355TIP3    H255261   7.496   8.522  12.477
10356TIP3   OH255262   6.935   7.861  11.954
10356TIP3    H155263   7.008   7.900  12.002
10356TIP3    H255264   6.865   7.852  12.019
10357TIP3   OH255265   7.721   8.362  12.273
10357TIP3    H155266   7.675   8.399  12.349
10357TIP3    H255267   7.652   8.342  12.210
10358TIP3   OH255268   8.531   8.388  12.097
10358TIP3    H155269   8.527   8.295  12.119
10358TIP3    H255270   8.476   8.430  12.162
10359TIP3   OH255271   8.885   8.921  12.072
10359TIP3    H155272   8.942   8.893  12.143
10359TIP3    H255273   8.812   8.965  12.115
10360TIP3   OH255274   8.561   8.098  12.156
10360TIP3    H155275   8.507   8.038  12.207
10360TIP3    H255276   8.651   8.075  12.179
10361TIP3   OH255277   7.822   8.606  11.905
10361TIP3    H155278   7.784   8.520  11.887
10361TIP3    H255279   7.846   8.602  11.998
10362TIP3   OH255280   7.885   8.574  12.180
10362TIP3    H155281   7.839   8.496  12.212
10362TIP3    H255282   7.972   8.570  12.220
10363TIP3   OH255283   7.146   8.007  12.073
10363TIP3    H155284   7.093   8.058  12.133
10363TIP3    H255285   7.207   8.069  12.035
10364TIP3   OH255286   8.287   7.205  12.332
10364TIP3    H155287   8.297   7.206  12.237
10364TIP3    H255288   8.370   7.240  12.366
10365TIP3   OH255289   8.074   7.321  12.461
10365TIP3    H155290   8.149   7.278  12.420
10365TIP3    H255291   8.032   7.252  12.512
10366TIP3   OH255292   8.090   7.012  12.364
10366TIP3    H155293   8.058   7.029  12.452
10366TIP3    H255294   8.171   7.062  12.357
10367TIP3   OH255295   7.674   7.253  12.162
10367TIP3    H155296   7.650   7.333  12.209
10367TIP3    H255297   7.764   7.236  12.190
10368TIP3   OH255298   7.282   8.251  12.016
10368TIP3    H155299   7.265   8.280  12.106
10368TIP3    H255300   7.377   8.256  12.007
10369TIP3   OH255301   6.921   7.575  11.895
10369TIP3    H155302   6.928   7.664  11.928
10369TIP3    H255303   6.834   7.545  11.923
10370TIP3   OH255304   7.248   6.864  12.924
10370TIP3    H155305   7.200   6.863  12.841
10370TIP3    H255306   7.320   6.803  12.911
10371TIP3   OH255307   7.088   8.740  12.369
10371TIP3    H155308   7.009   8.715  12.418
10371TIP3    H255309   7.054   8.783  12.291
10372TIP3   OH255310   7.998   8.609  11.683
10372TIP3    H155311   7.943   8.614  11.761
10372TIP3    H255312   8.080   8.569  11.714
10373TIP3   OH255313   8.450   8.595  11.912
10373TIP3    H155314   8.492   8.526  11.963
10373TIP3    H255315   8.517   8.624  11.850
10374TIP3   OH255316   7.565   8.263  12.045
10374TIP3    H155317   7.603   8.176  12.057
10374TIP3    H255318   7.616   8.303  11.975
10375TIP3   OH255319   8.079   8.303  11.862
10375TIP3    H155320   8.076   8.317  11.957
10375TIP3    H255321   8.099   8.209  11.853
10376TIP3   OH255322   7.681   8.010  12.078
10376TIP3    H155323   7.595   7.971  12.094
10376TIP3    H255324   7.725   7.947  12.020
10377TIP3   OH255325   7.787   7.804  11.917
10377TIP3    H155326   7.766   7.796  11.824
10377TIP3    H255327   7.883   7.798  11.921
10378TIP3   OH255328   8.894   8.130  11.904
10378TIP3    H155329   8.844   8.096  11.830
10378TIP3    H255330   8.855   8.215  11.923
10379TIP3   OH255331   7.016   8.343  11.946
10379TIP3    H155332   7.110   8.325  11.954
10379TIP3    H255333   6.983   8.272  11.891
10380TIP3   OH255334   6.758   8.962  12.528
10380TIP3    H155335   6.681   8.943  12.475
10380TIP3    H255336   6.797   8.876  12.547
10381TIP3   OH255337   6.904   8.737  12.592
10381TIP3    H155338   6.916   8.680  12.668
10381TIP3    H255339   6.976   8.800  12.598
10382TIP3   OH255340   8.808   7.997  12.293
10382TIP3    H155341   8.854   8.073  12.328
10382TIP3    H255342   8.820   7.929  12.359
10383TIP3   OH255343   8.877   7.821  12.509
10383TIP3    H155344   8.822   7.745  12.526
10383TIP3    H255345   8.919   7.840  12.592
10384TIP3   OH255346   8.897   7.891  12.052
10384TIP3    H155347   8.906   7.968  11.995
10384TIP3    H255348   8.862   7.926  12.134
10385TIP3   OH255349   8.758   7.445  12.038
10385TIP3    H155350   8.672   7.478  12.013
10385TIP3    H255351   8.770   7.366  11.986
10386TIP3   OH255352   8.735   7.593  12.571
10386TIP3    H155353   8.708   7.549  12.491
10386TIP3    H255354   8.738   7.523  12.637
10387TIP3   OH255355   7.062   8.063  13.012
10387TIP3    H155356   6.994   8.130  13.016
10387TIP3    H255357   7.120   8.083  13.085
10388TIP3   OH255358   8.651   7.240  11.869
10388TIP3    H155359   8.581   7.290  11.909
10388TIP3    H255360   8.646   7.261  11.776
10389TIP3   OH255361   8.684   7.505  12.304
10389TIP3    H155362   8.690   7.454  12.223
10389TIP3    H255363   8.753   7.571  12.295
10390TIP3   OH255364   8.783   7.363  12.885
10390TIP3    H155365   8.838   7.438  12.906
10390TIP3    H255366   8.803   7.298  12.952
10391TIP3   OH255367   8.781   6.965  12.480
10391TIP3    H155368   8.728   6.982  12.558
10391TIP3    H255369   8.723   6.915  12.422
10392TIP3   OH255370   8.836   7.017  12.092
10392TIP3    H155371   8.856   7.021  11.998
10392TIP3    H255372   8.752   7.062  12.100
10393TIP3   OH255373   6.823   7.058  12.281
10393TIP3    H155374   6.737   7.019  12.296
10393TIP3    H255375   6.806   7.130  12.219
10394TIP3   OH255376   7.494   8.820  12.755
10394TIP3    H155377   7.529   8.731  12.755
10394TIP3    H255378   7.403   8.810  12.784
10395TIP3   OH255379   8.662   6.997  12.726
10395TIP3    H155380   8.601   6.924  12.730
10395TIP3    H255381   8.715   6.989  12.805
10396TIP3   OH255382   7.140   6.853  12.666
10396TIP3    H155383   7.059   6.876  12.621
10396TIP3    H255384   7.148   6.759  12.654
10397TIP3   OH255385   7.001   6.873  12.169
10397TIP3    H155386   7.063   6.923  12.115
10397TIP3    H255387   6.942   6.938  12.206
10398TIP3   OH255388   7.836   6.676  12.607
10398TIP3    H155389   7.929   6.678  12.582
10398TIP3    H255390   7.833   6.717  12.693
10399TIP3   OH255391   8.494   6.781  12.709
10399TIP3    H155392   8.413   6.799  12.661
10399TIP3    H255393   8.469   6.719  12.777
10400TIP3   OH255394   8.590   6.793  12.326
10400TIP3    H155395   8.511   6.771  12.277
10400TIP3    H255396   8.595   6.727  12.395
10401TIP3   OH255397   6.961   8.865  12.154
10401TIP3    H155398   6.883   8.825  12.117
10401TIP3    H255399   6.941   8.959  12.156
10402TIP3   OH255400   7.184   7.015  12.012
10402TIP3    H155401   7.208   6.955  11.941
10402TIP3    H255402   7.265   7.060  12.034
10403TIP3   OH255403   7.942   7.211  12.227
10403TIP3    H155404   7.977   7.126  12.252
10403TIP3    H255405   7.979   7.273  12.291
10404TIP3   OH255406   8.877   8.838  12.348
10404TIP3    H155407   8.812   8.768  12.345
10404TIP3    H255408   8.826   8.918  12.335
10405TIP3   OH255409   7.062   8.993  11.915
10405TIP3    H155410   7.006   9.059  11.956
10405TIP3    H255411   7.070   8.924  11.981
10406TIP3   OH255412   9.086   7.679  12.375
10406TIP3    H155413   9.026   7.737  12.422
10406TIP3    H255414   9.037   7.651  12.297
10407TIP3   OH255415   9.131   8.889  12.478
10407TIP3    H155416   9.049   8.870  12.433
10407TIP3    H255417   9.110   8.883  12.571
10408TIP3   OH255418   9.072   8.860  12.748
10408TIP3    H155419   9.111   8.782  12.787
10408TIP3    H255420   9.050   8.916  12.822
10409TIP3   OH255421   9.190   7.701  12.908
10409TIP3    H155422   0.024   7.706  12.827
10409TIP3    H255423   0.020   7.757  12.970
10410TIP3   OH255424   8.963   7.554  12.963
10410TIP3    H155425   9.038   7.609  12.937
10410TIP3    H255426   8.992   7.512  13.044
10411TIP3   OH255427   8.988   7.068  12.323
10411TIP3    H155428   8.919   7.033  12.380
10411TIP3    H255429   8.953   7.057  12.234
10412TIP3   OH255430   2.015   8.922  12.163
10412TIP3    H155431   1.930   8.949  12.198
10412TIP3    H255432   2.027   8.976  12.085
10413TIP3   OH255433   0.350   9.060  12.507
10413TIP3    H155434   0.318   9.147  12.484
10413TIP3    H255435   0.385   9.070  12.596
10414TIP3   OH255436   1.912   8.866  12.802
10414TIP3    H155437   1.897   8.812  12.880
10414TIP3    H255438   2.004   8.892  12.808
10415TIP3   OH255439   0.528   8.951  12.320
10415TIP3    H155440   0.468   8.985  12.386
10415TIP3    H255441   0.615   8.975  12.353
10416TIP3   OH255442   0.357   8.972  12.102
10416TIP3    H155443   0.297   9.040  12.133
10416TIP3    H255444   0.427   8.970  12.166
10417TIP3   OH255445   1.776   9.001  12.288
10417TIP3    H155446   1.701   8.944  12.272
10417TIP3    H255447   1.802   8.981  12.378
10418TIP3   OH255448   3.381   8.839  12.761
10418TIP3    H155449   3.402   8.914  12.817
10418TIP3    H255450   3.341   8.878  12.683
10419TIP3   OH255451   4.282   9.029  12.200
10419TIP3    H155452   4.188   9.021  12.215
10419TIP3    H255453   4.296   9.122  12.180
10420TIP3   OH255454   4.100   9.074  12.668
10420TIP3    H155455   4.162   9.132  12.712
10420TIP3    H255456   4.014   9.109  12.690
10421TIP3   OH255457   2.501   9.074  12.355
10421TIP3    H155458   2.439   9.020  12.404
10421TIP3    H255459   2.586   9.052  12.393
10422TIP3   OH255460   2.491   9.083  12.076
10422TIP3    H155461   2.482   9.176  12.056
10422TIP3    H255462   2.491   9.079  12.172
10423TIP3   OH255463   3.299   8.946  12.518
10423TIP3    H155464   3.309   9.040  12.506
10423TIP3    H255465   3.376   8.908  12.476
10424TIP3   OH255466   3.934   0.102  12.744
10424TIP3    H155467   3.854   0.126  12.698
10424TIP3    H255468   3.922   0.134  12.833
10425TIP3   OH255469   4.015   9.032  12.286
10425TIP3    H155470   3.932   8.987  12.268
10425TIP3    H255471   4.051   8.986  12.362
10426TIP3   OH255472   5.577   9.017  12.794
10426TIP3    H155473   5.616   8.931  12.778
10426TIP3    H255474   5.493   8.998  12.835
10427TIP3   OH255475   6.561   8.970  12.113
10427TIP3    H155476   6.467   8.987  12.114
10427TIP3    H255477   6.602   9.056  12.110
10428TIP3   OH255478   5.319   8.966  12.885
10428TIP3    H155479   5.261   9.039  12.865
10428TIP3    H255480   5.275   8.918  12.956
10429TIP3   OH255481   4.843   9.160  12.770
10429TIP3    H155482   4.809   9.157  12.680
10429TIP3    H255483   4.825   9.073  12.805
10430TIP3   OH255484   4.726   9.114  12.523
10430TIP3    H155485   4.709   9.022  12.501
10430TIP3    H255486   4.662   9.163  12.473
10431TIP3   OH255487   4.477   9.196  11.955
10431TIP3    H155488   4.517   0.058  11.918
10431TIP3    H255489   4.409   0.013  12.014
10432TIP3   OH255490   5.467   9.000  12.534
10432TIP3    H155491   5.436   9.090  12.528
10432TIP3    H255492   5.516   8.996  12.616
10433TIP3   OH255493   6.297   9.039  12.162
10433TIP3    H155494   6.238   8.995  12.101
10433TIP3    H255495   6.279   8.997  12.247
10434TIP3   OH255496   7.587   9.082  12.729
10434TIP3    H155497   7.561   8.990  12.740
10434TIP3    H255498   7.515   9.132  12.767
10435TIP3   OH255499   8.711   9.044  12.248
10435TIP3    H155500   8.620   9.014  12.249
10435TIP3    H255501   8.706   9.136  12.274
10436TIP3   OH255502   7.371   9.214  12.842
10436TIP3    H155503   7.296   0.043  12.802
10436TIP3    H255504   7.331   9.143  12.893
10437TIP3   OH255505   6.978   9.134  12.567
10437TIP3    H155506   6.894   9.097  12.541
10437TIP3    H255507   7.037   9.058  12.572
10438TIP3   OH255508   6.897   9.132  12.095
10438TIP3    H155509   6.948   9.213  12.103
10438TIP3    H255510   6.807   9.158  12.113
10439TIP3   OH255511   8.439   8.974  12.246
10439TIP3    H155512   8.412   9.065  12.257
10439TIP3    H255513   8.373   8.923  12.293
   9.21659   9.21659  30.00000
